 Entering Gaussian System, Link 0=g16
 Input=/home/gaussian/Documents/program files/Aromaticity/AM1 HF3-21G*/cycloheptatrienyl_anion/sp/cycloheptatrienyl_anion_isomer_sp.com
 Output=/home/gaussian/Documents/program files/Aromaticity/AM1 HF3-21G*/cycloheptatrienyl_anion/sp/cycloheptatrienyl_anion_isomer_sp.log
 Initial command:
 /usr/local/g16/l1.exe "/home/gaussian/tmp/Gau-143762.inp" -scrdir="/home/gaussian/tmp/"
 Entering Link 1 = /usr/local/g16/l1.exe PID=    143765.
  
 Copyright (c) 1988-2017, Gaussian, Inc.  All Rights Reserved.
  
 This is part of the Gaussian(R) 16 program.  It is based on
 the Gaussian(R) 09 system (copyright 2009, Gaussian, Inc.),
 the Gaussian(R) 03 system (copyright 2003, Gaussian, Inc.),
 the Gaussian(R) 98 system (copyright 1998, Gaussian, Inc.),
 the Gaussian(R) 94 system (copyright 1995, Gaussian, Inc.),
 the Gaussian 92(TM) system (copyright 1992, Gaussian, Inc.),
 the Gaussian 90(TM) system (copyright 1990, Gaussian, Inc.),
 the Gaussian 88(TM) system (copyright 1988, Gaussian, Inc.),
 the Gaussian 86(TM) system (copyright 1986, Carnegie Mellon
 University), and the Gaussian 82(TM) system (copyright 1983,
 Carnegie Mellon University). Gaussian is a federally registered
 trademark of Gaussian, Inc.
  
 This software contains proprietary and confidential information,
 including trade secrets, belonging to Gaussian, Inc.
  
 This software is provided under written license and may be
 used, copied, transmitted, or stored only in accord with that
 written license.
  
 The following legend is applicable only to US Government
 contracts under FAR:
  
                    RESTRICTED RIGHTS LEGEND
  
 Use, reproduction and disclosure by the US Government is
 subject to restrictions as set forth in subparagraphs (a)
 and (c) of the Commercial Computer Software - Restricted
 Rights clause in FAR 52.227-19.
  
 Gaussian, Inc.
 340 Quinnipiac St., Bldg. 40, Wallingford CT 06492
  
  
 ---------------------------------------------------------------
 Warning -- This program may not be used in any manner that
 competes with the business of Gaussian, Inc. or will provide
 assistance to any competitor of Gaussian, Inc.  The licensee
 of this program is prohibited from giving any competitor of
 Gaussian, Inc. access to this program.  By using this program,
 the user acknowledges that Gaussian, Inc. is engaged in the
 business of creating and licensing software in the field of
 computational chemistry and represents and warrants to the
 licensee that it is not a competitor of Gaussian, Inc. and that
 it will not use this program in any manner prohibited above.
 ---------------------------------------------------------------
  

 Cite this work as:
 Gaussian 16, Revision B.01,
 M. J. Frisch, G. W. Trucks, H. B. Schlegel, G. E. Scuseria, 
 M. A. Robb, J. R. Cheeseman, G. Scalmani, V. Barone, 
 G. A. Petersson, H. Nakatsuji, X. Li, M. Caricato, A. V. Marenich, 
 J. Bloino, B. G. Janesko, R. Gomperts, B. Mennucci, H. P. Hratchian, 
 J. V. Ortiz, A. F. Izmaylov, J. L. Sonnenberg, D. Williams-Young, 
 F. Ding, F. Lipparini, F. Egidi, J. Goings, B. Peng, A. Petrone, 
 T. Henderson, D. Ranasinghe, V. G. Zakrzewski, J. Gao, N. Rega, 
 G. Zheng, W. Liang, M. Hada, M. Ehara, K. Toyota, R. Fukuda, 
 J. Hasegawa, M. Ishida, T. Nakajima, Y. Honda, O. Kitao, H. Nakai, 
 T. Vreven, K. Throssell, J. A. Montgomery, Jr., J. E. Peralta, 
 F. Ogliaro, M. J. Bearpark, J. J. Heyd, E. N. Brothers, K. N. Kudin, 
 V. N. Staroverov, T. A. Keith, R. Kobayashi, J. Normand, 
 K. Raghavachari, A. P. Rendell, J. C. Burant, S. S. Iyengar, 
 J. Tomasi, M. Cossi, J. M. Millam, M. Klene, C. Adamo, R. Cammi, 
 J. W. Ochterski, R. L. Martin, K. Morokuma, O. Farkas, 
 J. B. Foresman, and D. J. Fox, Gaussian, Inc., Wallingford CT, 2016.
 
 ******************************************
 Gaussian 16:  EM64L-G16RevB.01 20-Dec-2017
                12-Jun-2025 
 ******************************************
 %chk=cycloheptatrienyl_anion_isomer_sp.chk
 --------------------------------------
 # hf/3-21g* pop=full geom=connectivity
 --------------------------------------
 1/38=1,57=2,172=1/1;
 2/12=2,17=6,18=5,40=1/2;
 3/5=5,7=1,11=9,25=1,30=1/1,2,3;
 4//1;
 5/5=2,38=5/2;
 6/7=3,28=1/1;
 99/5=1,9=1/99;
 ------------
 Optimisation
 ------------
 Symbolic Z-matrix:
 Charge = -1 Multiplicity = 1
 C                    -0.50274   1.3481    0.11358 
 C                     0.86244   1.50679   0.12773 
 C                     1.87516   0.58153  -0.06781 
 C                    -1.22983   0.1215    0.04798 
 C                     1.71047  -0.79288  -0.32678 
 C                    -0.58647  -1.10635   0.62492 
 C                     0.61362  -1.55521  -0.10266 
 H                    -1.12147   2.25857   0.14757 
 H                     1.21071   2.55393   0.25894 
 H                     2.90767   0.96145  -0.08893 
 H                     2.5925   -1.29573  -0.77211 
 H                     0.59349  -2.59625  -0.45398 
 C                    -2.48914   0.04741  -0.43888 
 H                    -3.07013  -0.87873  -0.42653 
 H                    -2.98887   0.90994  -0.88786 
 H                    -0.30871  -0.87391   1.69264 
 H                    -1.33626  -1.94458   0.66186 
 
                          Input orientation:                          
 ---------------------------------------------------------------------
 Center     Atomic      Atomic             Coordinates (Angstroms)
 Number     Number       Type             X           Y           Z
 ---------------------------------------------------------------------
      1          6           0       -0.502735    1.348101    0.113576
      2          6           0        0.862444    1.506791    0.127725
      3          6           0        1.875158    0.581527   -0.067812
      4          6           0       -1.229829    0.121499    0.047977
      5          6           0        1.710472   -0.792876   -0.326776
      6          6           0       -0.586470   -1.106354    0.624920
      7          6           0        0.613615   -1.555213   -0.102662
      8          1           0       -1.121473    2.258566    0.147568
      9          1           0        1.210706    2.553929    0.258943
     10          1           0        2.907670    0.961454   -0.088925
     11          1           0        2.592495   -1.295734   -0.772111
     12          1           0        0.593490   -2.596251   -0.453977
     13          6           0       -2.489143    0.047411   -0.438882
     14          1           0       -3.070128   -0.878732   -0.426533
     15          1           0       -2.988868    0.909942   -0.887863
     16          1           0       -0.308710   -0.873911    1.692644
     17          1           0       -1.336260   -1.944580    0.661862
 ---------------------------------------------------------------------
                    Distance matrix (angstroms):
                    1          2          3          4          5
     1  C    0.000000
     2  C    1.374444   0.000000
     3  C    2.504978   1.385618   0.000000
     4  C    1.427418   2.510578   3.141015   0.000000
     5  C    3.110623   2.492828   1.408250   3.101917   0.000000
     6  C    2.508552   3.029040   3.064055   1.501465   2.505980
     7  C    3.118049   3.080724   2.481605   2.496466   1.354430
     8  H    1.101335   2.121671   3.440733   2.142129   4.190013
     9  H    2.100246   1.111307   2.106807   3.452164   3.434230
    10  H    3.438221   2.127740   1.100396   4.224117   2.137178
    11  H    4.165904   3.414224   2.129488   4.158275   1.108672
    12  H    4.133006   4.152790   3.448198   3.310984   2.125086
    13  C    2.437790   3.699185   4.412493   1.352181   4.284322
    14  H    3.441222   4.632823   5.168838   2.147632   4.782411
    15  H    2.715828   4.027437   4.943591   2.142815   5.029732
    16  H    2.732844   3.080311   3.160187   2.131720   2.856872
    17  H    3.440513   4.126931   4.150524   2.157977   3.403881
                    6          7          8          9         10
     6  C    0.000000
     7  C    1.473450   0.000000
     8  H    3.440462   4.197387   0.000000
     9  H    4.094075   4.168012   2.353445   0.000000
    10  H    4.122429   3.405362   4.239389   2.353014   0.000000
    11  H    3.477554   2.105103   5.222300   4.218094   2.379281
    12  H    2.185433   1.098903   5.183841   5.235796   4.259807
    13  C    2.466376   3.508355   2.665268   4.523105   5.484846
    14  H    2.706644   3.759319   3.737578   5.529790   6.263732
    15  H    3.482166   4.435247   2.525484   4.653416   5.950640
    16  H    1.127482   2.130253   3.586120   4.014251   4.109459
    17  H    1.125243   2.130285   4.239937   5.185168   5.198044
                   11         12         13         14         15
    11  H    0.000000
    12  H    2.405946   0.000000
    13  C    5.266700   4.061010   0.000000
    14  H    5.688463   4.046322   1.093360   0.000000
    15  H    6.002501   5.031395   1.093283   1.848995   0.000000
    16  H    3.830136   2.896274   3.185361   3.480857   4.126063
    17  H    4.232304   2.322436   2.551236   2.308015   3.644318
                   16         17
    16  H    0.000000
    17  H    1.806849   0.000000
 Stoichiometry    C8H9(1-)
 Framework group  C1[X(C8H9)]
 Deg. of freedom    45
 Full point group                 C1      NOp   1
 Largest Abelian subgroup         C1      NOp   1
 Largest concise Abelian subgroup C1      NOp   1
                         Standard orientation:                         
 ---------------------------------------------------------------------
 Center     Atomic      Atomic             Coordinates (Angstroms)
 Number     Number       Type             X           Y           Z
 ---------------------------------------------------------------------
      1          6           0       -0.502735    1.348101    0.113576
      2          6           0        0.862444    1.506791    0.127725
      3          6           0        1.875158    0.581527   -0.067812
      4          6           0       -1.229829    0.121499    0.047977
      5          6           0        1.710472   -0.792876   -0.326776
      6          6           0       -0.586470   -1.106354    0.624920
      7          6           0        0.613615   -1.555213   -0.102662
      8          1           0       -1.121473    2.258566    0.147568
      9          1           0        1.210706    2.553929    0.258943
     10          1           0        2.907670    0.961455   -0.088925
     11          1           0        2.592495   -1.295733   -0.772111
     12          1           0        0.593491   -2.596251   -0.453977
     13          6           0       -2.489143    0.047411   -0.438882
     14          1           0       -3.070128   -0.878733   -0.426533
     15          1           0       -2.988868    0.909941   -0.887863
     16          1           0       -0.308710   -0.873911    1.692644
     17          1           0       -1.336260   -1.944580    0.661862
 ---------------------------------------------------------------------
 Rotational constants (GHZ):           3.4633199           2.0776382           1.3996801
 Standard basis: 3-21G* (6D, 7F)
 There are    90 symmetry adapted cartesian basis functions of A   symmetry.
 There are    90 symmetry adapted basis functions of A   symmetry.
    90 basis functions,   147 primitive gaussians,    90 cartesian basis functions
    29 alpha electrons       29 beta electrons
       nuclear repulsion energy       335.0795612699 Hartrees.
 NAtoms=   17 NActive=   17 NUniq=   17 SFac= 1.00D+00 NAtFMM=   60 NAOKFM=F Big=F
 Integral buffers will be    131072 words long.
 Raffenetti 1 integral format.
 Two-electron integral symmetry is turned on.
 One-electron integrals computed using PRISM.
 NBasis=    90 RedAO= T EigKep=  3.69D-03  NBF=    90
 NBsUse=    90 1.00D-06 EigRej= -1.00D+00 NBFU=    90
 ExpMin= 1.83D-01 ExpMax= 1.72D+02 ExpMxC= 1.72D+02 IAcc=3 IRadAn=         5 AccDes= 0.00D+00
 Harris functional with IExCor=  205 and IRadAn=       5 diagonalized for initial guess.
 HarFok:  IExCor=  205 AccDes= 0.00D+00 IRadAn=         5 IDoV= 1 UseB2=F ITyADJ=14
 ICtDFT=  3500011 ScaDFX=  1.000000  1.000000  1.000000  1.000000
 FoFCou: FMM=F IPFlag=           0 FMFlag=      100000 FMFlg1=           0
         NFxFlg=           0 DoJE=T BraDBF=F KetDBF=T FulRan=T
         wScrn=  0.000000 ICntrl=       500 IOpCl=  0 I1Cent=   200000004 NGrid=           0
         NMat0=    1 NMatS0=      1 NMatT0=    0 NMatD0=    1 NMtDS0=    0 NMtDT0=    0
 Petite list used in FoFCou.
 Keep R1 ints in memory in canonical form, NReq=9231593.
 Requested convergence on RMS density matrix=1.00D-08 within 128 cycles.
 Requested convergence on MAX density matrix=1.00D-06.
 Requested convergence on             energy=1.00D-06.
 No special actions if energy rises.
 SCF Done:  E(RHF) =  -306.360842575     A.U. after   15 cycles
            NFock= 15  Conv=0.50D-08     -V/T= 2.0018

 **********************************************************************

            Population analysis using the SCF Density.

 **********************************************************************

 Orbital symmetries:
       Occupied  (A) (A) (A) (A) (A) (A) (A) (A) (A) (A) (A) (A)
                 (A) (A) (A) (A) (A) (A) (A) (A) (A) (A) (A) (A)
                 (A) (A) (A) (A) (A)
       Virtual   (A) (A) (A) (A) (A) (A) (A) (A) (A) (A) (A) (A)
                 (A) (A) (A) (A) (A) (A) (A) (A) (A) (A) (A) (A)
                 (A) (A) (A) (A) (A) (A) (A) (A) (A) (A) (A) (A)
                 (A) (A) (A) (A) (A) (A) (A) (A) (A) (A) (A) (A)
                 (A) (A) (A) (A) (A) (A) (A) (A) (A) (A) (A) (A)
                 (A)
 The electronic state is 1-A.
 Alpha  occ. eigenvalues --  -11.00156 -10.99659 -10.99455 -10.99161 -10.96496
 Alpha  occ. eigenvalues --  -10.95323 -10.94038 -10.93998  -0.93990  -0.86448
 Alpha  occ. eigenvalues --   -0.84291  -0.74795  -0.69506  -0.62612  -0.52453
 Alpha  occ. eigenvalues --   -0.49844  -0.48905  -0.43389  -0.41062  -0.39199
 Alpha  occ. eigenvalues --   -0.37285  -0.33949  -0.30785  -0.30308  -0.28406
 Alpha  occ. eigenvalues --   -0.26232  -0.19426  -0.13961  -0.01785
 Alpha virt. eigenvalues --    0.32445   0.39048   0.41200   0.45121   0.47134
 Alpha virt. eigenvalues --    0.48880   0.50120   0.52136   0.53108   0.54858
 Alpha virt. eigenvalues --    0.55556   0.56997   0.64597   0.66959   0.73112
 Alpha virt. eigenvalues --    0.74003   0.79396   0.81832   0.88348   0.95048
 Alpha virt. eigenvalues --    1.04749   1.11551   1.14407   1.15139   1.18400
 Alpha virt. eigenvalues --    1.18621   1.22940   1.23967   1.27247   1.27889
 Alpha virt. eigenvalues --    1.28131   1.28967   1.30500   1.32347   1.33607
 Alpha virt. eigenvalues --    1.35581   1.39876   1.44317   1.46743   1.47834
 Alpha virt. eigenvalues --    1.49876   1.50647   1.54292   1.58100   1.60973
 Alpha virt. eigenvalues --    1.63249   1.66175   1.72578   1.77525   1.81121
 Alpha virt. eigenvalues --    1.86822   1.90001   1.90708   1.94999   1.96214
 Alpha virt. eigenvalues --    2.02579   2.15834   2.31467   2.39830   2.53308
 Alpha virt. eigenvalues --    2.75792
     Molecular Orbital Coefficients:
                           1         2         3         4         5
                           O         O         O         O         O
     Eigenvalues --   -11.00156 -10.99659 -10.99455 -10.99161 -10.96496
   1 1   C  1S         -0.00348  -0.00306  -0.00405  -0.00095   0.00174
   2        2S         -0.00320  -0.00176  -0.00480  -0.00064   0.00082
   3        2PX         0.00058   0.00006  -0.00195  -0.00004   0.00025
   4        2PY         0.00131   0.00112   0.00041   0.00035  -0.00017
   5        2PZ        -0.00009  -0.00023   0.00001   0.00003   0.00010
   6        3S          0.02156   0.00640   0.03310   0.00575  -0.00358
   7        3PX        -0.00835  -0.00685   0.01671   0.00343  -0.00652
   8        3PY        -0.01463  -0.00669  -0.00833  -0.00183   0.00322
   9        3PZ        -0.00015  -0.00128  -0.00097  -0.00004  -0.00041
  10 2   C  1S         -0.01017  -0.00893   0.98669   0.02973   0.00073
  11        2S         -0.00116  -0.00090   0.09866   0.00287  -0.00039
  12        2PX         0.00064   0.00008  -0.00018  -0.00061   0.00005
  13        2PY         0.00031   0.00018  -0.00055   0.00089   0.00009
  14        2PZ         0.00024  -0.00020  -0.00015   0.00033  -0.00002
  15        3S         -0.00127   0.00196  -0.08731  -0.00975   0.00884
  16        3PX        -0.00321  -0.00291   0.00483   0.00380  -0.00204
  17        3PY         0.00418   0.00288   0.01564   0.00394  -0.00422
  18        3PZ        -0.00034   0.00111   0.00290  -0.00013  -0.00012
  19 3   C  1S         -0.00031  -0.00094  -0.00436  -0.00515  -0.00348
  20        2S         -0.00039  -0.00064  -0.00451  -0.00434  -0.00033
  21        2PX         0.00004   0.00025   0.00169   0.00076   0.00035
  22        2PY        -0.00009   0.00008  -0.00066   0.00137   0.00091
  23        2PZ        -0.00000  -0.00015  -0.00019   0.00015   0.00016
  24        3S          0.00763   0.00700   0.02964   0.02914  -0.00697
  25        3PX        -0.00338  -0.00231  -0.01895  -0.01063   0.00551
  26        3PY        -0.00092  -0.00212   0.00512  -0.01595   0.00082
  27        3PZ         0.00050  -0.00033   0.00170  -0.00131  -0.00127
  28 4   C  1S          0.98733   0.00186   0.01038  -0.00112   0.00808
  29        2S          0.10026  -0.00072   0.00116   0.00013  -0.00188
  30        2PX        -0.00009  -0.00011  -0.00070  -0.00016  -0.00110
  31        2PY        -0.00038   0.00066  -0.00048  -0.00026   0.00160
  32        2PZ         0.00013  -0.00027  -0.00014   0.00003   0.00029
  33        3S         -0.08886   0.01244  -0.00848  -0.00083   0.00677
  34        3PX         0.00296   0.00937  -0.00346  -0.00003   0.00570
  35        3PY        -0.00357  -0.02274  -0.00316  -0.00042  -0.00818
  36        3PZ         0.00028   0.00804   0.00081   0.00083   0.00076
  37 5   C  1S          0.00157  -0.01702  -0.02971   0.98659   0.00439
  38        2S          0.00070  -0.00204  -0.00301   0.09864  -0.00406
  39        2PX         0.00014   0.00084   0.00009  -0.00056   0.00211
  40        2PY         0.00031   0.00034  -0.00114   0.00018   0.00085
  41        2PZ         0.00020  -0.00044  -0.00016   0.00025  -0.00064
  42        3S         -0.00534  -0.00044  -0.00496  -0.08695   0.03118
  43        3PX         0.00393  -0.00077   0.00440   0.01328  -0.01852
  44        3PY        -0.00440  -0.00652  -0.00074  -0.00775  -0.00328
  45        3PZ        -0.00264  -0.00063  -0.00097  -0.00644   0.00655
  46 6   C  1S         -0.00207   0.98795   0.00839   0.01737   0.00341
  47        2S         -0.00044   0.10567   0.00082   0.00179  -0.00082
  48        2PX         0.00012   0.00005  -0.00035  -0.00111  -0.00013
  49        2PY         0.00018   0.00015  -0.00007   0.00010  -0.00025
  50        2PZ         0.00007  -0.00015   0.00011   0.00047   0.00025
  51        3S          0.00645  -0.10409  -0.00071  -0.00678   0.01131
  52        3PX        -0.01023  -0.00318   0.00101  -0.00148   0.01254
  53        3PY         0.00741  -0.00584   0.00041  -0.00136  -0.00453
  54        3PZ        -0.00062   0.00902  -0.00073   0.00045  -0.00321
  55 7   C  1S         -0.00872  -0.00364  -0.00083  -0.00518   0.98710
  56        2S         -0.00372  -0.00242  -0.00019  -0.00492   0.09892
  57        2PX         0.00108   0.00030   0.00036  -0.00122  -0.00053
  58        2PY        -0.00105  -0.00013  -0.00007  -0.00159   0.00088
  59        2PZ        -0.00003  -0.00020  -0.00002   0.00004   0.00035
  60        3S          0.01155   0.02255   0.00277   0.03137  -0.08115
  61        3PX        -0.00544  -0.01624   0.00090   0.00941  -0.00224
  62        3PY         0.00728   0.00745   0.00167   0.01613  -0.01354
  63        3PZ         0.00354   0.00846  -0.00051   0.00075  -0.00405
  64 8   H  1S         -0.00071  -0.00024  -0.00018   0.00007  -0.00061
  65        2S          0.00146   0.00104   0.00363   0.00093  -0.00194
  66 9   H  1S         -0.00036  -0.00042  -0.00138  -0.00033   0.00007
  67        2S          0.00012  -0.00031   0.00812   0.00039   0.00109
  68 10  H  1S         -0.00001  -0.00011  -0.00006  -0.00015  -0.00038
  69        2S          0.00076   0.00091   0.00386   0.00375  -0.00043
  70 11  H  1S         -0.00054  -0.00043  -0.00022  -0.00143  -0.00020
  71        2S         -0.00156   0.00035  -0.00043   0.00810   0.00396
  72 12  H  1S          0.00018  -0.00059   0.00002  -0.00024  -0.00154
  73        2S          0.00233   0.00206   0.00029   0.00355   0.00888
  74 13  C  1S         -0.00127  -0.00385  -0.00128  -0.00055   0.00023
  75        2S         -0.00381  -0.00178  -0.00070  -0.00026   0.00007
  76        2PX        -0.00151  -0.00057  -0.00011  -0.00003  -0.00000
  77        2PY        -0.00007   0.00052  -0.00025  -0.00006  -0.00003
  78        2PZ        -0.00049  -0.00019  -0.00011   0.00000  -0.00018
  79        3S          0.02688   0.00627   0.00134   0.00090   0.00124
  80        3PX         0.01279   0.00381   0.00134   0.00054   0.00019
  81        3PY         0.00180   0.00424   0.00269   0.00042   0.00270
  82        3PZ         0.00482   0.00027  -0.00010  -0.00011   0.00101
  83 14  H  1S         -0.00095   0.00032   0.00026   0.00007   0.00019
  84        2S          0.00057   0.00097   0.00110  -0.00000   0.00114
  85 15  H  1S         -0.00110  -0.00065  -0.00042  -0.00011  -0.00024
  86        2S         -0.00031  -0.00050  -0.00066  -0.00009  -0.00069
  87 16  H  1S         -0.00080   0.00176  -0.00022   0.00015  -0.00142
  88        2S          0.00187   0.01322   0.00079   0.00080   0.00197
  89 17  H  1S         -0.00056   0.00168   0.00005  -0.00005  -0.00019
  90        2S         -0.00141   0.01317   0.00064   0.00123   0.00101
                           6         7         8         9        10
                           O         O         O         O         O
     Eigenvalues --   -10.95323 -10.94038 -10.93998  -0.93990  -0.86448
   1 1   C  1S         -0.00865  -0.15866   0.97431  -0.08284  -0.03143
   2        2S         -0.00160  -0.01567   0.09800   0.09075   0.03429
   3        2PX         0.00077  -0.00115   0.00031   0.01337  -0.05510
   4        2PY         0.00039   0.00002  -0.00094  -0.03914  -0.03713
   5        2PZ         0.00020   0.00009   0.00002  -0.00108  -0.00145
   6        3S          0.00054   0.00585  -0.08877   0.15187   0.06295
   7        3PX        -0.00330   0.00085  -0.00950   0.02238   0.00413
   8        3PY        -0.00309   0.00419   0.01635   0.00243   0.00534
   9        3PZ         0.00022   0.00055   0.00067   0.00093  -0.00072
  10 2   C  1S          0.00106   0.00320   0.00384  -0.07486   0.05661
  11        2S         -0.00041  -0.00315  -0.00465   0.08546  -0.06209
  12        2PX         0.00024  -0.00118   0.00175  -0.01697  -0.04736
  13        2PY         0.00011   0.00152   0.00109  -0.03296   0.03219
  14        2PZ        -0.00006   0.00029   0.00015  -0.00505   0.00803
  15        3S          0.00267   0.02520   0.03691   0.13251  -0.12642
  16        3PX        -0.00351   0.00918  -0.01535   0.01056   0.00147
  17        3PY        -0.00053  -0.01706  -0.01581   0.00066  -0.00075
  18        3PZ         0.00009  -0.00318  -0.00187   0.00043   0.00025
  19 3   C  1S         -0.00019   0.97427   0.15895  -0.06809   0.10696
  20        2S         -0.00000   0.09770   0.01633   0.07457  -0.11280
  21        2PX         0.00004  -0.00093   0.00064  -0.03491   0.02778
  22        2PY        -0.00003  -0.00024  -0.00068  -0.01229   0.03009
  23        2PZ        -0.00003  -0.00004  -0.00004  -0.00039   0.00612
  24        3S         -0.00030  -0.08436  -0.02383   0.11892  -0.23346
  25        3PX         0.00042   0.01586   0.00917  -0.00262   0.00774
  26        3PY         0.00181   0.00490   0.00565  -0.00013   0.00367
  27        3PZ         0.00034   0.00054   0.00019   0.00031   0.00166
  28 4   C  1S          0.00088  -0.00025   0.00311  -0.11237  -0.11778
  29        2S         -0.00320   0.00019  -0.00237   0.12400   0.12611
  30        2PX         0.00237   0.00021  -0.00118   0.01283  -0.04609
  31        2PY         0.00025   0.00033  -0.00103  -0.00627  -0.00314
  32        2PZ         0.00094   0.00010  -0.00005   0.00502  -0.00957
  33        3S          0.02060   0.00064   0.02029   0.22847   0.27203
  34        3PX        -0.01617  -0.00123   0.01649  -0.01396  -0.01140
  35        3PY        -0.00179   0.00156   0.01628   0.02364   0.00228
  36        3PZ        -0.00652  -0.00086   0.00116  -0.00258   0.00298
  37 5   C  1S          0.00038   0.00420   0.00129  -0.07891   0.11754
  38        2S         -0.00017  -0.00323  -0.00106   0.08848  -0.12950
  39        2PX         0.00010   0.00033   0.00028  -0.03788   0.02146
  40        2PY        -0.00005  -0.00148  -0.00020   0.00806  -0.02616
  41        2PZ        -0.00002  -0.00040  -0.00006   0.01455  -0.01376
  42        3S          0.00156   0.02716   0.01309   0.15171  -0.25183
  43        3PX        -0.00059  -0.00618  -0.00474  -0.00162  -0.00325
  44        3PY         0.00127   0.01652   0.00648   0.00937   0.00822
  45        3PZ         0.00025   0.00472   0.00260   0.00193   0.00155
  46 6   C  1S          0.00356   0.00041   0.00292  -0.10424  -0.04600
  47        2S         -0.00089  -0.00037  -0.00115   0.09847   0.04250
  48        2PX         0.00068  -0.00002   0.00009   0.01114  -0.04755
  49        2PY        -0.00034  -0.00015  -0.00141   0.02741   0.03421
  50        2PZ         0.00036  -0.00002   0.00006  -0.02904  -0.00651
  51        3S          0.00300   0.00448   0.00337   0.28258   0.13506
  52        3PX        -0.00013   0.00142  -0.00070   0.00894   0.00448
  53        3PY         0.00211   0.00061   0.00266   0.00816   0.00050
  54        3PZ        -0.00091  -0.00173  -0.00130  -0.01530  -0.00832
  55 7   C  1S         -0.00021   0.00385  -0.00096  -0.08603   0.05804
  56        2S          0.00005   0.00016   0.00052   0.09605  -0.05880
  57        2PX        -0.00005  -0.00083  -0.00032  -0.00204  -0.06602
  58        2PY        -0.00004  -0.00080   0.00004   0.04124  -0.02958
  59        2PZ        -0.00009  -0.00003   0.00010   0.01132   0.01436
  60        3S         -0.00066  -0.00612  -0.00473   0.14697  -0.14191
  61        3PX         0.00050   0.00228   0.00019   0.01757   0.00842
  62        3PY        -0.00049  -0.00367  -0.00525  -0.00334  -0.01534
  63        3PZ         0.00018  -0.00109  -0.00057  -0.00650  -0.00867
  64 8   H  1S         -0.00017  -0.00010  -0.00164   0.03127   0.01795
  65        2S          0.00026  -0.00186   0.00745   0.00026   0.00444
  66 9   H  1S         -0.00002  -0.00003   0.00001   0.02789  -0.02552
  67        2S          0.00065   0.00328   0.00476  -0.00601  -0.00315
  68 10  H  1S         -0.00014  -0.00158  -0.00076   0.02421  -0.04646
  69        2S         -0.00022   0.00777   0.00013  -0.00324  -0.00730
  70 11  H  1S          0.00003  -0.00019   0.00015   0.02954  -0.05355
  71        2S          0.00040   0.00361   0.00192  -0.00274  -0.00451
  72 12  H  1S         -0.00002  -0.00026  -0.00039   0.03212  -0.02397
  73        2S          0.00008   0.00013  -0.00138  -0.00391  -0.00603
  74 13  C  1S          0.98676  -0.00117   0.00841  -0.05493  -0.09177
  75        2S          0.09641   0.00003  -0.00014   0.06255   0.09911
  76        2PX         0.00009   0.00003  -0.00043   0.04668   0.06176
  77        2PY         0.00003   0.00011  -0.00017   0.00101   0.00216
  78        2PZ         0.00007  -0.00005   0.00004   0.01855   0.02538
  79        3S         -0.06967  -0.00110   0.00669   0.08549   0.18691
  80        3PX        -0.00825  -0.00076   0.00385  -0.00731   0.00348
  81        3PY        -0.00053  -0.00112  -0.00328  -0.00904  -0.00004
  82        3PZ        -0.00300   0.00007   0.00237  -0.00222   0.00289
  83 14  H  1S         -0.00130  -0.00008  -0.00058   0.02131   0.04065
  84        2S          0.01177  -0.00059  -0.00023  -0.00261   0.00571
  85 15  H  1S         -0.00125   0.00017   0.00015   0.02140   0.03937
  86        2S          0.01186   0.00035   0.00159   0.00140   0.00424
  87 16  H  1S         -0.00014  -0.00026  -0.00090   0.04327   0.01818
  88        2S          0.00022   0.00048   0.00120  -0.00868  -0.00220
  89 17  H  1S         -0.00031  -0.00013  -0.00005   0.03964   0.02603
  90        2S          0.00042   0.00024   0.00111  -0.00327   0.00806
                          11        12        13        14        15
                           O         O         O         O         O
     Eigenvalues --    -0.84291  -0.74795  -0.69506  -0.62612  -0.52453
   1 1   C  1S         -0.10588  -0.05282  -0.11291   0.03530   0.03342
   2        2S          0.11090   0.05531   0.11316  -0.03683  -0.03157
   3        2PX         0.05862   0.06905  -0.01838   0.09247  -0.09684
   4        2PY         0.00428   0.01552   0.00251   0.09253  -0.14117
   5        2PZ        -0.00199   0.01076  -0.00338  -0.00482  -0.01943
   6        3S          0.23429   0.12175   0.30567  -0.09918  -0.11211
   7        3PX        -0.00281   0.01852  -0.00203   0.03747  -0.03247
   8        3PY        -0.00703   0.00615  -0.01012   0.03107  -0.06088
   9        3PZ        -0.00052   0.00630  -0.00172  -0.00178  -0.01354
  10 2   C  1S         -0.13235  -0.05710   0.02920  -0.08872   0.00512
  11        2S          0.14525   0.06061  -0.03065   0.09258  -0.00351
  12        2PX        -0.03033  -0.06542  -0.15584   0.02090   0.16950
  13        2PY        -0.01870   0.02141   0.03997   0.05993  -0.10015
  14        2PZ        -0.00579   0.00743   0.00965   0.00439  -0.01880
  15        3S          0.29860   0.15396  -0.08525   0.26754  -0.02151
  16        3PX        -0.00518  -0.02016  -0.05460   0.01459   0.09621
  17        3PY         0.00655   0.00065   0.01673   0.02724  -0.05922
  18        3PZ        -0.00016   0.00093   0.00296  -0.00049  -0.01028
  19 3   C  1S         -0.05755   0.05657   0.10723   0.03968  -0.03737
  20        2S          0.05994  -0.05740  -0.10859  -0.03992   0.03820
  21        2PX        -0.04037  -0.02584   0.00577  -0.05016  -0.05873
  22        2PY         0.06185   0.06581  -0.06019   0.11553   0.13442
  23        2PZ         0.00904   0.01666  -0.00814   0.02533   0.03205
  24        3S          0.13141  -0.14327  -0.28185  -0.11308   0.11821
  25        3PX        -0.00736  -0.00228   0.00233  -0.01509  -0.02653
  26        3PY         0.00189   0.01611  -0.01490   0.03594   0.05457
  27        3PZ        -0.00067   0.00643  -0.00097   0.00934   0.01347
  28 4   C  1S         -0.01528   0.04399  -0.00834   0.07054  -0.07142
  29        2S          0.01393  -0.04527   0.00937  -0.07310   0.07561
  30        2PX         0.00415   0.14131   0.03720  -0.11307   0.02077
  31        2PY         0.07563  -0.02004   0.12541  -0.04225   0.07114
  32        2PZ        -0.01215   0.06021  -0.01770  -0.05432  -0.03338
  33        3S          0.04893  -0.13107   0.02855  -0.21266   0.25223
  34        3PX         0.00578   0.03525   0.00793  -0.06345   0.02360
  35        3PY        -0.01325   0.01736   0.03812  -0.00907   0.04098
  36        3PZ         0.00268   0.01058  -0.00527  -0.03184  -0.01059
  37 5   C  1S          0.05415   0.08803  -0.05729   0.04618   0.06369
  38        2S         -0.05922  -0.09329   0.06056  -0.04780  -0.06339
  39        2PX         0.04802  -0.02793  -0.05805  -0.08216  -0.13441
  40        2PY         0.06080  -0.03172  -0.12081  -0.10561  -0.02549
  41        2PZ        -0.00717   0.00340  -0.00848   0.00347   0.03127
  42        3S         -0.12375  -0.22886   0.16040  -0.14681  -0.22909
  43        3PX         0.00433  -0.00746  -0.01857  -0.03172  -0.07881
  44        3PY         0.00310  -0.00343  -0.04408  -0.05457  -0.01263
  45        3PZ        -0.00043  -0.00041  -0.00586  -0.00439   0.01534
  46 6   C  1S          0.09367  -0.10083   0.08730   0.01844   0.05188
  47        2S         -0.08551   0.09064  -0.07773  -0.01595  -0.04357
  48        2PX        -0.03463   0.03345   0.04785   0.04839   0.07192
  49        2PY         0.02406  -0.01732   0.00501  -0.09320   0.04744
  50        2PZ         0.02008   0.00473  -0.01738  -0.02439  -0.09824
  51        3S         -0.27843   0.33527  -0.30420  -0.07098  -0.21980
  52        3PX        -0.00228   0.00729   0.01290   0.00851   0.04617
  53        3PY        -0.00489   0.00160  -0.00010  -0.03605   0.02757
  54        3PZ         0.01361  -0.00529  -0.00267  -0.01191  -0.06412
  55 7   C  1S          0.11084  -0.02555  -0.07119  -0.08695  -0.06853
  56        2S         -0.11754   0.02580   0.07096   0.08407   0.06858
  57        2PX         0.00134  -0.08992   0.10299  -0.00250  -0.01208
  58        2PY        -0.02330  -0.01534   0.00783  -0.05085  -0.01621
  59        2PZ        -0.01333   0.03943  -0.04313  -0.00803  -0.02446
  60        3S         -0.23529   0.05920   0.20722   0.26914   0.23460
  61        3PX        -0.00939  -0.01195   0.01982  -0.01486  -0.01100
  62        3PY         0.00053  -0.00007   0.01006  -0.01306  -0.00859
  63        3PZ        -0.00176   0.00991  -0.00550   0.00645  -0.01106
  64 8   H  1S          0.04865   0.02160   0.07934  -0.01220  -0.06291
  65        2S          0.00888   0.00297   0.04035   0.00251  -0.05124
  66 9   H  1S          0.06527   0.03625  -0.02433   0.09652  -0.02920
  67        2S          0.01105   0.01592  -0.01257   0.05822  -0.02364
  68 10  H  1S          0.02647  -0.03600  -0.07765  -0.03226   0.02562
  69        2S          0.00656  -0.01638  -0.03929  -0.01862   0.01573
  70 11  H  1S         -0.02642  -0.05976   0.04352  -0.04415  -0.11685
  71        2S         -0.00493  -0.02492   0.02091  -0.02810  -0.08789
  72 12  H  1S         -0.05443   0.01781   0.04974   0.08904   0.07182
  73        2S         -0.01121   0.00957   0.02618   0.05715   0.04868
  74 13  C  1S         -0.00826   0.13425   0.02061  -0.09735   0.03040
  75        2S          0.00955  -0.13871  -0.02084   0.09738  -0.02788
  76        2PX         0.00603  -0.04109   0.00171  -0.05146   0.09897
  77        2PY         0.01325  -0.00836   0.03277  -0.01321   0.04308
  78        2PZ        -0.00006  -0.01457  -0.00726  -0.02178   0.01992
  79        3S          0.01484  -0.33439  -0.06046   0.27987  -0.10937
  80        3PX        -0.00205  -0.00737  -0.00096  -0.02737   0.04978
  81        3PY         0.00966  -0.00972   0.01357  -0.01235   0.02350
  82        3PZ        -0.00127  -0.00240  -0.00461  -0.01104   0.00411
  83 14  H  1S         -0.00000  -0.07448  -0.02752   0.09157  -0.07897
  84        2S         -0.00203  -0.02549  -0.01800   0.05063  -0.06707
  85 15  H  1S          0.00738  -0.07757  -0.00120   0.08296  -0.03775
  86        2S          0.00187  -0.02379   0.00403   0.04733  -0.03052
  87 16  H  1S         -0.04016   0.05961  -0.05129  -0.02714  -0.07226
  88        2S          0.00052   0.01404  -0.01756  -0.01261  -0.05192
  89 17  H  1S         -0.04562   0.05086  -0.06969   0.00977  -0.09159
  90        2S         -0.00641   0.00929  -0.03155   0.01441  -0.06860
                          16        17        18        19        20
                           O         O         O         O         O
     Eigenvalues --    -0.49844  -0.48905  -0.43389  -0.41062  -0.39199
   1 1   C  1S          0.05837  -0.00197   0.02306   0.00826  -0.00772
   2        2S         -0.05565   0.00532  -0.02423  -0.01286   0.00707
   3        2PX         0.12095   0.08888  -0.13981  -0.05549  -0.00671
   4        2PY        -0.03689  -0.05259  -0.00756   0.18120   0.00712
   5        2PZ         0.01184   0.00034   0.02450  -0.01316   0.02597
   6        3S         -0.20198   0.00076  -0.07009  -0.00257   0.02752
   7        3PX         0.05187   0.04160  -0.07926  -0.02963  -0.01117
   8        3PY        -0.02980  -0.04011   0.00510   0.11983   0.00637
   9        3PZ         0.00569  -0.00078   0.02206  -0.01129   0.01506
  10 2   C  1S         -0.06046  -0.00004  -0.00203   0.01383   0.02767
  11        2S          0.06288   0.00540  -0.00277  -0.01730  -0.03293
  12        2PX        -0.00035  -0.07527   0.16149  -0.00041  -0.03394
  13        2PY         0.04277  -0.13548   0.10603   0.13081   0.15245
  14        2PZ         0.01076  -0.00902   0.03206   0.00864   0.03466
  15        3S          0.22268  -0.00933   0.02815  -0.04505  -0.07676
  16        3PX        -0.00557  -0.05155   0.10456   0.00306  -0.01998
  17        3PY         0.02634  -0.08501   0.07914   0.09591   0.10466
  18        3PZ         0.00696  -0.00289   0.02662   0.00417   0.02520
  19 3   C  1S          0.06162   0.00349   0.01781  -0.00357   0.00172
  20        2S         -0.05867   0.00127  -0.02007   0.00441  -0.00630
  21        2PX        -0.09089  -0.13651   0.02748   0.00860   0.20558
  22        2PY         0.03234  -0.08064   0.10351  -0.11546   0.00320
  23        2PZ         0.01079   0.00931   0.04069  -0.01006  -0.00672
  24        3S         -0.21717  -0.01620  -0.05165   0.00894   0.01428
  25        3PX        -0.04976  -0.08239   0.01415   0.00071   0.14719
  26        3PY         0.01841  -0.04454   0.05494  -0.06424   0.01582
  27        3PZ         0.00648   0.00786   0.02775  -0.00376  -0.00160
  28 4   C  1S         -0.05466   0.04136  -0.00034  -0.00110  -0.00702
  29        2S          0.05537  -0.04289  -0.00001   0.00359   0.00392
  30        2PX        -0.01601   0.08626   0.00340  -0.17415   0.16861
  31        2PY        -0.16296   0.00610   0.09161  -0.06502  -0.08623
  32        2PZ         0.03151   0.01659   0.04706  -0.07783   0.06047
  33        3S          0.18854  -0.14043   0.00448   0.00128   0.02488
  34        3PX         0.00077   0.04923   0.00557  -0.12623   0.11811
  35        3PY        -0.12180   0.00145   0.06488  -0.03675  -0.06429
  36        3PZ         0.02737   0.00755   0.03117  -0.05558   0.04494
  37 5   C  1S         -0.04373  -0.00545  -0.01158  -0.01841   0.01796
  38        2S          0.04515   0.01275   0.01312   0.02418  -0.01901
  39        2PX        -0.04836  -0.13738  -0.05542  -0.13052   0.01406
  40        2PY        -0.12345   0.09187  -0.13599   0.12071  -0.00560
  41        2PZ        -0.02864   0.07209   0.02654   0.08530  -0.00254
  42        3S          0.15505  -0.00119   0.03022   0.04151  -0.06463
  43        3PX        -0.02687  -0.08197  -0.01877  -0.09219   0.01184
  44        3PY        -0.06131   0.05458  -0.08797   0.08906   0.00851
  45        3PZ        -0.01781   0.04381   0.02000   0.05884  -0.00552
  46 6   C  1S          0.01258  -0.00474  -0.01762  -0.00298  -0.00207
  47        2S         -0.00936   0.00703   0.01295   0.00420   0.00620
  48        2PX        -0.11461   0.10144   0.07707   0.04824   0.09606
  49        2PY         0.14995   0.05554   0.07747  -0.05217   0.16034
  50        2PZ        -0.02527   0.01988   0.18802  -0.07802  -0.15167
  51        3S         -0.06343   0.01538   0.07693   0.00939  -0.01821
  52        3PX        -0.05838   0.06196   0.05581   0.02964   0.07865
  53        3PY         0.08464   0.04495   0.06233  -0.03456   0.12860
  54        3PZ        -0.01373   0.01819   0.15462  -0.06291  -0.12469
  55 7   C  1S          0.02752   0.00620   0.00652  -0.01311  -0.02273
  56        2S         -0.02255  -0.00338  -0.00347   0.01608   0.02289
  57        2PX         0.13885   0.00516   0.12192  -0.02623  -0.07166
  58        2PY         0.08491   0.15750   0.09871   0.16202   0.06050
  59        2PZ        -0.06503   0.05539   0.04738   0.06078   0.01443
  60        3S         -0.10875  -0.02676  -0.03316   0.02864   0.08239
  61        3PX         0.07564  -0.00272   0.07285  -0.01843  -0.03895
  62        3PY         0.04501   0.10714   0.07138   0.11605   0.04404
  63        3PZ        -0.03873   0.03729   0.04092   0.04399   0.00724
  64 8   H  1S         -0.10923  -0.05193   0.02799   0.11255   0.01359
  65        2S         -0.08821  -0.04439   0.03164   0.11215   0.01208
  66 9   H  1S          0.07776  -0.09340   0.10564   0.07348   0.07114
  67        2S          0.05626  -0.08414   0.09894   0.07556   0.07985
  68 10  H  1S         -0.09656  -0.09669   0.02292  -0.01850   0.13528
  69        2S         -0.07633  -0.09009   0.02858  -0.02008   0.14006
  70 11  H  1S          0.05623  -0.10538   0.01612  -0.11656  -0.00682
  71        2S          0.04258  -0.09787   0.00950  -0.11978  -0.00180
  72 12  H  1S         -0.06155  -0.10701  -0.08082  -0.10563  -0.02132
  73        2S         -0.05108  -0.09257  -0.07562  -0.10691  -0.02760
  74 13  C  1S          0.01873  -0.03656  -0.00437   0.00513  -0.00085
  75        2S         -0.01597   0.03204   0.00346   0.00139  -0.00431
  76        2PX         0.08413  -0.13487  -0.02862   0.16740  -0.13865
  77        2PY        -0.08913  -0.00269   0.12105  -0.00541  -0.11015
  78        2PZ         0.05478  -0.06047  -0.01268   0.06000  -0.04384
  79        3S         -0.07293   0.14187   0.02183  -0.05721   0.03302
  80        3PX         0.04332  -0.07540  -0.02225   0.10037  -0.08416
  81        3PY        -0.04328   0.00055   0.08636  -0.00356  -0.07452
  82        3PZ         0.02568  -0.03617  -0.00144   0.03274  -0.03267
  83 14  H  1S          0.00189   0.07444  -0.05730  -0.06173   0.11281
  84        2S          0.00546   0.06193  -0.05780  -0.06425   0.11527
  85 15  H  1S         -0.09611   0.08146   0.08009  -0.07225  -0.00390
  86        2S         -0.08882   0.06589   0.07446  -0.07029  -0.00240
  87 16  H  1S         -0.02151   0.03925   0.15218  -0.04705  -0.05836
  88        2S         -0.01930   0.02898   0.13217  -0.04488  -0.06288
  89 17  H  1S         -0.03102  -0.06236  -0.06082   0.00343  -0.13011
  90        2S         -0.02703  -0.05508  -0.06320  -0.00333  -0.13033
                          21        22        23        24        25
                           O         O         O         O         O
     Eigenvalues --    -0.37285  -0.33949  -0.30785  -0.30308  -0.28406
   1 1   C  1S          0.03390  -0.00677  -0.00021   0.02468   0.01320
   2        2S         -0.03044   0.00406  -0.00169  -0.02570  -0.01406
   3        2PX         0.09439  -0.17196  -0.14594  -0.10000   0.00963
   4        2PY        -0.08052   0.00728  -0.05591   0.00882   0.22727
   5        2PZ        -0.04622  -0.02952  -0.02482   0.08247  -0.01446
   6        3S         -0.12135   0.02543   0.00872  -0.08457  -0.03120
   7        3PX         0.08175  -0.13198  -0.06902  -0.08695  -0.04207
   8        3PY        -0.08826   0.03543  -0.02994   0.00244   0.21119
   9        3PZ        -0.04475  -0.03309  -0.01628   0.07580  -0.01823
  10 2   C  1S         -0.02683   0.00945  -0.00967   0.00431  -0.00481
  11        2S          0.02803  -0.01092   0.01065  -0.00754   0.00644
  12        2PX        -0.05405   0.18068   0.16162   0.08820   0.03076
  13        2PY         0.09642  -0.01267  -0.00755   0.10971  -0.14002
  14        2PZ        -0.01021  -0.04681  -0.01849   0.06309  -0.07890
  15        3S          0.09008  -0.02523   0.01191   0.00607   0.01966
  16        3PX        -0.02108   0.11573   0.13342   0.05692  -0.00775
  17        3PY         0.09778  -0.00778   0.02800   0.12264  -0.14645
  18        3PZ        -0.01121  -0.04220  -0.01445   0.06519  -0.07580
  19 3   C  1S          0.03139   0.00469   0.01314  -0.01079  -0.01470
  20        2S         -0.03152  -0.00227  -0.01222   0.01334   0.01555
  21        2PX         0.00808  -0.09801  -0.14188  -0.11244  -0.09578
  22        2PY        -0.07579   0.09397   0.01081  -0.19942   0.10371
  23        2PZ        -0.03981  -0.02754  -0.00356  -0.01170  -0.05360
  24        3S         -0.10220  -0.02859  -0.03957   0.02394   0.05019
  25        3PX        -0.02520  -0.08032  -0.16125  -0.11860  -0.07052
  26        3PY        -0.05728   0.05935  -0.02651  -0.14272   0.07643
  27        3PZ        -0.02694  -0.03132  -0.00376  -0.00188  -0.05874
  28 4   C  1S         -0.01535   0.01401  -0.00233  -0.01646   0.01609
  29        2S          0.01806  -0.01598   0.00455   0.01183  -0.02002
  30        2PX         0.01566   0.15932  -0.00136   0.06098  -0.07197
  31        2PY         0.01596   0.00897   0.12735  -0.02665  -0.20590
  32        2PZ        -0.08618   0.02882  -0.05095   0.13184   0.01753
  33        3S          0.04908  -0.05719   0.01025   0.06593  -0.05013
  34        3PX        -0.00460   0.15374  -0.00601   0.05690  -0.04473
  35        3PY         0.00084   0.01443   0.13712  -0.04123  -0.18571
  36        3PZ        -0.06431   0.02516  -0.04969   0.11801   0.01576
  37 5   C  1S         -0.00999  -0.02076  -0.00365  -0.01235   0.02217
  38        2S          0.00842   0.02220   0.00303   0.01290  -0.02376
  39        2PX         0.14072  -0.06122   0.15721   0.02411   0.06874
  40        2PY         0.06162  -0.06657   0.02266   0.22664  -0.02958
  41        2PZ        -0.05335  -0.07561  -0.04046   0.02138  -0.11518
  42        3S          0.03937   0.06736   0.00324   0.05653  -0.07764
  43        3PX         0.11759  -0.03294   0.16282  -0.01390   0.06601
  44        3PY         0.02704  -0.04636  -0.02821   0.17573  -0.03007
  45        3PZ        -0.05329  -0.07795  -0.05086   0.02788  -0.11158
  46 6   C  1S         -0.02068  -0.02281   0.00130   0.00981  -0.02444
  47        2S          0.01949   0.01981  -0.00002  -0.00853   0.02305
  48        2PX         0.10589  -0.14722   0.19507  -0.07050   0.07338
  49        2PY        -0.02841  -0.06157  -0.07177   0.11262   0.18016
  50        2PZ        -0.10841  -0.14682  -0.00592   0.01097  -0.02120
  51        3S          0.07738   0.08996  -0.00592  -0.04835   0.08847
  52        3PX         0.08862  -0.14750   0.14819  -0.03590   0.08672
  53        3PY        -0.02195  -0.08029  -0.04253   0.10174   0.16755
  54        3PZ        -0.09073  -0.13834  -0.00604   0.01183  -0.00406
  55 7   C  1S          0.01116   0.01828   0.00585   0.00688   0.00062
  56        2S         -0.01315  -0.01360  -0.01134  -0.00760  -0.00267
  57        2PX        -0.16468   0.01494  -0.15417  -0.03437  -0.07939
  58        2PY         0.01756   0.11583  -0.00768  -0.16361  -0.02855
  59        2PZ         0.05671  -0.07340   0.11501  -0.08058  -0.03787
  60        3S         -0.03437  -0.08438   0.00595  -0.01584   0.01032
  61        3PX        -0.10036   0.00782  -0.11184  -0.02250  -0.05568
  62        3PY         0.03384   0.11279   0.03038  -0.17680  -0.01734
  63        3PZ         0.03324  -0.05770   0.10121  -0.08244  -0.04915
  64 8   H  1S         -0.11658   0.08718   0.02318   0.02675   0.14188
  65        2S         -0.10230   0.09107   0.02385   0.04009   0.15993
  66 9   H  1S          0.08276   0.02056   0.04638   0.11277  -0.11129
  67        2S          0.07251   0.02737   0.04236   0.12372  -0.12480
  68 10  H  1S         -0.04511  -0.05050  -0.12156  -0.13295  -0.02756
  69        2S         -0.03252  -0.05228  -0.12401  -0.15492  -0.03995
  70 11  H  1S          0.09028   0.03328   0.11579  -0.06541   0.07501
  71        2S          0.08583   0.02768   0.11701  -0.07281   0.09162
  72 12  H  1S         -0.03665  -0.08694  -0.03174   0.14658   0.03132
  73        2S         -0.03188  -0.08457  -0.02544   0.15942   0.03586
  74 13  C  1S         -0.00679   0.02377  -0.00287   0.00913  -0.00769
  75        2S          0.00866  -0.02963   0.00316  -0.01233   0.00921
  76        2PX         0.05586  -0.14508   0.00978  -0.08876   0.03953
  77        2PY         0.20430   0.04155  -0.18180   0.04132   0.04944
  78        2PZ        -0.08120  -0.08933   0.04474   0.01478  -0.00039
  79        3S          0.00952  -0.03340   0.00363  -0.01015   0.02282
  80        3PX         0.03121  -0.07092   0.00501  -0.06664   0.02737
  81        3PY         0.16235   0.03434  -0.17810   0.05109   0.06974
  82        3PZ        -0.08178  -0.05584   0.03970   0.02717  -0.00774
  83 14  H  1S         -0.14510   0.00972   0.12694  -0.00455  -0.05630
  84        2S         -0.15426   0.02903   0.13768  -0.00119  -0.07266
  85 15  H  1S          0.12898   0.08066  -0.13452   0.04511   0.03672
  86        2S          0.12124   0.10332  -0.14704   0.05158   0.04366
  87 16  H  1S         -0.04050  -0.12208   0.02047   0.00459   0.05298
  88        2S         -0.04952  -0.13404   0.02313   0.00904   0.04630
  89 17  H  1S         -0.02921   0.13072  -0.05698  -0.04032  -0.13920
  90        2S         -0.04367   0.13119  -0.05855  -0.03788  -0.18166
                          26        27        28        29        30
                           O         O         O         O         V
     Eigenvalues --    -0.26232  -0.19426  -0.13961  -0.01785   0.32445
   1 1   C  1S          0.00065  -0.00189   0.00351   0.00267   0.01003
   2        2S         -0.00164   0.00424   0.00049   0.00082  -0.00663
   3        2PX         0.00537   0.04026   0.01720   0.00810   0.01022
   4        2PY         0.04322  -0.04156   0.00436   0.01072  -0.00062
   5        2PZ         0.16515   0.14636  -0.12231  -0.25479  -0.11409
   6        3S          0.01022  -0.02013  -0.02973  -0.03854  -0.06786
   7        3PX        -0.01260   0.04093   0.00208   0.02958   0.03597
   8        3PY         0.03671  -0.05786   0.00317   0.03186  -0.05851
   9        3PZ         0.17055   0.17509  -0.16378  -0.39224  -0.26574
  10 2   C  1S         -0.01290  -0.00754  -0.00638  -0.00142   0.01483
  11        2S          0.01430   0.00789   0.00866  -0.00270  -0.00879
  12        2PX         0.02390  -0.05316  -0.00934  -0.00767   0.00762
  13        2PY        -0.11248  -0.00713   0.01676   0.00441  -0.03385
  14        2PZ         0.19279   0.02928  -0.20444   0.00230   0.23590
  15        3S          0.05025   0.02874   0.03096   0.02866  -0.17606
  16        3PX         0.01391  -0.05008  -0.01294   0.01720  -0.02600
  17        3PY        -0.10824  -0.00756   0.03336  -0.02658  -0.05776
  18        3PZ         0.20145   0.03120  -0.24659  -0.01001   0.50392
  19 3   C  1S         -0.00148   0.00812  -0.00010   0.00481   0.00052
  20        2S          0.00165  -0.00779   0.00126  -0.00462  -0.00514
  21        2PX        -0.03333   0.02632  -0.01500   0.02779  -0.00175
  22        2PY         0.02805   0.04238   0.00963  -0.04503  -0.00378
  23        2PZ         0.21566  -0.11615  -0.07601   0.25700  -0.07343
  24        3S          0.00867  -0.02220   0.00726  -0.04658   0.02898
  25        3PX        -0.02316   0.02576  -0.01860   0.04926  -0.08335
  26        3PY        -0.00191   0.05045   0.00808  -0.09660   0.05086
  27        3PZ         0.22235  -0.13675  -0.10539   0.41165  -0.15577
  28 4   C  1S          0.00250   0.01049  -0.01479   0.01284  -0.01418
  29        2S         -0.00016  -0.01062   0.01349  -0.01431   0.01603
  30        2PX        -0.03691  -0.12936   0.00063  -0.01688   0.09034
  31        2PY        -0.05495   0.10320  -0.02888   0.03514  -0.08259
  32        2PZ         0.06985   0.16460   0.15053  -0.00564  -0.14305
  33        3S         -0.02393  -0.04023   0.06954  -0.06499   0.07620
  34        3PX        -0.04174  -0.14176  -0.01558  -0.01440   0.17065
  35        3PY        -0.04888   0.12141  -0.03314   0.08214  -0.19751
  36        3PZ         0.08142   0.17925   0.18781  -0.01996  -0.27136
  37 5   C  1S          0.00335   0.00215   0.00073   0.00377   0.00206
  38        2S         -0.00474  -0.00012   0.00037  -0.00617   0.00198
  39        2PX         0.10103  -0.05882   0.06018   0.01338  -0.05065
  40        2PY        -0.08483   0.01473  -0.03391   0.00008   0.03795
  41        2PZ         0.10956  -0.16858   0.16353  -0.00990  -0.15126
  42        3S         -0.00579  -0.01404  -0.00897  -0.02585  -0.07085
  43        3PX         0.10571  -0.04932   0.08148   0.00267  -0.06321
  44        3PY        -0.09552   0.01952  -0.05684  -0.00381   0.11766
  45        3PZ         0.11006  -0.19859   0.19565  -0.02323  -0.34496
  46 6   C  1S         -0.00507   0.00279  -0.00496  -0.00761  -0.00690
  47        2S          0.00678   0.00022   0.00929   0.00380   0.00489
  48        2PX         0.00141   0.07348  -0.02567   0.00552  -0.00438
  49        2PY        -0.02277  -0.07966   0.03100   0.02084   0.02193
  50        2PZ        -0.13630  -0.02829  -0.07652   0.01188   0.00482
  51        3S          0.00056  -0.02199  -0.00764   0.06119   0.06090
  52        3PX         0.00784   0.04222  -0.04043  -0.02440   0.06231
  53        3PY        -0.01205  -0.06214   0.02032   0.04765  -0.03257
  54        3PZ        -0.14253  -0.01253  -0.06750   0.02073   0.06800
  55 7   C  1S          0.00043  -0.02153  -0.00903   0.00460   0.01360
  56        2S          0.00082   0.02002   0.00785  -0.00860  -0.01738
  57        2PX        -0.03397  -0.10551   0.06158  -0.09479   0.11526
  58        2PY         0.00680   0.10422  -0.05255   0.04720  -0.07424
  59        2PZ         0.10739  -0.06225   0.19652  -0.17582   0.16164
  60        3S         -0.01741   0.10326   0.05285  -0.00876  -0.04280
  61        3PX        -0.01546  -0.11909   0.08210  -0.14343   0.29420
  62        3PY         0.00993   0.12784  -0.06630   0.10899  -0.09128
  63        3PZ         0.11892  -0.07281   0.26733  -0.26673   0.34889
  64 8   H  1S          0.03458  -0.05085  -0.01110  -0.00487   0.02850
  65        2S          0.04154  -0.06164  -0.00640   0.00356   0.19438
  66 9   H  1S         -0.05445  -0.01158  -0.00252   0.00748   0.00944
  67        2S         -0.06900  -0.01967  -0.01095   0.02411   0.10709
  68 10  H  1S         -0.02137   0.03343  -0.01207   0.00167   0.01506
  69        2S         -0.02471   0.04763  -0.02007   0.01489   0.07574
  70 11  H  1S          0.06729   0.01388  -0.00675   0.02498  -0.01394
  71        2S          0.08124   0.01627  -0.01786   0.05739  -0.04492
  72 12  H  1S         -0.03695  -0.05148  -0.00209   0.00882   0.00653
  73        2S         -0.04078  -0.07232  -0.00543   0.03281   0.06432
  74 13  C  1S         -0.00158  -0.01221   0.00879   0.00407   0.00897
  75        2S          0.00191   0.01219  -0.00967  -0.00569  -0.00775
  76        2PX        -0.00363  -0.04024  -0.10200  -0.07795  -0.06428
  77        2PY         0.05512   0.05647   0.05674   0.03752   0.02642
  78        2PZ         0.03060   0.21624   0.15970   0.17048   0.14328
  79        3S          0.00760   0.04021  -0.03122  -0.02303  -0.06651
  80        3PX        -0.00670  -0.07728  -0.11989  -0.10463  -0.11218
  81        3PY         0.05768   0.05421   0.08511   0.05969   0.11041
  82        3PZ         0.03024   0.25759   0.21722   0.27751   0.35179
  83 14  H  1S         -0.03873  -0.00473  -0.00733   0.01339   0.00314
  84        2S         -0.04831  -0.01503  -0.00574   0.03614   0.04040
  85 15  H  1S          0.03320  -0.01437   0.01886  -0.01419  -0.00388
  86        2S          0.03819  -0.03069   0.03300  -0.00796   0.06224
  87 16  H  1S         -0.10308  -0.02528  -0.08355   0.04280  -0.01878
  88        2S         -0.10719  -0.04210  -0.15705   0.07826  -0.14789
  89 17  H  1S          0.01364   0.00697  -0.00251  -0.01343   0.00413
  90        2S          0.01503   0.00893  -0.01322  -0.02471   0.02100
                          31        32        33        34        35
                           V         V         V         V         V
     Eigenvalues --     0.39048   0.41200   0.45121   0.47134   0.48880
   1 1   C  1S          0.01765   0.03085   0.00585  -0.03332  -0.02312
   2        2S         -0.01372  -0.01953   0.01428   0.01519   0.00019
   3        2PX         0.01113   0.02268   0.01768  -0.05434  -0.06775
   4        2PY        -0.02370  -0.02534  -0.09669   0.08523   0.03103
   5        2PZ         0.11679  -0.00076   0.03862   0.04098  -0.11683
   6        3S         -0.16480  -0.27606  -0.27985   0.39452   0.35876
   7        3PX         0.07535   0.12682   0.20961  -0.12317  -0.23831
   8        3PY        -0.12445  -0.11433  -0.11935   0.42877   0.11800
   9        3PZ         0.32751  -0.02414   0.13920   0.13907  -0.31084
  10 2   C  1S          0.01015   0.03562   0.05388  -0.00299  -0.02106
  11        2S         -0.00971  -0.01466  -0.01198  -0.00852   0.01234
  12        2PX         0.01843  -0.04777  -0.03032   0.03213  -0.00714
  13        2PY        -0.02259  -0.06617  -0.13897   0.08275  -0.03820
  14        2PZ        -0.01932  -0.05783  -0.06456  -0.00503   0.16598
  15        3S         -0.11817  -0.43516  -0.78319   0.14586   0.29221
  16        3PX         0.00244  -0.09441  -0.10972   0.13829   0.10100
  17        3PY        -0.07214  -0.25509  -0.52641   0.17889  -0.08406
  18        3PZ        -0.04111  -0.14004  -0.21912  -0.03005   0.47520
  19 3   C  1S          0.01030   0.03993   0.02077  -0.00730   0.03940
  20        2S         -0.01079  -0.01675   0.00657   0.00928   0.00076
  21        2PX        -0.01412  -0.07815  -0.07612  -0.02256  -0.09643
  22        2PY         0.02623  -0.03208  -0.05123   0.01137  -0.01729
  23        2PZ        -0.12791   0.05175   0.03901   0.01443  -0.15502
  24        3S         -0.07468  -0.45737  -0.40760   0.02982  -0.65483
  25        3PX        -0.07601  -0.26935  -0.22963  -0.00264  -0.30230
  26        3PY         0.02546  -0.12848  -0.04991  -0.04188  -0.13605
  27        3PZ        -0.31733   0.11972   0.11340  -0.01524  -0.48873
  28 4   C  1S          0.01380   0.00889  -0.00202   0.00153   0.02799
  29        2S         -0.01247  -0.00419  -0.01743  -0.01253  -0.01063
  30        2PX         0.07224  -0.03608   0.01992   0.05063  -0.09248
  31        2PY        -0.02311   0.00707  -0.05048   0.00817   0.05223
  32        2PZ        -0.22049   0.07215  -0.01011  -0.06673   0.04210
  33        3S         -0.15215  -0.13466   0.26044   0.27680  -0.40158
  34        3PX         0.16195  -0.03023   0.10420   0.19103  -0.28988
  35        3PY        -0.04609   0.00664   0.05396   0.03036   0.23502
  36        3PZ        -0.47074   0.20384  -0.05199  -0.18100   0.00867
  37 5   C  1S          0.00880   0.04744   0.00039   0.02343   0.03797
  38        2S         -0.00900  -0.01878  -0.00548   0.00547   0.00209
  39        2PX         0.05897  -0.11266  -0.00840  -0.08721  -0.04756
  40        2PY        -0.04151   0.06119  -0.02112   0.04738   0.04394
  41        2PZ         0.18624  -0.00862  -0.00234   0.05192   0.15625
  42        3S         -0.12926  -0.56017   0.02349  -0.48176  -0.64419
  43        3PX         0.13613  -0.37974  -0.00091  -0.32490  -0.12189
  44        3PY        -0.09385   0.18209   0.05872   0.12203   0.24941
  45        3PZ         0.46268   0.03372   0.02594   0.15488   0.49076
  46 6   C  1S          0.04369   0.03230  -0.02248  -0.05205  -0.02767
  47        2S         -0.01809  -0.01253  -0.01247   0.01460  -0.00245
  48        2PX         0.01283   0.06371  -0.07896  -0.02932  -0.13076
  49        2PY         0.01765   0.07171  -0.14814  -0.00814  -0.01359
  50        2PZ        -0.04819   0.02964   0.02285   0.04404  -0.01961
  51        3S         -0.48716  -0.37238   0.48401   0.65764   0.46815
  52        3PX         0.04841   0.28132  -0.29333  -0.02560  -0.62607
  53        3PY         0.06831   0.27935  -0.54413  -0.19572   0.06687
  54        3PZ        -0.29781   0.09626   0.04099   0.20575  -0.13052
  55 7   C  1S          0.02783   0.03644  -0.01739   0.04773  -0.04169
  56        2S         -0.02766  -0.00821  -0.00619  -0.00834   0.01822
  57        2PX        -0.00149  -0.00722  -0.00737   0.02926  -0.05066
  58        2PY         0.04628   0.08416  -0.09130   0.07712   0.02002
  59        2PZ        -0.11138   0.07044  -0.02970   0.01304  -0.03446
  60        3S         -0.24273  -0.49538   0.31029  -0.65573   0.59485
  61        3PX        -0.01805  -0.00425   0.06599   0.16419  -0.06307
  62        3PY         0.20684   0.27592  -0.26412   0.32092  -0.01604
  63        3PZ        -0.24396   0.19336  -0.14401   0.01144  -0.10364
  64 8   H  1S          0.02231   0.01353   0.02277   0.01755  -0.01658
  65        2S          0.28513   0.35902   0.45897  -0.64956  -0.47462
  66 9   H  1S          0.00605   0.02678   0.02631  -0.00725   0.00641
  67        2S          0.15681   0.60479   1.03676  -0.37376  -0.07693
  68 10  H  1S         -0.00192   0.03142   0.00745  -0.00146  -0.00288
  69        2S          0.08562   0.66773   0.50229   0.01307   0.66322
  70 11  H  1S         -0.00182   0.04058   0.00133   0.00358  -0.00599
  71        2S          0.09052   0.83798   0.01930   0.64715   0.75715
  72 12  H  1S          0.01278   0.02695  -0.01154   0.01699   0.01411
  73        2S          0.27124   0.69446  -0.54027   0.69736  -0.24433
  74 13  C  1S         -0.00186   0.00587  -0.04597  -0.09393   0.03901
  75        2S          0.00104   0.00263   0.01464   0.02995  -0.01969
  76        2PX        -0.02943   0.07316  -0.05946  -0.12544   0.00205
  77        2PY         0.05847  -0.00082  -0.08641   0.03304   0.00314
  78        2PZ         0.14409  -0.03933   0.01201  -0.01204  -0.03295
  79        3S         -0.00262  -0.09542   0.57856   1.23499  -0.47786
  80        3PX        -0.06229   0.26644  -0.30904  -0.59565   0.07052
  81        3PY         0.15311   0.02230  -0.42449   0.11464   0.00216
  82        3PZ         0.40039  -0.07632   0.04340  -0.12189  -0.10094
  83 14  H  1S         -0.00716  -0.00717  -0.00793  -0.00687   0.02086
  84        2S          0.09447   0.18949  -0.83768  -0.76870   0.31574
  85 15  H  1S         -0.00134   0.00404  -0.00544  -0.01481  -0.00559
  86        2S         -0.00658   0.12454  -0.01338  -1.04681   0.16030
  87 16  H  1S          0.07288  -0.04123   0.00621  -0.00726   0.01514
  88        2S          0.64838  -0.24890   0.06046  -0.43854   0.19106
  89 17  H  1S          0.01569   0.03490  -0.01182   0.03055  -0.02554
  90        2S          0.34192   0.67504  -0.88158  -0.30674  -0.66150
                          36        37        38        39        40
                           V         V         V         V         V
     Eigenvalues --     0.50120   0.52136   0.53108   0.54858   0.55556
   1 1   C  1S         -0.03988   0.01790   0.02378  -0.01975  -0.06309
   2        2S          0.00641   0.00724  -0.01404  -0.01049   0.04126
   3        2PX        -0.05087   0.02583   0.00409  -0.05279  -0.01454
   4        2PY         0.02133  -0.09086   0.04920   0.04537   0.05334
   5        2PZ         0.01774   0.06637   0.13823   0.06368   0.02427
   6        3S          0.49233  -0.36263  -0.18111   0.53564   0.55436
   7        3PX        -0.18213   0.22583  -0.13746  -0.15549  -0.30017
   8        3PY         0.12089  -0.47455   0.09157   0.00493   0.55438
   9        3PZ         0.06078   0.13906   0.38921   0.17444   0.09354
  10 2   C  1S         -0.00495  -0.03067  -0.00475  -0.02985   0.07961
  11        2S         -0.02185   0.01531   0.00209   0.03334  -0.03665
  12        2PX         0.02896   0.02054  -0.03107   0.02234  -0.07069
  13        2PY         0.10851   0.07993   0.04893   0.00804  -0.10892
  14        2PZ        -0.06488  -0.00118  -0.11909  -0.04897  -0.02471
  15        3S          0.25940   0.44753   0.15659   0.12701  -0.94966
  16        3PX         0.13492   0.12382  -0.17197   0.24372  -0.42486
  17        3PY         0.28657   0.43329   0.20129   0.34802  -0.85980
  18        3PZ        -0.14274  -0.02799  -0.34951  -0.14164  -0.11708
  19 3   C  1S          0.00014  -0.01500  -0.01946   0.08384  -0.07068
  20        2S         -0.00218   0.00350   0.02154  -0.03539   0.03273
  21        2PX        -0.00530   0.06244  -0.05489  -0.12805   0.05588
  22        2PY        -0.00894   0.00500  -0.06549  -0.02857   0.04576
  23        2PZ         0.08085   0.00247   0.10643   0.04624   0.00725
  24        3S         -0.06016   0.29203   0.10503  -0.96734   0.88351
  25        3PX         0.04062   0.26268  -0.11365  -0.98316   0.60304
  26        3PY        -0.04753  -0.04699  -0.15403  -0.27417   0.38543
  27        3PZ         0.23292  -0.06334   0.27466   0.20204   0.01991
  28 4   C  1S         -0.02681  -0.01310  -0.03069  -0.00247   0.01718
  29        2S         -0.00143   0.02190   0.01900   0.01152  -0.00898
  30        2PX         0.01646   0.01071   0.03541  -0.02244  -0.08250
  31        2PY        -0.07826  -0.00502   0.00476  -0.01947  -0.00729
  32        2PZ         0.00446  -0.05766  -0.12340  -0.05619  -0.03541
  33        3S          0.36475   0.01968   0.31642  -0.00387  -0.03728
  34        3PX         0.07366  -0.06015   0.06640  -0.13072  -0.12135
  35        3PY        -0.22320   0.12268  -0.21296  -0.14743   0.08658
  36        3PZ         0.09660  -0.26549  -0.31271  -0.14984  -0.09242
  37 5   C  1S          0.01741   0.02571   0.04557  -0.08356   0.00354
  38        2S         -0.00817   0.00594  -0.01922   0.05347  -0.00873
  39        2PX        -0.11957  -0.04629  -0.08019   0.05745  -0.01473
  40        2PY         0.07150   0.03059   0.04372  -0.02051  -0.04911
  41        2PZ        -0.07140   0.08202  -0.04175  -0.05423  -0.01052
  42        3S         -0.26454  -0.55093  -0.62010   0.83147   0.09873
  43        3PX        -0.48242  -0.21740  -0.43808   0.71087  -0.18863
  44        3PY         0.24411   0.11283   0.27313  -0.35362  -0.19083
  45        3PZ        -0.12829   0.22880   0.00882  -0.38118  -0.03397
  46 6   C  1S          0.09135  -0.05183  -0.03436  -0.04629  -0.05423
  47        2S         -0.02419  -0.01363   0.00465   0.02610   0.01697
  48        2PX        -0.04438   0.01433  -0.04991   0.00911  -0.01668
  49        2PY        -0.07354  -0.08666  -0.01454  -0.03923  -0.04289
  50        2PZ        -0.13950   0.16360   0.02496  -0.00152  -0.04159
  51        3S         -1.19810   1.03660   0.54717   0.46595   0.70668
  52        3PX        -0.15859  -0.04045   0.09182  -0.01516  -0.13453
  53        3PY        -0.41244  -0.26244  -0.11678  -0.26507  -0.21568
  54        3PZ        -0.60316   0.58332   0.09059   0.02243  -0.22709
  55 7   C  1S          0.00173   0.00941  -0.02754   0.07201   0.05171
  56        2S         -0.00970   0.00629   0.00616  -0.04126  -0.00034
  57        2PX         0.01215   0.00057   0.04893  -0.00262   0.01468
  58        2PY        -0.00346   0.06726  -0.13269   0.02325   0.08275
  59        2PZ         0.08726  -0.03193   0.00094   0.02961   0.02773
  60        3S         -0.09453  -0.19885   0.37409  -0.70031  -0.92295
  61        3PX         0.04560   0.08356   0.31160   0.00898   0.13837
  62        3PY        -0.06763   0.28232  -0.65925   0.51096   0.34376
  63        3PZ         0.32929  -0.19458  -0.20719   0.16192   0.12128
  64 8   H  1S         -0.01528  -0.01324  -0.01176   0.00196  -0.03001
  65        2S         -0.46542   0.65370  -0.11992  -0.37958  -0.96067
  66 9   H  1S          0.00444   0.00864   0.00102  -0.00916  -0.00942
  67        2S         -0.45832  -0.64254  -0.15547  -0.42196   1.35734
  68 10  H  1S         -0.00054   0.00080  -0.00256  -0.00180   0.00876
  69        2S          0.03006  -0.40704   0.19219   1.47399  -1.04219
  70 11  H  1S          0.00917  -0.00958  -0.00619   0.00113   0.00629
  71        2S          0.64657   0.55199   0.72253  -1.22041  -0.00162
  72 12  H  1S         -0.02598   0.01168   0.00363   0.00955  -0.01741
  73        2S          0.04745   0.35399  -0.90946   0.85691   0.77891
  74 13  C  1S          0.02684   0.05020   0.05239   0.04085   0.05039
  75        2S         -0.01728  -0.00735  -0.00820  -0.00736  -0.00595
  76        2PX        -0.03315   0.06161   0.04092   0.02773   0.05002
  77        2PY        -0.10148  -0.15110   0.17098  -0.00244   0.02772
  78        2PZ         0.03784   0.08187   0.02020   0.03942   0.03493
  79        3S         -0.25551  -0.77925  -0.74928  -0.61344  -0.71950
  80        3PX        -0.08316   0.16478   0.06197   0.03641   0.12045
  81        3PY        -0.50547  -0.72997   0.85850   0.04253   0.03214
  82        3PZ         0.14545   0.37362   0.01898   0.08975   0.06559
  83 14  H  1S         -0.02582   0.02303   0.01606   0.01257   0.00497
  84        2S         -0.48340  -0.23343   1.26488   0.34227   0.49169
  85 15  H  1S          0.03414  -0.01082  -0.00116   0.00157   0.01555
  86        2S          0.70404   1.26619  -0.39503   0.33400   0.38716
  87 16  H  1S          0.00575   0.00537   0.00919   0.02224   0.02135
  88        2S          1.26901  -0.88326  -0.21497  -0.14568   0.06596
  89 17  H  1S         -0.02849  -0.00241  -0.00346  -0.02328  -0.01943
  90        2S         -0.05507  -0.61195  -0.30851  -0.46241  -0.58249
                          41        42        43        44        45
                           V         V         V         V         V
     Eigenvalues --     0.56997   0.64597   0.66959   0.73112   0.74003
   1 1   C  1S          0.07688   0.01172   0.05568   0.01712  -0.08792
   2        2S         -0.02450  -0.00409  -0.00970  -0.01597   0.00147
   3        2PX         0.07623  -0.11001   0.00451  -0.08788   0.09898
   4        2PY        -0.11487  -0.03567   0.10014   0.01534  -0.03976
   5        2PZ        -0.04683  -0.01728  -0.07288  -0.00851  -0.02516
   6        3S         -1.11186  -0.28338  -0.89248   0.16219   1.97659
   7        3PX         0.33450  -0.67446   0.37705  -0.79910  -0.06318
   8        3PY        -0.73263  -0.33131   0.67535   0.00525  -0.49123
   9        3PZ        -0.13340  -0.03796  -0.24224   0.00432  -0.30328
  10 2   C  1S         -0.03413  -0.04078   0.03004  -0.08850   0.01634
  11        2S          0.02294  -0.00932   0.00451   0.01954  -0.02869
  12        2PX        -0.04852  -0.03972  -0.04724   0.04883   0.08778
  13        2PY         0.02534   0.01790   0.02966  -0.14886   0.02300
  14        2PZ         0.01327  -0.02827   0.08958  -0.00914   0.02761
  15        3S          0.35382   1.02994  -0.73814   1.94765   0.13640
  16        3PX        -0.19891  -0.30371  -0.44142   0.33342   1.10043
  17        3PY         0.40599   0.12267   0.39768  -1.00067  -0.25909
  18        3PZ         0.08541  -0.01020   0.34757  -0.19631   0.06764
  19 3   C  1S         -0.00877  -0.03672  -0.06533   0.03639   0.05563
  20        2S         -0.02593  -0.00051   0.01751   0.00256   0.00800
  21        2PX         0.06811  -0.00568  -0.11911   0.06942   0.06727
  22        2PY         0.00377  -0.14699  -0.00764  -0.07943  -0.03947
  23        2PZ        -0.00529  -0.03002  -0.07063  -0.00929  -0.04407
  24        3S          0.54028   0.69598   1.26995  -0.88334  -1.41196
  25        3PX         0.09226  -0.06746  -0.65073   0.85066   0.64988
  26        3PY        -0.05551  -0.90200  -0.09795  -1.20625   0.19069
  27        3PZ         0.01219  -0.11619  -0.26043  -0.19049  -0.14364
  28 4   C  1S         -0.00629   0.08703  -0.13890  -0.07693   0.04444
  29        2S          0.01113   0.01464   0.04090  -0.00962   0.00982
  30        2PX        -0.00681  -0.01958   0.01518  -0.08036   0.03227
  31        2PY         0.07134   0.07923   0.00947  -0.14755  -0.21310
  32        2PZ         0.05789  -0.00617   0.11706   0.03236   0.14815
  33        3S         -0.01711  -1.74729   2.51235   1.78217  -1.08920
  34        3PX        -0.19360  -0.14819   0.07757  -0.47799   0.50409
  35        3PY         0.19490   0.46324   0.03653  -1.25783  -1.54267
  36        3PZ         0.26534   0.02213   0.37704   0.06648   0.87700
  37 5   C  1S         -0.00889   0.06088   0.00081   0.07531  -0.04840
  38        2S          0.02047  -0.00534   0.00384  -0.00562   0.01683
  39        2PX        -0.05746   0.00258  -0.03588   0.05269  -0.06254
  40        2PY        -0.01734  -0.06255  -0.09008  -0.04387   0.07649
  41        2PZ        -0.02114  -0.05810   0.07613  -0.02205   0.07701
  42        3S         -0.14913  -1.31800   0.01927  -1.90529   0.76811
  43        3PX        -0.07692  -0.10440  -0.38621   0.76122  -0.70603
  44        3PY        -0.22796  -0.48921  -0.81782   0.12400   0.63022
  45        3PZ        -0.16065  -0.13898   0.29108  -0.28806   0.53215
  46 6   C  1S         -0.02689  -0.10378   0.01486   0.05133  -0.01634
  47        2S          0.01706  -0.00227   0.00070   0.01421   0.00169
  48        2PX        -0.10299   0.09503   0.13841   0.03673   0.06680
  49        2PY        -0.10726   0.03975  -0.08950  -0.03884  -0.10035
  50        2PZ        -0.13625  -0.13106  -0.00454   0.01090   0.00849
  51        3S          0.30728   1.82093  -0.21373  -0.97527   0.18834
  52        3PX        -0.48507   0.67772   1.04201   0.53328   1.26130
  53        3PY        -0.59276   0.38168  -0.75954  -0.87825  -0.99747
  54        3PZ        -0.65776  -1.03299  -0.01330   0.44427  -0.17542
  55 7   C  1S          0.05141   0.04512   0.06896  -0.04966   0.07124
  56        2S         -0.01200   0.01646  -0.01408  -0.00431   0.00117
  57        2PX         0.01912   0.12260   0.00225   0.09812   0.06667
  58        2PY         0.08196  -0.06892  -0.03838   0.12175  -0.04342
  59        2PZ         0.05289  -0.06603  -0.11093  -0.02364  -0.11905
  60        3S         -0.81262  -0.92246  -1.41317   0.94004  -1.46321
  61        3PX         0.17311   1.11438  -0.04413   0.79344   0.50291
  62        3PY         0.52820  -0.43573  -0.40829   1.00285  -0.80486
  63        3PZ         0.31116  -0.46860  -0.50742  -0.23743  -0.70373
  64 8   H  1S         -0.02375  -0.01318  -0.01551   0.07087   0.06141
  65        2S          1.28188  -0.10124  -0.07176  -0.26049  -0.09236
  66 9   H  1S          0.00106   0.06495  -0.03080   0.04831   0.02568
  67        2S         -0.42321  -0.19243  -0.07188   0.31986  -0.11805
  68 10  H  1S          0.03061   0.01827   0.02497  -0.02861  -0.04180
  69        2S         -0.25438   0.17964   0.29234  -0.13207  -0.19718
  70 11  H  1S         -0.01470  -0.06558  -0.01333  -0.07258  -0.06505
  71        2S         -0.04313   0.04736   0.05238  -0.14491   0.56471
  72 12  H  1S         -0.02584  -0.01002  -0.06105  -0.05330  -0.01110
  73        2S          0.91418  -0.28311  -0.16128   0.45257  -0.37297
  74 13  C  1S         -0.00101  -0.03634   0.04136   0.04642  -0.04047
  75        2S         -0.00720   0.00394   0.00662  -0.00198   0.01346
  76        2PX        -0.01572  -0.00053  -0.00108  -0.03149   0.06619
  77        2PY         0.08187  -0.08467  -0.02596   0.00728   0.05923
  78        2PZ        -0.06853   0.03026   0.01341  -0.03909   0.03828
  79        3S          0.03541   0.58731  -0.70234  -0.89797   0.78131
  80        3PX        -0.03143   0.40140  -0.52117  -0.91240   0.96722
  81        3PY         0.50156  -0.50524  -0.13584   0.45393   0.86198
  82        3PZ        -0.33311   0.23256  -0.31908  -0.48170   0.05734
  83 14  H  1S          0.03067   0.04138  -0.00360  -0.05549  -0.02027
  84        2S          0.50793  -0.52132  -0.03598   0.18955   0.79771
  85 15  H  1S         -0.03696  -0.02490  -0.02114   0.00088   0.06997
  86        2S         -0.69190   0.37472   0.13221  -0.45310  -0.37805
  87 16  H  1S         -0.00151   0.04234  -0.00000  -0.04332   0.02029
  88        2S          0.78202   0.14460   0.00329  -0.02111  -0.03162
  89 17  H  1S         -0.00148   0.07571  -0.01198  -0.01871  -0.01798
  90        2S         -0.95147   0.21424   0.22395   0.12051  -0.14355
                          46        47        48        49        50
                           V         V         V         V         V
     Eigenvalues --     0.79396   0.81832   0.88348   0.95048   1.04749
   1 1   C  1S          0.04050  -0.00861  -0.11775   0.01754   0.01068
   2        2S         -0.00939  -0.01158  -0.00282  -0.01740  -0.11247
   3        2PX        -0.09174  -0.09398   0.00416   0.03129  -0.19392
   4        2PY         0.02351  -0.06853  -0.14869   0.12112   0.19378
   5        2PZ         0.05106  -0.01280  -0.02071   0.00567  -0.02542
   6        3S         -1.18477   0.43619   2.77975   0.12205  -0.27582
   7        3PX        -1.74744  -1.47851   1.44762   2.14985   0.11785
   8        3PY         0.42789  -1.50295  -1.23876   1.91421   0.03294
   9        3PZ        -0.20002   0.04813  -0.02183   0.22577  -0.03422
  10 2   C  1S         -0.03015  -0.04665   0.09817  -0.04081   0.00063
  11        2S         -0.03071  -0.00836  -0.02864   0.00105  -0.13700
  12        2PX        -0.00046  -0.14606   0.12292   0.21693   0.11491
  13        2PY         0.00662   0.02698   0.12375  -0.10182   0.27147
  14        2PZ         0.02216   0.01475   0.02012  -0.02434  -0.02296
  15        3S          1.45993   1.42956  -2.06131   0.93729   0.09824
  16        3PX        -1.27235  -0.82288   1.45385   3.00407  -0.21308
  17        3PY        -0.08070  -0.02140   1.47784  -1.62085  -0.35187
  18        3PZ         0.08285  -0.04150   0.17338  -0.29767   0.01172
  19 3   C  1S         -0.04384   0.00467  -0.10640   0.04460   0.01510
  20        2S         -0.00461  -0.02421   0.00340   0.00454  -0.11722
  21        2PX        -0.02568   0.08984  -0.07035   0.08582   0.25743
  22        2PY        -0.00502  -0.04890  -0.15764  -0.12138   0.10837
  23        2PZ         0.00969  -0.01963  -0.02952  -0.01097  -0.08163
  24        3S          1.30072   0.54042   2.37096  -1.23001  -0.09322
  25        3PX        -0.08087   0.59216  -1.35922   1.79650  -0.14297
  26        3PY        -0.64298  -0.02800  -1.68229  -2.77312   0.02637
  27        3PZ        -0.16132  -0.14562  -0.22624  -0.66085   0.02181
  28 4   C  1S          0.03105   0.01916   0.04444  -0.01920   0.00763
  29        2S         -0.02912  -0.00619  -0.02470  -0.00464  -0.03663
  30        2PX         0.23006  -0.12319  -0.08996  -0.01407  -0.26262
  31        2PY        -0.08133  -0.14095  -0.06735   0.14343  -0.06315
  32        2PZ         0.09820  -0.07289  -0.02709  -0.09598   0.02912
  33        3S         -1.48881  -0.41090  -0.51321   0.98818   0.21549
  34        3PX         2.62388  -1.67344  -1.26054   0.68649   0.41536
  35        3PY        -0.84502  -1.39272  -0.79126   2.16923   0.13513
  36        3PZ         0.91757  -0.63496  -0.27266  -0.17069   0.11613
  37 5   C  1S          0.02682  -0.06867   0.08501  -0.02509   0.00170
  38        2S         -0.01794  -0.01142  -0.01099   0.02624  -0.13103
  39        2PX        -0.01071  -0.10686   0.08435  -0.17779   0.25919
  40        2PY        -0.15545  -0.08423  -0.04046  -0.14350  -0.10223
  41        2PZ         0.00526   0.02263  -0.03391   0.00075  -0.07812
  42        3S         -0.37812   2.13667  -2.02365   0.40955   0.04701
  43        3PX        -0.07114  -1.79281   0.35991  -1.84666  -0.25664
  44        3PY        -1.17601  -1.13150  -2.02830  -1.96720   0.18624
  45        3PZ        -0.21324   0.38531  -0.54071  -0.01879   0.13911
  46 6   C  1S          0.06787   0.00560   0.02536  -0.01582   0.00905
  47        2S          0.02042   0.00872  -0.00628   0.01078  -0.06418
  48        2PX        -0.01401  -0.03895   0.07822   0.00284  -0.27118
  49        2PY        -0.03221   0.10078  -0.08721   0.01169  -0.23153
  50        2PZ         0.07029   0.07237   0.00333  -0.01027   0.01094
  51        3S         -1.85746  -0.49238  -0.52399   0.13029   0.04296
  52        3PX        -0.76109   0.45850  -0.42095  -0.90074   0.23716
  53        3PY        -0.91519   0.83643   0.36949   0.82027   0.06718
  54        3PZ         0.87238   0.43672   0.39765  -0.11910   0.03955
  55 7   C  1S         -0.01699   0.06214  -0.04202   0.04286   0.00244
  56        2S         -0.02629   0.00848  -0.00054   0.04074  -0.08300
  57        2PX        -0.06560  -0.08260  -0.15577  -0.00370  -0.10456
  58        2PY         0.03810  -0.07616   0.04713  -0.00262  -0.20927
  59        2PZ         0.02972   0.03377   0.08751   0.07453  -0.04641
  60        3S          0.32051  -1.95129   0.49723  -1.57240  -0.07647
[...]
  82        3PZ        -0.00000  -0.00000   0.00000   0.00000  -0.00000
  83 14  H  1S          0.00000   0.00000   0.00000   0.00000   0.00000
  84        2S          0.00000   0.00000  -0.00000  -0.00000   0.00000
  85 15  H  1S         -0.00000  -0.00000   0.00000  -0.00000   0.00000
  86        2S         -0.00000  -0.00000  -0.00000  -0.00000  -0.00000
  87 16  H  1S          0.00000   0.00000   0.00000   0.00000   0.00000
  88        2S          0.00000   0.00003   0.00000   0.00002   0.00000
  89 17  H  1S          0.00000   0.00000   0.00000   0.00000  -0.00000
  90        2S          0.00000   0.00000   0.00000   0.00000  -0.00000
                          71        72        73        74        75
  71        2S          0.16311
  72 12  H  1S         -0.00049   0.18062
  73        2S         -0.00159   0.10472   0.15859
  74 13  C  1S          0.00000   0.00000   0.00000   2.03377
  75        2S          0.00000  -0.00000  -0.00000   0.01932   0.11173
  76        2PX        -0.00000  -0.00000  -0.00000   0.00000   0.00000
  77        2PY        -0.00000   0.00000   0.00000   0.00000   0.00000
  78        2PZ        -0.00000   0.00000   0.00000   0.00000   0.00000
  79        3S          0.00000  -0.00000  -0.00003  -0.06362   0.15691
  80        3PX        -0.00000  -0.00000  -0.00005   0.00000   0.00000
  81        3PY        -0.00000   0.00000  -0.00002   0.00000   0.00000
  82        3PZ        -0.00000   0.00000   0.00000   0.00000   0.00000
  83 14  H  1S          0.00000  -0.00000   0.00000  -0.00110   0.01044
  84        2S          0.00000  -0.00000   0.00001   0.00006   0.00839
  85 15  H  1S         -0.00000   0.00000   0.00000  -0.00109   0.01053
  86        2S         -0.00000   0.00000   0.00000   0.00010   0.00861
  87 16  H  1S          0.00000   0.00000   0.00012  -0.00000   0.00000
  88        2S          0.00006   0.00015   0.00227  -0.00000   0.00003
  89 17  H  1S         -0.00000  -0.00001  -0.00081   0.00000  -0.00000
  90        2S         -0.00007  -0.00068  -0.00368   0.00002  -0.00015
                          76        77        78        79        80
  76        2PX         0.29064
  77        2PY         0.00000   0.25929
  78        2PZ         0.00000   0.00000   0.26704
  79        3S          0.00000   0.00000   0.00000   0.57839
  80        3PX         0.09732   0.00000   0.00000   0.00000   0.14277
  81        3PY         0.00000   0.11658   0.00000   0.00000   0.00000
  82        3PZ         0.00000   0.00000   0.16912   0.00000   0.00000
  83 14  H  1S          0.01556   0.04034   0.00001   0.05645   0.01685
  84        2S          0.01414   0.03396   0.00002   0.05408   0.02102
  85 15  H  1S          0.01144   0.03508   0.00955   0.05725   0.01236
  86        2S          0.01034   0.02883   0.00801   0.05557   0.01487
  87 16  H  1S          0.00000   0.00000  -0.00000   0.00002   0.00008
  88        2S          0.00013   0.00003  -0.00010   0.00078   0.00182
  89 17  H  1S         -0.00000  -0.00000  -0.00000  -0.00038   0.00001
  90        2S         -0.00018  -0.00006  -0.00024  -0.00158   0.00026
                          81        82        83        84        85
  81        3PY         0.19981
  82        3PZ         0.00000   0.41595
  83 14  H  1S          0.05818   0.00008   0.18121
  84        2S          0.07128   0.00016   0.10864   0.17124
  85 15  H  1S          0.05140   0.01263  -0.00016  -0.00569   0.18081
  86        2S          0.06296   0.01447  -0.00541  -0.02117   0.10619
  87 16  H  1S          0.00004  -0.00008   0.00000   0.00000  -0.00000
  88        2S          0.00069  -0.00171   0.00001   0.00021  -0.00000
  89 17  H  1S          0.00004  -0.00018  -0.00000   0.00003   0.00000
  90        2S          0.00174  -0.00146   0.00014   0.00178   0.00000
                          86        87        88        89        90
  86        2S          0.16352
  87 16  H  1S         -0.00000   0.17323
  88        2S         -0.00009   0.10694   0.19101
  89 17  H  1S          0.00001  -0.00016  -0.00481   0.17673
  90        2S          0.00011  -0.00519  -0.01664   0.10820   0.17824
     Gross orbital populations:
                           1
   1 1   C  1S          1.98750
   2        2S          0.37566
   3        2PX         0.57849
   4        2PY         0.53253
   5        2PZ         0.52808
   6        3S          0.86168
   7        3PX         0.28638
   8        3PY         0.38290
   9        3PZ         0.80113
  10 2   C  1S          1.98808
  11        2S          0.40238
  12        2PX         0.63886
  13        2PY         0.55690
  14        2PZ         0.37483
  15        3S          0.87735
  16        3PX         0.30875
  17        3PY         0.45785
  18        3PZ         0.55417
  19 3   C  1S          1.98738
  20        2S          0.37477
  21        2PX         0.53586
  22        2PY         0.57401
  23        2PZ         0.53138
  24        3S          0.86209
  25        3PX         0.43088
  26        3PY         0.28417
  27        3PZ         0.80367
  28 4   C  1S          1.98868
  29        2S          0.40053
  30        2PX         0.59548
  31        2PY         0.57583
  32        2PZ         0.40490
  33        3S          0.87605
  34        3PX         0.33895
  35        3PY         0.33029
  36        3PZ         0.47117
  37 5   C  1S          1.98800
  38        2S          0.39941
  39        2PX         0.56319
  40        2PY         0.60469
  41        2PZ         0.41424
  42        3S          0.87828
  43        3PX         0.41609
  44        3PY         0.35185
  45        3PZ         0.55437
  46 6   C  1S          1.98966
  47        2S          0.34690
  48        2PX         0.55067
  49        2PY         0.53209
  50        2PZ         0.53046
  51        3S          1.16171
  52        3PX         0.40738
  53        3PY         0.41729
  54        3PZ         0.51908
  55 7   C  1S          1.98761
  56        2S          0.37883
  57        2PX         0.56908
  58        2PY         0.53373
  59        2PZ         0.50400
  60        3S          0.87402
  61        3PX         0.30329
  62        3PY         0.48226
  63        3PZ         0.64544
  64 8   H  1S          0.46739
  65        2S          0.40058
  66 9   H  1S          0.47335
  67        2S          0.38483
  68 10  H  1S          0.46994
  69        2S          0.41370
  70 11  H  1S          0.47310
  71        2S          0.38688
  72 12  H  1S          0.47078
  73        2S          0.39317
  74 13  C  1S          1.98673
  75        2S          0.37719
  76        2PX         0.56978
  77        2PY         0.51379
  78        2PZ         0.50972
  79        3S          0.91246
  80        3PX         0.37151
  81        3PY         0.52003
  82        3PZ         0.72469
  83 14  H  1S          0.47119
  84        2S          0.41104
  85 15  H  1S          0.47032
  86        2S          0.40377
  87 16  H  1S          0.45399
  88        2S          0.36192
  89 17  H  1S          0.46123
  90        2S          0.38369
          Condensed to atoms (all electrons):
               1          2          3          4          5          6
     1  C    5.337751   0.495991  -0.097975   0.406338  -0.002067  -0.089616
     2  C    0.495991   5.064827   0.469747  -0.091589  -0.094672   0.000939
     3  C   -0.097975   0.469747   5.376246  -0.001169   0.417052   0.000914
     4  C    0.406338  -0.091589  -0.001169   5.223758   0.003458   0.265350
     5  C   -0.002067  -0.094672   0.417052   0.003458   5.094101  -0.094264
     6  C   -0.089616   0.000939   0.000914   0.265350  -0.094264   5.405949
     7  C    0.007659  -0.000860  -0.101028  -0.105302   0.540086   0.288850
     8  H    0.413299  -0.045113   0.002574  -0.050172  -0.000071   0.002751
     9  H   -0.048062   0.398220  -0.049576   0.003134   0.003174  -0.000017
    10  H    0.002808  -0.045291   0.407528  -0.000062  -0.047260  -0.000008
    11  H   -0.000001   0.002960  -0.046993  -0.000073   0.395926   0.002820
    12  H   -0.000043  -0.000017   0.002688   0.002820  -0.044730  -0.048179
    13  C   -0.089191   0.001268   0.000281   0.553134   0.000236  -0.068113
    14  H    0.002611  -0.000074   0.000001  -0.056939  -0.000004  -0.003216
    15  H   -0.000191   0.000161   0.000001  -0.058052  -0.000002   0.003135
    16  H   -0.008366   0.002722   0.003996  -0.064509  -0.004498   0.396321
    17  H    0.003402  -0.000048  -0.000081  -0.048243   0.003654   0.391623
               7          8          9         10         11         12
     1  C    0.007659   0.413299  -0.048062   0.002808  -0.000001  -0.000043
     2  C   -0.000860  -0.045113   0.398220  -0.045291   0.002960  -0.000017
     3  C   -0.101028   0.002574  -0.049576   0.407528  -0.046993   0.002688
     4  C   -0.105302  -0.050172   0.003134  -0.000062  -0.000073   0.002820
     5  C    0.540086  -0.000071   0.003174  -0.047260   0.395926  -0.044730
     6  C    0.288850   0.002751  -0.000017  -0.000008   0.002820  -0.048179
     7  C    5.398638  -0.000019  -0.000050   0.002856  -0.048317   0.408083
     8  H   -0.000019   0.548902  -0.003874  -0.000069   0.000001   0.000001
     9  H   -0.000050  -0.003874   0.558854  -0.003530  -0.000065   0.000001
    10  H    0.002856  -0.000069  -0.003530   0.568990  -0.002273  -0.000067
    11  H   -0.048317   0.000001  -0.000065  -0.002273   0.558546  -0.002542
    12  H    0.408083   0.000001   0.000001  -0.000067  -0.002542   0.548649
    13  C   -0.002441  -0.002198  -0.000065   0.000000  -0.000003  -0.000100
    14  H    0.000414   0.000024   0.000001  -0.000000   0.000000   0.000013
    15  H   -0.000116   0.001956  -0.000003  -0.000000  -0.000000   0.000001
    16  H   -0.065638   0.000044   0.000032   0.000017   0.000060   0.002534
    17  H   -0.044544  -0.000070   0.000001   0.000000  -0.000068  -0.005165
              13         14         15         16         17
     1  C   -0.089191   0.002611  -0.000191  -0.008366   0.003402
     2  C    0.001268  -0.000074   0.000161   0.002722  -0.000048
     3  C    0.000281   0.000001   0.000001   0.003996  -0.000081
     4  C    0.553134  -0.056939  -0.058052  -0.064509  -0.048243
     5  C    0.000236  -0.000004  -0.000002  -0.004498   0.003654
     6  C   -0.068113  -0.003216   0.003135   0.396321   0.391623
     7  C   -0.002441   0.000414  -0.000116  -0.065638  -0.044544
     8  H   -0.002198   0.000024   0.001956   0.000044  -0.000070
     9  H   -0.000065   0.000001  -0.000003   0.000032   0.000001
    10  H    0.000000  -0.000000  -0.000000   0.000017   0.000000
    11  H   -0.000003   0.000000  -0.000000   0.000060  -0.000068
    12  H   -0.000100   0.000013   0.000001   0.002534  -0.005165
    13  C    5.290692   0.399938   0.402906   0.001742  -0.002169
    14  H    0.399938   0.569719  -0.032428   0.000226   0.001943
    15  H    0.402906  -0.032428   0.556700  -0.000094   0.000115
    16  H    0.001742   0.000226  -0.000094   0.578117  -0.026805
    17  H   -0.002169   0.001943   0.000115  -0.026805   0.571374
 Mulliken charges:
               1
     1  C   -0.334347
     2  C   -0.159171
     3  C   -0.384205
     4  C    0.018116
     5  C   -0.170120
     6  C   -0.455237
     7  C   -0.278272
     8  H    0.132034
     9  H    0.141826
    10  H    0.116361
    11  H    0.140019
    12  H    0.136054
    13  C   -0.485917
    14  H    0.117770
    15  H    0.125912
    16  H    0.184098
    17  H    0.155079
 Sum of Mulliken charges =  -1.00000
 Mulliken charges with hydrogens summed into heavy atoms:
               1
     1  C   -0.202313
     2  C   -0.017345
     3  C   -0.267844
     4  C    0.018116
     5  C   -0.030101
     6  C   -0.116060
     7  C   -0.142218
    13  C   -0.242235
 Electronic spatial extent (au):  <R**2>=            930.2887
 Charge=             -1.0000 electrons
 Dipole moment (field-independent basis, Debye):
    X=              0.3424    Y=             -0.7927    Z=              0.5584  Tot=              1.0283
 Quadrupole moment (field-independent basis, Debye-Ang):
   XX=            -66.4024   YY=            -56.8485   ZZ=            -58.4155
   XY=              0.9945   XZ=             -1.0997   YZ=              0.2485
 Traceless Quadrupole moment (field-independent basis, Debye-Ang):
   XX=             -5.8469   YY=              3.7070   ZZ=              2.1400
   XY=              0.9945   XZ=             -1.0997   YZ=              0.2485
 Octapole moment (field-independent basis, Debye-Ang**2):
  XXX=             13.4675  YYY=              1.3418  ZZZ=              3.0877  XYY=             -2.9755
  XXY=             -2.6565  XXZ=             -1.5424  XZZ=              0.2968  YZZ=             -1.8075
  YYZ=             -1.0277  XYZ=              2.9722
 Hexadecapole moment (field-independent basis, Debye-Ang**3):
 XXXX=           -851.8380 YYYY=           -474.5641 ZZZZ=           -114.2998 XXXY=             -0.0803
 XXXZ=             -4.1191 YYYX=              8.5383 YYYZ=              5.8485 ZZZX=             -2.8349
 ZZZY=             -1.8302 XXYY=           -208.8106 XXZZ=           -163.8970 YYZZ=           -106.2193
 XXYZ=              1.1575 YYXZ=             -0.6396 ZZXY=             -1.8859
 N-N= 3.350795612699D+02 E-N=-1.393753906676D+03  KE= 3.058114635545D+02
 Orbital energies and kinetic energies (alpha):
                                 1                 2
   1         O               -11.001558         15.877262
   2         O               -10.996594         15.882419
   3         O               -10.994554         15.876343
   4         O               -10.991611         15.875783
   5         O               -10.964955         15.873388
   6         O               -10.953231         15.870808
   7         O               -10.940378         15.872249
   8         O               -10.939979         15.874389
   9         O                -0.939903          1.426018
  10         O                -0.864485          1.529973
  11         O                -0.842909          1.522200
  12         O                -0.747947          1.483449
  13         O                -0.695063          1.454844
  14         O                -0.626121          1.385778
  15         O                -0.524526          1.282266
  16         O                -0.498437          1.252115
  17         O                -0.489054          0.953193
  18         O                -0.433889          1.033723
  19         O                -0.410619          1.129145
  20         O                -0.391992          1.130161
  21         O                -0.372847          1.111777
  22         O                -0.339494          1.204754
  23         O                -0.307854          1.253831
  24         O                -0.303079          1.240869
  25         O                -0.284057          1.238959
  26         O                -0.262323          1.009365
  27         O                -0.194256          1.081893
  28         O                -0.139613          1.056919
  29         O                -0.017854          1.121859
  30         V                 0.324448          1.203648
  31         V                 0.390484          1.163942
  32         V                 0.412001          0.914786
  33         V                 0.451209          0.943320
  34         V                 0.471342          1.022510
  35         V                 0.488804          1.216021
  36         V                 0.501201          1.122899
  37         V                 0.521357          1.036888
  38         V                 0.531082          1.200742
  39         V                 0.548583          1.235754
  40         V                 0.555561          1.230775
  41         V                 0.569966          1.147122
  42         V                 0.645970          1.636027
  43         V                 0.669585          1.797227
  44         V                 0.731119          1.690123
  45         V                 0.740033          1.722985
  46         V                 0.793958          1.478251
  47         V                 0.818319          1.584151
  48         V                 0.883478          2.239228
  49         V                 0.950477          1.717937
  50         V                 1.047487          2.034716
  51         V                 1.115506          2.244931
  52         V                 1.144072          2.524667
  53         V                 1.151392          2.629703
  54         V                 1.183997          2.757724
  55         V                 1.186207          2.695616
  56         V                 1.229399          2.729243
  57         V                 1.239674          2.715215
  58         V                 1.272471          2.745276
  59         V                 1.278885          2.807071
  60         V                 1.281315          2.720417
  61         V                 1.289674          2.742382
  62         V                 1.305005          2.569612
  63         V                 1.323471          2.784863
  64         V                 1.336074          2.798261
  65         V                 1.355811          2.891554
  66         V                 1.398761          2.844155
  67         V                 1.443165          3.110972
  68         V                 1.467427          3.050779
  69         V                 1.478342          3.295733
  70         V                 1.498763          3.226148
  71         V                 1.506474          3.111794
  72         V                 1.542918          3.141769
  73         V                 1.580997          3.190743
  74         V                 1.609735          3.239427
  75         V                 1.632485          3.299713
  76         V                 1.661749          3.204101
  77         V                 1.725779          2.875235
  78         V                 1.775251          2.993062
  79         V                 1.811214          2.721643
  80         V                 1.868217          2.825244
  81         V                 1.900010          2.855975
  82         V                 1.907084          2.875025
  83         V                 1.949985          3.084934
  84         V                 1.962141          2.999528
  85         V                 2.025791          3.122109
  86         V                 2.158337          3.322213
  87         V                 2.314673          3.328022
  88         V                 2.398300          3.467349
  89         V                 2.533082          3.414501
  90         V                 2.757917          3.591491
 Total kinetic energy from orbitals= 3.058114635545D+02
 1\1\GINC-IISERK51\SP\RHF\3-21G*\C8H9(1-)\GAUSSIAN\12-Jun-2025\0\\# hf/
 3-21g* pop=full geom=connectivity\\Optimisation\\-1,1\C,0,-0.502735,1.
 348101,0.113576\C,0,0.862444,1.506791,0.127725\C,0,1.875158,0.581527,-
 0.067812\C,0,-1.229829,0.121499,0.047977\C,0,1.710472,-0.792876,-0.326
 776\C,0,-0.58647,-1.106354,0.62492\C,0,0.613615,-1.555213,-0.102662\H,
 0,-1.121473,2.258566,0.147568\H,0,1.210706,2.553929,0.258943\H,0,2.907
 67,0.961454,-0.088925\H,0,2.592495,-1.295734,-0.772111\H,0,0.59349,-2.
 596251,-0.453977\C,0,-2.489143,0.047411,-0.438882\H,0,-3.070128,-0.878
 732,-0.426533\H,0,-2.988868,0.909942,-0.887863\H,0,-0.30871,-0.873911,
 1.692644\H,0,-1.33626,-1.94458,0.661862\\Version=EM64L-G16RevB.01\Stat
 e=1-A\HF=-306.3608426\RMSD=5.039e-09\Dipole=0.1347263,-0.3118645,0.219
 7067\Quadrupole=-4.3470526,2.7560363,1.5910163,0.739423,-0.8176168,0.1
 847415\PG=C01 [X(C8H9)]\\@


 A people that values its privileges above its principles soon loses both.
 -- Dwight D. Eisenhower
 Job cpu time:       0 days  0 hours  0 minutes  1.4 seconds.
 Elapsed time:       0 days  0 hours  0 minutes  1.4 seconds.
 File lengths (MBytes):  RWF=      6 Int=      0 D2E=      0 Chk=      2 Scr=      1
 Normal termination of Gaussian 16 at Thu Jun 12 22:57:59 2025.
