 Entering Gaussian System, Link 0=g16
 Input=/home/gaussian/Documents/program files/Aromaticity/AM1 HF3-21G*/cycloheptatrienyl_anion/sp/cycloheptatrienyl_anion_sp.com
 Output=/home/gaussian/Documents/program files/Aromaticity/AM1 HF3-21G*/cycloheptatrienyl_anion/sp/cycloheptatrienyl_anion_sp.log
 Initial command:
 /usr/local/g16/l1.exe "/home/gaussian/tmp/Gau-143488.inp" -scrdir="/home/gaussian/tmp/"
 Entering Link 1 = /usr/local/g16/l1.exe PID=    143491.
  
 Copyright (c) 1988-2017, Gaussian, Inc.  All Rights Reserved.
  
 This is part of the Gaussian(R) 16 program.  It is based on
 the Gaussian(R) 09 system (copyright 2009, Gaussian, Inc.),
 the Gaussian(R) 03 system (copyright 2003, Gaussian, Inc.),
 the Gaussian(R) 98 system (copyright 1998, Gaussian, Inc.),
 the Gaussian(R) 94 system (copyright 1995, Gaussian, Inc.),
 the Gaussian 92(TM) system (copyright 1992, Gaussian, Inc.),
 the Gaussian 90(TM) system (copyright 1990, Gaussian, Inc.),
 the Gaussian 88(TM) system (copyright 1988, Gaussian, Inc.),
 the Gaussian 86(TM) system (copyright 1986, Carnegie Mellon
 University), and the Gaussian 82(TM) system (copyright 1983,
 Carnegie Mellon University). Gaussian is a federally registered
 trademark of Gaussian, Inc.
  
 This software contains proprietary and confidential information,
 including trade secrets, belonging to Gaussian, Inc.
  
 This software is provided under written license and may be
 used, copied, transmitted, or stored only in accord with that
 written license.
  
 The following legend is applicable only to US Government
 contracts under FAR:
  
                    RESTRICTED RIGHTS LEGEND
  
 Use, reproduction and disclosure by the US Government is
 subject to restrictions as set forth in subparagraphs (a)
 and (c) of the Commercial Computer Software - Restricted
 Rights clause in FAR 52.227-19.
  
 Gaussian, Inc.
 340 Quinnipiac St., Bldg. 40, Wallingford CT 06492
  
  
 ---------------------------------------------------------------
 Warning -- This program may not be used in any manner that
 competes with the business of Gaussian, Inc. or will provide
 assistance to any competitor of Gaussian, Inc.  The licensee
 of this program is prohibited from giving any competitor of
 Gaussian, Inc. access to this program.  By using this program,
 the user acknowledges that Gaussian, Inc. is engaged in the
 business of creating and licensing software in the field of
 computational chemistry and represents and warrants to the
 licensee that it is not a competitor of Gaussian, Inc. and that
 it will not use this program in any manner prohibited above.
 ---------------------------------------------------------------
  

 Cite this work as:
 Gaussian 16, Revision B.01,
 M. J. Frisch, G. W. Trucks, H. B. Schlegel, G. E. Scuseria, 
 M. A. Robb, J. R. Cheeseman, G. Scalmani, V. Barone, 
 G. A. Petersson, H. Nakatsuji, X. Li, M. Caricato, A. V. Marenich, 
 J. Bloino, B. G. Janesko, R. Gomperts, B. Mennucci, H. P. Hratchian, 
 J. V. Ortiz, A. F. Izmaylov, J. L. Sonnenberg, D. Williams-Young, 
 F. Ding, F. Lipparini, F. Egidi, J. Goings, B. Peng, A. Petrone, 
 T. Henderson, D. Ranasinghe, V. G. Zakrzewski, J. Gao, N. Rega, 
 G. Zheng, W. Liang, M. Hada, M. Ehara, K. Toyota, R. Fukuda, 
 J. Hasegawa, M. Ishida, T. Nakajima, Y. Honda, O. Kitao, H. Nakai, 
 T. Vreven, K. Throssell, J. A. Montgomery, Jr., J. E. Peralta, 
 F. Ogliaro, M. J. Bearpark, J. J. Heyd, E. N. Brothers, K. N. Kudin, 
 V. N. Staroverov, T. A. Keith, R. Kobayashi, J. Normand, 
 K. Raghavachari, A. P. Rendell, J. C. Burant, S. S. Iyengar, 
 J. Tomasi, M. Cossi, J. M. Millam, M. Klene, C. Adamo, R. Cammi, 
 J. W. Ochterski, R. L. Martin, K. Morokuma, O. Farkas, 
 J. B. Foresman, and D. J. Fox, Gaussian, Inc., Wallingford CT, 2016.
 
 ******************************************
 Gaussian 16:  EM64L-G16RevB.01 20-Dec-2017
                12-Jun-2025 
 ******************************************
 %chk=cycloheptatrienyl_anion_sp.chk
 --------------------------------------
 # hf/3-21g* pop=full geom=connectivity
 --------------------------------------
 1/38=1,57=2,172=1/1;
 2/12=2,17=6,18=5,40=1/2;
 3/5=5,7=1,11=9,25=1,30=1/1,2,3;
 4//1;
 5/5=2,38=5/2;
 6/7=3,28=1/1;
 99/5=1,9=1/99;
 ------------
 Optimisation
 ------------
 Symbolic Z-matrix:
 Charge = -1 Multiplicity = 1
 C                     0.52552  -1.24456  0. 
 C                    -0.78374  -1.57289  -0.00006 
 C                    -1.92541  -0.68206   0.00009 
 C                     1.16757   0.02176   0.0004 
 C                    -1.92953   0.65874  -0.00006 
 C                     0.51092   1.25553   0.00011 
 C                    -0.81677   1.56704  -0.0001 
 H                     1.23526  -2.10133  -0.00021 
 H                    -1.05163  -2.64264  -0.00033 
 H                    -2.89825  -1.20727   0.00019 
 H                    -2.91536   1.16544  -0.00014 
 H                     1.19172   2.13697   0.00008 
 H                    -1.09462   2.63227  -0.00038 
 C                     2.64425   0.00338  -0.00008 
 H                     3.05034  -0.54307   0.89252 
 H                     3.0504   -0.51787  -0.90772 
 H                     3.07525   1.03584   0.0142 
 
                          Input orientation:                          
 ---------------------------------------------------------------------
 Center     Atomic      Atomic             Coordinates (Angstroms)
 Number     Number       Type             X           Y           Z
 ---------------------------------------------------------------------
      1          6           0        0.525523   -1.244559   -0.000004
      2          6           0       -0.783743   -1.572891   -0.000055
      3          6           0       -1.925408   -0.682056    0.000091
      4          6           0        1.167572    0.021761    0.000400
      5          6           0       -1.929529    0.658735   -0.000061
      6          6           0        0.510922    1.255530    0.000110
      7          6           0       -0.816774    1.567038   -0.000104
      8          1           0        1.235259   -2.101333   -0.000207
      9          1           0       -1.051630   -2.642636   -0.000326
     10          1           0       -2.898253   -1.207269    0.000190
     11          1           0       -2.915360    1.165444   -0.000138
     12          1           0        1.191715    2.136971    0.000084
     13          1           0       -1.094618    2.632274   -0.000384
     14          6           0        2.644254    0.003383   -0.000080
     15          1           0        3.050340   -0.543067    0.892517
     16          1           0        3.050396   -0.517869   -0.907718
     17          1           0        3.075245    1.035838    0.014201
 ---------------------------------------------------------------------
                    Distance matrix (angstroms):
                    1          2          3          4          5
     1  C    0.000000
     2  C    1.349807   0.000000
     3  C    2.514652   1.448097   0.000000
     4  C    1.419786   2.520029   3.172047   0.000000
     5  C    3.106414   2.508581   1.340797   3.161925   0.000000
     6  C    2.500132   3.110647   3.112867   1.397632   2.512363
     7  C    3.115580   3.140103   2.507487   2.515057   1.436398
     8  H    1.112559   2.087012   3.464702   2.124173   4.199269
     9  H    2.107613   1.102777   2.146477   3.467545   3.416103
    10  H    3.423979   2.145887   1.105566   4.247523   2.102474
    11  H    4.200927   3.470197   2.096011   4.240088   1.108430
    12  H    3.446528   4.203036   4.202781   2.115348   3.453599
    13  H    4.201749   4.216640   3.416869   3.454314   2.142880
    14  C    2.458939   3.773036   4.620783   1.476796   4.620495
    15  H    2.768282   4.069080   5.057055   2.158638   5.200011
    16  H    2.779749   4.078915   5.060603   2.158913   5.196912
    17  H    3.420745   4.658053   5.287522   2.160500   5.018981
                    6          7          8          9         10
     6  C    0.000000
     7  C    1.363750   0.000000
     8  H    3.434122   4.203306   0.000000
     9  H    4.199675   4.216220   2.350079   0.000000
    10  H    4.205693   3.468333   4.229098   2.338866   0.000000
    11  H    3.427466   2.136666   5.281995   4.239689   2.372775
    12  H    1.113740   2.087786   4.238528   5.279890   5.283160
    13  H    2.114990   1.100875   5.275923   5.275085   4.242074
    14  C    2.473657   3.797859   2.532804   4.545435   5.673188
    15  H    3.237281   4.494873   2.553364   4.693774   6.051708
    16  H    3.227696   4.486157   2.574035   4.707931   6.056896
    17  H    2.573755   3.928128   3.636976   5.528334   6.380784
                   11         12         13         14         15
    11  H    0.000000
    12  H    4.220418   0.000000
    13  H    2.338096   2.339368   0.000000
    14  C    5.679762   2.581098   4.570583   0.000000
    15  H    6.269403   3.381350   5.297239   1.122605   0.000000
    16  H    6.264782   3.365557   5.284676   1.122703   1.800411
    17  H    5.992024   2.181829   4.465040   1.118893   1.806931
                   16         17
    16  H    0.000000
    17  H    1.806809   0.000000
 Stoichiometry    C8H9(1-)
 Framework group  C1[X(C8H9)]
 Deg. of freedom    45
 Full point group                 C1      NOp   1
 Largest Abelian subgroup         C1      NOp   1
 Largest concise Abelian subgroup C1      NOp   1
                         Standard orientation:                         
 ---------------------------------------------------------------------
 Center     Atomic      Atomic             Coordinates (Angstroms)
 Number     Number       Type             X           Y           Z
 ---------------------------------------------------------------------
      1          6           0       -0.525523   -1.244559    0.000004
      2          6           0        0.783743   -1.572891    0.000055
      3          6           0        1.925408   -0.682056   -0.000091
      4          6           0       -1.167572    0.021761   -0.000400
      5          6           0        1.929529    0.658735    0.000061
      6          6           0       -0.510922    1.255530   -0.000110
      7          6           0        0.816774    1.567038    0.000104
      8          1           0       -1.235259   -2.101333    0.000207
      9          1           0        1.051630   -2.642636    0.000326
     10          1           0        2.898253   -1.207269   -0.000190
     11          1           0        2.915360    1.165444    0.000138
     12          1           0       -1.191715    2.136971   -0.000084
     13          1           0        1.094618    2.632274    0.000384
     14          6           0       -2.644254    0.003383    0.000080
     15          1           0       -3.050340   -0.543067   -0.892517
     16          1           0       -3.050396   -0.517869    0.907718
     17          1           0       -3.075245    1.035838   -0.014201
 ---------------------------------------------------------------------
 Rotational constants (GHZ):           3.6984082           1.9189073           1.2738004
 Standard basis: 3-21G* (6D, 7F)
 There are    90 symmetry adapted cartesian basis functions of A   symmetry.
 There are    90 symmetry adapted basis functions of A   symmetry.
    90 basis functions,   147 primitive gaussians,    90 cartesian basis functions
    29 alpha electrons       29 beta electrons
       nuclear repulsion energy       331.3069904919 Hartrees.
 NAtoms=   17 NActive=   17 NUniq=   17 SFac= 1.00D+00 NAtFMM=   60 NAOKFM=F Big=F
 Integral buffers will be    131072 words long.
 Raffenetti 1 integral format.
 Two-electron integral symmetry is turned on.
 One-electron integrals computed using PRISM.
 NBasis=    90 RedAO= T EigKep=  3.69D-03  NBF=    90
 NBsUse=    90 1.00D-06 EigRej= -1.00D+00 NBFU=    90
 ExpMin= 1.83D-01 ExpMax= 1.72D+02 ExpMxC= 1.72D+02 IAcc=3 IRadAn=         5 AccDes= 0.00D+00
 Harris functional with IExCor=  205 and IRadAn=       5 diagonalized for initial guess.
 HarFok:  IExCor=  205 AccDes= 0.00D+00 IRadAn=         5 IDoV= 1 UseB2=F ITyADJ=14
 ICtDFT=  3500011 ScaDFX=  1.000000  1.000000  1.000000  1.000000
 FoFCou: FMM=F IPFlag=           0 FMFlag=      100000 FMFlg1=           0
         NFxFlg=           0 DoJE=T BraDBF=F KetDBF=T FulRan=T
         wScrn=  0.000000 ICntrl=       500 IOpCl=  0 I1Cent=   200000004 NGrid=           0
         NMat0=    1 NMatS0=      1 NMatT0=    0 NMatD0=    1 NMtDS0=    0 NMtDT0=    0
 Petite list used in FoFCou.
 Keep R1 ints in memory in canonical form, NReq=9230957.
 Requested convergence on RMS density matrix=1.00D-08 within 128 cycles.
 Requested convergence on MAX density matrix=1.00D-06.
 Requested convergence on             energy=1.00D-06.
 No special actions if energy rises.
 SCF Done:  E(RHF) =  -306.330110106     A.U. after   16 cycles
            NFock= 16  Conv=0.28D-08     -V/T= 2.0015

 **********************************************************************

            Population analysis using the SCF Density.

 **********************************************************************

 Orbital symmetries:
       Occupied  (A) (A) (A) (A) (A) (A) (A) (A) (A) (A) (A) (A)
                 (A) (A) (A) (A) (A) (A) (A) (A) (A) (A) (A) (A)
                 (A) (A) (A) (A) (A)
       Virtual   (A) (A) (A) (A) (A) (A) (A) (A) (A) (A) (A) (A)
                 (A) (A) (A) (A) (A) (A) (A) (A) (A) (A) (A) (A)
                 (A) (A) (A) (A) (A) (A) (A) (A) (A) (A) (A) (A)
                 (A) (A) (A) (A) (A) (A) (A) (A) (A) (A) (A) (A)
                 (A) (A) (A) (A) (A) (A) (A) (A) (A) (A) (A) (A)
                 (A)
 The electronic state is 1-A.
 Alpha  occ. eigenvalues --  -10.99770 -10.99742 -10.99342 -10.99115 -10.96627
 Alpha  occ. eigenvalues --  -10.95973 -10.92280 -10.92036  -0.92611  -0.86087
 Alpha  occ. eigenvalues --   -0.83328  -0.76674  -0.67094  -0.65115  -0.51930
 Alpha  occ. eigenvalues --   -0.50757  -0.48609  -0.40580  -0.39607  -0.39029
 Alpha  occ. eigenvalues --   -0.37370  -0.33673  -0.32032  -0.28969  -0.28882
 Alpha  occ. eigenvalues --   -0.26589  -0.18722  -0.17748   0.02630
 Alpha virt. eigenvalues --    0.28502   0.40626   0.44224   0.45478   0.46340
 Alpha virt. eigenvalues --    0.48197   0.50942   0.51275   0.54466   0.55280
 Alpha virt. eigenvalues --    0.56482   0.56889   0.63357   0.68357   0.70442
 Alpha virt. eigenvalues --    0.79621   0.81589   0.85584   0.89222   1.03770
 Alpha virt. eigenvalues --    1.04678   1.13619   1.13901   1.16042   1.17359
 Alpha virt. eigenvalues --    1.18373   1.23723   1.25285   1.26209   1.26516
 Alpha virt. eigenvalues --    1.30157   1.31422   1.32296   1.34267   1.36603
 Alpha virt. eigenvalues --    1.38190   1.40492   1.41205   1.47749   1.49522
 Alpha virt. eigenvalues --    1.50146   1.51967   1.53427   1.56158   1.62186
 Alpha virt. eigenvalues --    1.64466   1.68640   1.69238   1.76518   1.77194
 Alpha virt. eigenvalues --    1.90017   1.92445   1.96373   1.97062   1.99733
 Alpha virt. eigenvalues --    2.10989   2.23774   2.28941   2.39876   2.66190
 Alpha virt. eigenvalues --    2.68902
     Molecular Orbital Coefficients:
                           1         2         3         4         5
                           O         O         O         O         O
     Eigenvalues --   -10.99770 -10.99742 -10.99342 -10.99115 -10.96627
   1 1   C  1S         -0.00748  -0.03334   0.98662   0.01149   0.00249
   2        2S         -0.00127  -0.00396   0.09893   0.00087   0.00051
   3        2PX         0.00065   0.00087   0.00053   0.00017  -0.00103
   4        2PY         0.00012  -0.00124   0.00028  -0.00029   0.00008
   5        2PZ        -0.00000  -0.00000  -0.00000   0.00000  -0.00000
   6        3S          0.00262  -0.00178  -0.09222   0.00434  -0.01008
   7        3PX        -0.00173  -0.00877  -0.01205   0.00213  -0.00268
   8        3PY         0.00663   0.00325  -0.01391   0.00058  -0.00475
   9        3PZ         0.00001   0.00001   0.00001  -0.00000   0.00000
  10 2   C  1S         -0.00154  -0.00113  -0.00431  -0.00215  -0.04732
  11        2S         -0.00076  -0.00047  -0.00522  -0.00002  -0.00832
  12        2PX         0.00042  -0.00020   0.00188  -0.00081  -0.00038
  13        2PY        -0.00010  -0.00015  -0.00128  -0.00078  -0.00122
  14        2PZ         0.00000   0.00000   0.00000  -0.00000   0.00000
  15        3S          0.00256   0.00568   0.03415  -0.00708   0.03100
  16        3PX        -0.00386  -0.00509  -0.01622   0.00326   0.00549
  17        3PY         0.00014   0.00042   0.01520  -0.00469   0.01787
  18        3PZ        -0.00001  -0.00000  -0.00000   0.00000  -0.00000
  19 3   C  1S          0.00022  -0.00073  -0.00237  -0.00424   0.98608
  20        2S          0.00010  -0.00028   0.00011  -0.00525   0.09899
  21        2PX        -0.00010   0.00024   0.00095   0.00074  -0.00071
  22        2PY        -0.00007   0.00030   0.00065  -0.00228   0.00039
  23        2PZ        -0.00000  -0.00000  -0.00000  -0.00000   0.00000
  24        3S         -0.00182   0.00452  -0.00864   0.03418  -0.08886
  25        3PX         0.00073  -0.00153   0.00453  -0.00967   0.01536
  26        3PY        -0.00312   0.00027  -0.00453   0.01993  -0.01036
  27        3PZ         0.00000   0.00000   0.00000   0.00000  -0.00000
  28 4   C  1S          0.00037  -0.00341  -0.00380  -0.00019   0.00002
  29        2S          0.00086  -0.00412  -0.00380  -0.00019  -0.00009
  30        2PX         0.00161  -0.00089  -0.00159  -0.00009  -0.00003
  31        2PY         0.00066  -0.00136   0.00124   0.00019  -0.00022
  32        2PZ         0.00000   0.00000  -0.00000   0.00000  -0.00000
  33        3S         -0.00424   0.02905   0.02547   0.00342   0.00276
  34        3PX        -0.02631   0.00607   0.02024   0.00185   0.00128
  35        3PY        -0.00618   0.01494  -0.01475   0.00255  -0.00263
  36        3PZ        -0.00001  -0.00000   0.00001   0.00000   0.00000
  37 5   C  1S          0.00415  -0.01023  -0.01193   0.98709   0.00329
  38        2S          0.00014  -0.00092  -0.00146   0.09878  -0.00453
  39        2PX        -0.00048   0.00085   0.00030  -0.00045   0.00072
  40        2PY         0.00031  -0.00054  -0.00030  -0.00042   0.00226
  41        2PZ        -0.00000  -0.00000   0.00000  -0.00000   0.00000
  42        3S          0.00627  -0.00497   0.00607  -0.08852   0.03440
  43        3PX        -0.00265   0.00337  -0.00185   0.01450  -0.01014
  44        3PY        -0.00230   0.00314  -0.00229   0.00993  -0.01995
  45        3PZ         0.00000   0.00000  -0.00000   0.00000  -0.00000
  46 6   C  1S         -0.59212   0.78967   0.02217   0.01118   0.00071
  47        2S         -0.06007   0.07857   0.00196   0.00118  -0.00023
  48        2PX         0.00042   0.00086   0.00039  -0.00114   0.00020
  49        2PY         0.00052  -0.00000   0.00109  -0.00005   0.00029
  50        2PZ        -0.00000  -0.00000   0.00000  -0.00000   0.00000
  51        3S          0.05478  -0.07427  -0.00680  -0.00947   0.00543
  52        3PX         0.00544  -0.00919  -0.00653  -0.00164   0.00221
  53        3PY        -0.01093   0.01023   0.00170   0.00490  -0.00097
  54        3PZ         0.00001   0.00001  -0.00000   0.00000  -0.00000
  55 7   C  1S          0.00104  -0.00284  -0.00005  -0.00473  -0.00155
  56        2S          0.00236  -0.00426  -0.00010  -0.00420   0.00010
  57        2PX        -0.00080   0.00153  -0.00033  -0.00042  -0.00084
  58        2PY        -0.00051   0.00110   0.00011   0.00128   0.00076
  59        2PZ         0.00000   0.00000  -0.00000   0.00000   0.00000
  60        3S         -0.01788   0.02701   0.00406   0.02786  -0.00741
  61        3PX         0.00724  -0.01397  -0.00262   0.00563   0.00356
  62        3PY         0.00804  -0.01217  -0.00042  -0.01764   0.00513
  63        3PZ        -0.00001  -0.00001   0.00000  -0.00000   0.00000
  64 8   H  1S         -0.00006  -0.00045  -0.00138  -0.00003  -0.00027
  65        2S          0.00158  -0.00003   0.00785   0.00040   0.00002
  66 9   H  1S         -0.00005  -0.00016   0.00004  -0.00037   0.00005
  67        2S          0.00040   0.00048   0.00441  -0.00031   0.00337
  68 10  H  1S         -0.00020  -0.00011  -0.00038  -0.00005  -0.00157
  69        2S         -0.00048   0.00041  -0.00049   0.00426   0.00763
  70 11  H  1S          0.00009  -0.00035   0.00003  -0.00145  -0.00005
  71        2S          0.00030  -0.00028   0.00057   0.00795   0.00432
  72 12  H  1S          0.00086  -0.00104  -0.00040  -0.00027  -0.00003
  73        2S         -0.00484   0.00627  -0.00045   0.00020   0.00043
  74 13  H  1S         -0.00005   0.00002  -0.00012  -0.00001  -0.00041
  75        2S         -0.00193   0.00391   0.00023   0.00381  -0.00051
  76 14  C  1S          0.79039   0.59159   0.02573   0.00307   0.00023
  77        2S          0.08223   0.05999   0.00153   0.00013  -0.00003
  78        2PX        -0.00018  -0.00021  -0.00014  -0.00004  -0.00003
  79        2PY        -0.00006  -0.00039   0.00015   0.00008  -0.00011
  80        2PZ         0.00000   0.00000   0.00000   0.00000   0.00000
  81        3S         -0.07193  -0.04249   0.00626   0.00067   0.00031
  82        3PX        -0.00788  -0.00093   0.00418   0.00038   0.00015
  83        3PY         0.00128  -0.00101   0.00225  -0.00092   0.00109
  84        3PZ        -0.00001  -0.00002  -0.00001   0.00000  -0.00000
  85 15  H  1S          0.00081   0.00012  -0.00025  -0.00011   0.00008
  86        2S          0.01082   0.00787   0.00069  -0.00010   0.00013
  87 16  H  1S          0.00080   0.00012  -0.00026  -0.00011   0.00008
  88        2S          0.01084   0.00790   0.00069  -0.00010   0.00013
  89 17  H  1S          0.00048   0.00022  -0.00048   0.00013  -0.00016
  90        2S          0.01062   0.00746   0.00001   0.00018  -0.00030
                           6         7         8         9        10
                           O         O         O         O         O
     Eigenvalues --   -10.95973 -10.92280 -10.92036  -0.92611  -0.86087
   1 1   C  1S          0.00359  -0.00008   0.00315  -0.09867  -0.03799
   2        2S         -0.00450   0.00003  -0.00302   0.11084   0.04240
   3        2PX        -0.00248  -0.00030   0.00037   0.02354  -0.05350
   4        2PY        -0.00004   0.00017  -0.00139   0.03037   0.03911
   5        2PZ         0.00000  -0.00000   0.00000  -0.00000  -0.00000
   6        3S          0.03539   0.00126   0.02312   0.20015   0.08476
   7        3PX         0.02040   0.00011  -0.00368   0.01011   0.00286
   8        3PY         0.00492   0.00094   0.01503  -0.00212  -0.00345
   9        3PZ        -0.00000   0.00000  -0.00000  -0.00002  -0.00003
  10 2   C  1S          0.98605   0.00019   0.00171  -0.08587   0.04423
  11        2S          0.09874  -0.00020   0.00014   0.09449  -0.04680
  12        2PX        -0.00025   0.00030   0.00082  -0.02336  -0.04624
  13        2PY         0.00074  -0.00001  -0.00025   0.03690  -0.02457
  14        2PZ         0.00000   0.00000   0.00000  -0.00000  -0.00000
  15        3S         -0.08591   0.00349  -0.00251   0.15744  -0.10054
  16        3PX         0.00669   0.00089  -0.00174   0.00520   0.00626
  17        3PY        -0.01618   0.00189  -0.00374   0.00058  -0.00249
  18        3PZ         0.00000  -0.00000  -0.00000   0.00001   0.00001
  19 3   C  1S          0.04655   0.00179   0.00004  -0.08223   0.11519
  20        2S          0.00106   0.00020  -0.00009   0.09041  -0.12434
  21        2PX         0.00122   0.00012  -0.00011  -0.03101   0.01163
  22        2PY         0.00013  -0.00116  -0.00023   0.02583  -0.05379
  23        2PZ        -0.00000  -0.00000   0.00000   0.00001  -0.00001
  24        3S          0.02331  -0.00778   0.00242   0.15868  -0.25054
  25        3PX        -0.01764   0.00543  -0.00072  -0.00159   0.00106
  26        3PY        -0.00172  -0.00115  -0.00072   0.00310  -0.00025
  27        3PZ         0.00000   0.00000   0.00000   0.00000  -0.00001
  28 4   C  1S         -0.00148  -0.02420   0.98703  -0.10395  -0.10659
  29        2S          0.00023  -0.00205   0.10052   0.10798   0.10952
  30        2PX        -0.00055  -0.00058  -0.00023   0.02244  -0.02848
  31        2PY         0.00065  -0.00072   0.00006  -0.00132   0.00287
  32        2PZ         0.00000   0.00000   0.00000   0.00005   0.00005
  33        3S         -0.00732  -0.00610  -0.09235   0.20683   0.22531
  34        3PX        -0.00418  -0.00459  -0.00465  -0.01452  -0.00810
  35        3PY         0.00128  -0.00065  -0.00321  -0.00316  -0.00676
  36        3PZ        -0.00001  -0.00000   0.00000   0.00004   0.00004
  37 5   C  1S          0.00250   0.00396   0.00015  -0.08109   0.11508
  38        2S          0.00004  -0.00333  -0.00026   0.09076  -0.12681
  39        2PX         0.00020   0.00136  -0.00007  -0.02846   0.00861
  40        2PY         0.00127  -0.00025   0.00021  -0.02794   0.05563
  41        2PZ        -0.00000   0.00000   0.00000  -0.00000   0.00001
  42        3S         -0.00664   0.02801   0.00449   0.15949  -0.25309
  43        3PX         0.00476  -0.01863  -0.00232  -0.00058  -0.00447
  44        3PY         0.00014   0.00201   0.00108  -0.00171   0.00393
  45        3PZ         0.00000  -0.00000  -0.00000  -0.00000  -0.00000
  46 6   C  1S          0.00011   0.00210   0.00249  -0.09145  -0.04583
  47        2S         -0.00002  -0.00437  -0.00362   0.10339   0.05088
  48        2PX        -0.00029  -0.00224   0.00043   0.01508  -0.05104
  49        2PY        -0.00014   0.00010   0.00167  -0.03436  -0.03825
  50        2PZ        -0.00000   0.00000   0.00000   0.00001  -0.00000
  51        3S          0.00174   0.03387   0.02813   0.18628   0.10565
  52        3PX         0.00043   0.01966  -0.00545   0.00543  -0.00550
  53        3PY        -0.00072  -0.00559  -0.01824  -0.00134  -0.00307
  54        3PZ         0.00000   0.00000  -0.00001  -0.00001  -0.00002
  55 7   C  1S         -0.00041   0.98683   0.02445  -0.07468   0.03727
  56        2S         -0.00024   0.09908   0.00256   0.08110  -0.03858
  57        2PX         0.00028  -0.00027   0.00082  -0.01781  -0.04752
  58        2PY         0.00006  -0.00093   0.00013  -0.03546   0.02492
  59        2PZ         0.00000   0.00000   0.00000  -0.00001  -0.00000
  60        3S          0.00292  -0.08637  -0.00478   0.13236  -0.08073
  61        3PX         0.00119   0.00586  -0.00254   0.00308   0.00295
  62        3PY        -0.00180   0.01714   0.00561  -0.00078   0.00458
  63        3PZ        -0.00000   0.00000   0.00000   0.00001   0.00001
  64 8   H  1S         -0.00009  -0.00005  -0.00042   0.04065   0.02449
  65        2S          0.00352   0.00038   0.00139  -0.00018   0.00713
  66 9   H  1S         -0.00166  -0.00002  -0.00033   0.03236  -0.02029
  67        2S          0.00791   0.00033  -0.00014  -0.00325  -0.00350
  68 10  H  1S         -0.00008  -0.00034  -0.00012   0.03095  -0.05174
  69        2S          0.00423  -0.00035   0.00002  -0.00244  -0.00672
  70 11  H  1S         -0.00031  -0.00002  -0.00008   0.03111  -0.05322
  71        2S         -0.00001   0.00390   0.00032  -0.00313  -0.00598
  72 12  H  1S         -0.00001  -0.00009  -0.00055   0.03723   0.02701
  73        2S          0.00016   0.00361   0.00204   0.00030   0.00924
  74 13  H  1S         -0.00002  -0.00173  -0.00049   0.02668  -0.01620
  75        2S          0.00038   0.00764  -0.00036  -0.00340  -0.00341
  76 14  C  1S          0.00181   0.00068   0.00154  -0.05564  -0.10299
  77        2S         -0.00063  -0.00056  -0.00162   0.05838   0.10076
  78        2PX        -0.00023  -0.00020  -0.00049   0.03424   0.04127
  79        2PY         0.00030  -0.00020  -0.00044   0.00084   0.00184
  80        2PZ        -0.00000  -0.00000   0.00002  -0.00004  -0.00006
  81        3S          0.00098   0.00017   0.01608   0.11550   0.26715
  82        3PX         0.00110   0.00062   0.01054  -0.00764   0.00422
  83        3PY        -0.00235   0.00150   0.00325  -0.00339  -0.00343
  84        3PZ         0.00002   0.00001  -0.00010   0.00009   0.00010
  85 15  H  1S         -0.00035   0.00005  -0.00109   0.02396   0.04762
  86        2S         -0.00028   0.00022   0.00242  -0.00296   0.00115
  87 16  H  1S         -0.00034   0.00004  -0.00110   0.02391   0.04756
  88        2S         -0.00028   0.00020   0.00253  -0.00313   0.00093
  89 17  H  1S          0.00017  -0.00037  -0.00092   0.02487   0.04981
  90        2S          0.00100  -0.00007  -0.00170   0.00310   0.00853
                          11        12        13        14        15
                           O         O         O         O         O
     Eigenvalues --    -0.83328  -0.76674  -0.67094  -0.65115  -0.51930
   1 1   C  1S         -0.11064   0.06721  -0.09418   0.02579   0.01646
   2        2S          0.12153  -0.07191   0.09989  -0.02777  -0.01679
   3        2PX         0.06351  -0.05608  -0.05072   0.10505   0.17242
   4        2PY        -0.02742   0.01528  -0.00983  -0.11272  -0.10530
   5        2PZ         0.00000   0.00000  -0.00001   0.00003   0.00004
   6        3S          0.24876  -0.16824   0.26787  -0.07369  -0.06527
   7        3PX         0.00575  -0.00748  -0.02229   0.03698   0.08834
   8        3PY        -0.01156  -0.00400  -0.00434  -0.04966  -0.05223
   9        3PZ         0.00001  -0.00003  -0.00000   0.00000   0.00003
  10 2   C  1S         -0.12124   0.04584   0.05091  -0.08910  -0.04673
  11        2S          0.12894  -0.04652  -0.05257   0.09033   0.04664
  12        2PX        -0.05096   0.07774  -0.13268  -0.00605  -0.13688
  13        2PY         0.01603   0.01103  -0.01466  -0.04130  -0.06787
  14        2PZ        -0.00000  -0.00000  -0.00000   0.00001   0.00003
  15        3S          0.27262  -0.12365  -0.13834   0.25868   0.15594
  16        3PX        -0.00404   0.02377  -0.04563   0.00507  -0.06574
  17        3PY         0.00267  -0.00271  -0.00383  -0.01202  -0.03585
  18        3PZ         0.00000   0.00001  -0.00000   0.00001   0.00002
  19 3   C  1S         -0.03242  -0.07683   0.08871   0.03460   0.06834
  20        2S          0.03508   0.08054  -0.09116  -0.03517  -0.06771
  21        2PX        -0.03611   0.03125   0.01826  -0.05709  -0.01264
  22        2PY        -0.05863   0.06243   0.09609  -0.09762   0.08795
  23        2PZ         0.00000   0.00001  -0.00000  -0.00000   0.00001
  24        3S          0.06561   0.19061  -0.24789  -0.10170  -0.23975
  25        3PX         0.00007   0.00688   0.01000  -0.01592  -0.00602
  26        3PY        -0.00830   0.01475   0.03742  -0.03211   0.04730
  27        3PZ         0.00000   0.00000  -0.00001  -0.00000   0.00000
  28 4   C  1S          0.00549  -0.00875   0.00693   0.10725   0.00608
  29        2S         -0.00519   0.00858  -0.00641  -0.10572  -0.00571
  30        2PX         0.00024  -0.11022  -0.00574  -0.07503  -0.00380
  31        2PY        -0.08051  -0.00935  -0.13741   0.00995   0.18847
  32        2PZ         0.00000   0.00000   0.00000  -0.00005  -0.00002
  33        3S         -0.01609   0.01231  -0.02126  -0.30179  -0.02603
  34        3PX        -0.00328  -0.00031  -0.00315  -0.01031   0.00060
  35        3PY        -0.01502  -0.01274  -0.04714   0.00209   0.09794
  36        3PZ         0.00000   0.00001   0.00000  -0.00005  -0.00002
  37 5   C  1S          0.05737  -0.07133  -0.08366   0.03760  -0.07108
  38        2S         -0.06293   0.07681   0.08821  -0.03944   0.07134
  39        2PX         0.03410   0.03760  -0.01996  -0.06031   0.07861
  40        2PY        -0.04560  -0.07112   0.10984   0.09660   0.06529
  41        2PZ        -0.00000  -0.00001   0.00001   0.00001   0.00001
  42        3S         -0.12372   0.17817   0.23855  -0.11382   0.25483
  43        3PX        -0.00073   0.01152  -0.00944  -0.02009   0.04372
  44        3PY        -0.00787  -0.01371   0.04551   0.03903   0.03866
  45        3PZ        -0.00000  -0.00000   0.00001   0.00000   0.00001
  46 6   C  1S          0.10725   0.08205   0.09266   0.00983  -0.02833
  47        2S         -0.11943  -0.08966  -0.09935  -0.01037   0.02814
  48        2PX        -0.05353  -0.05710   0.06435   0.10361  -0.18983
  49        2PY        -0.01789  -0.01426   0.00364   0.11562  -0.05902
  50        2PZ        -0.00001  -0.00001   0.00001   0.00003  -0.00005
  51        3S         -0.23605  -0.20144  -0.26335  -0.03104   0.09975
  52        3PX        -0.00447  -0.02138   0.02449   0.02921  -0.10603
  53        3PY        -0.01417  -0.00783  -0.00179   0.04868  -0.02814
  54        3PZ        -0.00001  -0.00004  -0.00000   0.00000  -0.00003
  55 7   C  1S          0.11674   0.05742  -0.05938  -0.08924   0.06085
  56        2S         -0.12232  -0.05819   0.05935   0.08824  -0.06025
  57        2PX         0.03583   0.07776   0.11853  -0.01912   0.10254
  58        2PY         0.02395  -0.00858  -0.01579   0.03384  -0.03611
  59        2PZ         0.00001   0.00000   0.00001   0.00000  -0.00000
  60        3S         -0.25199  -0.13669   0.15861   0.25423  -0.19511
  61        3PX         0.00129   0.01267   0.03297  -0.00602   0.04084
  62        3PY         0.00652   0.00488  -0.00534   0.00576  -0.01584
  63        3PZ         0.00000   0.00002   0.00001   0.00001  -0.00001
  64 8   H  1S          0.05655  -0.02913   0.08453  -0.00723  -0.03377
  65        2S          0.01076  -0.00722   0.04393  -0.00056  -0.02491
  66 9   H  1S          0.05967  -0.02428  -0.04391   0.08112   0.05776
  67        2S          0.01332  -0.01065  -0.02330   0.04661   0.04158
  68 10  H  1S          0.01745   0.04648  -0.07514  -0.02548  -0.08848
  69        2S          0.00299   0.01777  -0.04105  -0.01453  -0.06462
  70 11  H  1S         -0.03010   0.04474   0.07394  -0.03084   0.11917
  71        2S         -0.00529   0.01597   0.03934  -0.01783   0.08930
  72 12  H  1S         -0.05531  -0.03972  -0.08172   0.00812   0.06773
  73        2S         -0.00883  -0.00759  -0.04201   0.00854   0.05227
  74 13  H  1S         -0.05440  -0.02972   0.04660   0.07407  -0.05440
  75        2S         -0.01217  -0.01265   0.02558   0.04354  -0.03663
  76 14  C  1S          0.00467  -0.14359  -0.00461  -0.08961   0.00055
  77        2S         -0.00461   0.13427   0.00396   0.08176  -0.00024
  78        2PX        -0.00127  -0.00247  -0.00315  -0.09277  -0.00656
  79        2PY        -0.01285  -0.00067  -0.03644   0.00272   0.09718
  80        2PZ         0.00000  -0.00005   0.00000  -0.00001  -0.00004
  81        3S         -0.01238   0.44256   0.01710   0.31446  -0.00064
  82        3PX        -0.00139   0.00325  -0.00237  -0.04182  -0.00084
  83        3PY        -0.00213  -0.00212  -0.02232   0.00120   0.06798
  84        3PZ        -0.00001   0.00006   0.00001   0.00001  -0.00003
  85 15  H  1S          0.00069   0.08060   0.01295   0.07190  -0.02824
  86        2S          0.00213   0.01923   0.00776   0.03652  -0.02255
  87 16  H  1S          0.00056   0.08051   0.01249   0.07186  -0.02691
  88        2S          0.00200   0.01905   0.00741   0.03653  -0.02138
  89 17  H  1S         -0.00804   0.08198  -0.01533   0.07752   0.05942
  90        2S         -0.00722   0.02173  -0.01349   0.03870   0.05317
                          16        17        18        19        20
                           O         O         O         O         O
     Eigenvalues --    -0.50757  -0.48609  -0.40580  -0.39607  -0.39029
   1 1   C  1S          0.05757  -0.01868  -0.03226  -0.01246   0.00018
   2        2S         -0.05549   0.02396   0.03981   0.01687  -0.00024
   3        2PX         0.04861   0.13262   0.13116   0.09526  -0.00120
   4        2PY         0.15325   0.02007   0.13032   0.10203  -0.00165
   5        2PZ        -0.00001   0.00000  -0.00000   0.00075   0.06056
   6        3S         -0.21160   0.05569   0.08065   0.03526  -0.00025
   7        3PX         0.04261   0.06970   0.08269   0.06969  -0.00032
   8        3PY         0.08724   0.02378   0.09143   0.08402  -0.00146
   9        3PZ        -0.00001   0.00002   0.00003   0.00074   0.05928
  10 2   C  1S         -0.04680   0.01153  -0.00500   0.00234  -0.00004
  11        2S          0.04786  -0.00570   0.01094  -0.00230   0.00006
  12        2PX         0.11229  -0.12608  -0.07128  -0.07562   0.00069
  13        2PY         0.04629   0.14246   0.21783  -0.02829  -0.00004
  14        2PZ        -0.00000  -0.00002  -0.00004   0.00039   0.03275
  15        3S          0.16139  -0.05211  -0.00336  -0.01175  -0.00020
  16        3PX         0.06262  -0.07342  -0.04525  -0.04281   0.00072
  17        3PY         0.02677   0.08681   0.15863  -0.02017  -0.00011
  18        3PZ         0.00000  -0.00002  -0.00004   0.00029   0.02587
  19 3   C  1S          0.02486  -0.00507  -0.01873   0.02037  -0.00027
  20        2S         -0.02338   0.01175   0.01893  -0.02602   0.00035
  21        2PX        -0.14561  -0.10504  -0.03471   0.16875  -0.00204
  22        2PY        -0.11210   0.17409  -0.05323  -0.09710   0.00187
  23        2PZ         0.00001   0.00001  -0.00000   0.00020   0.01855
  24        3S         -0.08114  -0.00175   0.07406  -0.05158   0.00055
  25        3PX        -0.07903  -0.06654  -0.01294   0.11880  -0.00150
  26        3PY        -0.05034   0.09605  -0.02675  -0.06472   0.00132
  27        3PZ         0.00000   0.00001   0.00001   0.00019   0.01687
  28 4   C  1S         -0.06971   0.04537  -0.00065   0.00271  -0.00009
  29        2S          0.06764  -0.04081   0.00106   0.00124  -0.00002
  30        2PX         0.02696   0.08281   0.00774   0.19097  -0.00314
  31        2PY         0.02596   0.01165  -0.06733   0.00518  -0.00007
  32        2PZ         0.00010   0.00000   0.00006   0.00185   0.13694
  33        3S          0.23924  -0.15477   0.00217  -0.01389   0.00094
  34        3PX         0.00790   0.04263   0.00565   0.10598  -0.00212
  35        3PY         0.00663   0.00905  -0.04691   0.00859  -0.00011
  36        3PZ         0.00013  -0.00001   0.00005   0.00136   0.10077
  37 5   C  1S          0.00019  -0.00713   0.02586   0.01719  -0.00024
  38        2S          0.00105   0.01405  -0.02962  -0.02340   0.00034
  39        2PX        -0.13586  -0.10562   0.08717   0.17455  -0.00216
  40        2PY         0.14432  -0.17237   0.02857   0.09661  -0.00188
  41        2PZ         0.00002  -0.00003   0.00001   0.00021   0.01723
  42        3S          0.00517   0.00647  -0.08699  -0.03687   0.00039
  43        3PX        -0.08007  -0.07163   0.05668   0.13304  -0.00169
  44        3PY         0.07825  -0.09875   0.02790   0.05767  -0.00122
  45        3PZ         0.00001  -0.00001   0.00000   0.00020   0.01652
  46 6   C  1S          0.05179  -0.01763   0.03043  -0.02587   0.00033
  47        2S         -0.05071   0.02227  -0.03717   0.03239  -0.00042
  48        2PX        -0.00731   0.09263  -0.10685   0.12192  -0.00147
  49        2PY        -0.18266  -0.02344   0.11331  -0.12689   0.00197
  50        2PZ         0.00001   0.00001   0.00002   0.00081   0.06118
  51        3S         -0.18813   0.05916  -0.08420   0.07153  -0.00074
  52        3PX         0.00547   0.05051  -0.07397   0.09001  -0.00059
  53        3PY        -0.10736  -0.02299   0.08008  -0.09272   0.00154
  54        3PZ        -0.00001   0.00002  -0.00001   0.00080   0.05897
  55 7   C  1S         -0.03042   0.01632   0.00014   0.00525  -0.00008
  56        2S          0.03080  -0.01116  -0.00634  -0.00409   0.00008
  57        2PX         0.14328  -0.09657   0.06707  -0.09979   0.00097
  58        2PY        -0.06793  -0.11281   0.20273  -0.01238   0.00042
  59        2PZ         0.00001  -0.00004   0.00006   0.00033   0.02804
  60        3S          0.10076  -0.06367   0.02324  -0.02210   0.00000
  61        3PX         0.06474  -0.05124   0.03923  -0.05414   0.00082
  62        3PY        -0.03368  -0.06249   0.13557  -0.01549   0.00044
  63        3PZ         0.00001  -0.00003   0.00004   0.00021   0.01951
  64 8   H  1S         -0.13871  -0.04371  -0.09996  -0.08480   0.00115
  65        2S         -0.10888  -0.04098  -0.10910  -0.08099   0.00109
  66 9   H  1S          0.02991  -0.11348  -0.15389   0.00578   0.00018
  67        2S          0.01646  -0.10375  -0.15646   0.00706   0.00013
  68 10  H  1S         -0.06503  -0.10273   0.01308   0.11723  -0.00164
  69        2S         -0.05357  -0.09751   0.00586   0.12675  -0.00177
  70 11  H  1S         -0.03231  -0.10005   0.03909   0.12494  -0.00175
  71        2S         -0.02831  -0.09232   0.04661   0.13011  -0.00183
  72 12  H  1S         -0.12788  -0.02839   0.08230  -0.09902   0.00132
  73        2S         -0.10033  -0.02744   0.09111  -0.10280   0.00140
  74 13  H  1S          0.00832  -0.09365   0.14442  -0.02939   0.00053
  75        2S          0.00040  -0.08725   0.15075  -0.02769   0.00048
  76 14  C  1S          0.00149  -0.01868   0.00004  -0.00289  -0.00007
  77        2S          0.00039   0.01464   0.00001  -0.00111   0.00012
  78        2PX         0.05671  -0.12615  -0.00760  -0.18018   0.00310
  79        2PY         0.01024   0.00781   0.07069  -0.04245   0.00052
  80        2PZ         0.00026   0.00012   0.00016   0.00483   0.33570
  81        3S         -0.02185   0.07837  -0.00034   0.01636  -0.00000
  82        3PX         0.02268  -0.08616  -0.00603  -0.14617   0.00227
  83        3PY         0.01070   0.00628   0.06645  -0.03441   0.00035
  84        3PZ         0.00007   0.00007   0.00011   0.00385   0.27717
  85 15  H  1S         -0.01714   0.03860  -0.02475   0.05783  -0.19366
  86        2S         -0.01985   0.03332  -0.02630   0.06013  -0.20481
  87 16  H  1S         -0.01658   0.03885  -0.02329   0.06275   0.19493
  88        2S         -0.01929   0.03360  -0.02473   0.06541   0.20595
  89 17  H  1S         -0.01294   0.04821   0.05449   0.01687  -0.00354
  90        2S         -0.01947   0.04034   0.05696   0.01337  -0.00368
                          21        22        23        24        25
                           O         O         O         O         O
     Eigenvalues --    -0.37370  -0.33673  -0.32032  -0.28969  -0.28882
   1 1   C  1S         -0.02718  -0.02183   0.00506   0.00005   0.00074
   2        2S          0.02559   0.02104  -0.00446  -0.00006  -0.00259
   3        2PX        -0.02890  -0.15317   0.13716  -0.00089  -0.11841
   4        2PY        -0.09292  -0.01035  -0.16394   0.00085   0.08453
   5        2PZ         0.00013   0.00027  -0.00004   0.14899  -0.00143
   6        3S          0.09389   0.07019  -0.01320  -0.00019   0.00416
   7        3PX        -0.03801  -0.16204   0.07219  -0.00086  -0.09605
   8        3PY        -0.08282  -0.04986  -0.12759   0.00082   0.06775
   9        3PZ         0.00019   0.00032  -0.00013   0.14919  -0.00140
  10 2   C  1S          0.03628   0.01515   0.01345   0.00011   0.01401
  11        2S         -0.03759  -0.01722  -0.01109  -0.00015  -0.01789
  12        2PX        -0.04209   0.16228  -0.14365   0.00061   0.07857
  13        2PY        -0.00661   0.11541   0.05889  -0.00132  -0.14339
  14        2PZ         0.00007   0.00017  -0.00010   0.17193  -0.00158
  15        3S         -0.12019  -0.02628  -0.05164  -0.00005  -0.02384
  16        3PX        -0.03697   0.08697  -0.10099   0.00029   0.05061
  17        3PY         0.02297   0.12320   0.08687  -0.00134  -0.14493
  18        3PZ         0.00004   0.00014  -0.00007   0.17270  -0.00160
  19 3   C  1S         -0.02205  -0.00559  -0.01965  -0.00007  -0.00856
  20        2S          0.01998   0.00367   0.01922   0.00009   0.01133
  21        2PX         0.11445  -0.10492   0.10275  -0.00013  -0.02253
  22        2PY        -0.04460  -0.19007  -0.02750   0.00156   0.15806
  23        2PZ        -0.00000   0.00013  -0.00007   0.18827  -0.00174
  24        3S          0.08506   0.03260   0.06609   0.00019   0.02177
  25        3PX         0.11270  -0.06929   0.12998  -0.00031  -0.03925
  26        3PY        -0.04814  -0.12963  -0.04001   0.00113   0.11739
  27        3PZ         0.00001   0.00013  -0.00007   0.18891  -0.00175
  28 4   C  1S          0.00215   0.04001   0.00207  -0.00014  -0.01470
  29        2S         -0.00044  -0.03735  -0.00301   0.00018   0.01637
  30        2PX         0.02792   0.13428  -0.01245   0.00205   0.22073
  31        2PY         0.07951  -0.00895   0.20039   0.00022   0.01113
  32        2PZ         0.00008   0.00047  -0.00002   0.10942  -0.00101
  33        3S         -0.01970  -0.13890   0.00381   0.00023   0.04446
  34        3PX         0.02498   0.17329  -0.00529   0.00170   0.18847
  35        3PY         0.03892   0.00453   0.17384   0.00024   0.01980
  36        3PZ         0.00007   0.00032  -0.00003   0.11049  -0.00104
  37 5   C  1S          0.02252  -0.01257   0.01595  -0.00000  -0.00389
  38        2S         -0.02287   0.01119  -0.01664   0.00003   0.00685
  39        2PX        -0.10165  -0.06551  -0.11779  -0.00003  -0.02019
  40        2PY         0.01212   0.19928   0.02273  -0.00167  -0.16308
  41        2PZ        -0.00001   0.00016  -0.00002   0.18360  -0.00173
  42        3S         -0.07466   0.05774  -0.04906  -0.00011  -0.00302
  43        3PX        -0.10114  -0.02624  -0.13736  -0.00027  -0.04122
  44        3PY        -0.00602   0.14280  -0.00307  -0.00118  -0.11664
  45        3PZ        -0.00001   0.00016  -0.00002   0.18479  -0.00174
  46 6   C  1S          0.02272  -0.02662  -0.00646   0.00007   0.00534
  47        2S         -0.02100   0.02755   0.00616  -0.00009  -0.00716
  48        2PX         0.02280  -0.13141  -0.15656  -0.00123  -0.14871
  49        2PY        -0.11744   0.02973  -0.13549  -0.00114  -0.09605
  50        2PZ        -0.00001   0.00024  -0.00001   0.13946  -0.00135
  51        3S         -0.09048   0.06826   0.01424  -0.00033  -0.02497
  52        3PX         0.00953  -0.14327  -0.07724  -0.00096  -0.10505
  53        3PY        -0.10352   0.07291  -0.08689  -0.00093  -0.06160
  54        3PZ        -0.00006   0.00030   0.00008   0.14033  -0.00131
  55 7   C  1S         -0.03439   0.02588  -0.01351   0.00008   0.01128
  56        2S          0.03374  -0.02663   0.01195  -0.00013  -0.01564
  57        2PX         0.05281   0.12104   0.15510   0.00079   0.10132
  58        2PY        -0.02087  -0.12223   0.02763   0.00178   0.17757
  59        2PZ        -0.00002   0.00017   0.00005   0.16448  -0.00149
  60        3S          0.12577  -0.06925   0.03597   0.00004  -0.01595
  61        3PX         0.02880   0.05417   0.11333   0.00050   0.07366
  62        3PY         0.00822  -0.13496   0.05499   0.00174   0.17072
  63        3PZ        -0.00001   0.00012   0.00003   0.16282  -0.00150
  64 8   H  1S          0.08573   0.11118   0.03436  -0.00003   0.00993
  65        2S          0.07519   0.10671   0.03867   0.00010   0.01933
  66 9   H  1S         -0.04040  -0.07536  -0.08971   0.00112   0.11955
  67        2S         -0.02552  -0.07001  -0.08892   0.00131   0.14098
  68 10  H  1S          0.11374   0.00350   0.10734  -0.00066  -0.07080
  69        2S          0.10760   0.00138   0.10408  -0.00077  -0.08279
  70 11  H  1S         -0.08822   0.03987  -0.09687  -0.00067  -0.07526
  71        2S         -0.07929   0.03613  -0.09271  -0.00074  -0.08483
  72 12  H  1S         -0.08969   0.11454  -0.01343  -0.00014   0.00910
  73        2S         -0.07794   0.10459  -0.02157  -0.00005   0.01577
  74 13  H  1S          0.02916  -0.09550   0.06646   0.00154   0.15206
  75        2S          0.01679  -0.08830   0.06490   0.00181   0.18108
  76 14  C  1S          0.00218   0.02232  -0.00105   0.00024   0.02702
  77        2S         -0.00231  -0.02582   0.00093  -0.00026  -0.02937
  78        2PX        -0.03288  -0.18792   0.01075  -0.00195  -0.21465
  79        2PY         0.27747  -0.01657  -0.18860  -0.00021  -0.01389
  80        2PZ         0.00012   0.00084   0.00007  -0.10095   0.00114
  81        3S         -0.00320  -0.04108   0.00493  -0.00078  -0.08949
  82        3PX        -0.02277  -0.12308   0.01015  -0.00164  -0.17896
  83        3PY         0.23668  -0.02027  -0.18591  -0.00015  -0.01417
  84        3PZ         0.00006   0.00092   0.00011  -0.08771   0.00097
  85 15  H  1S         -0.09214   0.03694   0.07296   0.07135   0.04054
  86        2S         -0.09492   0.05747   0.08702   0.09127   0.06221
  87 16  H  1S         -0.08738   0.03742   0.06949  -0.07169   0.04175
  88        2S         -0.08983   0.05790   0.08283  -0.09148   0.06385
  89 17  H  1S          0.19897   0.02983  -0.14886   0.00138   0.03189
  90        2S          0.20915   0.05556  -0.17409   0.00177   0.05013
                          26        27        28        29        30
                           O         O         O         O         V
     Eigenvalues --    -0.26589  -0.18722  -0.17748   0.02630   0.28502
   1 1   C  1S          0.02349   0.00000  -0.00003   0.00003  -0.00005
   2        2S         -0.02820  -0.00001   0.00002   0.00001   0.00009
   3        2PX        -0.06444   0.00004  -0.00010   0.00010  -0.00008
   4        2PY        -0.17309   0.00004  -0.00015   0.00012   0.00000
   5        2PZ         0.00000   0.20405  -0.14863  -0.07517  -0.22101
   6        3S         -0.05869   0.00018   0.00025  -0.00040  -0.00077
   7        3PX        -0.08782  -0.00006  -0.00001   0.00017   0.00083
   8        3PY        -0.16271   0.00017  -0.00026   0.00031  -0.00118
   9        3PZ        -0.00002   0.23267  -0.15454  -0.13597  -0.43606
  10 2   C  1S         -0.01254  -0.00000   0.00002  -0.00002   0.00002
  11        2S          0.01302   0.00000  -0.00001   0.00002  -0.00003
  12        2PX         0.11741  -0.00003   0.00005  -0.00006   0.00008
  13        2PY         0.13179   0.00006   0.00003  -0.00003   0.00001
  14        2PZ        -0.00008   0.24631  -0.00531  -0.19362   0.15204
  15        3S          0.04243   0.00001  -0.00020   0.00014  -0.00045
  16        3PX         0.07422  -0.00006   0.00010  -0.00008   0.00060
  17        3PY         0.12313   0.00002   0.00003  -0.00007   0.00044
  18        3PZ        -0.00007   0.29286  -0.02513  -0.33195   0.31119
  19 3   C  1S         -0.02086  -0.00000  -0.00001   0.00002  -0.00000
  20        2S          0.02171  -0.00000   0.00000  -0.00001   0.00002
  21        2PX        -0.18189   0.00003  -0.00002   0.00006  -0.00000
  22        2PY        -0.02900  -0.00001  -0.00006   0.00003  -0.00003
  23        2PZ        -0.00006   0.06482   0.23139   0.17319   0.16316
  24        3S          0.07590   0.00004   0.00003  -0.00008  -0.00018
  25        3PX        -0.18005  -0.00000  -0.00003   0.00007   0.00032
  26        3PY        -0.00226  -0.00002  -0.00005   0.00002   0.00017
  27        3PZ        -0.00007   0.06068   0.28186   0.29747   0.33523
  28 4   C  1S         -0.00021  -0.00001  -0.00003   0.00005  -0.00001
  29        2S          0.00002   0.00000   0.00001   0.00000  -0.00000
  30        2PX        -0.01200   0.00000  -0.00001   0.00001  -0.00000
  31        2PY         0.16804   0.00001  -0.00001   0.00003   0.00005
  32        2PZ        -0.00005  -0.01620  -0.22900   0.27870  -0.04890
  33        3S          0.00446   0.00007   0.00038  -0.00068   0.00007
  34        3PX        -0.01008   0.00003   0.00002  -0.00018  -0.00004
  35        3PY         0.15175   0.00041   0.00010  -0.00029  -0.00283
  36        3PZ        -0.00005  -0.02458  -0.27803   0.46921  -0.10602
  37 5   C  1S          0.02394   0.00001  -0.00001   0.00001  -0.00001
  38        2S         -0.02535  -0.00000   0.00001  -0.00001  -0.00001
  39        2PX         0.18623  -0.00002  -0.00005   0.00003  -0.00000
  40        2PY        -0.03859   0.00003   0.00002  -0.00006   0.00004
  41        2PZ        -0.00008  -0.08537   0.21950   0.09810  -0.21231
  42        3S         -0.09218  -0.00009  -0.00001  -0.00003   0.00031
  43        3PX         0.18654   0.00002  -0.00002   0.00003  -0.00030
  44        3PY        -0.01049   0.00000  -0.00003  -0.00005   0.00032
  45        3PZ        -0.00008  -0.08453   0.25312   0.16454  -0.42548
  46 6   C  1S         -0.02200  -0.00000  -0.00002   0.00003   0.00001
  47        2S          0.02718   0.00002   0.00002  -0.00001  -0.00009
  48        2PX         0.07742  -0.00003  -0.00006   0.00009  -0.00001
  49        2PY        -0.16559   0.00002   0.00011  -0.00013   0.00011
  50        2PZ        -0.00007  -0.19080  -0.16136  -0.00385   0.22476
  51        3S          0.04902  -0.00018   0.00013  -0.00016   0.00116
  52        3PX         0.10118   0.00010   0.00011  -0.00007  -0.00107
  53        3PY        -0.15129   0.00021   0.00031  -0.00056  -0.00092
  54        3PZ        -0.00006  -0.20626  -0.17565  -0.00182   0.44402
  55 7   C  1S          0.00712  -0.00000   0.00001  -0.00002  -0.00002
  56        2S         -0.00758  -0.00000  -0.00000   0.00002   0.00002
  57        2PX        -0.12301   0.00007   0.00004  -0.00002  -0.00001
  58        2PY         0.12946   0.00005  -0.00003   0.00003  -0.00001
  59        2PZ        -0.00008  -0.24322  -0.00016  -0.25309  -0.06570
  60        3S         -0.01938  -0.00002  -0.00015   0.00028   0.00038
  61        3PX        -0.07338   0.00013   0.00016  -0.00010  -0.00054
  62        3PY         0.11355  -0.00002  -0.00007   0.00013   0.00044
  63        3PZ        -0.00009  -0.29184  -0.00990  -0.44117  -0.14022
  64 8   H  1S          0.13228  -0.00003   0.00009  -0.00005   0.00004
  65        2S          0.16070  -0.00004   0.00001   0.00026  -0.00013
  66 9   H  1S         -0.07810  -0.00002  -0.00005   0.00002   0.00001
  67        2S         -0.09891  -0.00004  -0.00006   0.00003   0.00015
  68 10  H  1S         -0.11084   0.00003   0.00000   0.00000  -0.00001
  69        2S         -0.13821   0.00004   0.00001   0.00002  -0.00010
  70 11  H  1S          0.10928  -0.00002  -0.00001  -0.00001  -0.00000
  71        2S          0.13424  -0.00002  -0.00003  -0.00001   0.00001
  72 12  H  1S         -0.13766   0.00003   0.00007  -0.00005  -0.00003
  73        2S         -0.16729  -0.00000  -0.00004   0.00030  -0.00006
  74 13  H  1S          0.07681   0.00001  -0.00003   0.00002  -0.00004
  75        2S          0.09694   0.00005  -0.00004   0.00003  -0.00028
  76 14  C  1S         -0.00250  -0.00000   0.00001  -0.00002   0.00002
  77        2S          0.00251   0.00000   0.00000   0.00001  -0.00001
  78        2PX         0.01345  -0.00000  -0.00002   0.00010  -0.00004
  79        2PY         0.00894  -0.00022   0.00003   0.00005   0.00061
  80        2PZ         0.00003  -0.00261   0.07695  -0.02179   0.01401
  81        3S          0.01041   0.00002  -0.00015   0.00006  -0.00015
  82        3PX         0.01093   0.00001   0.00002   0.00009  -0.00013
  83        3PY        -0.00689  -0.00073  -0.00010   0.00052   0.00488
  84        3PZ         0.00002  -0.01158   0.06217   0.01815   0.07477
  85 15  H  1S         -0.00100  -0.00155  -0.07152   0.05926  -0.01115
  86        2S          0.00276  -0.01264  -0.11598   0.16479   0.03709
  87 16  H  1S         -0.00103   0.00166   0.07266  -0.06019   0.01144
  88        2S          0.00249   0.01252   0.11784  -0.16709  -0.03304
  89 17  H  1S         -0.00618  -0.00011  -0.00113   0.00095  -0.00028
  90        2S         -0.01889   0.00013  -0.00165   0.00213  -0.00395
                          31        32        33        34        35
                           V         V         V         V         V
     Eigenvalues --     0.40626   0.44224   0.45478   0.46340   0.48197
   1 1   C  1S          0.04679  -0.02003   0.01857  -0.00003   0.05076
   2        2S         -0.03188   0.02156   0.00223  -0.00033  -0.00883
   3        2PX         0.06205  -0.03909   0.06630   0.00015   0.10352
   4        2PY         0.05183   0.01042   0.12849  -0.00006   0.08620
   5        2PZ        -0.00075   0.00131  -0.00146   0.15088   0.00251
   6        3S         -0.42743   0.08770  -0.39508   0.00034  -0.66083
   7        3PX         0.21223  -0.01832   0.31909  -0.00039   0.31943
   8        3PY         0.28264  -0.25960   0.36502  -0.00018   0.35308
   9        3PZ        -0.00170   0.00341  -0.00589   0.45840   0.00929
  10 2   C  1S          0.03420   0.04183   0.03105   0.00043   0.01743
  11        2S         -0.01247  -0.02018   0.00180  -0.00008   0.00659
  12        2PX        -0.03324  -0.00498  -0.00458  -0.00027  -0.00658
  13        2PY         0.07754   0.05432   0.11590   0.00105   0.09716
  14        2PZ         0.00073  -0.00116   0.00249  -0.16423  -0.00373
  15        3S         -0.41117  -0.50020  -0.53211  -0.00590  -0.37326
  16        3PX        -0.09506   0.01822  -0.04791  -0.00105  -0.16115
  17        3PY         0.24562   0.31608   0.31759   0.00348   0.27184
  18        3PZ         0.00170  -0.00308   0.00723  -0.46052  -0.01117
  19 3   C  1S          0.04172   0.02712   0.01696   0.00040  -0.00979
  20        2S         -0.01943   0.00002  -0.00370   0.00004  -0.00898
  21        2PX        -0.07512  -0.10085  -0.01782  -0.00151   0.06708
  22        2PY         0.04323   0.03956   0.03028   0.00068  -0.01883
  23        2PZ        -0.00021   0.00033  -0.00251   0.10394   0.00387
  24        3S         -0.47796  -0.44733  -0.22026  -0.00680   0.25790
  25        3PX        -0.27535  -0.29354  -0.12892  -0.00502   0.10476
  26        3PY         0.16123   0.14193   0.00945   0.00143  -0.15780
  27        3PZ        -0.00053   0.00090  -0.00710   0.29592   0.01124
  28 4   C  1S          0.01978   0.00616  -0.00234  -0.00029   0.01033
  29        2S         -0.01086  -0.01227  -0.00781  -0.00072   0.01628
  30        2PX         0.01193  -0.01151  -0.01029  -0.00101   0.06009
  31        2PY        -0.00209   0.01146   0.03551   0.00032  -0.00059
  32        2PZ         0.00029  -0.00106   0.00155  -0.12877  -0.00222
  33        3S         -0.24784   0.18070   0.02893   0.00588  -0.19750
  34        3PX         0.01038   0.24671  -0.06021  -0.00201   0.13230
  35        3PY         0.07544  -0.08755  -0.06185   0.00122   0.08860
  36        3PZ        -0.00039  -0.00165   0.00273  -0.22033  -0.00551
  37 5   C  1S          0.04530   0.01786  -0.02413   0.00014  -0.03793
  38        2S         -0.02172   0.00075   0.00492   0.00005  -0.00252
  39        2PX        -0.07993  -0.09346   0.04434  -0.00102   0.13904
  40        2PY        -0.04536  -0.02099   0.04148  -0.00018   0.07379
  41        2PZ        -0.00021   0.00038   0.00172  -0.03244  -0.00303
  42        3S         -0.52307  -0.31725   0.34723  -0.00266   0.65681
  43        3PX        -0.28388  -0.25604   0.21297  -0.00224   0.49236
  44        3PY        -0.18363  -0.10645   0.06365  -0.00211   0.24417
  45        3PZ        -0.00052   0.00095   0.00489  -0.09901  -0.00886
  46 6   C  1S          0.04397  -0.02853  -0.01227  -0.00016   0.00674
  47        2S         -0.02537   0.00919  -0.01369  -0.00035   0.00698
  48        2PX         0.05613  -0.07006  -0.04231  -0.00068   0.03228
  49        2PY        -0.07252   0.07955   0.13549   0.00191  -0.04240
  50        2PZ        -0.00070   0.00128  -0.00225   0.16139   0.00173
  51        3S         -0.46556   0.34138   0.33140   0.00411  -0.20190
  52        3PX         0.27143  -0.26519  -0.28342  -0.00264   0.18394
  53        3PY        -0.28306   0.42521   0.31770   0.00627  -0.15572
  54        3PZ        -0.00139   0.00326  -0.00378   0.35539   0.00280
  55 7   C  1S          0.03295   0.02225  -0.03346  -0.00018  -0.00636
  56        2S         -0.01194  -0.01973   0.00093   0.00002  -0.00856
  57        2PX        -0.02669  -0.00016   0.00118  -0.00031   0.03485
  58        2PY        -0.06710   0.00826   0.10218   0.00075   0.05222
  59        2PZ         0.00062  -0.00107   0.00041  -0.08219   0.00066
  60        3S         -0.40239  -0.15940   0.53033   0.00276   0.12366
  61        3PX        -0.03963  -0.00316   0.01452   0.00091   0.02756
  62        3PY        -0.22241  -0.11517   0.29759   0.00180   0.14844
  63        3PZ         0.00143  -0.00286   0.00053  -0.20243   0.00238
  64 8   H  1S          0.02292   0.03084   0.00766  -0.00037   0.03618
  65        2S          0.65374  -0.17760   0.78873   0.00083   0.90389
  66 9   H  1S          0.02624   0.01441   0.01454   0.00003   0.00042
  67        2S          0.59168   0.57447   0.67918   0.00746   0.53307
  68 10  H  1S          0.03163   0.01565   0.00250   0.00013  -0.00200
  69        2S          0.68103   0.64140   0.24007   0.00971  -0.33106
  70 11  H  1S          0.03405   0.01434  -0.00627   0.00014  -0.00880
  71        2S          0.71922   0.51917  -0.41643   0.00523  -0.95513
  72 12  H  1S          0.02630   0.01306  -0.02389  -0.00039   0.01541
  73        2S          0.68674  -0.60241  -0.69506  -0.01025   0.35842
  74 13  H  1S          0.02742   0.00153  -0.01686  -0.00013  -0.00033
  75        2S          0.54289   0.17102  -0.64875  -0.00410  -0.27108
  76 14  C  1S          0.02624  -0.11629   0.05649   0.00342  -0.08465
  77        2S          0.00180   0.01643  -0.00984  -0.00077   0.02231
  78        2PX         0.09588  -0.12267   0.04770   0.00245  -0.01874
  79        2PY        -0.03191   0.05545   0.15613   0.00119  -0.11576
  80        2PZ         0.00158  -0.00191   0.00251  -0.21520  -0.00148
  81        3S         -0.41378   1.64270  -0.77628  -0.04584   1.10886
  82        3PX         0.35765  -0.45187   0.17971   0.00994  -0.06362
  83        3PY        -0.17573   0.24951   0.65757   0.00460  -0.63351
  84        3PZ         0.00777  -0.00825   0.01087  -0.94528  -0.00499
  85 15  H  1S         -0.00357   0.00014   0.00571  -0.04903  -0.01979
  86        2S          0.18685  -0.64368   0.76224  -0.97168  -0.84080
  87 16  H  1S         -0.00405   0.00088   0.00416   0.04983  -0.01811
  88        2S          0.17677  -0.63318   0.72122   1.03678  -0.80995
  89 17  H  1S          0.01090  -0.01437  -0.01607  -0.00099   0.03694
  90        2S          0.45710  -1.06024  -0.36540   0.00075   0.23561
                          36        37        38        39        40
                           V         V         V         V         V
     Eigenvalues --     0.50942   0.51275   0.54466   0.55280   0.56482
   1 1   C  1S         -0.00248   0.00015   0.04400  -0.06284  -0.00304
   2        2S         -0.00715  -0.00091  -0.00088   0.04628   0.00087
   3        2PX        -0.03716  -0.00341   0.07266  -0.02077  -0.00436
   4        2PY        -0.04195  -0.00471   0.10713  -0.09723  -0.00581
   5        2PZ         0.00358  -0.06380   0.00076  -0.00604   0.22543
   6        3S          0.21117   0.01724  -0.83301   0.48798   0.04903
   7        3PX        -0.29763  -0.02944   0.25745  -0.38572  -0.01555
   8        3PY        -0.02960  -0.00468   0.52211  -0.79631  -0.03353
   9        3PZ         0.01202  -0.17971   0.00296  -0.01722   0.63354
  10 2   C  1S         -0.01620  -0.00164  -0.00846   0.10596   0.00202
  11        2S          0.01931   0.00208  -0.01191  -0.04668  -0.00158
  12        2PX        -0.03400  -0.00352  -0.03713  -0.06594   0.00164
  13        2PY         0.04921   0.00583  -0.05836   0.13591   0.00161
  14        2PZ        -0.01356   0.14848  -0.00029   0.00382  -0.13805
  15        3S          0.18926   0.01736   0.35730  -1.29346  -0.01976
  16        3PX        -0.04014  -0.00484  -0.27038  -0.41034   0.01034
  17        3PY         0.08914   0.01203  -0.18386   1.16710   0.02751
  18        3PZ        -0.03936   0.42732  -0.00125   0.01210  -0.44489
  19 3   C  1S          0.03919   0.00410  -0.07166  -0.07811  -0.00083
  20        2S          0.00432   0.00038   0.02531   0.05156   0.00285
  21        2PX        -0.11449  -0.01177   0.12057   0.02368  -0.00358
  22        2PY         0.08169   0.00839  -0.02042  -0.06728   0.00200
  23        2PZ         0.02355  -0.23175  -0.00027  -0.00188   0.06914
  24        3S         -0.69964  -0.07288   0.96933   0.74369  -0.02955
  25        3PX        -0.44351  -0.04709   0.80235   0.56852   0.01082
  26        3PY         0.27777   0.02852  -0.20924  -0.61023  -0.00632
  27        3PZ         0.07039  -0.69163  -0.00092  -0.00509   0.18634
  28 4   C  1S         -0.00286  -0.00023  -0.00417   0.00989  -0.00067
  29        2S          0.01046   0.00127   0.01284  -0.02437   0.00170
  30        2PX        -0.05518  -0.00506   0.00939  -0.04676   0.00295
  31        2PY        -0.00062  -0.00011  -0.04506   0.03143   0.00528
  32        2PZ         0.00910  -0.06918  -0.00168   0.00657  -0.24197
  33        3S         -0.10938  -0.01354  -0.07670   0.11831  -0.00918
  34        3PX        -0.29580  -0.02979  -0.09182   0.04778  -0.00566
  35        3PY         0.08178   0.00624  -0.13799  -0.07489   0.00408
  36        3PZ         0.02454  -0.18887  -0.00550   0.02219  -0.83936
  37 5   C  1S          0.00983   0.00064   0.08766   0.02683   0.00389
  38        2S          0.00463   0.00038  -0.03270  -0.03733  -0.00376
  39        2PX        -0.01964  -0.00033  -0.13655   0.01253   0.00128
  40        2PY        -0.02341  -0.00183  -0.05224   0.02897  -0.00409
  41        2PZ        -0.02810   0.26762   0.00082  -0.00017   0.00360
  42        3S         -0.21360  -0.01460  -1.21657   0.07856  -0.02079
  43        3PX         0.03394   0.00954  -0.90022  -0.28741  -0.02777
  44        3PY        -0.19173  -0.01739  -0.38162  -0.05963  -0.04063
  45        3PZ        -0.08188   0.78090   0.00229  -0.00032   0.00175
  46 6   C  1S         -0.04577  -0.00441  -0.02414  -0.00030   0.00660
  47        2S          0.01661   0.00170  -0.01417   0.00268  -0.00379
  48        2PX        -0.09396  -0.00882  -0.07549   0.01479   0.00355
  49        2PY         0.02687   0.00105   0.08557  -0.03683  -0.00982
  50        2PZ        -0.01967   0.18417   0.00179  -0.00394   0.13497
  51        3S          0.63465   0.06065   0.71017  -0.01697  -0.07073
  52        3PX        -0.24949  -0.02185  -0.19345   0.04911   0.03274
  53        3PY         0.01633  -0.00657   0.23295  -0.18806  -0.07277
  54        3PZ        -0.05904   0.53215   0.00512  -0.01450   0.52098
  55 7   C  1S         -0.04302  -0.00451  -0.03436  -0.00999  -0.00859
  56        2S          0.00403   0.00035   0.02577   0.01728   0.00343
  57        2PX         0.01264   0.00166   0.05326  -0.00645   0.00276
  58        2PY         0.11528   0.01243  -0.00217  -0.00681   0.01080
  59        2PZ         0.02487  -0.23227  -0.00126   0.00204  -0.06642
  60        3S          0.71250   0.07554   0.23359  -0.02334   0.10897
  61        3PX         0.23093   0.02379   0.38622   0.00990   0.01871
  62        3PY         0.45759   0.05056   0.22594   0.17294   0.09340
  63        3PZ         0.07417  -0.68813  -0.00389   0.00773  -0.26601
  64 8   H  1S         -0.02058  -0.00174  -0.02056  -0.01693   0.00149
  65        2S         -0.39164  -0.03844   0.90310  -1.12097  -0.05671
  66 9   H  1S         -0.00055  -0.00016   0.01969  -0.00977   0.00020
  67        2S          0.09286   0.01324  -0.23819   1.77101   0.03067
  68 10  H  1S         -0.00423  -0.00055   0.01455  -0.00580  -0.00242
  69        2S          0.90375   0.09412  -1.21096  -1.08527  -0.00240
  70 11  H  1S         -0.00278  -0.00026  -0.02044   0.01988   0.00114
  71        2S          0.15315   0.00509   1.46848   0.26354   0.05115
  72 12  H  1S         -0.03641  -0.00359   0.02078  -0.01354   0.00002
  73        2S         -0.63933  -0.05353  -0.61006   0.17648   0.10943
  74 13  H  1S          0.01103   0.00130  -0.01210  -0.00778   0.00094
  75        2S         -0.84386  -0.09071  -0.43398  -0.14471  -0.14019
  76 14  C  1S          0.04959   0.00445  -0.00315   0.02213  -0.00140
  77        2S         -0.01580  -0.00149   0.00043  -0.00313   0.00020
  78        2PX        -0.00471  -0.00056  -0.00966   0.02453  -0.00203
  79        2PY        -0.19094  -0.02208  -0.02456  -0.05541   0.00224
  80        2PZ         0.00412  -0.03026   0.00085  -0.00467   0.22500
  81        3S         -0.67358  -0.06073   0.02438  -0.29317   0.01862
  82        3PX        -0.08603  -0.00911  -0.06208   0.06596  -0.00519
  83        3PY        -0.90996  -0.10172  -0.16966  -0.04710   0.02526
  84        3PZ         0.00945  -0.06430   0.00514  -0.02533   1.12050
  85 15  H  1S         -0.02243  -0.01988  -0.02134   0.01980  -0.00510
  86        2S         -0.30805  -0.15674  -0.16107   0.08688   0.98794
  87 16  H  1S         -0.02573   0.01483  -0.02038   0.01853   0.01069
  88        2S         -0.31463   0.07707  -0.16292   0.13097  -0.99232
  89 17  H  1S          0.03986   0.00421   0.02889  -0.02721  -0.00486
  90        2S          1.29382   0.13779   0.20236   0.23873  -0.02721
                          41        42        43        44        45
                           V         V         V         V         V
     Eigenvalues --     0.56889   0.63357   0.68357   0.70442   0.79621
   1 1   C  1S          0.00736   0.05657   0.00155  -0.08284  -0.01071
   2        2S          0.00753  -0.01936   0.00991   0.02843  -0.01888
   3        2PX         0.02988   0.06073   0.00052   0.13321  -0.09687
   4        2PY         0.03594  -0.07811  -0.03947   0.03763   0.05523
   5        2PZ         0.01696   0.00072   0.00090  -0.00051  -0.00080
   6        3S         -0.27729  -0.83603  -0.39819   1.58862   0.44794
   7        3PX        -0.03888   0.82304  -0.20797   0.52401  -2.14924
   8        3PY         0.19085  -0.37207  -0.48281   0.21153   1.40441
   9        3PZ         0.04835   0.00176   0.00180  -0.00025  -0.00068
  10 2   C  1S          0.00205   0.05443   0.04435   0.05534  -0.06485
  11        2S          0.00899   0.01017  -0.03421  -0.01755  -0.03017
  12        2PX        -0.04375  -0.09461  -0.02824   0.05279  -0.06228
  13        2PY         0.02902  -0.07464  -0.12858  -0.07737   0.00438
  14        2PZ        -0.01009  -0.00032  -0.00033   0.00027   0.00023
  15        3S         -0.07240  -1.30718  -0.43106  -1.01796   2.43083
  16        3PX        -0.23526  -0.49900  -0.43733   0.77047  -0.80712
  17        3PY         0.04549  -0.65200  -0.49777  -0.21658   0.44256
  18        3PZ        -0.03302  -0.00104  -0.00102   0.00052   0.00023
  19 3   C  1S         -0.00488  -0.05678  -0.05496   0.05941  -0.00896
  20        2S         -0.02066   0.01129   0.00753  -0.00512  -0.02139
  21        2PX         0.04258  -0.12455  -0.08060   0.04683   0.09996
  22        2PY        -0.03690  -0.05467   0.00944  -0.10831   0.08461
  23        2PZ         0.00478   0.00021   0.00024  -0.00020  -0.00014
  24        3S          0.46052   1.10149   1.05392  -1.39540   0.95658
  25        3PX        -0.00122  -0.70031  -0.59654   0.21417   0.91872
  26        3PY        -0.06851  -0.42559   0.03955  -1.30518   0.90926
  27        3PZ         0.01273   0.00061   0.00057  -0.00062  -0.00010
  28 4   C  1S          0.01751  -0.14917   0.08550   0.02095   0.02665
  29        2S         -0.02451   0.02881  -0.01200   0.00766   0.02482
  30        2PX        -0.07214  -0.00930   0.24350   0.06561  -0.00662
  31        2PY        -0.05097  -0.03294  -0.05656   0.14326   0.21997
  32        2PZ        -0.01905  -0.00061  -0.00078  -0.00022   0.00004
  33        3S          0.00618   2.48027  -1.46257  -0.42722  -0.90521
  34        3PX        -0.04053  -0.53231   1.83329   0.41686  -0.11708
  35        3PY        -0.06545  -0.24887  -0.43725   0.82280   2.27912
  36        3PZ        -0.06654  -0.00229  -0.00272  -0.00079  -0.00009
  37 5   C  1S         -0.04221  -0.04465  -0.00666  -0.09721  -0.02977
  38        2S          0.03766   0.01126   0.00213   0.01331   0.00220
  39        2PX        -0.00493  -0.09195  -0.02151  -0.10667  -0.13043
  40        2PY         0.05479   0.06695   0.04359  -0.08694   0.16167
  41        2PZ         0.00088  -0.00001   0.00001   0.00022   0.00010
  42        3S          0.30479   0.86845   0.00477   2.17837   0.39690
  43        3PX         0.32161  -0.49000  -0.23200  -0.69608  -1.39373
  44        3PY         0.47863   0.55608   0.56651  -0.89420   1.61650
  45        3PZ         0.00194  -0.00009  -0.00006   0.00041   0.00029
  46 6   C  1S         -0.08653   0.02969  -0.05941   0.06020   0.02351
  47        2S          0.05191  -0.01624   0.02615  -0.00925   0.04327
  48        2PX        -0.04608   0.06600   0.05317  -0.10585   0.02620
  49        2PY         0.10440   0.06561   0.01483   0.05436  -0.04263
  50        2PZ         0.01121   0.00035   0.00032   0.00078   0.00036
  51        3S          0.92910  -0.28985   0.81288  -1.38762  -1.37664
  52        3PX        -0.47383   0.75152  -0.11430  -0.53540   0.96660
  53        3PY         0.76672   0.22855   0.25818   0.28097   0.32050
  54        3PZ         0.04199   0.00139   0.00132   0.00082   0.00032
  55 7   C  1S          0.09918   0.05950   0.06096  -0.00244   0.06562
  56        2S         -0.03580   0.00527  -0.04351  -0.00390   0.02295
  57        2PX        -0.04704  -0.06643   0.03948  -0.10728  -0.09738
  58        2PY        -0.14051   0.08188   0.14302   0.03703   0.06797
  59        2PZ        -0.00573  -0.00010  -0.00005  -0.00035  -0.00014
  60        3S         -1.26560  -1.29524  -0.66074   0.25366  -1.98216
  61        3PX        -0.26469  -0.30088   0.14787  -1.09261  -0.97373
  62        3PY        -1.13408   0.62659   0.43903   0.37084   0.93748
  63        3PZ        -0.02248  -0.00049  -0.00043  -0.00080  -0.00009
  64 8   H  1S         -0.03159  -0.03966  -0.01554   0.02518   0.04398
  65        2S          0.18583   0.40064  -0.42686   0.05232  -0.27623
  66 9   H  1S         -0.00450  -0.05291   0.01427  -0.02175   0.13601
  67        2S          0.17122  -0.15336  -0.26726  -0.15925   0.03714
  68 10  H  1S          0.02568   0.04018   0.02780  -0.01701   0.12864
  69        2S         -0.19045   0.15037   0.23366  -0.35160  -0.36634
  70 11  H  1S         -0.00782   0.04109   0.01020   0.05358  -0.01273
  71        2S         -0.61437  -0.00075  -0.02898   0.38683   0.24391
  72 12  H  1S         -0.01609  -0.02534   0.01757  -0.05704  -0.13049
  73        2S         -1.35389   0.29523  -0.49151  -0.29871   0.41605
  74 13  H  1S         -0.01122  -0.04361   0.01278   0.02434  -0.09235
  75        2S          1.71504  -0.16679  -0.30889  -0.06672  -0.14406
  76 14  C  1S          0.03270   0.05199  -0.07235  -0.01615   0.00009
  77        2S         -0.00833   0.02024  -0.00954  -0.00409  -0.02202
  78        2PX         0.03210  -0.02072   0.10680   0.03123  -0.05429
  79        2PY        -0.04102  -0.03100  -0.00562  -0.07901   0.10302
  80        2PZ         0.01897   0.00207   0.00152   0.00057  -0.00109
  81        3S         -0.44428  -1.04502   1.45638   0.33207   0.15659
  82        3PX         0.04277  -0.94157   1.78498   0.46174   0.05240
  83        3PY        -0.30116  -0.03808   0.14445  -0.50405  -0.51187
  84        3PZ         0.09229   0.00728   0.00405   0.00138  -0.00128
  85 15  H  1S         -0.02947  -0.03072   0.06378   0.03525  -0.02842
  86        2S          0.08611  -0.02047   0.20704  -0.15223  -0.13179
  87 16  H  1S         -0.02718  -0.03017   0.06407   0.03446  -0.02842
  88        2S         -0.06969  -0.03387   0.19630  -0.14551  -0.12204
  89 17  H  1S          0.04493  -0.02841   0.08940  -0.01227   0.04749
  90        2S          0.60481   0.13596   0.15783   0.48344   0.09895
                          46        47        48        49        50
                           V         V         V         V         V
     Eigenvalues --     0.81589   0.85584   0.89222   1.03770   1.04678
   1 1   C  1S         -0.04424   0.11351   0.06236  -0.01205  -0.02146
   2        2S         -0.02303  -0.02407   0.00141   0.07202  -0.08997
   3        2PX         0.11603  -0.07889   0.06925   0.23278  -0.09001
   4        2PY        -0.11333  -0.13216  -0.11272   0.08646  -0.16026
   5        2PZ         0.00036   0.00072   0.00050  -0.00183  -0.00124
   6        3S          1.83731  -2.61757  -1.52842   0.23873   0.35711
   7        3PX         1.13507  -1.03229  -0.79034  -2.03337  -1.41835
   8        3PY        -0.68531  -1.92731  -0.02266   1.17624   1.41193
   9        3PZ         0.00021   0.00074   0.00004   0.00084   0.00014
  10 2   C  1S         -0.00156  -0.08923  -0.06469   0.02106   0.03615
  11        2S          0.00665  -0.01285   0.04179   0.06142  -0.12176
  12        2PX         0.15094   0.10150  -0.18602  -0.21375  -0.01842
  13        2PY         0.05402   0.12268   0.08563   0.09896  -0.28864
  14        2PZ        -0.00007  -0.00016  -0.00019   0.00037   0.00030
  15        3S         -0.21889   2.01410   1.06550   0.26937   0.14057
  16        3PX         2.32172  -0.45348  -0.74780  -1.66333  -1.68107
  17        3PY         0.54137   1.67200   0.96775  -0.60121  -0.30322
  18        3PZ        -0.00022  -0.00056  -0.00016  -0.00011  -0.00000
  19 3   C  1S          0.04530   0.05745   0.09487  -0.02900  -0.01641
  20        2S          0.02693  -0.02320   0.00048   0.11217  -0.06484
  21        2PX         0.09103   0.02691   0.09232  -0.27676   0.03808
  22        2PY         0.16071  -0.13180  -0.04355   0.04463  -0.22255
  23        2PZ         0.00000   0.00011   0.00006  -0.00019  -0.00011
  24        3S         -1.30630  -1.28653  -2.36974  -0.11540  -0.22246
  25        3PX         1.01746   1.13787   0.84079  -0.84596  -0.99408
  26        3PY         1.02312   0.16103  -2.08114  -1.66318  -1.34734
  27        3PZ        -0.00017  -0.00005  -0.00013   0.00012   0.00013
  28 4   C  1S         -0.03989  -0.10794   0.02945  -0.02733   0.00336
  29        2S         -0.03496  -0.00065   0.00215   0.09496  -0.07655
  30        2PX        -0.00285   0.17026  -0.03917   0.23034  -0.21762
  31        2PY         0.09341   0.00363  -0.10519   0.19010   0.18630
  32        2PZ        -0.00016  -0.00029   0.00004  -0.00032   0.00058
  33        3S          1.74906   2.28672  -0.75215   0.26054   0.48962
  34        3PX        -0.17965   2.64811  -0.68504   0.40996   0.19935
  35        3PY         0.65743  -0.28366  -1.18340   2.65093   2.40300
  36        3PZ        -0.00028  -0.00022  -0.00000  -0.00034   0.00060
  37 5   C  1S          0.00231  -0.00947  -0.10608   0.02719   0.02460
  38        2S          0.04248  -0.01237   0.00882   0.05073  -0.12513
  39        2PX        -0.06252  -0.08001  -0.07510  -0.04759   0.25699
  40        2PY        -0.05757   0.13898  -0.10833  -0.17432   0.08924
  41        2PZ         0.00009   0.00008  -0.00016   0.00018   0.00025
  42        3S         -0.85463   0.11110   2.81358  -0.18690  -0.00988
  43        3PX        -0.52030   0.03703  -1.15307   1.27851   0.80493
  44        3PY        -0.06795  -0.52469  -1.80605  -1.55750  -1.83546
  45        3PZ         0.00014  -0.00000  -0.00037  -0.00034  -0.00047
  46 6   C  1S         -0.04478   0.07906  -0.09688   0.03257   0.01503
  47        2S          0.00290  -0.01450   0.00893   0.08677  -0.07743
  48        2PX         0.14018  -0.11592  -0.04055   0.08768  -0.20844
  49        2PY         0.09730   0.06972  -0.18372  -0.07536   0.18223
  50        2PZ         0.00072   0.00038  -0.00100   0.00178   0.00236
  51        3S          1.31575  -1.96951   2.32180  -0.79473  -0.37779
  52        3PX         2.21964  -0.71805   0.82234   1.57957   2.00289
  53        3PY         1.06597   1.61184  -1.10955   1.97096   1.42997
  54        3PZ         0.00068   0.00044  -0.00004  -0.00039  -0.00124
  55 7   C  1S          0.07382  -0.03382   0.08238  -0.04140  -0.01368
  56        2S          0.02244  -0.02457  -0.02479   0.10032  -0.07858
  57        2PX         0.13409   0.12040   0.10443   0.07018   0.24177
  58        2PY         0.00279  -0.05504   0.11632  -0.27533   0.11558
  59        2PZ        -0.00018  -0.00005   0.00028  -0.00030  -0.00028
  60        3S         -2.27348   0.92311  -1.41163   0.10328  -0.17296
[...]
  81        3S         -0.00000  -0.00002   0.00000   0.00000   0.00000
  82        3PX        -0.00000  -0.00006   0.00000   0.00000   0.00000
  83        3PY        -0.00000  -0.00001   0.00000   0.00000   0.00000
  84        3PZ        -0.00000  -0.00000   0.00000   0.00000  -0.00000
  85 15  H  1S          0.00000  -0.00000   0.00000   0.00000   0.00000
  86        2S         -0.00000   0.00000   0.00000  -0.00000  -0.00000
  87 16  H  1S          0.00000  -0.00000   0.00000   0.00000   0.00000
  88        2S         -0.00000   0.00000   0.00000  -0.00000  -0.00000
  89 17  H  1S          0.00000   0.00000   0.00000  -0.00000   0.00000
  90        2S          0.00000   0.00000  -0.00000  -0.00000   0.00000
                          71        72        73        74        75
  71        2S          0.16019
  72 12  H  1S         -0.00000   0.18441
  73        2S         -0.00008   0.10567   0.16055
  74 13  H  1S         -0.00052  -0.00000  -0.00067   0.17882
  75        2S         -0.00151  -0.00067  -0.00292   0.11158   0.17981
  76 14  C  1S         -0.00000   0.00000   0.00002   0.00000   0.00000
  77        2S          0.00000  -0.00000  -0.00015  -0.00000  -0.00000
  78        2PX         0.00000  -0.00000  -0.00027  -0.00000  -0.00000
  79        2PY         0.00000  -0.00000  -0.00023   0.00000  -0.00000
  80        2PZ        -0.00000  -0.00000  -0.00000  -0.00000   0.00000
  81        3S          0.00000  -0.00036  -0.00161  -0.00000  -0.00002
  82        3PX         0.00000  -0.00013  -0.00040  -0.00000  -0.00006
  83        3PY         0.00000  -0.00056  -0.00101  -0.00000  -0.00001
  84        3PZ        -0.00000  -0.00000  -0.00000  -0.00000  -0.00000
  85 15  H  1S         -0.00000   0.00000   0.00000   0.00000   0.00000
  86        2S         -0.00000   0.00001   0.00014   0.00000   0.00000
  87 16  H  1S         -0.00000   0.00000   0.00000   0.00000   0.00000
  88        2S         -0.00000   0.00001   0.00014   0.00000   0.00000
  89 17  H  1S          0.00000  -0.00000  -0.00001  -0.00000  -0.00000
  90        2S         -0.00000   0.00026   0.00233  -0.00000  -0.00000
                          76        77        78        79        80
  76 14  C  1S          2.03874
  77        2S          0.02244   0.10087
  78        2PX         0.00000   0.00000   0.29195
  79        2PY         0.00000   0.00000   0.00000   0.26204
  80        2PZ         0.00000   0.00000   0.00000   0.00000   0.25862
  81        3S         -0.07664   0.17554   0.00000   0.00000   0.00000
  82        3PX         0.00000   0.00000   0.11097   0.00000   0.00000
  83        3PY         0.00000   0.00000   0.00000   0.12162   0.00000
  84        3PZ         0.00000   0.00000   0.00000   0.00000   0.11250
  85 15  H  1S         -0.00072   0.00761   0.00639   0.01259   0.03393
  86        2S          0.00140   0.00329   0.00677   0.01166   0.03333
  87 16  H  1S         -0.00072   0.00761   0.00639   0.01144   0.03504
  88        2S          0.00141   0.00326   0.00678   0.01059   0.03443
  89 17  H  1S         -0.00075   0.00791   0.00754   0.04666   0.00001
  90        2S          0.00119   0.00418   0.00767   0.04237   0.00001
                          81        82        83        84        85
  81        3S          0.80782
  82        3PX         0.00000   0.15861
  83        3PY         0.00000   0.00000   0.20435
  84        3PZ         0.00000   0.00000   0.00000   0.17772
  85 15  H  1S          0.04793   0.00875   0.02075   0.04982   0.17853
  86        2S          0.02067   0.01251   0.02663   0.06450   0.12227
  87 16  H  1S          0.04787   0.00876   0.01893   0.05152  -0.00020
  88        2S          0.02043   0.01255   0.02434   0.06667  -0.00783
  89 17  H  1S          0.04923   0.00987   0.07449   0.00001  -0.00015
  90        2S          0.02413   0.01387   0.09549   0.00002  -0.00492
                          86        87        88        89        90
  86        2S          0.24618
  87 16  H  1S         -0.00783   0.17855
  88        2S         -0.04179   0.12258   0.24783
  89 17  H  1S         -0.00503  -0.00015  -0.00511   0.17823
  90        2S         -0.01758  -0.00498  -0.01813   0.11001   0.18150
     Gross orbital populations:
                           1
   1 1   C  1S          1.98826
   2        2S          0.40368
   3        2PX         0.61858
   4        2PY         0.58032
   5        2PZ         0.36922
   6        3S          0.88110
   7        3PX         0.34126
   8        3PY         0.40384
   9        3PZ         0.54208
  10 2   C  1S          1.98762
  11        2S          0.38383
  12        2PX         0.60589
  13        2PY         0.52988
  14        2PZ         0.48357
  15        3S          0.86849
  16        3PX         0.26182
  17        3PY         0.45454
  18        3PZ         0.73110
  19 3   C  1S          1.98771
  20        2S          0.38744
  21        2PX         0.53813
  22        2PY         0.61056
  23        2PZ         0.46537
  24        3S          0.87286
  25        3PX         0.43272
  26        3PY         0.29165
  27        3PZ         0.69551
  28 4   C  1S          1.98757
  29        2S          0.36475
  30        2PX         0.52673
  31        2PY         0.56472
  32        2PZ         0.59054
  33        3S          0.82586
  34        3PX         0.27691
  35        3PY         0.28365
  36        3PZ         0.84985
  37 5   C  1S          1.98807
  38        2S          0.40069
  39        2PX         0.55925
  40        2PY         0.63328
  41        2PZ         0.38181
  42        3S          0.88518
  43        3PX         0.45398
  44        3PY         0.30830
  45        3PZ         0.55969
  46 6   C  1S          1.98838
  47        2S          0.40904
  48        2PX         0.62721
  49        2PY         0.58444
  50        2PZ         0.33766
  51        3S          0.87866
  52        3PX         0.35519
  53        3PY         0.40746
  54        3PZ         0.49966
  55 7   C  1S          1.98722
  56        2S          0.37102
  57        2PX         0.57907
  58        2PY         0.51381
  59        2PZ         0.56214
  60        3S          0.84914
  61        3PX         0.23311
  62        3PY         0.43632
  63        3PZ         0.87746
  64 8   H  1S          0.47233
  65        2S          0.38170
  66 9   H  1S          0.47187
  67        2S          0.40181
  68 10  H  1S          0.47149
  69        2S          0.40012
  70 11  H  1S          0.47400
  71        2S          0.38479
  72 12  H  1S          0.47421
  73        2S          0.38145
  74 13  H  1S          0.46899
  75        2S          0.42553
  76 14  C  1S          1.98838
  77        2S          0.35592
  78        2PX         0.56258
  79        2PY         0.51318
  80        2PZ         0.50556
  81        3S          1.10523
  82        3PX         0.40769
  83        3PY         0.54746
  84        3PZ         0.53319
  85 15  H  1S          0.46385
  86        2S          0.41400
  87 16  H  1S          0.46388
  88        2S          0.41430
  89 17  H  1S          0.46348
  90        2S          0.39811
          Condensed to atoms (all electrons):
               1          2          3          4          5          6
     1  C    5.060566   0.592984  -0.089703   0.344650   0.000003  -0.058058
     2  C    0.592984   5.289088   0.283626  -0.094704  -0.087835  -0.002117
     3  C   -0.089703   0.283626   5.277204   0.007090   0.588616   0.000309
     4  C    0.344650  -0.094704   0.007090   5.605221   0.003491   0.489951
     5  C    0.000003  -0.087835   0.588616   0.003491   5.110282  -0.086857
     6  C   -0.058058  -0.002117   0.000309   0.489951  -0.086857   4.956075
     7  C    0.001095   0.008132  -0.096877  -0.107908   0.334266   0.500508
     8  H    0.402975  -0.045242   0.003050  -0.055591  -0.000107   0.002532
     9  H   -0.046430   0.405213  -0.048261   0.002781   0.002797  -0.000034
    10  H    0.002833  -0.047187   0.403026  -0.000017  -0.046771  -0.000065
    11  H   -0.000079   0.002779  -0.048977  -0.000022   0.398456   0.002784
    12  H    0.002870  -0.000036  -0.000094  -0.052195   0.003157   0.398183
    13  H   -0.000028  -0.000016   0.002968   0.003030  -0.049226  -0.046452
    14  C   -0.090284   0.001577  -0.000002   0.331791   0.000002  -0.071064
    15  H    0.000736   0.000272  -0.000008  -0.077294  -0.000001   0.001385
    16  H    0.000866   0.000261  -0.000008  -0.078020  -0.000001   0.001273
    17  H    0.003343  -0.000050   0.000002  -0.051666  -0.000001  -0.000640
               7          8          9         10         11         12
     1  C    0.001095   0.402975  -0.046430   0.002833  -0.000079   0.002870
     2  C    0.008132  -0.045242   0.405213  -0.047187   0.002779  -0.000036
     3  C   -0.096877   0.003050  -0.048261   0.403026  -0.048977  -0.000094
     4  C   -0.107908  -0.055591   0.002781  -0.000017  -0.000022  -0.052195
     5  C    0.334266  -0.000107   0.002797  -0.046771   0.398456   0.003157
     6  C    0.500508   0.002532  -0.000034  -0.000065   0.002784   0.398183
     7  C    5.446343  -0.000020  -0.000020   0.002629  -0.044868  -0.046256
     8  H   -0.000020   0.552111  -0.004241  -0.000076   0.000001  -0.000084
     9  H   -0.000020  -0.004241   0.564087  -0.002044  -0.000074   0.000001
    10  H    0.002629  -0.000076  -0.002044   0.563513  -0.004151   0.000001
    11  H   -0.044868   0.000001  -0.000074  -0.004151   0.555534  -0.000077
    12  H   -0.046256  -0.000084   0.000001   0.000001  -0.000077   0.556298
    13  H    0.409397   0.000001   0.000000  -0.000077  -0.002520  -0.004261
    14  C    0.002527  -0.003031  -0.000093   0.000000   0.000000  -0.004730
    15  H    0.000019   0.000850   0.000001  -0.000000  -0.000000   0.000156
    16  H    0.000023   0.000795   0.000001  -0.000000  -0.000000   0.000156
    17  H    0.000311   0.000112   0.000001  -0.000000  -0.000000   0.002571
              13         14         15         16         17
     1  C   -0.000028  -0.090284   0.000736   0.000866   0.003343
     2  C   -0.000016   0.001577   0.000272   0.000261  -0.000050
     3  C    0.002968  -0.000002  -0.000008  -0.000008   0.000002
     4  C    0.003030   0.331791  -0.077294  -0.078020  -0.051666
     5  C   -0.049226   0.000002  -0.000001  -0.000001  -0.000001
     6  C   -0.046452  -0.071064   0.001385   0.001273  -0.000640
     7  C    0.409397   0.002527   0.000019   0.000023   0.000311
     8  H    0.000001  -0.003031   0.000850   0.000795   0.000112
     9  H    0.000000  -0.000093   0.000001   0.000001   0.000001
    10  H   -0.000077   0.000000  -0.000000  -0.000000  -0.000000
    11  H   -0.002520   0.000000  -0.000000  -0.000000  -0.000000
    12  H   -0.004261  -0.004730   0.000156   0.000156   0.002571
    13  H    0.581793  -0.000087   0.000001   0.000001  -0.000005
    14  C   -0.000087   5.233569   0.367804   0.367308   0.383887
    15  H    0.000001   0.367804   0.669252  -0.057648  -0.027672
    16  H    0.000001   0.367308  -0.057648   0.671539  -0.028365
    17  H   -0.000005   0.383887  -0.027672  -0.028365   0.579760
 Mulliken charges:
               1
     1  C   -0.128338
     2  C   -0.306743
     3  C   -0.281959
     4  C   -0.270586
     5  C   -0.170269
     6  C   -0.087710
     7  C   -0.409302
     8  H    0.145964
     9  H    0.126316
    10  H    0.128386
    11  H    0.141215
    12  H    0.144340
    13  H    0.105480
    14  C   -0.519174
    15  H    0.122148
    16  H    0.121819
    17  H    0.138414
 Sum of Mulliken charges =  -1.00000
 Mulliken charges with hydrogens summed into heavy atoms:
               1
     1  C    0.017626
     2  C   -0.180428
     3  C   -0.153572
     4  C   -0.270586
     5  C   -0.029055
     6  C    0.056630
     7  C   -0.303822
    14  C   -0.136793
 Electronic spatial extent (au):  <R**2>=            985.3879
 Charge=             -1.0000 electrons
 Dipole moment (field-independent basis, Debye):
    X=             -0.6939    Y=             -0.3288    Z=             -0.0017  Tot=              0.7678
 Quadrupole moment (field-independent basis, Debye-Ang):
   XX=            -63.0145   YY=            -57.6804   ZZ=            -58.9523
   XY=             -0.6751   XZ=              0.0154   YZ=              0.0000
 Traceless Quadrupole moment (field-independent basis, Debye-Ang):
   XX=             -3.1321   YY=              2.2020   ZZ=              0.9301
   XY=             -0.6751   XZ=              0.0154   YZ=              0.0000
 Octapole moment (field-independent basis, Debye-Ang**2):
  XXX=             13.2338  YYY=             -2.4827  ZZZ=              0.0060  XYY=             -5.7899
  XXY=              2.5252  XXZ=             -0.0618  XZZ=             -2.9179  YZZ=             -0.6342
  YYZ=             -0.0106  XYZ=              0.0018
 Hexadecapole moment (field-independent basis, Debye-Ang**3):
 XXXX=           -966.7727 YYYY=           -494.8028 ZZZZ=            -72.1261 XXXY=             -1.9495
 XXXZ=              0.2359 YYYX=             -6.7525 YYYZ=             -0.0046 ZZZX=             -0.0026
 ZZZY=              0.0032 XXYY=           -225.9919 XXZZ=           -174.5845 YYZZ=           -104.2017
 XXYZ=             -0.0036 YYXZ=              0.0520 ZZXY=              0.2828
 N-N= 3.313069904919D+02 E-N=-1.386378124797D+03  KE= 3.058571080209D+02
 Orbital energies and kinetic energies (alpha):
                                 1                 2
   1         O               -10.997697         15.878539
   2         O               -10.997423         15.877900
   3         O               -10.993418         15.877075
   4         O               -10.991153         15.876304
   5         O               -10.966274         15.874279
   6         O               -10.959730         15.874014
   7         O               -10.922798         15.872191
   8         O               -10.920360         15.873485
   9         O                -0.926113          1.450779
  10         O                -0.860870          1.473808
  11         O                -0.833278          1.539596
  12         O                -0.766739          1.458970
  13         O                -0.670938          1.399840
  14         O                -0.651147          1.455134
  15         O                -0.519296          1.298868
  16         O                -0.507574          1.243700
  17         O                -0.486087          1.034912
  18         O                -0.405801          1.067278
  19         O                -0.396069          1.140467
  20         O                -0.390295          0.869169
  21         O                -0.373697          1.067523
  22         O                -0.336734          1.366769
  23         O                -0.320317          1.283370
  24         O                -0.289688          0.893450
  25         O                -0.288816          1.368126
  26         O                -0.265885          1.310944
  27         O                -0.187215          0.991587
  28         O                -0.177477          1.021807
  29         O                 0.026296          1.188672
  30         V                 0.285017          1.126706
  31         V                 0.406256          0.888621
  32         V                 0.442245          1.002869
  33         V                 0.454782          0.940413
  34         V                 0.463404          1.082609
  35         V                 0.481972          1.015307
  36         V                 0.509425          1.031766
  37         V                 0.512745          1.407035
  38         V                 0.544664          1.143466
  39         V                 0.552799          1.211651
  40         V                 0.564823          1.291101
  41         V                 0.568888          1.208581
  42         V                 0.633572          1.770894
  43         V                 0.683567          1.689439
  44         V                 0.704424          1.707023
  45         V                 0.796206          1.573040
  46         V                 0.815888          1.652065
  47         V                 0.855838          2.068958
  48         V                 0.892220          2.271678
  49         V                 1.037700          2.027874
  50         V                 1.046779          2.034600
  51         V                 1.136193          2.405515
  52         V                 1.139007          2.725305
  53         V                 1.160420          2.538665
  54         V                 1.173588          2.327654
  55         V                 1.183734          2.811317
  56         V                 1.237228          2.642976
  57         V                 1.252854          2.719498
  58         V                 1.262088          2.586895
  59         V                 1.265161          2.782699
  60         V                 1.301574          2.820258
  61         V                 1.314224          2.676365
  62         V                 1.322960          2.835418
  63         V                 1.342668          2.753098
  64         V                 1.366033          2.794295
  65         V                 1.381905          2.973982
  66         V                 1.404924          2.946560
  67         V                 1.412054          2.844574
  68         V                 1.477486          3.330680
  69         V                 1.495221          3.215720
  70         V                 1.501462          2.886929
  71         V                 1.519674          3.171780
  72         V                 1.534267          2.745849
  73         V                 1.561583          3.061028
  74         V                 1.621857          3.191259
  75         V                 1.644659          3.287972
  76         V                 1.686397          3.123836
  77         V                 1.692375          2.801274
  78         V                 1.765183          3.056506
  79         V                 1.771938          3.084271
  80         V                 1.900168          3.198196
  81         V                 1.924449          3.198929
  82         V                 1.963726          2.788326
  83         V                 1.970624          2.816264
  84         V                 1.997326          2.931528
  85         V                 2.109887          3.247505
  86         V                 2.237739          3.366747
  87         V                 2.289409          3.488436
  88         V                 2.398758          3.297412
  89         V                 2.661901          3.502186
  90         V                 2.689024          3.515136
 Total kinetic energy from orbitals= 3.058571080209D+02
 1\1\GINC-IISERK51\SP\RHF\3-21G*\C8H9(1-)\GAUSSIAN\12-Jun-2025\0\\# hf/
 3-21g* pop=full geom=connectivity\\Optimisation\\-1,1\C,0,0.525523,-1.
 244559,-0.000004\C,0,-0.783743,-1.572891,-0.000055\C,0,-1.925408,-0.68
 2056,0.000091\C,0,1.167572,0.021761,0.0004\C,0,-1.929529,0.658735,-0.0
 00061\C,0,0.510922,1.25553,0.00011\C,0,-0.816774,1.567038,-0.000104\H,
 0,1.235259,-2.101333,-0.000207\H,0,-1.05163,-2.642636,-0.000326\H,0,-2
 .898253,-1.207269,0.00019\H,0,-2.91536,1.165444,-0.000138\H,0,1.191715
 ,2.136971,0.000084\H,0,-1.094618,2.632274,-0.000384\C,0,2.644254,0.003
 383,-0.00008\H,0,3.05034,-0.543067,0.892517\H,0,3.050396,-0.517869,-0.
 907718\H,0,3.075245,1.035838,0.014201\\Version=EM64L-G16RevB.01\State=
 1-A\HF=-306.3301101\RMSD=2.785e-09\Dipole=0.272986,-0.1293659,0.000655
 \Quadrupole=-2.3286443,1.6371366,0.6915077,0.5019264,0.0114641,-0.0000
 072\PG=C01 [X(C8H9)]\\@


 GARBAGE IN, GARBAGE OUT
 Job cpu time:       0 days  0 hours  0 minutes  1.4 seconds.
 Elapsed time:       0 days  0 hours  0 minutes  1.3 seconds.
 File lengths (MBytes):  RWF=      6 Int=      0 D2E=      0 Chk=      2 Scr=      1
 Normal termination of Gaussian 16 at Thu Jun 12 22:48:00 2025.
