 Entering Gaussian System, Link 0=g16
 Input=/home/gaussian/Documents/Summer_Internship/Acid_Base_adduct/Acid/AlCl3/ideal_pyramid_MX3/AlCl3_pyramid_sp.com
 Output=/home/gaussian/Documents/Summer_Internship/Acid_Base_adduct/Acid/AlCl3/ideal_pyramid_MX3/AlCl3_pyramid_sp.log
 Initial command:
 /usr/local/g16/l1.exe "/home/gaussian/tmp/Gau-31421.inp" -scrdir="/home/gaussian/tmp/"
 Entering Link 1 = /usr/local/g16/l1.exe PID=     31424.
  
 Copyright (c) 1988-2017, Gaussian, Inc.  All Rights Reserved.
  
 This is part of the Gaussian(R) 16 program.  It is based on
 the Gaussian(R) 09 system (copyright 2009, Gaussian, Inc.),
 the Gaussian(R) 03 system (copyright 2003, Gaussian, Inc.),
 the Gaussian(R) 98 system (copyright 1998, Gaussian, Inc.),
 the Gaussian(R) 94 system (copyright 1995, Gaussian, Inc.),
 the Gaussian 92(TM) system (copyright 1992, Gaussian, Inc.),
 the Gaussian 90(TM) system (copyright 1990, Gaussian, Inc.),
 the Gaussian 88(TM) system (copyright 1988, Gaussian, Inc.),
 the Gaussian 86(TM) system (copyright 1986, Carnegie Mellon
 University), and the Gaussian 82(TM) system (copyright 1983,
 Carnegie Mellon University). Gaussian is a federally registered
 trademark of Gaussian, Inc.
  
 This software contains proprietary and confidential information,
 including trade secrets, belonging to Gaussian, Inc.
  
 This software is provided under written license and may be
 used, copied, transmitted, or stored only in accord with that
 written license.
  
 The following legend is applicable only to US Government
 contracts under FAR:
  
                    RESTRICTED RIGHTS LEGEND
  
 Use, reproduction and disclosure by the US Government is
 subject to restrictions as set forth in subparagraphs (a)
 and (c) of the Commercial Computer Software - Restricted
 Rights clause in FAR 52.227-19.
  
 Gaussian, Inc.
 340 Quinnipiac St., Bldg. 40, Wallingford CT 06492
  
  
 ---------------------------------------------------------------
 Warning -- This program may not be used in any manner that
 competes with the business of Gaussian, Inc. or will provide
 assistance to any competitor of Gaussian, Inc.  The licensee
 of this program is prohibited from giving any competitor of
 Gaussian, Inc. access to this program.  By using this program,
 the user acknowledges that Gaussian, Inc. is engaged in the
 business of creating and licensing software in the field of
 computational chemistry and represents and warrants to the
 licensee that it is not a competitor of Gaussian, Inc. and that
 it will not use this program in any manner prohibited above.
 ---------------------------------------------------------------
  

 Cite this work as:
 Gaussian 16, Revision B.01,
 M. J. Frisch, G. W. Trucks, H. B. Schlegel, G. E. Scuseria, 
 M. A. Robb, J. R. Cheeseman, G. Scalmani, V. Barone, 
 G. A. Petersson, H. Nakatsuji, X. Li, M. Caricato, A. V. Marenich, 
 J. Bloino, B. G. Janesko, R. Gomperts, B. Mennucci, H. P. Hratchian, 
 J. V. Ortiz, A. F. Izmaylov, J. L. Sonnenberg, D. Williams-Young, 
 F. Ding, F. Lipparini, F. Egidi, J. Goings, B. Peng, A. Petrone, 
 T. Henderson, D. Ranasinghe, V. G. Zakrzewski, J. Gao, N. Rega, 
 G. Zheng, W. Liang, M. Hada, M. Ehara, K. Toyota, R. Fukuda, 
 J. Hasegawa, M. Ishida, T. Nakajima, Y. Honda, O. Kitao, H. Nakai, 
 T. Vreven, K. Throssell, J. A. Montgomery, Jr., J. E. Peralta, 
 F. Ogliaro, M. J. Bearpark, J. J. Heyd, E. N. Brothers, K. N. Kudin, 
 V. N. Staroverov, T. A. Keith, R. Kobayashi, J. Normand, 
 K. Raghavachari, A. P. Rendell, J. C. Burant, S. S. Iyengar, 
 J. Tomasi, M. Cossi, J. M. Millam, M. Klene, C. Adamo, R. Cammi, 
 J. W. Ochterski, R. L. Martin, K. Morokuma, O. Farkas, 
 J. B. Foresman, and D. J. Fox, Gaussian, Inc., Wallingford CT, 2016.
 
 ******************************************
 Gaussian 16:  EM64L-G16RevB.01 20-Dec-2017
                13-Jun-2025 
 ******************************************
 %chk=AlCl3_pyramid_sp.chk
 -------------------------------------
 # hf/3-21g pop=full geom=connectivity
 -------------------------------------
 1/38=1,57=2,172=1/1;
 2/12=2,17=6,18=5,40=1/2;
 3/5=5,11=9,25=1,30=1/1,2,3;
 4//1;
 5/5=2,38=5/2;
 6/7=3,28=1/1;
 99/5=1,9=1/99;
 -------------------
 Title Card Required
 -------------------
 Symbolic Z-matrix:
 Charge =  0 Multiplicity = 1
 Al                    0.        0.        0. 
 Cl                   -1.29085  -1.29085   1.29085 
 Cl                    1.29085  -1.29085  -1.29085 
 Cl                   -1.29085   1.29085  -1.29085 
 
                          Input orientation:                          
 ---------------------------------------------------------------------
 Center     Atomic      Atomic             Coordinates (Angstroms)
 Number     Number       Type             X           Y           Z
 ---------------------------------------------------------------------
      1         13           0        0.000000    0.000000    0.000000
      2         17           0       -1.290854   -1.290854    1.290854
      3         17           0        1.290854   -1.290854   -1.290854
      4         17           0       -1.290854    1.290854   -1.290854
 ---------------------------------------------------------------------
                    Distance matrix (angstroms):
                    1          2          3          4
     1  Al   0.000000
     2  Cl   2.235825   0.000000
     3  Cl   2.235825   3.651086   0.000000
     4  Cl   2.235825   3.651086   3.651086   0.000000
 Stoichiometry    AlCl3
 Framework group  C3V[C3(Al),3SGV(Cl)]
 Deg. of freedom     2
 Full point group                 C3V     NOp   6
 Largest Abelian subgroup         CS      NOp   2
 Largest concise Abelian subgroup CS      NOp   2
                         Standard orientation:                         
 ---------------------------------------------------------------------
 Center     Atomic      Atomic             Coordinates (Angstroms)
 Number     Number       Type             X           Y           Z
 ---------------------------------------------------------------------
      1         13           0        0.000000    0.000000    0.593891
      2         17           0       -0.000000    2.107956   -0.151384
      3         17           0       -1.825543   -1.053978   -0.151384
      4         17           0        1.825543   -1.053978   -0.151384
 ---------------------------------------------------------------------
 Rotational constants (GHZ):           2.0628091           2.0628091           1.0841555
 Standard basis: 3-21G (6D, 7F)
 There are    33 symmetry adapted cartesian basis functions of A'  symmetry.
 There are    19 symmetry adapted cartesian basis functions of A"  symmetry.
 There are    33 symmetry adapted basis functions of A'  symmetry.
 There are    19 symmetry adapted basis functions of A"  symmetry.
    52 basis functions,   108 primitive gaussians,    52 cartesian basis functions
    32 alpha electrons       32 beta electrons
       nuclear repulsion energy       282.5798034133 Hartrees.
 NAtoms=    4 NActive=    4 NUniq=    2 SFac= 4.00D+00 NAtFMM=   60 NAOKFM=F Big=F
 Integral buffers will be    131072 words long.
 Raffenetti 1 integral format.
 Two-electron integral symmetry is turned on.
 One-electron integrals computed using PRISM.
 NBasis=    52 RedAO= T EigKep=  3.10D-02  NBF=    33    19
 NBsUse=    52 1.00D-06 EigRej= -1.00D+00 NBFU=    33    19
 ExpMin= 6.39D-02 ExpMax= 1.38D+03 ExpMxC= 1.38D+03 IAcc=3 IRadAn=         5 AccDes= 0.00D+00
 Harris functional with IExCor=  205 and IRadAn=       5 diagonalized for initial guess.
 HarFok:  IExCor=  205 AccDes= 0.00D+00 IRadAn=         5 IDoV= 1 UseB2=F ITyADJ=14
 ICtDFT=  3500011 ScaDFX=  1.000000  1.000000  1.000000  1.000000
 FoFCou: FMM=F IPFlag=           0 FMFlag=      100000 FMFlg1=           0
         NFxFlg=           0 DoJE=T BraDBF=F KetDBF=T FulRan=T
         wScrn=  0.000000 ICntrl=       500 IOpCl=  0 I1Cent=   200000004 NGrid=           0
         NMat0=    1 NMatS0=      1 NMatT0=    0 NMatD0=    1 NMtDS0=    0 NMtDT0=    0
 Petite list used in FoFCou.
 Initial guess orbital symmetries:
       Occupied  (A1) (E) (E) (A1) (A1) (E) (E) (E) (E) (A1) (E)
                 (E) (A2) (A1) (E) (E) (A1) (E) (E) (A1) (A1) (E)
                 (E) (A1) (E) (E) (A1) (E) (E) (E) (E) (A2)
       Virtual   (A1) (A1) (E) (E) (A1) (A1) (E) (E) (E) (E) (A1)
                 (E) (E) (A1) (A2) (E) (E) (E) (E) (A1)
 The electronic state of the initial guess is 1-A1.
 Keep R1 ints in memory in symmetry-blocked form, NReq=1764050.
 Requested convergence on RMS density matrix=1.00D-08 within 128 cycles.
 Requested convergence on MAX density matrix=1.00D-06.
 Requested convergence on             energy=1.00D-06.
 No special actions if energy rises.
 SCF Done:  E(RHF) =  -1612.66242771     A.U. after   10 cycles
            NFock= 10  Conv=0.65D-08     -V/T= 2.0011

 **********************************************************************

            Population analysis using the SCF Density.

 **********************************************************************

 Orbital symmetries:
       Occupied  (A1) (E) (E) (A1) (A1) (E) (E) (E) (E) (A1) (A1)
                 (E) (E) (A2) (E) (E) (A1) (A1) (E) (E) (A1) (E)
                 (E) (A1) (E) (E) (A1) (E) (E) (E) (E) (A2)
       Virtual   (A1) (E) (E) (A1) (A1) (A1) (E) (E) (E) (E) (A1)
                 (E) (E) (A1) (A2) (E) (E) (E) (E) (A1)
 The electronic state is 1-A1.
 Alpha  occ. eigenvalues -- -104.12733-104.12706-104.12706 -58.25519 -10.51857
 Alpha  occ. eigenvalues --  -10.51767 -10.51767  -7.98085  -7.98085  -7.98071
 Alpha  occ. eigenvalues --   -7.97785  -7.97782  -7.97782  -7.97763  -7.97747
 Alpha  occ. eigenvalues --   -7.97747  -5.05077  -3.35492  -3.35485  -3.35485
 Alpha  occ. eigenvalues --   -1.11479  -1.09485  -1.09485  -0.61496  -0.53044
 Alpha  occ. eigenvalues --   -0.53044  -0.50759  -0.48359  -0.48359  -0.47636
 Alpha  occ. eigenvalues --   -0.47636  -0.46986
 Alpha virt. eigenvalues --   -0.08405   0.10216   0.10216   0.11994   0.22974
 Alpha virt. eigenvalues --    0.30149   0.31562   0.31562   0.73432   0.73432
 Alpha virt. eigenvalues --    0.76091   0.76630   0.76630   0.83465   0.86461
 Alpha virt. eigenvalues --    0.89740   0.89740   0.93073   0.93073   1.07837
     Molecular Orbital Coefficients:
                           1         2         3         4         5
                        (A1)--O   (E)--O    (E)--O    (A1)--O   (A1)--O
     Eigenvalues --  -104.12733-104.12706-104.12706 -58.25519 -10.51857
   1 1   Al 1S         -0.00001   0.00000  -0.00000   0.98853   0.00010
   2        2S          0.00034   0.00000   0.00000   0.04427  -0.00187
   3        2PX         0.00000   0.00004   0.00000   0.00000   0.00000
   4        2PY         0.00000   0.00000  -0.00004   0.00000  -0.00000
   5        2PZ        -0.00003   0.00000  -0.00000  -0.00010   0.00019
   6        3S          0.00068   0.00000   0.00000  -0.01123  -0.00388
   7        3PX         0.00000   0.00063   0.00000   0.00000   0.00000
   8        3PY         0.00000   0.00000  -0.00063  -0.00000  -0.00000
   9        3PZ         0.00063   0.00000   0.00000   0.00100  -0.00357
  10        4S         -0.00838   0.00000  -0.00000  -0.00079   0.04773
  11        4PX         0.00000   0.00298   0.00000   0.00000   0.00000
  12        4PY         0.00000   0.00000  -0.00298   0.00000  -0.00000
  13        4PZ         0.00313   0.00000   0.00000   0.00179  -0.01764
  14 2   Cl 1S          0.56919   0.00000   0.80497  -0.00002  -0.17657
  15        2S          0.03073   0.00000   0.04336   0.00008   0.56717
  16        2PX         0.00000  -0.00003   0.00000   0.00000   0.00000
  17        2PY        -0.00015   0.00000  -0.00016  -0.00000  -0.00438
  18        2PZ         0.00001   0.00000   0.00008  -0.00004   0.00242
  19        3S         -0.01207   0.00000  -0.01554  -0.00174   0.08777
  20        3PX         0.00000   0.00020   0.00000   0.00000   0.00000
  21        3PY         0.00065   0.00000   0.00055   0.00028  -0.00449
  22        3PZ         0.00006   0.00000  -0.00030   0.00011   0.00015
  23        4S          0.00948   0.00000   0.00978   0.00358  -0.05471
  24        4PX         0.00000  -0.00074   0.00000   0.00000   0.00000
  25        4PY        -0.00240   0.00000  -0.00145  -0.00248   0.01377
  26        4PZ        -0.00007   0.00000   0.00083   0.00024   0.00015
  27 3   Cl 1S          0.56919   0.69713  -0.40249  -0.00002  -0.17657
  28        2S          0.03073   0.03755  -0.02168   0.00008   0.56717
  29        2PX         0.00013   0.00011  -0.00008   0.00000   0.00380
  30        2PY         0.00007   0.00008  -0.00001   0.00000   0.00219
  31        2PZ         0.00001   0.00007  -0.00004  -0.00004   0.00242
  32        3S         -0.01207  -0.01345   0.00777  -0.00174   0.08777
  33        3PX        -0.00056  -0.00036   0.00032  -0.00024   0.00389
  34        3PY        -0.00033  -0.00032  -0.00001  -0.00014   0.00224
  35        3PZ         0.00006  -0.00026   0.00015   0.00011   0.00015
  36        4S          0.00948   0.00847  -0.00489   0.00358  -0.05471
  37        4PX         0.00208   0.00090  -0.00095   0.00215  -0.01192
  38        4PY         0.00120   0.00095   0.00019   0.00124  -0.00688
  39        4PZ        -0.00007   0.00072  -0.00042   0.00024   0.00015
  40 4   Cl 1S          0.56919  -0.69713  -0.40249  -0.00002  -0.17657
  41        2S          0.03073  -0.03755  -0.02168   0.00008   0.56717
  42        2PX        -0.00013   0.00011   0.00008  -0.00000  -0.00380
  43        2PY         0.00007  -0.00008  -0.00001   0.00000   0.00219
  44        2PZ         0.00001  -0.00007  -0.00004  -0.00004   0.00242
  45        3S         -0.01207   0.01345   0.00777  -0.00174   0.08777
  46        3PX         0.00056  -0.00036  -0.00032   0.00024  -0.00389
  47        3PY        -0.00033   0.00032  -0.00001  -0.00014   0.00224
  48        3PZ         0.00006   0.00026   0.00015   0.00011   0.00015
  49        4S          0.00948  -0.00847  -0.00489   0.00358  -0.05471
  50        4PX        -0.00208   0.00090   0.00095  -0.00215   0.01192
  51        4PY         0.00120  -0.00095   0.00019   0.00124  -0.00688
  52        4PZ        -0.00007  -0.00072  -0.00042   0.00024   0.00015
                           6         7         8         9        10
                        (E)--O    (E)--O    (E)--O    (E)--O    (A1)--O
     Eigenvalues --   -10.51767 -10.51767  -7.98085  -7.98085  -7.98071
   1 1   Al 1S          0.00000   0.00000   0.00000   0.00000   0.00004
   2        2S          0.00000  -0.00000  -0.00000   0.00000  -0.00069
   3        2PX        -0.00016   0.00000   0.00000  -0.00036   0.00000
   4        2PY         0.00000   0.00016  -0.00036   0.00000  -0.00000
   5        2PZ         0.00000   0.00000   0.00000   0.00000   0.00012
   6        3S          0.00000  -0.00000  -0.00000   0.00000  -0.00397
   7        3PX        -0.00366   0.00000   0.00000  -0.00402   0.00000
   8        3PY         0.00000   0.00366  -0.00402   0.00000   0.00000
   9        3PZ         0.00000  -0.00000   0.00000   0.00000   0.00225
  10        4S          0.00000   0.00000  -0.00000   0.00000  -0.01535
  11        4PX        -0.01718   0.00000   0.00000  -0.00421   0.00000
  12        4PY         0.00000   0.01718  -0.00421   0.00000   0.00000
  13        4PZ         0.00000  -0.00000   0.00000   0.00000   0.00379
  14 2   Cl 1S          0.00000  -0.24981  -0.00267   0.00000  -0.00189
  15        2S          0.00000   0.80267   0.00923   0.00000   0.00654
  16        2PX         0.00014   0.00000   0.00000   0.01007   0.00000
  17        2PY         0.00000  -0.00643   0.72476   0.00000   0.51199
  18        2PZ         0.00000   0.00315  -0.32598   0.00000  -0.23194
  19        3S          0.00000   0.11583  -0.00481   0.00000  -0.00436
  20        3PX        -0.00110   0.00000   0.00000   0.00098   0.00000
  21        3PY         0.00000  -0.00437   0.06149   0.00000   0.04314
  22        3PZ         0.00000   0.00228  -0.02751   0.00000  -0.01937
  23        4S          0.00000  -0.05735   0.00819   0.00000   0.00922
  24        4PX         0.00420   0.00000   0.00000   0.00007   0.00000
  25        4PY         0.00000   0.00866  -0.02253   0.00000  -0.01695
  26        4PZ         0.00000  -0.00492   0.00980   0.00000   0.00651
  27 3   Cl 1S         -0.21634   0.12490   0.00133   0.00231  -0.00189
  28        2S          0.69514  -0.40134  -0.00461  -0.00799   0.00654
  29        2PX         0.00485  -0.00272   0.30947   0.54609  -0.44339
  30        2PY         0.00272  -0.00171   0.18874   0.30947  -0.25599
  31        2PZ         0.00273  -0.00157   0.16299   0.28231  -0.23194
  32        3S          0.10032  -0.05792   0.00241   0.00417  -0.00436
  33        3PX         0.00300  -0.00237   0.02620   0.04636  -0.03736
  34        3PY         0.00237  -0.00027   0.01611   0.02620  -0.02157
  35        3PZ         0.00198  -0.00114   0.01376   0.02383  -0.01937
  36        4S         -0.04967   0.02868  -0.00409  -0.00709   0.00922
  37        4PX        -0.00545   0.00557  -0.00978  -0.01688   0.01468
  38        4PY        -0.00557  -0.00098  -0.00558  -0.00978   0.00848
  39        4PZ        -0.00426   0.00246  -0.00490  -0.00849   0.00651
  40 4   Cl 1S          0.21634   0.12490   0.00133  -0.00231  -0.00189
  41        2S         -0.69514  -0.40134  -0.00461   0.00799   0.00654
  42        2PX         0.00485   0.00272  -0.30947   0.54609   0.44339
  43        2PY        -0.00272  -0.00171   0.18874  -0.30947  -0.25599
  44        2PZ        -0.00273  -0.00157   0.16299  -0.28231  -0.23194
  45        3S         -0.10032  -0.05792   0.00241  -0.00417  -0.00436
  46        3PX         0.00300   0.00237  -0.02620   0.04636   0.03736
  47        3PY        -0.00237  -0.00027   0.01611  -0.02620  -0.02157
  48        3PZ        -0.00198  -0.00114   0.01376  -0.02383  -0.01937
  49        4S          0.04967   0.02868  -0.00409   0.00709   0.00922
  50        4PX        -0.00545  -0.00557   0.00978  -0.01688  -0.01468
  51        4PY         0.00557  -0.00098  -0.00558   0.00978   0.00848
  52        4PZ         0.00426   0.00246  -0.00490   0.00849   0.00651
                          11        12        13        14        15
                        (A1)--O   (E)--O    (E)--O    (A2)--O   (E)--O
     Eigenvalues --    -7.97785  -7.97782  -7.97782  -7.97763  -7.97747
   1 1   Al 1S         -0.00002   0.00000   0.00000   0.00000   0.00000
   2        2S          0.00045  -0.00000   0.00000   0.00000   0.00000
   3        2PX         0.00000   0.00000  -0.00001  -0.00000   0.00006
   4        2PY         0.00000   0.00001   0.00000   0.00000   0.00000
   5        2PZ         0.00006  -0.00000   0.00000   0.00000   0.00000
   6        3S          0.00149  -0.00000   0.00000   0.00000   0.00000
   7        3PX         0.00000   0.00000   0.00052  -0.00000  -0.00004
   8        3PY        -0.00000  -0.00052   0.00000   0.00000   0.00000
   9        3PZ         0.00007  -0.00000   0.00000   0.00000   0.00000
  10        4S         -0.01023   0.00000   0.00000   0.00000   0.00000
  11        4PX         0.00000   0.00000  -0.00824   0.00000   0.00669
  12        4PY         0.00000   0.00824   0.00000   0.00000   0.00000
  13        4PZ         0.01103  -0.00000   0.00000   0.00000   0.00000
  14 2   Cl 1S         -0.00001   0.00012   0.00000   0.00000   0.00000
  15        2S          0.00011  -0.00041   0.00000   0.00000   0.00000
  16        2PX         0.00000   0.00000  -0.37422   0.56246   0.70193
  17        2PY         0.23206   0.28352   0.00000   0.00000   0.00000
  18        2PZ         0.51232   0.64203   0.00000   0.00000   0.00000
  19        3S         -0.00272   0.00145   0.00000   0.00000   0.00000
  20        3PX         0.00000   0.00000  -0.03120   0.04597   0.05668
  21        3PY         0.01927   0.02330   0.00000   0.00000   0.00000
  22        3PZ         0.04200   0.05244   0.00000   0.00000   0.00000
  23        4S          0.00682  -0.00486   0.00000   0.00000   0.00000
  24        4PX         0.00000   0.00000   0.01165  -0.01443  -0.01751
  25        4PY        -0.00847  -0.00677   0.00000   0.00000   0.00000
  26        4PZ        -0.01383  -0.01684   0.00000   0.00000   0.00000
  27 3   Cl 1S         -0.00001  -0.00006   0.00010  -0.00000  -0.00002
  28        2S          0.00011   0.00020  -0.00036   0.00000   0.00009
  29        2PX        -0.20097  -0.03927  -0.30619  -0.28123   0.05415
  30        2PY        -0.11603   0.35154   0.03927   0.48711  -0.37400
  31        2PZ         0.51232  -0.32102   0.55602  -0.00000   0.29264
  32        3S         -0.00272  -0.00072   0.00125  -0.00000  -0.00127
  33        3PX        -0.01669  -0.00342  -0.02528  -0.02298   0.00458
  34        3PY        -0.00964   0.02923   0.00342   0.03981  -0.03008
  35        3PZ         0.04200  -0.02622   0.04541  -0.00000   0.02319
  36        4S          0.00682   0.00243  -0.00421   0.00000   0.00376
  37        4PX         0.00734   0.00211   0.00799   0.00721  -0.00131
  38        4PY         0.00424  -0.01043  -0.00211  -0.01249   0.00935
  39        4PZ        -0.01383   0.00842  -0.01458   0.00000  -0.00566
  40 4   Cl 1S         -0.00001  -0.00006  -0.00010   0.00000   0.00002
  41        2S          0.00011   0.00020   0.00036  -0.00000  -0.00009
  42        2PX         0.20097   0.03927  -0.30619  -0.28123   0.05415
  43        2PY        -0.11603   0.35154  -0.03927  -0.48711   0.37400
  44        2PZ         0.51232  -0.32102  -0.55602   0.00000  -0.29264
  45        3S         -0.00272  -0.00072  -0.00125   0.00000   0.00127
  46        3PX         0.01669   0.00342  -0.02528  -0.02298   0.00458
  47        3PY        -0.00964   0.02923  -0.00342  -0.03981   0.03008
  48        3PZ         0.04200  -0.02622  -0.04541   0.00000  -0.02319
  49        4S          0.00682   0.00243   0.00421  -0.00000  -0.00376
  50        4PX        -0.00734  -0.00211   0.00799   0.00721  -0.00131
  51        4PY         0.00424  -0.01043   0.00211   0.01249  -0.00935
  52        4PZ        -0.01383   0.00842   0.01458  -0.00000   0.00566
                          16        17        18        19        20
                        (E)--O    (A1)--O   (A1)--O   (E)--O    (E)--O
     Eigenvalues --    -7.97747  -5.05077  -3.35492  -3.35485  -3.35485
   1 1   Al 1S          0.00000  -0.28413   0.00199   0.00000  -0.00000
   2        2S         -0.00000   1.01086  -0.00692   0.00000   0.00000
   3        2PX         0.00000   0.00000   0.00000   0.97830   0.00000
   4        2PY         0.00006  -0.00000   0.00000   0.00000   0.97830
   5        2PZ        -0.00000   0.00780   0.97922   0.00000  -0.00000
   6        3S         -0.00000   0.09226  -0.00138   0.00000   0.00000
   7        3PX         0.00000   0.00000   0.00000   0.09102   0.00000
   8        3PY        -0.00004   0.00000   0.00000   0.00000   0.09102
   9        3PZ        -0.00000  -0.00329   0.08510   0.00000  -0.00000
  10        4S          0.00000  -0.02264  -0.00950   0.00000   0.00000
  11        4PX         0.00000   0.00000   0.00000  -0.02654   0.00000
  12        4PY         0.00669   0.00000  -0.00000   0.00000  -0.02654
  13        4PZ        -0.00000  -0.00334  -0.02646   0.00000   0.00000
  14 2   Cl 1S          0.00002   0.00003  -0.00004   0.00000   0.00006
  15        2S         -0.00010  -0.00004   0.00015   0.00000  -0.00006
  16        2PX         0.00000   0.00000   0.00000  -0.00003   0.00000
  17        2PY        -0.16178   0.00003  -0.00011   0.00000   0.00011
  18        2PZ        -0.33791   0.00006   0.00004   0.00000  -0.00006
  19        3S          0.00146   0.00356  -0.00164   0.00000   0.00045
  20        3PX         0.00000   0.00000   0.00000   0.00008   0.00000
  21        3PY        -0.01279  -0.00071  -0.00008   0.00000   0.00112
  22        3PZ        -0.02678  -0.00010  -0.00003   0.00000  -0.00036
  23        4S         -0.00434  -0.00694   0.00471   0.00000  -0.00344
  24        4PX         0.00000   0.00000   0.00000  -0.00089   0.00000
  25        4PY         0.00409   0.00879  -0.00517   0.00000   0.01055
  26        4PZ         0.00653  -0.00192   0.00137   0.00000  -0.00400
  27 3   Cl 1S         -0.00001   0.00003  -0.00004  -0.00005  -0.00003
  28        2S          0.00005  -0.00004   0.00015   0.00005   0.00003
  29        2PX        -0.37400  -0.00002   0.00009   0.00008   0.00006
  30        2PY         0.48600  -0.00001   0.00005   0.00006   0.00001
  31        2PZ         0.16896   0.00006   0.00004   0.00005   0.00003
  32        3S         -0.00073   0.00356  -0.00164  -0.00039  -0.00022
  33        3PX        -0.03008   0.00061   0.00007   0.00086   0.00045
  34        3PY         0.03932   0.00035   0.00004   0.00045   0.00034
  35        3PZ         0.01339  -0.00010  -0.00003   0.00031   0.00018
  36        4S          0.00217  -0.00694   0.00471   0.00298   0.00172
  37        4PX         0.00935  -0.00761   0.00448   0.00769   0.00495
  38        4PY        -0.01211  -0.00440   0.00259   0.00495   0.00197
  39        4PZ        -0.00327  -0.00192   0.00137   0.00347   0.00200
  40 4   Cl 1S         -0.00001   0.00003  -0.00004   0.00005  -0.00003
  41        2S          0.00005  -0.00004   0.00015  -0.00005   0.00003
  42        2PX         0.37400   0.00002  -0.00009   0.00008  -0.00006
  43        2PY         0.48600  -0.00001   0.00005  -0.00006   0.00001
  44        2PZ         0.16896   0.00006   0.00004  -0.00005   0.00003
  45        3S         -0.00073   0.00356  -0.00164   0.00039  -0.00022
  46        3PX         0.03008  -0.00061  -0.00007   0.00086  -0.00045
  47        3PY         0.03932   0.00035   0.00004  -0.00045   0.00034
  48        3PZ         0.01339  -0.00010  -0.00003  -0.00031   0.00018
  49        4S          0.00217  -0.00694   0.00471  -0.00298   0.00172
  50        4PX        -0.00935   0.00761  -0.00448   0.00769  -0.00495
  51        4PY        -0.01211  -0.00440   0.00259  -0.00495   0.00197
  52        4PZ        -0.00327  -0.00192   0.00137  -0.00347   0.00200
                          21        22        23        24        25
                        (A1)--O   (E)--O    (E)--O    (A1)--O   (E)--O
     Eigenvalues --    -1.11479  -1.09485  -1.09485  -0.61496  -0.53044
   1 1   Al 1S          0.01686   0.00000   0.00000   0.04280   0.00000
   2        2S         -0.07788   0.00000  -0.00000  -0.20309  -0.00000
   3        2PX         0.00000   0.04621   0.00000   0.00000   0.00000
   4        2PY        -0.00000   0.00000  -0.04621  -0.00000   0.11407
   5        2PZ         0.01931   0.00000   0.00000   0.02615  -0.00000
   6        3S          0.12950   0.00000   0.00000   0.39640   0.00000
   7        3PX         0.00000  -0.06763   0.00000   0.00000   0.00000
   8        3PY        -0.00000   0.00000   0.06763   0.00000  -0.25701
   9        3PZ        -0.02284   0.00000   0.00000  -0.05033   0.00000
  10        4S         -0.05123   0.00000  -0.00000   0.07369   0.00000
  11        4PX         0.00000   0.03661   0.00000   0.00000   0.00000
  12        4PY         0.00000   0.00000  -0.03661  -0.00000  -0.02162
  13        4PZ         0.02847   0.00000   0.00000   0.03448  -0.00000
  14 2   Cl 1S          0.04413   0.00000   0.06475  -0.01451   0.01063
  15        2S         -0.25952   0.00000  -0.38107   0.08733  -0.06445
  16        2PX         0.00000   0.00173   0.00000   0.00000   0.00000
  17        2PY         0.01962   0.00000   0.02140   0.11670  -0.15366
  18        2PZ        -0.00718   0.00000  -0.00946  -0.03076   0.06007
  19        3S          0.31414   0.00000   0.46671  -0.12782   0.09553
  20        3PX         0.00000  -0.00325   0.00000   0.00000   0.00000
  21        3PY        -0.03813   0.00000  -0.04100  -0.24759   0.32700
  22        3PZ         0.01414   0.00000   0.01752   0.06436  -0.12735
  23        4S          0.31109   0.00000   0.44533  -0.09783   0.08853
  24        4PX         0.00000  -0.00548   0.00000   0.00000   0.00000
  25        4PY        -0.04132   0.00000  -0.04489  -0.19107   0.25604
  26        4PZ         0.01230   0.00000   0.02304   0.04789  -0.09874
  27 3   Cl 1S          0.04413   0.05608  -0.03238  -0.01451  -0.00531
  28        2S         -0.25952  -0.33002   0.19054   0.08733   0.03222
  29        2PX        -0.01699  -0.01562   0.01002  -0.10106  -0.11999
  30        2PY        -0.00981  -0.01002   0.00405  -0.05835   0.05416
  31        2PZ        -0.00718  -0.00819   0.00473  -0.03076  -0.03004
  32        3S          0.31414   0.40419  -0.23336  -0.12782  -0.04777
  33        3PX         0.03302   0.02994  -0.01916   0.21442   0.25741
  34        3PY         0.01906   0.01916  -0.00781   0.12380  -0.11884
  35        3PZ         0.01414   0.01517  -0.00876   0.06436   0.06368
  36        4S          0.31109   0.38567  -0.22267  -0.09783  -0.04426
  37        4PX         0.03579   0.03230  -0.02181   0.16547   0.20598
  38        4PY         0.02066   0.02181  -0.00711   0.09553  -0.10072
  39        4PZ         0.01230   0.01995  -0.01152   0.04789   0.04937
  40 4   Cl 1S          0.04413  -0.05608  -0.03238  -0.01451  -0.00531
  41        2S         -0.25952   0.33002   0.19054   0.08733   0.03222
  42        2PX         0.01699  -0.01562  -0.01002   0.10106   0.11999
  43        2PY        -0.00981   0.01002   0.00405  -0.05835   0.05416
  44        2PZ        -0.00718   0.00819   0.00473  -0.03076  -0.03004
  45        3S          0.31414  -0.40419  -0.23336  -0.12782  -0.04777
  46        3PX        -0.03302   0.02994   0.01916  -0.21442  -0.25741
  47        3PY         0.01906  -0.01916  -0.00781   0.12380  -0.11884
  48        3PZ         0.01414  -0.01517  -0.00876   0.06436   0.06368
  49        4S          0.31109  -0.38567  -0.22267  -0.09783  -0.04426
  50        4PX        -0.03579   0.03230   0.02181  -0.16547  -0.20598
  51        4PY         0.02066  -0.02181  -0.00711   0.09553  -0.10072
  52        4PZ         0.01230  -0.01995  -0.01152   0.04789   0.04937
                          26        27        28        29        30
                        (E)--O    (A1)--O   (E)--O    (E)--O    (E)--O
     Eigenvalues --    -0.53044  -0.50759  -0.48359  -0.48359  -0.47636
   1 1   Al 1S          0.00000   0.00689   0.00000   0.00000   0.00000
   2        2S          0.00000  -0.03330  -0.00000   0.00000  -0.00000
   3        2PX        -0.11407   0.00000   0.00000   0.03815   0.00000
   4        2PY         0.00000  -0.00000  -0.03815   0.00000   0.02158
   5        2PZ         0.00000  -0.06071  -0.00000   0.00000   0.00000
   6        3S          0.00000   0.05993   0.00000   0.00000   0.00000
   7        3PX         0.25701   0.00000   0.00000  -0.08306   0.00000
   8        3PY         0.00000   0.00000   0.08306   0.00000  -0.04602
   9        3PZ         0.00000   0.13538   0.00000   0.00000  -0.00000
  10        4S          0.00000   0.02199  -0.00000   0.00000  -0.00000
  11        4PX         0.02162   0.00000   0.00000   0.02376   0.00000
  12        4PY         0.00000   0.00000  -0.02376   0.00000   0.10196
  13        4PZ         0.00000   0.08651   0.00000   0.00000   0.00000
  14 2   Cl 1S          0.00000  -0.00096  -0.00422   0.00000   0.00182
  15        2S          0.00000   0.00564   0.02549   0.00000  -0.01080
  16        2PX        -0.12344   0.00000   0.00000  -0.13995   0.00000
  17        2PY         0.00000  -0.04994   0.03396   0.00000  -0.14805
  18        2PZ         0.00000  -0.14216  -0.17082   0.00000  -0.12831
  19        3S          0.00000  -0.02012  -0.05204   0.00000   0.03731
  20        3PX         0.26746   0.00000   0.00000   0.30133   0.00000
  21        3PY         0.00000   0.11060  -0.06957   0.00000   0.31793
  22        3PZ         0.00000   0.30694   0.36520   0.00000   0.27999
  23        4S          0.00000   0.02593   0.00304   0.00000  -0.05728
  24        4PX         0.21964   0.00000   0.00000   0.27505   0.00000
  25        4PY         0.00000   0.07436  -0.06496   0.00000   0.29574
  26        4PZ         0.00000   0.26253   0.33791   0.00000   0.23374
  27 3   Cl 1S          0.00920  -0.00096   0.00211  -0.00365  -0.00091
  28        2S         -0.05581   0.00564  -0.01275   0.02208   0.00540
  29        2PX         0.08438   0.04325  -0.04589  -0.06046  -0.01184
  30        2PY         0.11999   0.02497   0.11345   0.04589  -0.12754
  31        2PZ         0.05202  -0.14216   0.08541  -0.14793   0.06416
  32        3S          0.08273  -0.02012   0.02602  -0.04507  -0.01865
  33        3PX        -0.17839  -0.09578   0.10036   0.12751   0.02331
  34        3PY        -0.25741  -0.05530  -0.24339  -0.10036   0.27757
  35        3PZ        -0.11029   0.30694  -0.18260   0.31627  -0.13999
  36        4S          0.07667   0.02593  -0.00152   0.00263   0.02864
  37        4PX        -0.13712  -0.06440   0.09097   0.11748   0.03641
  38        4PY        -0.20598  -0.03718  -0.22253  -0.09097   0.23268
  39        4PZ        -0.08551   0.26253  -0.16895   0.29264  -0.11687
  40 4   Cl 1S         -0.00920  -0.00096   0.00211   0.00365  -0.00091
  41        2S          0.05581   0.00564  -0.01275  -0.02208   0.00540
  42        2PX         0.08438  -0.04325   0.04589  -0.06046   0.01184
  43        2PY        -0.11999   0.02497   0.11345  -0.04589  -0.12754
  44        2PZ        -0.05202  -0.14216   0.08541   0.14793   0.06416
  45        3S         -0.08273  -0.02012   0.02602   0.04507  -0.01865
  46        3PX        -0.17839   0.09578  -0.10036   0.12751  -0.02331
  47        3PY         0.25741  -0.05530  -0.24339   0.10036   0.27757
  48        3PZ         0.11029   0.30694  -0.18260  -0.31627  -0.13999
  49        4S         -0.07667   0.02593  -0.00152  -0.00263   0.02864
  50        4PX        -0.13712   0.06440  -0.09097   0.11748  -0.03641
  51        4PY         0.20598  -0.03718  -0.22253   0.09097   0.23268
  52        4PZ         0.08551   0.26253  -0.16895  -0.29264  -0.11687
                          31        32        33        34        35
                        (E)--O    (A2)--O   (A1)--V   (E)--V    (E)--V
     Eigenvalues --    -0.47636  -0.46986  -0.08405   0.10216   0.10216
   1 1   Al 1S          0.00000   0.00000   0.03425   0.00000   0.00000
   2        2S          0.00000   0.00000  -0.18740   0.00000  -0.00000
   3        2PX         0.02158   0.00000   0.00000  -0.13119   0.00000
   4        2PY         0.00000   0.00000  -0.00000   0.00000  -0.13119
   5        2PZ         0.00000   0.00000  -0.13595   0.00000   0.00000
   6        3S          0.00000   0.00000   0.22042   0.00000   0.00000
   7        3PX        -0.04602  -0.00000   0.00000   0.32540   0.00000
   8        3PY         0.00000   0.00000   0.00000   0.00000   0.32540
   9        3PZ         0.00000   0.00000   0.31088   0.00000  -0.00000
  10        4S          0.00000   0.00000   0.77974   0.00000   0.00000
  11        4PX         0.10196   0.00000   0.00000   1.40142   0.00000
  12        4PY         0.00000   0.00000   0.00000   0.00000   1.40142
  13        4PZ         0.00000   0.00000   0.33501   0.00000  -0.00000
  14 2   Cl 1S          0.00000   0.00000  -0.00572   0.00000  -0.01408
  15        2S          0.00000   0.00000   0.03539   0.00000   0.08977
  16        2PX        -0.12070  -0.16467   0.00000   0.06336   0.00000
  17        2PY         0.00000   0.00000  -0.05237   0.00000  -0.04520
  18        2PZ         0.00000   0.00000   0.06837   0.00000   0.05157
  19        3S          0.00000   0.00000  -0.02869   0.00000  -0.01429
  20        3PX         0.26411   0.35821   0.00000  -0.13148   0.00000
  21        3PY         0.00000   0.00000   0.11169   0.00000   0.08627
  22        3PZ         0.00000   0.00000  -0.14418   0.00000  -0.11180
  23        4S          0.00000   0.00000  -0.15423   0.00000  -0.77756
  24        4PX         0.21165   0.30972   0.00000  -0.30923   0.00000
  25        4PY         0.00000   0.00000   0.15562   0.00000   0.35054
  26        4PZ         0.00000   0.00000  -0.21418   0.00000  -0.23377
  27 3   Cl 1S         -0.00158  -0.00000  -0.00572   0.01219   0.00704
  28        2S          0.00935   0.00000   0.03539  -0.07774  -0.04488
  29        2PX        -0.14121   0.08233   0.04535  -0.01806  -0.04701
  30        2PY        -0.01184  -0.14261   0.02618  -0.04701   0.03622
  31        2PZ         0.11112   0.00000   0.06837  -0.04466  -0.02578
  32        3S         -0.03231  -0.00000  -0.02869   0.01237   0.00714
  33        3PX         0.30448  -0.17911  -0.09672   0.03183   0.09429
  34        3PY         0.02331   0.31022  -0.05584   0.09429  -0.07705
  35        3PZ        -0.24248  -0.00000  -0.14418   0.09682   0.05590
  36        4S          0.04960   0.00000  -0.15423   0.67339   0.38878
  37        4PX         0.27472  -0.15486  -0.13477   0.18560   0.28569
  38        4PY         0.03641   0.26823  -0.07781   0.28569  -0.14429
  39        4PZ        -0.20243  -0.00000  -0.21418   0.20245   0.11688
  40 4   Cl 1S          0.00158   0.00000  -0.00572  -0.01219   0.00704
  41        2S         -0.00935  -0.00000   0.03539   0.07774  -0.04488
  42        2PX        -0.14121   0.08233  -0.04535  -0.01806   0.04701
  43        2PY         0.01184   0.14261   0.02618   0.04701   0.03622
  44        2PZ        -0.11112  -0.00000   0.06837   0.04466  -0.02578
  45        3S          0.03231   0.00000  -0.02869  -0.01237   0.00714
  46        3PX         0.30448  -0.17911   0.09672   0.03183  -0.09429
  47        3PY        -0.02331  -0.31022  -0.05584  -0.09429  -0.07705
  48        3PZ         0.24248   0.00000  -0.14418  -0.09682   0.05590
  49        4S         -0.04960  -0.00000  -0.15423  -0.67339   0.38878
  50        4PX         0.27472  -0.15486   0.13477   0.18560  -0.28569
  51        4PY        -0.03641  -0.26823  -0.07781  -0.28569  -0.14429
  52        4PZ         0.20243   0.00000  -0.21418  -0.20245   0.11688
                          36        37        38        39        40
                        (A1)--V   (A1)--V   (A1)--V   (E)--V    (E)--V
     Eigenvalues --     0.11994   0.22974   0.30149   0.31562   0.31562
   1 1   Al 1S         -0.04126  -0.04187   0.02571   0.00000  -0.00000
   2        2S          0.20352   0.03909  -0.04251   0.00000   0.00000
   3        2PX         0.00000   0.00000   0.00000  -0.32164   0.00000
   4        2PY        -0.00000   0.00000  -0.00000   0.00000  -0.32164
   5        2PZ        -0.09657   0.14975   0.26885   0.00000  -0.00000
   6        3S         -0.47581  -1.57933   0.86123   0.00000  -0.00000
   7        3PX         0.00000   0.00000   0.00000   1.49249   0.00000
   8        3PY         0.00000  -0.00000   0.00000   0.00000   1.49249
   9        3PZ         0.21107  -0.61601  -1.22837   0.00000   0.00000
  10        4S         -0.77920   2.15690  -0.92210   0.00000   0.00000
  11        4PX         0.00000   0.00000   0.00000  -1.26346   0.00000
  12        4PY         0.00000   0.00000  -0.00000   0.00000  -1.26346
  13        4PZ         0.97449   0.15757   1.27959   0.00000  -0.00000
  14 2   Cl 1S          0.01389  -0.00669   0.00052   0.00000  -0.00447
  15        2S         -0.08702   0.04299  -0.00384   0.00000   0.02788
  16        2PX         0.00000   0.00000   0.00000  -0.00077   0.00000
  17        2PY         0.08796   0.01229  -0.03764   0.00000  -0.07328
  18        2PZ         0.01460  -0.01948   0.02071   0.00000   0.02051
  19        3S          0.09542  -0.02833  -0.01471   0.00000  -0.06355
  20        3PX         0.00000   0.00000   0.00000  -0.00354   0.00000
  21        3PY        -0.18873  -0.03671   0.09038   0.00000   0.16343
  22        3PZ        -0.03125   0.04997  -0.04408   0.00000  -0.04189
  23        4S          0.39758  -0.39153   0.24815   0.00000   0.24552
  24        4PX         0.00000   0.00000   0.00000   0.09838   0.00000
  25        4PY        -0.39143   0.14787   0.02646   0.00000   0.30044
  26        4PZ        -0.06802  -0.03204  -0.12681   0.00000  -0.08517
  27 3   Cl 1S          0.01389  -0.00669   0.00052   0.00388   0.00224
  28        2S         -0.08702   0.04299  -0.00384  -0.02414  -0.01394
  29        2PX        -0.07617  -0.01065   0.03259  -0.05515  -0.03139
  30        2PY        -0.04398  -0.00615   0.01882  -0.03139  -0.01890
  31        2PZ         0.01460  -0.01948   0.02071  -0.01776  -0.01026
  32        3S          0.09542  -0.02833  -0.01471   0.05503   0.03177
  33        3PX         0.16345   0.03179  -0.07827   0.12169   0.07230
  34        3PY         0.09437   0.01835  -0.04519   0.07230   0.03820
  35        3PZ        -0.03125   0.04997  -0.04408   0.03628   0.02094
  36        4S          0.39758  -0.39153   0.24815  -0.21262  -0.12276
  37        4PX         0.33899  -0.12806  -0.02292   0.24993   0.08749
  38        4PY         0.19572  -0.07394  -0.01323   0.08749   0.14890
  39        4PZ        -0.06802  -0.03204  -0.12681   0.07376   0.04258
  40 4   Cl 1S          0.01389  -0.00669   0.00052  -0.00388   0.00224
  41        2S         -0.08702   0.04299  -0.00384   0.02414  -0.01394
  42        2PX         0.07617   0.01065  -0.03259  -0.05515   0.03139
  43        2PY        -0.04398  -0.00615   0.01882   0.03139  -0.01890
  44        2PZ         0.01460  -0.01948   0.02071   0.01776  -0.01026
  45        3S          0.09542  -0.02833  -0.01471  -0.05503   0.03177
  46        3PX        -0.16345  -0.03179   0.07827   0.12169  -0.07230
  47        3PY         0.09437   0.01835  -0.04519  -0.07230   0.03820
  48        3PZ        -0.03125   0.04997  -0.04408  -0.03628   0.02094
  49        4S          0.39758  -0.39153   0.24815   0.21262  -0.12276
  50        4PX        -0.33899   0.12806   0.02292   0.24993  -0.08749
  51        4PY         0.19572  -0.07394  -0.01323  -0.08749   0.14890
  52        4PZ        -0.06802  -0.03204  -0.12681  -0.07376   0.04258
                          41        42        43        44        45
                        (E)--V    (E)--V    (A1)--V   (E)--V    (E)--V
     Eigenvalues --     0.73432   0.73432   0.76091   0.76630   0.76630
   1 1   Al 1S         -0.00000   0.00000   0.00055  -0.00000   0.00000
   2        2S          0.00000   0.00000   0.04503  -0.00000   0.00000
   3        2PX         0.00000  -0.00716   0.00000   0.00000  -0.01012
   4        2PY         0.00716   0.00000   0.00000   0.01012   0.00000
   5        2PZ        -0.00000   0.00000  -0.00414   0.00000   0.00000
   6        3S          0.00000   0.00000   0.35736  -0.00000   0.00000
   7        3PX         0.00000  -0.02626   0.00000   0.00000   0.00993
   8        3PY         0.02626   0.00000  -0.00000  -0.00993   0.00000
   9        3PZ         0.00000   0.00000  -0.05731   0.00000   0.00000
  10        4S         -0.00000   0.00000  -0.34671   0.00000   0.00000
  11        4PX         0.00000   0.12901   0.00000   0.00000   0.33878
  12        4PY        -0.12901   0.00000  -0.00000  -0.33878   0.00000
  13        4PZ         0.00000   0.00000  -0.06465   0.00000   0.00000
  14 2   Cl 1S         -0.03775   0.00000  -0.02251  -0.02696   0.00000
  15        2S          0.23066   0.00000   0.13771   0.16411   0.00000
  16        2PX         0.00000   0.16637   0.00000   0.00000  -0.12091
  17        2PY         0.13568   0.00000   0.15805   0.00792   0.00000
  18        2PZ         0.03017   0.00000   0.05539  -0.22351   0.00000
  19        3S         -1.02224   0.00000  -0.60844  -0.77068   0.00000
  20        3PX         0.00000  -0.57111   0.00000   0.00000   0.42768
  21        3PY        -0.46882   0.00000  -0.55188  -0.02377   0.00000
  22        3PZ        -0.10546   0.00000  -0.19301   0.77340   0.00000
  23        4S          1.02580   0.00000   0.61865   0.88818   0.00000
  24        4PX         0.00000   0.50735   0.00000   0.00000  -0.46536
  25        4PY         0.42836   0.00000   0.53478  -0.02536   0.00000
  26        4PZ         0.11010   0.00000   0.19254  -0.70097   0.00000
  27 3   Cl 1S          0.01887  -0.03269  -0.02251   0.01348  -0.02335
  28        2S         -0.11533   0.19976   0.13771  -0.08206   0.14213
  29        2PX         0.13079  -0.06017  -0.13687  -0.04893  -0.03617
  30        2PY        -0.09086  -0.13079  -0.07902   0.09266   0.04893
  31        2PZ        -0.01508   0.02613   0.05539   0.11175  -0.19356
  32        3S          0.51112  -0.88528  -0.60844   0.38534  -0.66743
  33        3PX        -0.45030   0.20883   0.47794   0.17490   0.12475
  34        3PY         0.31113   0.45030   0.27594  -0.32670  -0.17490
  35        3PZ         0.05273  -0.09133  -0.19301  -0.38670   0.66979
  36        4S         -0.51290   0.88837   0.61865  -0.44409   0.76919
  37        4PX         0.40517  -0.19443  -0.46313  -0.21249  -0.09732
  38        4PY        -0.27342  -0.40517  -0.26739   0.34268   0.21249
  39        4PZ        -0.05505   0.09535   0.19254   0.35048  -0.60706
  40 4   Cl 1S          0.01887   0.03269  -0.02251   0.01348   0.02335
  41        2S         -0.11533  -0.19976   0.13771  -0.08206  -0.14213
  42        2PX        -0.13079  -0.06017   0.13687   0.04893  -0.03617
  43        2PY        -0.09086   0.13079  -0.07902   0.09266  -0.04893
  44        2PZ        -0.01508  -0.02613   0.05539   0.11175   0.19356
  45        3S          0.51112   0.88528  -0.60844   0.38534   0.66743
  46        3PX         0.45030   0.20883  -0.47794  -0.17490   0.12475
  47        3PY         0.31113  -0.45030   0.27594  -0.32670   0.17490
  48        3PZ         0.05273   0.09133  -0.19301  -0.38670  -0.66979
  49        4S         -0.51290  -0.88837   0.61865  -0.44409  -0.76919
  50        4PX        -0.40517  -0.19443   0.46313   0.21249  -0.09732
  51        4PY        -0.27342   0.40517  -0.26739   0.34268  -0.21249
  52        4PZ        -0.05505  -0.09535   0.19254   0.35048   0.60706
                          46        47        48        49        50
                        (A1)--V   (A2)--V   (E)--V    (E)--V    (E)--V
     Eigenvalues --     0.83465   0.86461   0.89740   0.89740   0.93073
   1 1   Al 1S         -0.00572   0.00000   0.00000   0.00000  -0.00000
   2        2S         -0.00960   0.00000   0.00000  -0.00000   0.00000
   3        2PX         0.00000   0.00000   0.00671   0.00000   0.00000
   4        2PY         0.00000   0.00000   0.00000  -0.00671   0.02602
   5        2PZ        -0.00475   0.00000   0.00000   0.00000  -0.00000
   6        3S         -0.41538   0.00000   0.00000   0.00000   0.00000
   7        3PX         0.00000  -0.00000   0.03936   0.00000   0.00000
   8        3PY        -0.00000   0.00000   0.00000  -0.03936  -0.50064
   9        3PZ         0.15100   0.00000   0.00000  -0.00000   0.00000
  10        4S         -0.16961   0.00000   0.00000   0.00000  -0.00000
  11        4PX         0.00000  -0.00000  -0.77080   0.00000   0.00000
  12        4PY         0.00000   0.00000   0.00000   0.77080  -0.53354
  13        4PZ        -0.33903   0.00000   0.00000  -0.00000   0.00000
  14 2   Cl 1S         -0.00232   0.00000   0.00000   0.01257  -0.03329
  15        2S          0.01342   0.00000   0.00000  -0.07516   0.20081
  16        2PX         0.00000   0.20323   0.20043   0.00000   0.00000
  17        2PY        -0.07101   0.00000   0.00000  -0.12059  -0.22826
  18        2PZ         0.19100   0.00000   0.00000  -0.15286   0.09677
  19        3S         -0.11004   0.00000   0.00000   0.44060  -1.10579
  20        3PX         0.00000  -0.72354  -0.73053   0.00000   0.00000
  21        3PY         0.26151   0.00000   0.00000   0.42835   0.84520
  22        3PZ        -0.68231   0.00000   0.00000   0.55297  -0.35972
  23        4S          0.15748   0.00000   0.00000  -0.75257   1.47188
  24        4PX         0.00000   0.74470   0.88020   0.00000   0.00000
  25        4PY        -0.33738   0.00000   0.00000  -0.36770  -1.13975
  26        4PZ         0.75382   0.00000   0.00000  -0.64845   0.50304
  27 3   Cl 1S         -0.00232   0.00000   0.01089  -0.00629   0.01664
  28        2S          0.01342  -0.00000  -0.06509   0.03758  -0.10040
  29        2PX         0.06150  -0.10162   0.14055   0.03457  -0.10288
  30        2PY         0.03551   0.17601  -0.03457  -0.18047  -0.05007
  31        2PZ         0.19100  -0.00000  -0.13238   0.07643  -0.04839
  32        3S         -0.11004   0.00000   0.38157  -0.22030   0.55289
  33        3PX        -0.22647   0.36177  -0.50390  -0.13085   0.38618
  34        3PY        -0.13076  -0.62661   0.13085   0.65499   0.17632
  35        3PZ        -0.68231   0.00000   0.47889  -0.27649   0.17986
  36        4S          0.15748  -0.00000  -0.65174   0.37628  -0.73594
  37        4PX         0.29218  -0.37235   0.49583   0.22192  -0.56228
  38        4PY         0.16869   0.64493  -0.22192  -0.75207  -0.16585
  39        4PZ         0.75382  -0.00000  -0.56157   0.32422  -0.25152
  40 4   Cl 1S         -0.00232  -0.00000  -0.01089  -0.00629   0.01664
  41        2S          0.01342   0.00000   0.06509   0.03758  -0.10040
  42        2PX        -0.06150  -0.10162   0.14055  -0.03457   0.10288
  43        2PY         0.03551  -0.17601   0.03457  -0.18047  -0.05007
  44        2PZ         0.19100   0.00000   0.13238   0.07643  -0.04839
  45        3S         -0.11004  -0.00000  -0.38157  -0.22030   0.55289
  46        3PX         0.22647   0.36177  -0.50390   0.13085  -0.38618
  47        3PY        -0.13076   0.62661  -0.13085   0.65499   0.17632
  48        3PZ        -0.68231  -0.00000  -0.47889  -0.27649   0.17986
  49        4S          0.15748   0.00000   0.65174   0.37628  -0.73594
  50        4PX        -0.29218  -0.37235   0.49583  -0.22192   0.56228
  51        4PY         0.16869  -0.64493   0.22192  -0.75207  -0.16585
  52        4PZ         0.75382   0.00000   0.56157   0.32422  -0.25152
                          51        52
                        (E)--V    (A1)--V
     Eigenvalues --     0.93073   1.07837
   1 1   Al 1S          0.00000   0.01414
   2        2S          0.00000  -0.12572
   3        2PX        -0.02602   0.00000
   4        2PY         0.00000  -0.00000
   5        2PZ         0.00000   0.03118
   6        3S          0.00000  -0.00150
   7        3PX         0.50064   0.00000
   8        3PY         0.00000  -0.00000
   9        3PZ         0.00000  -0.26716
  10        4S          0.00000   2.23923
  11        4PX         0.53354   0.00000
  12        4PY         0.00000  -0.00000
  13        4PZ         0.00000  -0.97471
  14 2   Cl 1S          0.00000   0.03364
  15        2S          0.00000  -0.20132
  16        2PX        -0.00932   0.00000
  17        2PY         0.00000   0.10488
  18        2PZ         0.00000   0.04530
  19        3S          0.00000   1.24855
  20        3PX         0.04664   0.00000
  21        3PY         0.00000  -0.43296
  22        3PZ         0.00000  -0.16950
  23        4S          0.00000  -1.96535
  24        4PX        -0.15878   0.00000
  25        4PY         0.00000   0.95173
  26        4PZ         0.00000   0.19191
  27 3   Cl 1S         -0.02883   0.03364
  28        2S          0.17390  -0.20132
  29        2PX         0.16887  -0.09083
  30        2PY         0.10288  -0.05244
  31        2PZ         0.08381   0.04530
  32        3S         -0.95764   1.24855
  33        3PX        -0.62224   0.37496
  34        3PY        -0.38618   0.21648
  35        3PZ        -0.31153  -0.16950
  36        4S          1.27469  -1.96535
  37        4PX         0.81512  -0.82422
  38        4PY         0.56228  -0.47587
  39        4PZ         0.43565   0.19191
  40 4   Cl 1S          0.02883   0.03364
  41        2S         -0.17390  -0.20132
  42        2PX         0.16887   0.09083
  43        2PY        -0.10288  -0.05244
  44        2PZ        -0.08381   0.04530
  45        3S          0.95764   1.24855
  46        3PX        -0.62224  -0.37496
  47        3PY         0.38618   0.21648
  48        3PZ         0.31153  -0.16950
  49        4S         -1.27469  -1.96535
  50        4PX         0.81512   0.82422
  51        4PY        -0.56228  -0.47587
  52        4PZ        -0.43565   0.19191
     Density Matrix:
                           1         2         3         4         5
   1 1   Al 1S          2.12017
   2        2S         -0.50739   2.14452
   3        2PX         0.00000  -0.00000   1.94829
   4        2PY         0.00000  -0.00000  -0.00000   1.94829
   5        2PZ         0.00132  -0.00738   0.00000   0.00000   1.92736
   6        3S         -0.03551   0.00039   0.00000   0.00000   0.01719
   7        3PX         0.00000   0.00000   0.10489  -0.00000   0.00000
   8        3PY         0.00000   0.00000  -0.00000   0.10489   0.00000
   9        3PZ         0.00097   0.00725   0.00000   0.00000   0.14667
  10        4S          0.01616  -0.06931  -0.00000  -0.00000  -0.01974
  11        4PX         0.00000  -0.00000  -0.04726   0.00000  -0.00000
  12        4PY         0.00000  -0.00000   0.00000  -0.04726  -0.00000
  13        4PZ         0.01042  -0.03034  -0.00000  -0.00000  -0.05947
  14 2   Cl 1S          0.00014   0.00018   0.00000  -0.00319   0.00087
  15        2S         -0.00090   0.00238  -0.00000   0.01825  -0.00564
  16        2PX        -0.00000   0.00000   0.01246   0.00000   0.00000
  17        2PY         0.00998  -0.04755   0.00000  -0.04633   0.01286
  18        2PZ        -0.00498   0.02398   0.00000   0.02217   0.01547
  19        3S         -0.00608   0.01106   0.00000  -0.01484   0.00477
  20        3PX         0.00000  -0.00000  -0.02677  -0.00000  -0.00000
  21        3PY        -0.02000   0.09771  -0.00000   0.09956  -0.02801
  22        3PZ         0.01049  -0.04892  -0.00000  -0.04713  -0.03342
  23        4S          0.01350  -0.02402   0.00000  -0.03042   0.01285
  24        4PX         0.00000  -0.00000  -0.02225  -0.00000  -0.00000
  25        4PY        -0.02664   0.09668  -0.00000   0.10093  -0.03061
  26        4PZ         0.00971  -0.04276  -0.00000  -0.04819  -0.02624
  27 3   Cl 1S          0.00014   0.00018   0.00277   0.00160   0.00087
  28        2S         -0.00090   0.00238  -0.01580  -0.00912  -0.00564
  29        2PX        -0.00864   0.04118  -0.03163  -0.02546  -0.01114
  30        2PY        -0.00499   0.02377  -0.02546  -0.00224  -0.00643
  31        2PZ        -0.00498   0.02398  -0.01920  -0.01108   0.01547
  32        3S         -0.00608   0.01106   0.01285   0.00742   0.00477
  33        3PX         0.01732  -0.08462   0.06798   0.05470   0.02426
  34        3PY         0.01000  -0.04885   0.05470   0.00482   0.01400
  35        3PZ         0.01049  -0.04892   0.04081   0.02356  -0.03342
  36        4S          0.01350  -0.02402   0.02634   0.01521   0.01285
  37        4PX         0.02307  -0.08373   0.07014   0.05334   0.02651
  38        4PY         0.01332  -0.04834   0.05334   0.00855   0.01530
  39        4PZ         0.00971  -0.04276   0.04173   0.02409  -0.02624
  40 4   Cl 1S          0.00014   0.00018  -0.00277   0.00160   0.00087
  41        2S         -0.00090   0.00238   0.01580  -0.00912  -0.00564
  42        2PX         0.00864  -0.04118  -0.03163   0.02546   0.01114
  43        2PY        -0.00499   0.02377   0.02546  -0.00224  -0.00643
  44        2PZ        -0.00498   0.02398   0.01920  -0.01108   0.01547
  45        3S         -0.00608   0.01106  -0.01285   0.00742   0.00477
  46        3PX        -0.01732   0.08462   0.06798  -0.05470  -0.02426
  47        3PY         0.01000  -0.04885  -0.05470   0.00482   0.01400
  48        3PZ         0.01049  -0.04892  -0.04081   0.02356  -0.03342
  49        4S          0.01350  -0.02402  -0.02634   0.01521   0.01285
  50        4PX        -0.02307   0.08373   0.07014  -0.05334  -0.02651
  51        4PY         0.01332  -0.04834  -0.05334   0.00855   0.01530
  52        4PZ         0.00971  -0.04276  -0.04173   0.02409  -0.02624
                           6         7         8         9        10
   6        3S          0.37233
   7        3PX        -0.00000   0.17592
   8        3PY        -0.00000  -0.00000   0.17592
   9        3PZ        -0.03045   0.00000   0.00000   0.05731
  10        4S          0.04336  -0.00000  -0.00000  -0.00102   0.02366
  11        4PX         0.00000  -0.01185   0.00000   0.00000   0.00000
  12        4PY         0.00000   0.00000  -0.01185   0.00000   0.00000
  13        4PZ         0.04464   0.00000   0.00000   0.01432   0.00454
  14 2   Cl 1S          0.00197   0.00000  -0.00038   0.00115  -0.03304
  15        2S         -0.00173   0.00000  -0.00745   0.00063   0.09313
  16        2PX        -0.00000  -0.02987  -0.00000  -0.00000  -0.00000
  17        2PY         0.08828  -0.00000   0.09501  -0.02382  -0.00789
  18        2PZ        -0.03992  -0.00000  -0.04674  -0.03605  -0.01318
  19        3S         -0.02236  -0.00000   0.00294  -0.00789  -0.04327
  20        3PX         0.00000   0.06353   0.00000   0.00000   0.00000
  21        3PY        -0.19330   0.00000  -0.21479   0.05683  -0.02985
  22        3PZ         0.09173   0.00000   0.10285   0.07589   0.02129
  23        4S          0.00514  -0.00000   0.01939   0.00396  -0.05074
  24        4PX         0.00000   0.04829   0.00000   0.00000   0.00000
  25        4PY        -0.15158   0.00000  -0.17352   0.04013  -0.01890
  26        4PZ         0.07216   0.00000   0.08766   0.06597   0.01750
  27 3   Cl 1S          0.00197   0.00033   0.00019   0.00115  -0.03304
  28        2S         -0.00173   0.00645   0.00372   0.00063   0.09313
  29        2PX        -0.07645   0.06379   0.05408   0.02063   0.00683
  30        2PY        -0.04414   0.05408   0.00135   0.01191   0.00394
  31        2PZ        -0.03992   0.04047   0.02337  -0.03605  -0.01318
  32        3S         -0.02236  -0.00254  -0.00147  -0.00789  -0.04327
  33        3PX         0.16740  -0.14521  -0.12052  -0.04922   0.02585
  34        3PY         0.09665  -0.12052  -0.00605  -0.02842   0.01492
  35        3PZ         0.09173  -0.08907  -0.05142   0.07589   0.02129
  36        4S          0.00514  -0.01680  -0.00970   0.00396  -0.05074
  37        4PX         0.13127  -0.11807  -0.09605  -0.03476   0.01637
  38        4PY         0.07579  -0.09605  -0.00716  -0.02007   0.00945
  39        4PZ         0.07216  -0.07592  -0.04383   0.06597   0.01750
  40 4   Cl 1S          0.00197  -0.00033   0.00019   0.00115  -0.03304
  41        2S         -0.00173  -0.00645   0.00372   0.00063   0.09313
  42        2PX         0.07645   0.06379  -0.05408  -0.02063  -0.00683
  43        2PY        -0.04414  -0.05408   0.00135   0.01191   0.00394
  44        2PZ        -0.03992  -0.04047   0.02337  -0.03605  -0.01318
  45        3S         -0.02236   0.00254  -0.00147  -0.00789  -0.04327
  46        3PX        -0.16740  -0.14521   0.12052   0.04922  -0.02585
  47        3PY         0.09665   0.12052  -0.00605  -0.02842   0.01492
  48        3PZ         0.09173   0.08907  -0.05142   0.07589   0.02129
  49        4S          0.00514   0.01680  -0.00970   0.00396  -0.05074
  50        4PX        -0.13127  -0.11807   0.09605   0.03476  -0.01637
  51        4PY         0.07579   0.09605  -0.00716  -0.02007   0.00945
  52        4PZ         0.07216   0.07592  -0.04383   0.06597   0.01750
                          11        12        13        14        15
  11        4PX         0.02781
  12        4PY        -0.00000   0.02781
  13        4PZ         0.00000   0.00000   0.02131
  14 2   Cl 1S          0.00000  -0.01798   0.01112   2.14407
  15        2S         -0.00000   0.05450  -0.02755  -0.57302   2.38813
  16        2PX        -0.02100   0.00000  -0.00000   0.00000  -0.00000
  17        2PY         0.00000  -0.03055   0.00969  -0.00429   0.02267
  18        2PZ        -0.00000  -0.01103  -0.01767   0.00201  -0.01130
  19        3S          0.00000  -0.02409   0.00238  -0.03306  -0.27381
  20        3PX         0.08080  -0.00000   0.00000  -0.00000   0.00000
  21        3PY        -0.00000   0.05648   0.00082   0.01190  -0.05385
  22        3PZ         0.00000   0.04480   0.05913  -0.00508   0.02602
  23        4S          0.00000  -0.05031   0.01747   0.16399  -0.68011
  24        4PX         0.06480  -0.00000   0.00000   0.00000  -0.00000
  25        4PY        -0.00000   0.05549  -0.00327  -0.01106   0.00904
  26        4PZ         0.00000   0.03395   0.04910   0.00167   0.00490
  27 3   Cl 1S          0.01557   0.00899   0.01112  -0.00009   0.00035
  28        2S         -0.04720  -0.02725  -0.02755   0.00035  -0.00103
  29        2PX        -0.02816  -0.00413  -0.00839   0.00048  -0.00269
  30        2PY        -0.00413  -0.02339  -0.00484   0.00124  -0.00688
  31        2PZ         0.00955   0.00551  -0.01767  -0.00018   0.00053
  32        3S          0.02086   0.01204   0.00238  -0.00334   0.00663
  33        3PX         0.06256  -0.01053  -0.00071  -0.00121   0.00587
  34        3PY        -0.01053   0.07472  -0.00041  -0.00332   0.01604
  35        3PZ        -0.03880  -0.02240   0.05913   0.00086  -0.00207
  36        4S          0.04357   0.02515   0.01747   0.00849  -0.01937
  37        4PX         0.05782  -0.00403   0.00283   0.00167  -0.00101
  38        4PY        -0.00403   0.06247   0.00164   0.00337  -0.00170
  39        4PZ        -0.02940  -0.01698   0.04910  -0.00227   0.00533
  40 4   Cl 1S         -0.01557   0.00899   0.01112  -0.00009   0.00035
  41        2S          0.04720  -0.02725  -0.02755   0.00035  -0.00103
  42        2PX        -0.02816   0.00413   0.00839  -0.00048   0.00269
  43        2PY         0.00413  -0.02339  -0.00484   0.00124  -0.00688
  44        2PZ        -0.00955   0.00551  -0.01767  -0.00018   0.00053
  45        3S         -0.02086   0.01204   0.00238  -0.00334   0.00663
  46        3PX         0.06256   0.01053   0.00071   0.00121  -0.00587
  47        3PY         0.01053   0.07472  -0.00041  -0.00332   0.01604
  48        3PZ         0.03880  -0.02240   0.05913   0.00086  -0.00207
  49        4S         -0.04357   0.02515   0.01747   0.00849  -0.01937
  50        4PX         0.05782   0.00403  -0.00283  -0.00167   0.00101
  51        4PY         0.00403   0.06247   0.00164   0.00337  -0.00170
  52        4PZ         0.02940  -0.01698   0.04910  -0.00227   0.00533
                          16        17        18        19        20
  16        2PX         2.05144
  17        2PY        -0.00000   2.02303
  18        2PZ         0.00000   0.01534   2.03896
  19        3S          0.00000  -0.05405   0.02432   0.73611
  20        3PX        -0.17745   0.00000  -0.00000  -0.00000   0.73344
  21        3PY         0.00000  -0.11174  -0.03527   0.08718  -0.00000
  22        3PZ        -0.00000  -0.03515  -0.14827  -0.04418   0.00000
  23        4S         -0.00000   0.02015   0.00349   0.62370  -0.00000
  24        4PX        -0.33385   0.00000  -0.00000  -0.00000   0.61294
  25        4PY         0.00000  -0.28556  -0.02836   0.06077  -0.00000
  26        4PZ        -0.00000  -0.02663  -0.31513  -0.03144   0.00000
  27 3   Cl 1S         -0.00083  -0.00104  -0.00018  -0.00334   0.00227
  28        2S          0.00461   0.00577   0.00053   0.00663  -0.01095
  29        2PX         0.00283   0.00916  -0.00139   0.00454  -0.00635
  30        2PY         0.00707   0.01220  -0.00321   0.00402  -0.01598
  31        2PZ         0.00208   0.00281  -0.00705   0.00094  -0.00355
  32        3S         -0.00121  -0.00595   0.00094   0.00191  -0.00304
  33        3PX        -0.00564  -0.01933   0.00368  -0.00742   0.01381
  34        3PY        -0.01557  -0.02674   0.00623  -0.00077   0.03634
  35        3PZ        -0.00366  -0.00556   0.01502  -0.00784   0.00327
  36        4S         -0.02203  -0.01026  -0.00682   0.00223   0.06708
  37        4PX        -0.01428  -0.01992  -0.00419  -0.00592   0.03141
  38        4PY        -0.02028  -0.02591   0.00754   0.00307   0.04629
  39        4PZ        -0.00907  -0.00815   0.01514  -0.00686   0.02383
  40 4   Cl 1S          0.00083  -0.00104  -0.00018  -0.00334  -0.00227
  41        2S         -0.00461   0.00577   0.00053   0.00663   0.01095
  42        2PX         0.00283  -0.00916   0.00139  -0.00454  -0.00635
  43        2PY        -0.00707   0.01220  -0.00321   0.00402   0.01598
  44        2PZ        -0.00208   0.00281  -0.00705   0.00094   0.00355
  45        3S          0.00121  -0.00595   0.00094   0.00191   0.00304
  46        3PX        -0.00564   0.01933  -0.00368   0.00742   0.01381
  47        3PY         0.01557  -0.02674   0.00623  -0.00077  -0.03634
  48        3PZ         0.00366  -0.00556   0.01502  -0.00784  -0.00327
  49        4S          0.02203  -0.01026  -0.00682   0.00223  -0.06708
  50        4PX        -0.01428   0.01992   0.00419   0.00592   0.03141
  51        4PY         0.02028  -0.02591   0.00754   0.00307  -0.04629
  52        4PZ         0.00907  -0.00815   0.01514  -0.00686  -0.02383
                          21        22        23        24        25
  21        3PY         0.59256
  22        3PZ         0.07712   0.66643
  23        4S          0.01796  -0.02546   0.64654
  24        4PX        -0.00000   0.00000   0.00000   0.53064
  25        4PY         0.47727   0.07155  -0.01699  -0.00000   0.40885
  26        4PZ         0.06888   0.56724  -0.00896   0.00000   0.06109
  27 3   Cl 1S          0.00270   0.00086   0.00849  -0.00209  -0.00313
  28        2S         -0.01311  -0.00207  -0.01937   0.00097   0.00172
  29        2PX        -0.01975   0.00299  -0.00212  -0.00560  -0.01490
  30        2PY        -0.02603   0.00595   0.02421  -0.01526  -0.03459
  31        2PZ        -0.00630   0.01502  -0.00682  -0.00863  -0.00014
  32        3S          0.00681  -0.00784   0.00223  -0.00562   0.00359
  33        3PX         0.04084  -0.01030  -0.00029   0.00934   0.03563
  34        3PY         0.05837  -0.00972  -0.07762   0.03355   0.07870
  35        3PZ         0.01378  -0.03112   0.03123   0.02299  -0.00603
  36        4S          0.03906   0.03123   0.00768   0.05123   0.02854
  37        4PX         0.04837   0.01672   0.00090   0.02436   0.04093
  38        4PY         0.05663  -0.01690  -0.05864   0.04073   0.07150
  39        4PZ         0.01573  -0.03423   0.02226   0.03733  -0.00100
  40 4   Cl 1S          0.00270   0.00086   0.00849   0.00209  -0.00313
  41        2S         -0.01311  -0.00207  -0.01937  -0.00097   0.00172
  42        2PX         0.01975  -0.00299   0.00212  -0.00560   0.01490
  43        2PY        -0.02603   0.00595   0.02421   0.01526  -0.03459
  44        2PZ        -0.00630   0.01502  -0.00682   0.00863  -0.00014
  45        3S          0.00681  -0.00784   0.00223   0.00562   0.00359
  46        3PX        -0.04084   0.01030   0.00029   0.00934  -0.03563
  47        3PY         0.05837  -0.00972  -0.07762  -0.03355   0.07870
  48        3PZ         0.01378  -0.03112   0.03123  -0.02299  -0.00603
  49        4S          0.03906   0.03123   0.00768  -0.05123   0.02854
  50        4PX        -0.04837  -0.01672  -0.00090   0.02436  -0.04093
  51        4PY         0.05663  -0.01690  -0.05864  -0.04073   0.07150
  52        4PZ         0.01573  -0.03423   0.02226  -0.03733  -0.00100
                          26        27        28        29        30
  26        4PZ         0.50233
  27 3   Cl 1S         -0.00227   2.14407
  28        2S          0.00533  -0.57302   2.38813
  29        2PX         0.00253   0.00371  -0.01964   2.03013
  30        2PY         0.01193   0.00214  -0.01134  -0.01230   2.04434
  31        2PZ         0.01514   0.00201  -0.01130  -0.01328  -0.00767
  32        3S         -0.00686  -0.03306  -0.27381   0.04681   0.02703
  33        3PX        -0.00171  -0.01031   0.04664  -0.12817   0.02845
  34        3PY        -0.02850  -0.00595   0.02693   0.02845  -0.16102
  35        3PZ        -0.03423  -0.00508   0.02602   0.03044   0.01757
  36        4S          0.02226   0.16399  -0.68011  -0.01745  -0.01007
  37        4PX         0.01953   0.00958  -0.00782  -0.29764   0.02091
  38        4PY        -0.03183   0.00553  -0.00452   0.02091  -0.32178
  39        4PZ        -0.03635   0.00167   0.00490   0.02306   0.01332
  40 4   Cl 1S         -0.00227  -0.00009   0.00035   0.00132  -0.00020
  41        2S          0.00533   0.00035  -0.00103  -0.00730   0.00111
  42        2PX        -0.00253  -0.00132   0.00730   0.01688   0.00104
  43        2PY         0.01193  -0.00020   0.00111  -0.00104  -0.00186
  44        2PZ         0.01514  -0.00018   0.00053  -0.00348   0.00040
  45        3S         -0.00686  -0.00334   0.00663   0.00576   0.00192
  46        3PX         0.00171   0.00348  -0.01683  -0.03658  -0.00230
  47        3PY        -0.02850   0.00061  -0.00293   0.00147   0.00420
  48        3PZ        -0.03423   0.00086  -0.00207   0.00665  -0.00039
  49        4S          0.02226   0.00849  -0.01937   0.01990  -0.01394
  50        4PX        -0.01953  -0.00376   0.00198  -0.04041   0.00519
  51        4PY        -0.03183  -0.00024  -0.00002   0.00483   0.00021
  52        4PZ        -0.03635  -0.00227   0.00533   0.01160  -0.00377
                          31        32        33        34        35
  31        2PZ         2.03896
  32        3S          0.02432   0.73611
  33        3PX         0.03054  -0.07550   0.62778
  34        3PY         0.01763  -0.04359  -0.06100   0.69822
  35        3PZ        -0.14827  -0.04418  -0.06679  -0.03856   0.66643
  36        4S          0.00349   0.62370  -0.01555  -0.00898  -0.02546
  37        4PX         0.02456  -0.05263   0.51118  -0.05875  -0.06197
  38        4PY         0.01418  -0.03038  -0.05875   0.57902  -0.03578
  39        4PZ        -0.31513  -0.03144  -0.05966  -0.03444   0.56724
  40 4   Cl 1S         -0.00018  -0.00334  -0.00348   0.00061   0.00086
  41        2S          0.00053   0.00663   0.01683  -0.00293  -0.00207
  42        2PX         0.00348  -0.00576  -0.03658  -0.00147  -0.00665
  43        2PY         0.00040   0.00192   0.00230   0.00420  -0.00039
  44        2PZ        -0.00705   0.00094   0.00723   0.00007   0.01502
  45        3S          0.00094   0.00191  -0.00438  -0.00604  -0.00784
  46        3PX        -0.00723   0.00438   0.08066   0.00225   0.01357
  47        3PY         0.00007  -0.00604  -0.00225  -0.00847  -0.00406
  48        3PZ         0.01502  -0.00784  -0.01357  -0.00406  -0.03112
  49        4S         -0.00682   0.00223  -0.06737   0.03856   0.03123
  50        4PX        -0.00444   0.00030   0.09131  -0.01170   0.00627
  51        4PY        -0.00740  -0.00666  -0.01378  -0.00327   0.02293
  52        4PZ         0.01514  -0.00686  -0.02554   0.01277  -0.03423
                          36        37        38        39        40
  36        4S          0.64654
  37        4PX         0.01472   0.43930
  38        4PY         0.00850  -0.05274   0.50020
  39        4PZ        -0.00896  -0.05290  -0.03054   0.50233
  40 4   Cl 1S          0.00849   0.00376  -0.00024  -0.00227   2.14407
  41        2S         -0.01937  -0.00198  -0.00002   0.00533  -0.57302
  42        2PX        -0.01990  -0.04041  -0.00483  -0.01160  -0.00371
  43        2PY        -0.01394  -0.00519   0.00021  -0.00377   0.00214
  44        2PZ        -0.00682   0.00444  -0.00740   0.01514   0.00201
  45        3S          0.00223  -0.00030  -0.00666  -0.00686  -0.03306
  46        3PX         0.06737   0.09131   0.01378   0.02554   0.01031
  47        3PY         0.03856   0.01170  -0.00327   0.01277  -0.00595
  48        3PZ         0.03123  -0.00627   0.02293  -0.03423  -0.00508
  49        4S          0.00768  -0.05033   0.03010   0.02226   0.16399
  50        4PX         0.05033   0.09508   0.00010   0.01780  -0.00958
  51        4PY         0.03010  -0.00010   0.00079   0.03283   0.00553
  52        4PZ         0.02226  -0.01780   0.03283  -0.03635   0.00167
                          41        42        43        44        45
  41        2S          2.38813
  42        2PX         0.01964   2.03013
  43        2PY        -0.01134   0.01230   2.04434
  44        2PZ        -0.01130   0.01328  -0.00767   2.03896
  45        3S         -0.27381  -0.04681   0.02703   0.02432   0.73611
  46        3PX        -0.04664  -0.12817  -0.02845  -0.03054   0.07550
  47        3PY         0.02693  -0.02845  -0.16102   0.01763  -0.04359
  48        3PZ         0.02602  -0.03044   0.01757  -0.14827  -0.04418
  49        4S         -0.68011   0.01745  -0.01007   0.00349   0.62370
  50        4PX         0.00782  -0.29764  -0.02091  -0.02456   0.05263
  51        4PY        -0.00452  -0.02091  -0.32178   0.01418  -0.03038
  52        4PZ         0.00490  -0.02306   0.01332  -0.31513  -0.03144
                          46        47        48        49        50
  46        3PX         0.62778
  47        3PY         0.06100   0.69822
  48        3PZ         0.06679  -0.03856   0.66643
  49        4S          0.01555  -0.00898  -0.02546   0.64654
  50        4PX         0.51118   0.05875   0.06197  -0.01472   0.43930
  51        4PY         0.05875   0.57902  -0.03578   0.00850   0.05274
  52        4PZ         0.05966  -0.03444   0.56724  -0.00896   0.05290
                          51        52
  51        4PY         0.50020
  52        4PZ        -0.03054   0.50233
    Full Mulliken population analysis:
                           1         2         3         4         5
   1 1   Al 1S          2.12017
   2        2S         -0.12229   2.14452
   3        2PX         0.00000   0.00000   1.94829
   4        2PY         0.00000   0.00000   0.00000   1.94829
   5        2PZ         0.00000   0.00000   0.00000   0.00000   1.92736
   6        3S         -0.00043   0.00010   0.00000   0.00000   0.00000
   7        3PX         0.00000   0.00000   0.02535   0.00000   0.00000
   8        3PY         0.00000   0.00000   0.00000   0.02535   0.00000
   9        3PZ         0.00000   0.00000   0.00000   0.00000   0.03545
  10        4S          0.00041  -0.01513   0.00000   0.00000   0.00000
  11        4PX         0.00000   0.00000  -0.00278  -0.00000  -0.00000
  12        4PY         0.00000   0.00000  -0.00000  -0.00278  -0.00000
  13        4PZ         0.00000   0.00000  -0.00000  -0.00000  -0.00350
  14 2   Cl 1S          0.00000   0.00000  -0.00000  -0.00000  -0.00000
  15        2S          0.00000   0.00000   0.00000   0.00000   0.00000
  16        2PX         0.00000   0.00000   0.00000   0.00000  -0.00000
  17        2PY         0.00000   0.00000   0.00000   0.00000   0.00000
  18        2PZ         0.00000   0.00000  -0.00000   0.00000  -0.00000
  19        3S         -0.00000   0.00001  -0.00000  -0.00002  -0.00000
  20        3PX         0.00000  -0.00000  -0.00001  -0.00000   0.00000
  21        3PY         0.00000  -0.00019  -0.00000  -0.00030  -0.00003
  22        3PZ         0.00000  -0.00003   0.00000  -0.00006   0.00001
  23        4S          0.00004  -0.00065  -0.00000  -0.00055  -0.00008
  24        4PX         0.00000  -0.00000  -0.00025  -0.00000   0.00000
  25        4PY         0.00023  -0.00781  -0.00000  -0.00433  -0.00058
  26        4PZ         0.00003  -0.00122   0.00000  -0.00092  -0.00011
  27 3   Cl 1S          0.00000   0.00000  -0.00000  -0.00000  -0.00000
  28        2S          0.00000   0.00000   0.00000   0.00000   0.00000
  29        2PX         0.00000   0.00000   0.00000   0.00000   0.00000
  30        2PY         0.00000   0.00000   0.00000   0.00000   0.00000
  31        2PZ         0.00000   0.00000   0.00000   0.00000  -0.00000
  32        3S         -0.00000   0.00001  -0.00001  -0.00000  -0.00000
  33        3PX         0.00000  -0.00014  -0.00015  -0.00008  -0.00002
  34        3PY         0.00000  -0.00005  -0.00008  -0.00000  -0.00001
  35        3PZ         0.00000  -0.00003  -0.00004  -0.00001   0.00001
  36        4S          0.00004  -0.00065  -0.00041  -0.00014  -0.00008
  37        4PX         0.00017  -0.00586  -0.00206  -0.00125  -0.00044
  38        4PY         0.00006  -0.00195  -0.00125  -0.00002  -0.00015
  39        4PZ         0.00003  -0.00122  -0.00069  -0.00023  -0.00011
  40 4   Cl 1S          0.00000   0.00000  -0.00000  -0.00000  -0.00000
  41        2S          0.00000   0.00000   0.00000   0.00000   0.00000
  42        2PX         0.00000   0.00000   0.00000   0.00000   0.00000
  43        2PY         0.00000   0.00000   0.00000   0.00000   0.00000
  44        2PZ         0.00000   0.00000   0.00000   0.00000  -0.00000
  45        3S         -0.00000   0.00001  -0.00001  -0.00000  -0.00000
  46        3PX         0.00000  -0.00014  -0.00015  -0.00008  -0.00002
  47        3PY         0.00000  -0.00005  -0.00008  -0.00000  -0.00001
  48        3PZ         0.00000  -0.00003  -0.00004  -0.00001   0.00001
  49        4S          0.00004  -0.00065  -0.00041  -0.00014  -0.00008
  50        4PX         0.00017  -0.00586  -0.00206  -0.00125  -0.00044
  51        4PY         0.00006  -0.00195  -0.00125  -0.00002  -0.00015
  52        4PZ         0.00003  -0.00122  -0.00069  -0.00023  -0.00011
                           6         7         8         9        10
   6        3S          0.37233
   7        3PX         0.00000   0.17592
   8        3PY         0.00000   0.00000   0.17592
   9        3PZ         0.00000   0.00000   0.00000   0.05731
  10        4S          0.03581   0.00000   0.00000   0.00000   0.02366
  11        4PX         0.00000  -0.00787  -0.00000   0.00000   0.00000
  12        4PY         0.00000  -0.00000  -0.00787   0.00000   0.00000
  13        4PZ         0.00000   0.00000   0.00000   0.00951   0.00000
  14 2   Cl 1S          0.00000  -0.00000  -0.00000  -0.00000  -0.00018
  15        2S         -0.00002  -0.00000  -0.00023  -0.00001   0.00384
  16        2PX        -0.00000  -0.00008  -0.00000   0.00000  -0.00000
  17        2PY        -0.00052  -0.00000  -0.00132  -0.00014   0.00006
  18        2PZ        -0.00008   0.00000  -0.00027  -0.00002  -0.00003
  19        3S         -0.00179   0.00000   0.00050   0.00047  -0.00819
  20        3PX         0.00000   0.00306   0.00000  -0.00000   0.00000
  21        3PY         0.01982   0.00000   0.03844   0.00456   0.00296
  22        3PZ         0.00333  -0.00000   0.00826   0.00150   0.00075
  23        4S          0.00110   0.00000   0.00598  -0.00043  -0.01884
  24        4PX         0.00000   0.00916   0.00000  -0.00000   0.00000
  25        4PY         0.05571   0.00000   0.06309   0.00785   0.00633
  26        4PZ         0.00938  -0.00000   0.01715   0.00795   0.00207
  27 3   Cl 1S          0.00000  -0.00000  -0.00000  -0.00000  -0.00018
  28        2S         -0.00002  -0.00017  -0.00006  -0.00001   0.00384
  29        2PX        -0.00039  -0.00062  -0.00039  -0.00010   0.00004
  30        2PY        -0.00013  -0.00039  -0.00000  -0.00003   0.00001
  31        2PZ        -0.00008  -0.00021  -0.00007  -0.00002  -0.00003
  32        3S         -0.00179   0.00037   0.00012   0.00047  -0.00819
  33        3PX         0.01487   0.01775   0.01185   0.00342   0.00222
  34        3PY         0.00496   0.01185   0.00005   0.00114   0.00074
  35        3PZ         0.00333   0.00619   0.00206   0.00150   0.00075
  36        4S          0.00110   0.00449   0.00150  -0.00043  -0.01884
  37        4PX         0.04178   0.02660   0.02301   0.00589   0.00474
  38        4PY         0.01393   0.02301  -0.00037   0.00196   0.00158
  39        4PZ         0.00938   0.01286   0.00429   0.00795   0.00207
  40 4   Cl 1S          0.00000  -0.00000  -0.00000  -0.00000  -0.00018
  41        2S         -0.00002  -0.00017  -0.00006  -0.00001   0.00384
  42        2PX        -0.00039  -0.00062  -0.00039  -0.00010   0.00004
  43        2PY        -0.00013  -0.00039  -0.00000  -0.00003   0.00001
  44        2PZ        -0.00008  -0.00021  -0.00007  -0.00002  -0.00003
  45        3S         -0.00179   0.00037   0.00012   0.00047  -0.00819
  46        3PX         0.01487   0.01775   0.01185   0.00342   0.00222
  47        3PY         0.00496   0.01185   0.00005   0.00114   0.00074
[...]
  39        4PZ         0.00439   0.00146   0.01333   0.00000   0.00000
  40 4   Cl 1S         -0.00014  -0.00005  -0.00004   0.00000   0.00000
  41        2S          0.00334   0.00111   0.00079   0.00000   0.00000
  42        2PX         0.00010   0.00003   0.00004   0.00000   0.00000
  43        2PY         0.00003  -0.00009   0.00001   0.00000   0.00000
  44        2PZ        -0.00004  -0.00001  -0.00010   0.00000   0.00000
  45        3S         -0.00610  -0.00203  -0.00028  -0.00000   0.00000
  46        3PX        -0.00225   0.00082   0.00004  -0.00000   0.00000
  47        3PY         0.00082   0.00402   0.00001  -0.00000   0.00000
  48        3PZ         0.00213   0.00071   0.00450  -0.00000  -0.00000
  49        4S         -0.02039  -0.00680  -0.00334   0.00000  -0.00000
  50        4PX        -0.00191   0.00085  -0.00042   0.00000  -0.00000
  51        4PY         0.00085   0.01315  -0.00014   0.00000  -0.00000
  52        4PZ         0.00439   0.00146   0.01333   0.00000   0.00000
                          16        17        18        19        20
  16        2PX         2.05144
  17        2PY         0.00000   2.02303
  18        2PZ         0.00000   0.00000   2.03896
  19        3S          0.00000   0.00000   0.00000   0.73611
  20        3PX        -0.05702  -0.00000  -0.00000   0.00000   0.73344
  21        3PY        -0.00000  -0.03590  -0.00000   0.00000   0.00000
  22        3PZ        -0.00000  -0.00000  -0.04764   0.00000   0.00000
  23        4S          0.00000   0.00000   0.00000   0.51411   0.00000
  24        4PX        -0.02342  -0.00000  -0.00000   0.00000   0.38178
  25        4PY        -0.00000  -0.02003  -0.00000   0.00000   0.00000
  26        4PZ        -0.00000  -0.00000  -0.02211   0.00000   0.00000
  27 3   Cl 1S          0.00000   0.00000   0.00000  -0.00000  -0.00000
  28        2S          0.00000   0.00000   0.00000   0.00000   0.00000
  29        2PX         0.00000   0.00000   0.00000   0.00000   0.00000
  30        2PY         0.00000   0.00000   0.00000   0.00000   0.00000
  31        2PZ         0.00000   0.00000   0.00000  -0.00000  -0.00000
  32        3S          0.00000   0.00000  -0.00000   0.00000   0.00000
  33        3PX         0.00000   0.00000  -0.00000  -0.00000  -0.00000
  34        3PY         0.00000   0.00000  -0.00000  -0.00000  -0.00000
  35        3PZ         0.00000   0.00000   0.00000  -0.00000  -0.00000
  36        4S          0.00000   0.00000   0.00000   0.00000  -0.00013
  37        4PX         0.00000   0.00000   0.00000  -0.00003  -0.00009
  38        4PY         0.00000   0.00001  -0.00000   0.00002  -0.00034
  39        4PZ         0.00000   0.00000   0.00000  -0.00000  -0.00000
  40 4   Cl 1S          0.00000   0.00000   0.00000  -0.00000  -0.00000
  41        2S          0.00000   0.00000   0.00000   0.00000   0.00000
  42        2PX         0.00000   0.00000   0.00000   0.00000   0.00000
  43        2PY         0.00000   0.00000   0.00000   0.00000   0.00000
  44        2PZ         0.00000   0.00000   0.00000  -0.00000  -0.00000
  45        3S          0.00000   0.00000  -0.00000   0.00000   0.00000
  46        3PX         0.00000   0.00000  -0.00000  -0.00000  -0.00000
  47        3PY         0.00000   0.00000  -0.00000  -0.00000  -0.00000
  48        3PZ         0.00000   0.00000   0.00000  -0.00000  -0.00000
  49        4S          0.00000   0.00000   0.00000   0.00000  -0.00013
  50        4PX         0.00000   0.00000   0.00000  -0.00003  -0.00009
  51        4PY         0.00000   0.00001  -0.00000   0.00002  -0.00034
  52        4PZ         0.00000   0.00000   0.00000  -0.00000  -0.00000
                          21        22        23        24        25
  21        3PY         0.59256
  22        3PZ         0.00000   0.66643
  23        4S          0.00000   0.00000   0.64654
  24        4PX         0.00000   0.00000   0.00000   0.53064
  25        4PY         0.29727   0.00000   0.00000   0.00000   0.40885
  26        4PZ         0.00000   0.35331   0.00000   0.00000   0.00000
  27 3   Cl 1S         -0.00000  -0.00000   0.00000   0.00000   0.00000
  28        2S          0.00000  -0.00000  -0.00000  -0.00000  -0.00000
  29        2PX         0.00000   0.00000  -0.00000   0.00000   0.00000
  30        2PY         0.00000   0.00000   0.00000   0.00000   0.00001
  31        2PZ        -0.00000   0.00000   0.00000  -0.00000  -0.00000
  32        3S         -0.00000   0.00000   0.00000   0.00003  -0.00003
  33        3PX        -0.00000   0.00000  -0.00000  -0.00003  -0.00026
  34        3PY        -0.00000   0.00000  -0.00026  -0.00025  -0.00089
  35        3PZ        -0.00000  -0.00000  -0.00000   0.00000  -0.00000
  36        4S         -0.00013  -0.00000   0.00015  -0.00136  -0.00132
  37        4PX        -0.00035  -0.00000   0.00002  -0.00045  -0.00266
  38        4PY        -0.00064   0.00000  -0.00271  -0.00265  -0.00670
  39        4PZ        -0.00000  -0.00005   0.00000  -0.00000   0.00000
  40 4   Cl 1S         -0.00000  -0.00000   0.00000   0.00000   0.00000
  41        2S          0.00000  -0.00000  -0.00000  -0.00000  -0.00000
  42        2PX         0.00000   0.00000  -0.00000   0.00000   0.00000
  43        2PY         0.00000   0.00000   0.00000   0.00000   0.00001
  44        2PZ        -0.00000   0.00000   0.00000  -0.00000  -0.00000
  45        3S         -0.00000   0.00000   0.00000   0.00003  -0.00003
  46        3PX        -0.00000   0.00000  -0.00000  -0.00003  -0.00026
  47        3PY        -0.00000   0.00000  -0.00026  -0.00025  -0.00089
  48        3PZ        -0.00000  -0.00000  -0.00000   0.00000  -0.00000
  49        4S         -0.00013  -0.00000   0.00015  -0.00136  -0.00132
  50        4PX        -0.00035  -0.00000   0.00002  -0.00045  -0.00266
  51        4PY        -0.00064   0.00000  -0.00271  -0.00265  -0.00670
  52        4PZ        -0.00000  -0.00005   0.00000  -0.00000   0.00000
                          26        27        28        29        30
  26        4PZ         0.50233
  27 3   Cl 1S          0.00000   2.14407
  28        2S          0.00000  -0.14866   2.38813
  29        2PX         0.00000   0.00000   0.00000   2.03013
  30        2PY         0.00000   0.00000   0.00000   0.00000   2.04434
  31        2PZ         0.00000   0.00000   0.00000  -0.00000  -0.00000
  32        3S         -0.00000  -0.00195  -0.11905   0.00000   0.00000
  33        3PX        -0.00000   0.00000   0.00000  -0.04118  -0.00000
  34        3PY        -0.00000   0.00000   0.00000  -0.00000  -0.05174
  35        3PZ        -0.00005   0.00000   0.00000   0.00000   0.00000
  36        4S         -0.00000   0.00556  -0.16997   0.00000   0.00000
  37        4PX        -0.00000   0.00000   0.00000  -0.02088  -0.00000
  38        4PY         0.00000   0.00000   0.00000  -0.00000  -0.02257
  39        4PZ        -0.00069   0.00000   0.00000   0.00000   0.00000
  40 4   Cl 1S          0.00000   0.00000   0.00000   0.00000   0.00000
  41        2S          0.00000   0.00000   0.00000   0.00000   0.00000
  42        2PX         0.00000   0.00000   0.00000   0.00000   0.00000
  43        2PY         0.00000   0.00000   0.00000   0.00000   0.00000
  44        2PZ         0.00000   0.00000   0.00000   0.00000   0.00000
  45        3S         -0.00000  -0.00000   0.00000   0.00000   0.00000
  46        3PX        -0.00000  -0.00000   0.00000   0.00000   0.00000
  47        3PY        -0.00000   0.00000   0.00000  -0.00000   0.00000
  48        3PZ        -0.00005  -0.00000  -0.00000   0.00000  -0.00000
  49        4S         -0.00000   0.00000  -0.00000   0.00000  -0.00000
  50        4PX        -0.00000   0.00000  -0.00000   0.00002  -0.00000
  51        4PY         0.00000  -0.00000   0.00000  -0.00000   0.00000
  52        4PZ        -0.00069   0.00000   0.00000   0.00000  -0.00000
                          31        32        33        34        35
  31        2PZ         2.03896
  32        3S          0.00000   0.73611
  33        3PX         0.00000   0.00000   0.62778
  34        3PY         0.00000   0.00000   0.00000   0.69822
  35        3PZ        -0.04764   0.00000  -0.00000  -0.00000   0.66643
  36        4S          0.00000   0.51411   0.00000   0.00000   0.00000
  37        4PX         0.00000   0.00000   0.31840   0.00000  -0.00000
  38        4PY         0.00000   0.00000   0.00000   0.36065  -0.00000
  39        4PZ        -0.02211   0.00000  -0.00000  -0.00000   0.35331
  40 4   Cl 1S          0.00000  -0.00000  -0.00000   0.00000  -0.00000
  41        2S          0.00000   0.00000   0.00000   0.00000  -0.00000
  42        2PX         0.00000   0.00000   0.00000  -0.00000   0.00000
  43        2PY         0.00000   0.00000   0.00000   0.00000  -0.00000
  44        2PZ         0.00000  -0.00000  -0.00000   0.00000   0.00000
  45        3S         -0.00000   0.00000  -0.00000   0.00000  -0.00000
  46        3PX        -0.00000  -0.00000  -0.00000   0.00000  -0.00000
  47        3PY         0.00000  -0.00000  -0.00000  -0.00000  -0.00000
  48        3PZ         0.00000   0.00000   0.00000  -0.00000  -0.00000
  49        4S          0.00000   0.00000  -0.00026   0.00000  -0.00000
  50        4PX        -0.00000  -0.00000  -0.00142   0.00000   0.00000
  51        4PY        -0.00000   0.00000   0.00000  -0.00000   0.00000
  52        4PZ         0.00000  -0.00000  -0.00000   0.00000  -0.00005
                          36        37        38        39        40
  36        4S          0.64654
  37        4PX         0.00000   0.43930
  38        4PY         0.00000   0.00000   0.50020
  39        4PZ         0.00000  -0.00000  -0.00000   0.50233
  40 4   Cl 1S          0.00000   0.00000  -0.00000   0.00000   2.14407
  41        2S         -0.00000  -0.00000   0.00000   0.00000  -0.14866
  42        2PX         0.00000   0.00002  -0.00000   0.00000   0.00000
  43        2PY        -0.00000  -0.00000   0.00000  -0.00000   0.00000
  44        2PZ         0.00000  -0.00000  -0.00000   0.00000   0.00000
  45        3S          0.00000  -0.00000   0.00000  -0.00000  -0.00195
  46        3PX        -0.00026  -0.00142   0.00000  -0.00000   0.00000
  47        3PY         0.00000   0.00000  -0.00000   0.00000   0.00000
  48        3PZ        -0.00000   0.00000   0.00000  -0.00005   0.00000
  49        4S          0.00015  -0.00268  -0.00000   0.00000   0.00556
  50        4PX        -0.00268  -0.01247   0.00000  -0.00000   0.00000
  51        4PY         0.00000  -0.00000   0.00001   0.00000   0.00000
  52        4PZ        -0.00000   0.00000   0.00000  -0.00069   0.00000
                          41        42        43        44        45
  41        2S          2.38813
  42        2PX         0.00000   2.03013
  43        2PY         0.00000  -0.00000   2.04434
  44        2PZ         0.00000   0.00000  -0.00000   2.03896
  45        3S         -0.11905   0.00000   0.00000   0.00000   0.73611
  46        3PX         0.00000  -0.04118   0.00000  -0.00000   0.00000
  47        3PY         0.00000   0.00000  -0.05174   0.00000   0.00000
  48        3PZ         0.00000  -0.00000   0.00000  -0.04764   0.00000
  49        4S         -0.16997   0.00000   0.00000   0.00000   0.51411
  50        4PX         0.00000  -0.02088   0.00000  -0.00000   0.00000
  51        4PY         0.00000   0.00000  -0.02257   0.00000   0.00000
  52        4PZ         0.00000  -0.00000   0.00000  -0.02211   0.00000
                          46        47        48        49        50
  46        3PX         0.62778
  47        3PY        -0.00000   0.69822
  48        3PZ         0.00000  -0.00000   0.66643
  49        4S          0.00000   0.00000   0.00000   0.64654
  50        4PX         0.31840  -0.00000   0.00000   0.00000   0.43930
  51        4PY        -0.00000   0.36065  -0.00000   0.00000  -0.00000
  52        4PZ         0.00000  -0.00000   0.35331   0.00000   0.00000
                          51        52
  51        4PY         0.50020
  52        4PZ        -0.00000   0.50233
     Gross orbital populations:
                           1
   1 1   Al 1S          1.99875
   2        2S          1.97748
   3        2PX         1.96122
   4        2PY         1.96122
   5        2PZ         1.95688
   6        3S          0.66858
   7        3PX         0.40900
   8        3PY         0.40900
   9        3PZ         0.16746
  10        4S          0.01104
  11        4PX         0.00813
  12        4PY         0.00813
  13        4PZ         0.07054
  14 2   Cl 1S          1.99861
  15        2S          1.95926
  16        2PX         1.97079
  17        2PY         1.96548
  18        2PZ         1.96865
  19        3S          1.11179
  20        3PX         1.06809
  21        3PY         0.91242
  22        3PZ         0.99309
  23        4S          0.94669
  24        4PX         0.91003
  25        4PY         0.77373
  26        4PZ         0.88556
  27 3   Cl 1S          1.99861
  28        2S          1.95926
  29        2PX         1.96681
  30        2PY         1.96946
  31        2PZ         1.96865
  32        3S          1.11179
  33        3PX         0.95134
  34        3PY         1.02917
  35        3PZ         0.99309
  36        4S          0.94669
  37        4PX         0.80780
  38        4PY         0.87596
  39        4PZ         0.88556
  40 4   Cl 1S          1.99861
  41        2S          1.95926
  42        2PX         1.96681
  43        2PY         1.96946
  44        2PZ         1.96865
  45        3S          1.11179
  46        3PX         0.95134
  47        3PY         1.02917
  48        3PZ         0.99309
  49        4S          0.94669
  50        4PX         0.80780
  51        4PY         0.87596
  52        4PZ         0.88556
          Condensed to atoms (all electrons):
               1          2          3          4
     1  Al  10.909369   0.232688   0.232688   0.232688
     2  Cl   0.232688  17.275092  -0.021796  -0.021796
     3  Cl   0.232688  -0.021796  17.275092  -0.021796
     4  Cl   0.232688  -0.021796  -0.021796  17.275092
 Mulliken charges:
               1
     1  Al   1.392566
     2  Cl  -0.464189
     3  Cl  -0.464189
     4  Cl  -0.464189
 Sum of Mulliken charges =  -0.00000
 Mulliken charges with hydrogens summed into heavy atoms:
               1
     1  Al   1.392566
     2  Cl  -0.464189
     3  Cl  -0.464189
     4  Cl  -0.464189
 Electronic spatial extent (au):  <R**2>=            955.0939
 Charge=             -0.0000 electrons
 Dipole moment (field-independent basis, Debye):
    X=              0.0000    Y=             -0.0000    Z=              4.9288  Tot=              4.9288
 Quadrupole moment (field-independent basis, Debye-Ang):
   XX=            -61.9618   YY=            -61.9618   ZZ=            -44.5835
   XY=              0.0000   XZ=             -0.0000   YZ=             -0.0000
 Traceless Quadrupole moment (field-independent basis, Debye-Ang):
   XX=             -5.7928   YY=             -5.7928   ZZ=             11.5856
   XY=              0.0000   XZ=             -0.0000   YZ=             -0.0000
 Octapole moment (field-independent basis, Debye-Ang**2):
  XXX=              0.0000  YYY=            -11.0141  ZZZ=              9.4005  XYY=              0.0000
  XXY=             11.0141  XXZ=              0.7280  XZZ=              0.0000  YZZ=              0.0000
  YYZ=              0.7280  XYZ=              0.0000
 Hexadecapole moment (field-independent basis, Debye-Ang**3):
 XXXX=           -635.2759 YYYY=           -635.2759 ZZZZ=            -71.0308 XXXY=              0.0000
 XXXZ=             -0.0000 YYYX=              0.0000 YYYZ=             -2.6961 ZZZX=             -0.0000
 ZZZY=             -0.0000 XXYY=           -211.7586 XXZZ=           -112.9478 YYZZ=           -112.9478
 XXYZ=              2.6961 YYXZ=             -0.0000 ZZXY=              0.0000
 N-N= 2.825798034133D+02 E-N=-4.407325738020D+03  KE= 1.610825489210D+03
 Symmetry A'   KE= 1.088054103687D+03
 Symmetry A"   KE= 5.227713855228D+02
 Orbital energies and kinetic energies (alpha):
                                 1                 2
   1         (A1)--O        -104.127335        136.073676
   2         (E)--O         -104.127061        136.080481
   3         (E)--O         -104.127061        136.080481
   4         (A1)--O         -58.255194         78.662479
   5         (A1)--O         -10.518566         22.329763
   6         (E)--O          -10.517669         22.351501
   7         (E)--O          -10.517669         22.351501
   8         (E)--O           -7.980854         20.339492
   9         (E)--O           -7.980854         20.339492
  10         (A1)--O          -7.980714         20.344625
  11         (A1)--O          -7.977845         20.362923
  12         (E)--O           -7.977824         20.362626
  13         (E)--O           -7.977824         20.362626
  14         (A2)--O          -7.977631         20.365162
  15         (E)--O           -7.977471         20.373407
  16         (E)--O           -7.977471         20.373407
  17         (A1)--O          -5.050767         11.073209
  18         (A1)--O          -3.354919          9.738306
  19         (E)--O           -3.354852          9.723131
  20         (E)--O           -3.354852          9.723131
  21         (A1)--O          -1.114786          2.783415
  22         (E)--O           -1.094849          2.959165
  23         (E)--O           -1.094849          2.959165
  24         (A1)--O          -0.614957          1.972746
  25         (E)--O           -0.530438          2.055544
  26         (E)--O           -0.530438          2.055544
  27         (A1)--O          -0.507586          1.988441
  28         (E)--O           -0.483593          2.175851
  29         (E)--O           -0.483593          2.175851
  30         (E)--O           -0.476364          2.276272
  31         (E)--O           -0.476364          2.276272
  32         (A2)--O          -0.469857          2.323061
  33         (A1)--V          -0.084054          1.322700
  34         (E)--V            0.102161          0.967721
  35         (E)--V            0.102161          0.967721
  36         (A1)--V           0.119939          1.714040
  37         (A1)--V           0.229745          1.027535
  38         (A1)--V           0.301490          1.425860
  39         (E)--V            0.315621          1.760264
  40         (E)--V            0.315621          1.760264
  41         (E)--V            0.734319          3.321062
  42         (E)--V            0.734319          3.321062
  43         (A1)--V           0.760914          3.337407
  44         (E)--V            0.766303          3.434834
  45         (E)--V            0.766303          3.434834
  46         (A1)--V           0.834651          3.587024
  47         (A2)--V           0.864610          3.576286
  48         (E)--V            0.897401          3.553341
  49         (E)--V            0.897401          3.553341
  50         (E)--V            0.930732          3.784360
  51         (E)--V            0.930732          3.784360
  52         (A1)--V           1.078375          3.579798
 Total kinetic energy from orbitals= 1.610825489210D+03
 1\1\GINC-IISERK51\SP\RHF\3-21G\Al1Cl3\GAUSSIAN\13-Jun-2025\0\\# hf/3-2
 1g pop=full geom=connectivity\\Title Card Required\\0,1\Al,0,0.,0.,0.\
 Cl,0,-1.290854,-1.290854,1.290854\Cl,0,1.290854,-1.290854,-1.290854\Cl
 ,0,-1.290854,1.290854,-1.290854\\Version=EM64L-G16RevB.01\State=1-A1\H
 F=-1612.6624277\RMSD=6.480e-09\Dipole=1.1195647,1.1195647,1.1195647\Qu
 adrupole=0.,0.,0.,4.3068023,4.3068023,4.3068023\PG=C03V [C3(Al1),3SGV(
 Cl1)]\\@


 In the race for quality, there is no finish line.
                               -- David T. Kearns
 Job cpu time:       0 days  0 hours  0 minutes  0.4 seconds.
 Elapsed time:       0 days  0 hours  0 minutes  0.4 seconds.
 File lengths (MBytes):  RWF=      6 Int=      0 D2E=      0 Chk=      1 Scr=      1
 Normal termination of Gaussian 16 at Fri Jun 13 21:25:01 2025.
