 Entering Gaussian System, Link 0=g16
 Input=/home/gaussian/Documents/Summer_Internship/Acid_Base_adduct/Base/3,5-dimethpyridine/35DMP_opt.com
 Output=/home/gaussian/Documents/Summer_Internship/Acid_Base_adduct/Base/3,5-dimethpyridine/35DMP_opt.log
 Initial command:
 /usr/local/g16/l1.exe "/home/gaussian/tmp/Gau-74620.inp" -scrdir="/home/gaussian/tmp/"
 Entering Link 1 = /usr/local/g16/l1.exe PID=     74623.
  
 Copyright (c) 1988-2017, Gaussian, Inc.  All Rights Reserved.
  
 This is part of the Gaussian(R) 16 program.  It is based on
 the Gaussian(R) 09 system (copyright 2009, Gaussian, Inc.),
 the Gaussian(R) 03 system (copyright 2003, Gaussian, Inc.),
 the Gaussian(R) 98 system (copyright 1998, Gaussian, Inc.),
 the Gaussian(R) 94 system (copyright 1995, Gaussian, Inc.),
 the Gaussian 92(TM) system (copyright 1992, Gaussian, Inc.),
 the Gaussian 90(TM) system (copyright 1990, Gaussian, Inc.),
 the Gaussian 88(TM) system (copyright 1988, Gaussian, Inc.),
 the Gaussian 86(TM) system (copyright 1986, Carnegie Mellon
 University), and the Gaussian 82(TM) system (copyright 1983,
 Carnegie Mellon University). Gaussian is a federally registered
 trademark of Gaussian, Inc.
  
 This software contains proprietary and confidential information,
 including trade secrets, belonging to Gaussian, Inc.
  
 This software is provided under written license and may be
 used, copied, transmitted, or stored only in accord with that
 written license.
  
 The following legend is applicable only to US Government
 contracts under FAR:
  
                    RESTRICTED RIGHTS LEGEND
  
 Use, reproduction and disclosure by the US Government is
 subject to restrictions as set forth in subparagraphs (a)
 and (c) of the Commercial Computer Software - Restricted
 Rights clause in FAR 52.227-19.
  
 Gaussian, Inc.
 340 Quinnipiac St., Bldg. 40, Wallingford CT 06492
  
  
 ---------------------------------------------------------------
 Warning -- This program may not be used in any manner that
 competes with the business of Gaussian, Inc. or will provide
 assistance to any competitor of Gaussian, Inc.  The licensee
 of this program is prohibited from giving any competitor of
 Gaussian, Inc. access to this program.  By using this program,
 the user acknowledges that Gaussian, Inc. is engaged in the
 business of creating and licensing software in the field of
 computational chemistry and represents and warrants to the
 licensee that it is not a competitor of Gaussian, Inc. and that
 it will not use this program in any manner prohibited above.
 ---------------------------------------------------------------
  

 Cite this work as:
 Gaussian 16, Revision B.01,
 M. J. Frisch, G. W. Trucks, H. B. Schlegel, G. E. Scuseria, 
 M. A. Robb, J. R. Cheeseman, G. Scalmani, V. Barone, 
 G. A. Petersson, H. Nakatsuji, X. Li, M. Caricato, A. V. Marenich, 
 J. Bloino, B. G. Janesko, R. Gomperts, B. Mennucci, H. P. Hratchian, 
 J. V. Ortiz, A. F. Izmaylov, J. L. Sonnenberg, D. Williams-Young, 
 F. Ding, F. Lipparini, F. Egidi, J. Goings, B. Peng, A. Petrone, 
 T. Henderson, D. Ranasinghe, V. G. Zakrzewski, J. Gao, N. Rega, 
 G. Zheng, W. Liang, M. Hada, M. Ehara, K. Toyota, R. Fukuda, 
 J. Hasegawa, M. Ishida, T. Nakajima, Y. Honda, O. Kitao, H. Nakai, 
 T. Vreven, K. Throssell, J. A. Montgomery, Jr., J. E. Peralta, 
 F. Ogliaro, M. J. Bearpark, J. J. Heyd, E. N. Brothers, K. N. Kudin, 
 V. N. Staroverov, T. A. Keith, R. Kobayashi, J. Normand, 
 K. Raghavachari, A. P. Rendell, J. C. Burant, S. S. Iyengar, 
 J. Tomasi, M. Cossi, J. M. Millam, M. Klene, C. Adamo, R. Cammi, 
 J. W. Ochterski, R. L. Martin, K. Morokuma, O. Farkas, 
 J. B. Foresman, and D. J. Fox, Gaussian, Inc., Wallingford CT, 2016.
 
 ******************************************
 Gaussian 16:  EM64L-G16RevB.01 20-Dec-2017
                16-Jun-2025 
 ******************************************
 %chk=35DMP_opt.chk
 ----------------------------------------------
 # opt freq hf/3-21g pop=full geom=connectivity
 ----------------------------------------------
 1/18=20,19=15,38=1,57=2/1,3;
 2/9=110,12=2,17=6,18=5,40=1/2;
 3/5=5,11=9,25=1,30=1,71=1/1,2,3;
 4//1;
 5/5=2,38=5/2;
 6/7=3,28=1/1;
 7//1,2,3,16;
 1/18=20,19=15/3(2);
 2/9=110/2;
 99//99;
 2/9=110/2;
 3/5=5,11=9,25=1,30=1,71=1/1,2,3;
 4/5=5,16=3,69=1/1;
 5/5=2,38=5/2;
 7//1,2,3,16;
 1/18=20,19=15/3(-5);
 2/9=110/2;
 6/7=3,19=2,28=1/1;
 99/9=1/99;
 ----------
 35 DMP opt
 ----------
 Symbolic Z-matrix:
 Charge =  0 Multiplicity = 1
 C                    -1.14571  -1.13114   0.00004 
 C                    -1.20401   0.25296   0.00003 
 C                     0.        0.93934   0. 
 C                     1.20401   0.25296  -0.00003 
 C                     1.14571  -1.13114  -0.00004 
 N                     0.       -1.80301   0. 
 H                     0.        2.01378   0. 
 H                    -2.04599  -1.71199   0.00006 
 H                     2.04599  -1.71199  -0.00006 
 C                     2.52638   0.98916   0.00002 
 H                     2.61584   1.61863   0.87897 
 H                     3.35599   0.29312  -0.00082 
 H                     2.61519   1.61999  -0.87801 
 C                    -2.52638   0.98916  -0.00002 
 H                    -2.61519   1.61999   0.87801 
 H                    -2.61584   1.61863  -0.87897 
 H                    -3.35599   0.29312   0.00082 
 

 GradGradGradGradGradGradGradGradGradGradGradGradGradGradGradGradGradGrad
 Berny optimization.
 Initialization pass.
                           ----------------------------
                           !    Initial Parameters    !
                           ! (Angstroms and Degrees)  !
 --------------------------                            --------------------------
 ! Name  Definition              Value          Derivative Info.                !
 --------------------------------------------------------------------------------
 ! R1    R(1,2)                  1.3853         estimate D2E/DX2                !
 ! R2    R(1,6)                  1.3282         estimate D2E/DX2                !
 ! R3    R(1,8)                  1.0714         estimate D2E/DX2                !
 ! R4    R(2,3)                  1.3859         estimate D2E/DX2                !
 ! R5    R(2,14)                 1.5135         estimate D2E/DX2                !
 ! R6    R(3,4)                  1.3859         estimate D2E/DX2                !
 ! R7    R(3,7)                  1.0744         estimate D2E/DX2                !
 ! R8    R(4,5)                  1.3853         estimate D2E/DX2                !
 ! R9    R(4,10)                 1.5135         estimate D2E/DX2                !
 ! R10   R(5,6)                  1.3282         estimate D2E/DX2                !
 ! R11   R(5,9)                  1.0714         estimate D2E/DX2                !
 ! R12   R(10,11)                1.0848         estimate D2E/DX2                !
 ! R13   R(10,12)                1.0829         estimate D2E/DX2                !
 ! R14   R(10,13)                1.0848         estimate D2E/DX2                !
 ! R15   R(14,15)                1.0848         estimate D2E/DX2                !
 ! R16   R(14,16)                1.0848         estimate D2E/DX2                !
 ! R17   R(14,17)                1.0829         estimate D2E/DX2                !
 ! A1    A(2,1,6)              122.8            estimate D2E/DX2                !
 ! A2    A(2,1,8)              120.4177         estimate D2E/DX2                !
 ! A3    A(6,1,8)              116.7823         estimate D2E/DX2                !
 ! A4    A(1,2,3)              117.2749         estimate D2E/DX2                !
 ! A5    A(1,2,14)             121.518          estimate D2E/DX2                !
 ! A6    A(3,2,14)             121.2071         estimate D2E/DX2                !
 ! A7    A(2,3,4)              120.6264         estimate D2E/DX2                !
 ! A8    A(2,3,7)              119.6868         estimate D2E/DX2                !
 ! A9    A(4,3,7)              119.6868         estimate D2E/DX2                !
 ! A10   A(3,4,5)              117.2749         estimate D2E/DX2                !
 ! A11   A(3,4,10)             121.2071         estimate D2E/DX2                !
 ! A12   A(5,4,10)             121.518          estimate D2E/DX2                !
 ! A13   A(4,5,6)              122.8            estimate D2E/DX2                !
 ! A14   A(4,5,9)              120.4177         estimate D2E/DX2                !
 ! A15   A(6,5,9)              116.7823         estimate D2E/DX2                !
 ! A16   A(1,6,5)              119.2239         estimate D2E/DX2                !
 ! A17   A(4,10,11)            110.7529         estimate D2E/DX2                !
 ! A18   A(4,10,12)            110.8974         estimate D2E/DX2                !
 ! A19   A(4,10,13)            110.7549         estimate D2E/DX2                !
 ! A20   A(11,10,12)           108.0838         estimate D2E/DX2                !
 ! A21   A(11,10,13)           108.1572         estimate D2E/DX2                !
 ! A22   A(12,10,13)           108.0847         estimate D2E/DX2                !
 ! A23   A(2,14,15)            110.7549         estimate D2E/DX2                !
 ! A24   A(2,14,16)            110.7529         estimate D2E/DX2                !
 ! A25   A(2,14,17)            110.8974         estimate D2E/DX2                !
 ! A26   A(15,14,16)           108.1572         estimate D2E/DX2                !
 ! A27   A(15,14,17)           108.0846         estimate D2E/DX2                !
 ! A28   A(16,14,17)           108.0838         estimate D2E/DX2                !
 ! D1    D(6,1,2,3)             -0.0008         estimate D2E/DX2                !
 ! D2    D(6,1,2,14)           179.9956         estimate D2E/DX2                !
 ! D3    D(8,1,2,3)           -179.9999         estimate D2E/DX2                !
 ! D4    D(8,1,2,14)            -0.0035         estimate D2E/DX2                !
 ! D5    D(2,1,6,5)              0.0004         estimate D2E/DX2                !
 ! D6    D(8,1,6,5)            179.9995         estimate D2E/DX2                !
 ! D7    D(1,2,3,4)              0.0004         estimate D2E/DX2                !
 ! D8    D(1,2,3,7)           -179.9996         estimate D2E/DX2                !
 ! D9    D(14,2,3,4)          -179.996          estimate D2E/DX2                !
 ! D10   D(14,2,3,7)             0.004          estimate D2E/DX2                !
 ! D11   D(1,2,14,15)          120.0511         estimate D2E/DX2                !
 ! D12   D(1,2,14,16)         -119.9506         estimate D2E/DX2                !
 ! D13   D(1,2,14,17)            0.0491         estimate D2E/DX2                !
 ! D14   D(3,2,14,15)          -59.9526         estimate D2E/DX2                !
 ! D15   D(3,2,14,16)           60.0456         estimate D2E/DX2                !
 ! D16   D(3,2,14,17)         -179.9547         estimate D2E/DX2                !
 ! D17   D(2,3,4,5)              0.0004         estimate D2E/DX2                !
 ! D18   D(2,3,4,10)          -179.996          estimate D2E/DX2                !
 ! D19   D(7,3,4,5)           -179.9996         estimate D2E/DX2                !
 ! D20   D(7,3,4,10)             0.004          estimate D2E/DX2                !
 ! D21   D(3,4,5,6)             -0.0008         estimate D2E/DX2                !
 ! D22   D(3,4,5,9)           -179.9999         estimate D2E/DX2                !
 ! D23   D(10,4,5,6)           179.9956         estimate D2E/DX2                !
 ! D24   D(10,4,5,9)            -0.0035         estimate D2E/DX2                !
 ! D25   D(3,4,10,11)           60.0456         estimate D2E/DX2                !
 ! D26   D(3,4,10,12)         -179.9548         estimate D2E/DX2                !
 ! D27   D(3,4,10,13)          -59.9527         estimate D2E/DX2                !
 ! D28   D(5,4,10,11)         -119.9507         estimate D2E/DX2                !
 ! D29   D(5,4,10,12)            0.049          estimate D2E/DX2                !
 ! D30   D(5,4,10,13)          120.051          estimate D2E/DX2                !
 ! D31   D(4,5,6,1)              0.0004         estimate D2E/DX2                !
 ! D32   D(9,5,6,1)            179.9995         estimate D2E/DX2                !
 --------------------------------------------------------------------------------
 Trust Radius=3.00D-01 FncErr=1.00D-07 GrdErr=1.00D-07 EigMax=2.50D+02 EigMin=1.00D-04
 Number of steps in this run=     87 maximum allowed number of steps=    102.
 GradGradGradGradGradGradGradGradGradGradGradGradGradGradGradGradGradGrad

                          Input orientation:                          
 ---------------------------------------------------------------------
 Center     Atomic      Atomic             Coordinates (Angstroms)
 Number     Number       Type             X           Y           Z
 ---------------------------------------------------------------------
      1          6           0       -1.145710   -1.131144    0.000039
      2          6           0       -1.204009    0.252957    0.000033
      3          6           0        0.000000    0.939344    0.000000
      4          6           0        1.204009    0.252957   -0.000033
      5          6           0        1.145710   -1.131144   -0.000039
      6          7           0        0.000000   -1.803007    0.000000
      7          1           0        0.000000    2.013782    0.000000
      8          1           0       -2.045988   -1.711992    0.000062
      9          1           0        2.045988   -1.711992   -0.000062
     10          6           0        2.526379    0.989162    0.000020
     11          1           0        2.615840    1.618631    0.878968
     12          1           0        3.355987    0.293123   -0.000815
     13          1           0        2.615192    1.619986   -0.878010
     14          6           0       -2.526379    0.989162   -0.000020
     15          1           0       -2.615192    1.619987    0.878009
     16          1           0       -2.615840    1.618630   -0.878968
     17          1           0       -3.355987    0.293123    0.000816
 ---------------------------------------------------------------------
                    Distance matrix (angstroms):
                    1          2          3          4          5
     1  C    0.000000
     2  C    1.385328   0.000000
     3  C    2.366341   1.385917   0.000000
     4  C    2.727071   2.408018   1.385917   0.000000
     5  C    2.291420   2.727071   2.366341   1.385328   0.000000
     6  N    1.328176   2.382567   2.742351   2.382567   1.328176
     7  H    3.347120   2.133106   1.074438   2.133106   3.347120
     8  H    1.071394   2.137745   3.348977   3.797829   3.244121
     9  H    3.244121   3.797829   3.348977   2.137745   1.071394
    10  C    4.240275   3.802340   2.526870   1.513493   2.530206
    11  H    4.741628   4.150764   2.841942   2.151970   3.239629
    12  H    4.721632   4.560173   3.417638   2.152353   2.629422
    13  H    4.741737   4.150425   2.841374   2.151987   3.240205
    14  C    2.530206   1.513493   2.526870   3.802340   4.240275
    15  H    3.240205   2.151988   2.841374   4.150425   4.741737
    16  H    3.239628   2.151969   2.841942   4.150763   4.741628
    17  H    2.629422   2.152353   3.417638   4.560173   4.721632
                    6          7          8          9         10
     6  N    0.000000
     7  H    3.816789   0.000000
     8  H    2.048011   4.250583   0.000000
     9  H    2.048011   4.250583   4.091976   0.000000
    10  C    3.765475   2.726250   5.310628   2.743539   0.000000
    11  H    4.395772   2.787714   5.796392   3.491486   1.084797
    12  H    3.956818   3.771381   5.762102   2.395117   1.082922
    13  H    4.396250   2.786612   5.796524   3.492401   1.084787
    14  C    3.765475   2.726250   2.743539   5.310628   5.052758
    15  H    4.396250   2.786611   3.492401   5.796524   5.254004
    16  H    4.395771   2.787714   3.491485   5.796392   5.254642
    17  H    3.956818   3.771381   2.395117   5.762102   5.923403
                   11         12         13         14         15
    11  H    0.000000
    12  H    1.754653   0.000000
    13  H    1.756979   1.754655   0.000000
    14  C    5.254642   5.923403   5.254004   0.000000
    15  H    5.231032   6.179634   5.517293   1.084787   0.000000
    16  H    5.519132   6.179874   5.231032   1.084796   1.756978
    17  H    6.179874   6.711974   6.179634   1.082922   1.754655
                   16         17
    16  H    0.000000
    17  H    1.754653   0.000000
 Stoichiometry    C7H9N
 Framework group  C2[C2(HCN),X(C6H8)]
 Deg. of freedom    22
 Full point group                 C2      NOp   2
 Largest Abelian subgroup         C2      NOp   2
 Largest concise Abelian subgroup C2      NOp   2
                         Standard orientation:                         
 ---------------------------------------------------------------------
 Center     Atomic      Atomic             Coordinates (Angstroms)
 Number     Number       Type             X           Y           Z
 ---------------------------------------------------------------------
      1          6           0        0.000048    1.145710    1.131144
      2          6           0        0.000043    1.204009   -0.252957
      3          6           0       -0.000000    0.000000   -0.939344
      4          6           0       -0.000043   -1.204009   -0.252957
      5          6           0       -0.000048   -1.145710    1.131144
      6          7           0        0.000000   -0.000000    1.803007
      7          1           0       -0.000000    0.000000   -2.013782
      8          1           0        0.000078    2.045988    1.711992
      9          1           0       -0.000078   -2.045988    1.711992
     10          6           0        0.000000   -2.526379   -0.989162
     11          1           0        0.878947   -2.615847   -1.618631
     12          1           0       -0.000842   -3.355987   -0.293123
     13          1           0       -0.878031   -2.615185   -1.619986
     14          6           0        0.000000    2.526379   -0.989162
     15          1           0        0.878031    2.615185   -1.619986
     16          1           0       -0.878947    2.615847   -1.618631
     17          1           0        0.000842    3.355987   -0.293123
 ---------------------------------------------------------------------
 Rotational constants (GHZ):           3.7327254           1.7965501           1.2312070
 Standard basis: 3-21G (6D, 7F)
 There are    47 symmetry adapted cartesian basis functions of A   symmetry.
 There are    43 symmetry adapted cartesian basis functions of B   symmetry.
 There are    47 symmetry adapted basis functions of A   symmetry.
 There are    43 symmetry adapted basis functions of B   symmetry.
    90 basis functions,   147 primitive gaussians,    90 cartesian basis functions
    29 alpha electrons       29 beta electrons
       nuclear repulsion energy       346.0250536810 Hartrees.
 NAtoms=   17 NActive=   17 NUniq=   10 SFac= 2.89D+00 NAtFMM=   60 NAOKFM=F Big=F
 Integral buffers will be    131072 words long.
 Raffenetti 1 integral format.
 Two-electron integral symmetry is turned on.
 One-electron integrals computed using PRISM.
 NBasis=    90 RedAO= T EigKep=  2.34D-03  NBF=    47    43
 NBsUse=    90 1.00D-06 EigRej= -1.00D+00 NBFU=    47    43
 ExpMin= 1.83D-01 ExpMax= 2.43D+02 ExpMxC= 2.43D+02 IAcc=3 IRadAn=         5 AccDes= 0.00D+00
 Harris functional with IExCor=  205 and IRadAn=       5 diagonalized for initial guess.
 HarFok:  IExCor=  205 AccDes= 0.00D+00 IRadAn=         5 IDoV= 1 UseB2=F ITyADJ=14
 ICtDFT=  3500011 ScaDFX=  1.000000  1.000000  1.000000  1.000000
 FoFCou: FMM=F IPFlag=           0 FMFlag=      100000 FMFlg1=           0
         NFxFlg=           0 DoJE=T BraDBF=F KetDBF=T FulRan=T
         wScrn=  0.000000 ICntrl=       500 IOpCl=  0 I1Cent=   200000004 NGrid=           0
         NMat0=    1 NMatS0=      1 NMatT0=    0 NMatD0=    1 NMtDS0=    0 NMtDT0=    0
 Petite list used in FoFCou.
 Initial guess orbital symmetries:
       Occupied  (A) (B) (A) (A) (B) (A) (B) (A) (A) (A) (B) (A)
                 (B) (A) (B) (B) (A) (A) (B) (B) (A) (A) (A) (B)
                 (B) (B) (B) (A) (A)
       Virtual   (B) (A) (B) (A) (B) (A) (B) (A) (B) (A) (A) (B)
                 (B) (A) (A) (B) (B) (A) (B) (A) (B) (B) (A) (B)
                 (A) (A) (A) (B) (B) (B) (A) (A) (B) (A) (A) (A)
                 (B) (B) (B) (B) (A) (A) (A) (B) (A) (B) (B) (A)
                 (B) (A) (A) (B) (A) (B) (A) (B) (A) (B) (B) (A)
                 (A)
 The electronic state of the initial guess is 1-A.
 Keep R1 ints in memory in symmetry-blocked form, NReq=12591722.
 Requested convergence on RMS density matrix=1.00D-08 within 128 cycles.
 Requested convergence on MAX density matrix=1.00D-06.
 Requested convergence on             energy=1.00D-06.
 No special actions if energy rises.
 SCF Done:  E(RHF) =  -322.955314136     A.U. after   12 cycles
            NFock= 12  Conv=0.43D-08     -V/T= 2.0018

 **********************************************************************

            Population analysis using the SCF Density.

 **********************************************************************

 Orbital symmetries:
       Occupied  (A) (B) (A) (B) (A) (A) (B) (A) (A) (A) (B) (A)
                 (B) (A) (B) (A) (B) (A) (B) (A) (B) (A) (A) (B)
                 (B) (B) (A) (B) (A)
       Virtual   (B) (A) (A) (B) (A) (B) (B) (A) (A) (B) (A) (B)
                 (A) (B) (A) (B) (B) (A) (B) (A) (B) (B) (A) (A)
                 (A) (B) (B) (A) (B) (A) (B) (A) (B) (A) (A) (B)
                 (A) (B) (A) (B) (B) (A) (B) (A) (A) (B) (A) (B)
                 (A) (B) (A) (B) (A) (B) (A) (B) (A) (B) (B) (A)
                 (A)
 The electronic state is 1-A.
 Alpha  occ. eigenvalues --  -15.48594 -11.20575 -11.20528 -11.19329 -11.19322
 Alpha  occ. eigenvalues --  -11.18800 -11.17156 -11.17149  -1.26954  -1.10775
 Alpha  occ. eigenvalues --   -1.07286  -0.95802  -0.95165  -0.85243  -0.80942
 Alpha  occ. eigenvalues --   -0.71044  -0.68545  -0.59846  -0.59796  -0.57962
 Alpha  occ. eigenvalues --   -0.57953  -0.57171  -0.55464  -0.54353  -0.51814
 Alpha  occ. eigenvalues --   -0.49756  -0.39197  -0.36868  -0.33549
 Alpha virt. eigenvalues --    0.13083   0.15043   0.27047   0.29046   0.31192
 Alpha virt. eigenvalues --    0.31966   0.31984   0.32160   0.35155   0.36069
 Alpha virt. eigenvalues --    0.36295   0.41929   0.44646   0.45388   0.48069
 Alpha virt. eigenvalues --    0.53298   0.60718   0.61640   0.67357   0.75536
 Alpha virt. eigenvalues --    0.91922   0.92744   0.94486   0.94844   0.95696
 Alpha virt. eigenvalues --    0.99099   1.01658   1.03493   1.05367   1.08663
 Alpha virt. eigenvalues --    1.09328   1.12611   1.16716   1.17621   1.19576
 Alpha virt. eigenvalues --    1.20161   1.21585   1.21691   1.33945   1.34294
 Alpha virt. eigenvalues --    1.34471   1.34777   1.36092   1.36683   1.42152
 Alpha virt. eigenvalues --    1.44668   1.56137   1.56141   1.61343   1.62319
 Alpha virt. eigenvalues --    1.68060   1.74830   1.78370   1.85018   1.92657
 Alpha virt. eigenvalues --    1.96963   2.16771   2.26161   2.28948   2.31821
 Alpha virt. eigenvalues --    3.29445
     Molecular Orbital Coefficients:
                           1         2         3         4         5
                           O         O         O         O         O
     Eigenvalues --   -15.48594 -11.20575 -11.20528 -11.19329 -11.19322
   1 1   C  1S         -0.00023   0.69803   0.69743   0.00656   0.00681
   2        2S         -0.00106   0.07051   0.06671  -0.00183  -0.00189
   3        2PX        -0.00000  -0.00000  -0.00000  -0.00000  -0.00000
   4        2PY        -0.00105  -0.00203   0.00016  -0.00004  -0.00008
   5        2PZ         0.00082  -0.00057  -0.00004   0.00085   0.00121
   6        3S          0.03784  -0.05438  -0.03711   0.01848   0.02630
   7        3PX        -0.00000   0.00000  -0.00000   0.00000  -0.00000
   8        3PY        -0.03104   0.00571  -0.01043  -0.00193  -0.00593
   9        3PZ        -0.00578   0.01964   0.00252  -0.00955  -0.01426
  10 2   C  1S          0.00055  -0.00697  -0.00739   0.69811   0.69754
  11        2S          0.00243  -0.00324  -0.00212   0.07095   0.07143
  12        2PX        -0.00000  -0.00000  -0.00000  -0.00000  -0.00000
  13        2PY        -0.00125  -0.00015  -0.00038  -0.00087  -0.00009
  14        2PZ        -0.00008  -0.00130  -0.00150   0.00011   0.00044
  15        3S         -0.02896   0.02238   0.00413  -0.06049  -0.07493
  16        3PX         0.00000   0.00000   0.00000  -0.00000   0.00000
  17        3PY         0.03138  -0.00081   0.01129   0.00529   0.01301
  18        3PZ        -0.01122   0.02157   0.00753  -0.00251  -0.00734
  19 3   C  1S         -0.00044   0.00000  -0.01215   0.00000  -0.04638
  20        2S         -0.00204   0.00000  -0.00359   0.00000  -0.01025
  21        2PX         0.00000  -0.00000   0.00000  -0.00000   0.00000
  22        2PY         0.00000  -0.00110   0.00000  -0.00190   0.00000
  23        2PZ         0.00011   0.00000  -0.00097   0.00000  -0.00137
  24        3S          0.03957   0.00000   0.01886   0.00000   0.05105
  25        3PX         0.00000   0.00000   0.00000   0.00000   0.00000
  26        3PY         0.00000   0.00878   0.00000   0.01734   0.00000
  27        3PZ         0.02385   0.00000   0.01073   0.00000   0.02111
  28 4   C  1S          0.00055   0.00697  -0.00739  -0.69811   0.69754
  29        2S          0.00243   0.00324  -0.00212  -0.07095   0.07143
  30        2PX         0.00000  -0.00000   0.00000  -0.00000   0.00000
  31        2PY         0.00125  -0.00015   0.00038  -0.00087   0.00009
  32        2PZ        -0.00008   0.00130  -0.00150  -0.00011   0.00044
  33        3S         -0.02896  -0.02238   0.00413   0.06049  -0.07493
  34        3PX        -0.00000   0.00000  -0.00000  -0.00000  -0.00000
  35        3PY        -0.03138  -0.00081  -0.01129   0.00529  -0.01301
  36        3PZ        -0.01122  -0.02157   0.00753   0.00251  -0.00734
  37 5   C  1S         -0.00023  -0.69803   0.69743  -0.00656   0.00681
  38        2S         -0.00106  -0.07051   0.06671   0.00183  -0.00189
  39        2PX         0.00000  -0.00000   0.00000  -0.00000   0.00000
  40        2PY         0.00105  -0.00203  -0.00016  -0.00004   0.00008
  41        2PZ         0.00082   0.00057  -0.00004  -0.00085   0.00121
  42        3S          0.03784   0.05438  -0.03711  -0.01848   0.02630
  43        3PX         0.00000   0.00000   0.00000   0.00000   0.00000
  44        3PY         0.03104   0.00571   0.01043  -0.00193   0.00593
  45        3PZ        -0.00578  -0.01964   0.00252   0.00955  -0.01426
  46 6   N  1S          0.98678   0.00000   0.00031   0.00000   0.00025
  47        2S          0.10641   0.00000   0.00142   0.00000   0.00141
  48        2PX         0.00000  -0.00000   0.00000   0.00000   0.00000
  49        2PY         0.00000   0.00005   0.00000  -0.00040   0.00000
  50        2PZ        -0.00539   0.00000   0.00018   0.00000  -0.00006
  51        3S         -0.09372   0.00000  -0.00255   0.00000  -0.00996
  52        3PX         0.00000  -0.00000   0.00000  -0.00000   0.00000
  53        3PY         0.00000  -0.00370   0.00000  -0.00073   0.00000
  54        3PZ         0.02656   0.00000   0.00356   0.00000   0.00626
  55 7   H  1S          0.00070   0.00000   0.00022   0.00000  -0.00054
  56        2S          0.00566   0.00000   0.00363   0.00000   0.00288
  57 8   H  1S          0.00106  -0.00211  -0.00043  -0.00058  -0.00032
  58        2S          0.00767   0.00303   0.01220   0.00103   0.00266
  59 9   H  1S          0.00106   0.00211  -0.00043   0.00058  -0.00032
  60        2S          0.00767  -0.00303   0.01220  -0.00103   0.00266
  61 10  C  1S          0.00011   0.00186  -0.00338   0.00126  -0.00493
  62        2S          0.00029   0.00060  -0.00091   0.00064  -0.00182
  63        2PX        -0.00000   0.00000  -0.00000  -0.00000   0.00000
  64        2PY        -0.00089   0.00013  -0.00059  -0.00007  -0.00040
  65        2PZ        -0.00067   0.00034  -0.00060   0.00050  -0.00036
  66        3S         -0.01319  -0.00242  -0.00297  -0.00740   0.00730
  67        3PX         0.00000  -0.00000   0.00000   0.00000  -0.00000
  68        3PY        -0.00387  -0.00264   0.00004  -0.00345   0.00493
  69        3PZ        -0.00273   0.00142  -0.00156  -0.00499   0.00343
  70 11  H  1S          0.00038   0.00013   0.00001   0.00053  -0.00087
  71        2S          0.00018   0.00027  -0.00007  -0.00184   0.00158
  72 12  H  1S          0.00014   0.00000   0.00006   0.00061  -0.00045
  73        2S          0.00131  -0.00128   0.00068   0.00133  -0.00043
  74 13  H  1S          0.00038   0.00013   0.00001   0.00053  -0.00087
  75        2S          0.00018   0.00027  -0.00007  -0.00183   0.00158
  76 14  C  1S          0.00011  -0.00186  -0.00338  -0.00126  -0.00493
  77        2S          0.00029  -0.00060  -0.00091  -0.00064  -0.00182
  78        2PX         0.00000   0.00000   0.00000  -0.00000  -0.00000
  79        2PY         0.00089   0.00013   0.00059  -0.00007   0.00040
  80        2PZ        -0.00067  -0.00034  -0.00060  -0.00050  -0.00036
  81        3S         -0.01319   0.00242  -0.00297   0.00740   0.00730
  82        3PX        -0.00000  -0.00000  -0.00000   0.00000   0.00000
  83        3PY         0.00387  -0.00264  -0.00004  -0.00345  -0.00493
  84        3PZ        -0.00273  -0.00142  -0.00156   0.00499   0.00343
  85 15  H  1S          0.00038  -0.00013   0.00001  -0.00053  -0.00087
  86        2S          0.00018  -0.00027  -0.00007   0.00183   0.00158
  87 16  H  1S          0.00038  -0.00013   0.00001  -0.00053  -0.00087
  88        2S          0.00018  -0.00027  -0.00007   0.00184   0.00158
  89 17  H  1S          0.00014  -0.00000   0.00006  -0.00061  -0.00045
  90        2S          0.00131   0.00128   0.00068  -0.00133  -0.00043
                           6         7         8         9        10
                           O         O         O         O         O
     Eigenvalues --   -11.18800 -11.17156 -11.17149  -1.26954  -1.10775
   1 1   C  1S          0.00859  -0.00182   0.00341  -0.10141  -0.00837
   2        2S         -0.00029   0.00020  -0.00059   0.11688   0.00550
   3        2PX        -0.00000  -0.00000   0.00000  -0.00000  -0.00000
   4        2PY         0.00039   0.00049  -0.00025  -0.08828  -0.05100
   5        2PZ         0.00114  -0.00023   0.00049   0.01018   0.08331
   6        3S         -0.00501  -0.00122   0.00287   0.08308  -0.00299
   7        3PX         0.00000   0.00000  -0.00000   0.00000   0.00000
   8        3PY         0.00430   0.00225  -0.00154   0.06931   0.02616
   9        3PZ         0.00040   0.00049  -0.00234   0.01602   0.01396
  10 2   C  1S          0.03199  -0.00111   0.00481  -0.05414   0.10721
  11        2S         -0.00066   0.00047  -0.00096   0.05402  -0.11934
  12        2PX         0.00000   0.00000  -0.00000  -0.00000   0.00000
  13        2PY         0.00196   0.00098  -0.00032  -0.02463   0.04153
  14        2PZ         0.00029  -0.00009   0.00019   0.03113   0.03183
  15        3S          0.03023  -0.00927   0.01131   0.15515  -0.19355
  16        3PX        -0.00000  -0.00000  -0.00000  -0.00000   0.00000
  17        3PY        -0.02724  -0.01625   0.01041  -0.08971  -0.03467
  18        3PZ        -0.00136   0.00379  -0.00650   0.03263   0.01121
  19 3   C  1S          0.98616   0.00000   0.00781  -0.04125   0.13350
  20        2S          0.09972   0.00000  -0.00011   0.05264  -0.14476
  21        2PX         0.00000  -0.00000   0.00000   0.00000   0.00000
  22        2PY         0.00000   0.00120   0.00000   0.00000   0.00000
  23        2PZ         0.00129   0.00000   0.00031   0.03266  -0.04801
  24        3S         -0.09687   0.00000   0.00225  -0.03421  -0.32027
  25        3PX         0.00000   0.00000   0.00000   0.00000   0.00000
  26        3PY         0.00000  -0.00751   0.00000   0.00000   0.00000
  27        3PZ        -0.02607   0.00000   0.00320  -0.05318  -0.04821
  28 4   C  1S          0.03199   0.00111   0.00481  -0.05414   0.10721
  29        2S         -0.00066  -0.00047  -0.00096   0.05402  -0.11934
  30        2PX        -0.00000   0.00000   0.00000   0.00000  -0.00000
  31        2PY        -0.00196   0.00098   0.00032   0.02463  -0.04153
  32        2PZ         0.00029   0.00009   0.00019   0.03113   0.03183
  33        3S          0.03023   0.00927   0.01131   0.15515  -0.19355
  34        3PX         0.00000  -0.00000   0.00000   0.00000  -0.00000
  35        3PY         0.02724  -0.01625  -0.01041   0.08971   0.03467
  36        3PZ        -0.00136  -0.00379  -0.00650   0.03263   0.01121
  37 5   C  1S          0.00859   0.00182   0.00341  -0.10141  -0.00837
  38        2S         -0.00029  -0.00020  -0.00059   0.11688   0.00550
  39        2PX         0.00000  -0.00000  -0.00000   0.00000   0.00000
  40        2PY        -0.00039   0.00049   0.00025   0.08828   0.05100
  41        2PZ         0.00114   0.00023   0.00049   0.01018   0.08331
  42        3S         -0.00501   0.00122   0.00287   0.08308  -0.00299
  43        3PX        -0.00000   0.00000   0.00000  -0.00000  -0.00000
  44        3PY        -0.00430   0.00225   0.00154  -0.06931  -0.02616
  45        3PZ         0.00040  -0.00049  -0.00234   0.01602   0.01396
  46 6   N  1S         -0.00009   0.00000  -0.00002  -0.17229  -0.09738
  47        2S         -0.00075   0.00000  -0.00036   0.14737   0.08482
  48        2PX         0.00000   0.00000   0.00000   0.00000   0.00000
  49        2PY         0.00000   0.00017   0.00000   0.00000   0.00000
  50        2PZ         0.00006   0.00000   0.00013  -0.09987  -0.02972
  51        3S          0.00562   0.00000  -0.00008   0.57215   0.34153
  52        3PX         0.00000  -0.00000   0.00000   0.00000   0.00000
  53        3PY         0.00000   0.00026   0.00000   0.00000   0.00000
  54        3PZ        -0.00112   0.00000   0.00014  -0.13788  -0.05697
  55 7   H  1S         -0.00245   0.00000  -0.00019   0.01038  -0.06068
  56        2S          0.00575   0.00000   0.00176  -0.01840  -0.01381
  57 8   H  1S         -0.00036  -0.00026   0.00011   0.02534   0.00148
  58        2S          0.00009  -0.00010   0.00052  -0.02988  -0.00796
  59 9   H  1S         -0.00036   0.00026   0.00011   0.02534   0.00148
  60        2S          0.00009   0.00010   0.00052  -0.02988  -0.00796
  61 10  C  1S         -0.00595   0.69836   0.69823  -0.01101   0.05940
  62        2S         -0.00154   0.07264   0.07206   0.01038  -0.05979
  63        2PX         0.00000   0.00000   0.00000   0.00000   0.00000
  64        2PY        -0.00019   0.00005  -0.00007   0.01023  -0.03037
  65        2PZ         0.00002  -0.00014  -0.00006   0.00755  -0.01148
  66        3S          0.00853  -0.06256  -0.05974   0.05624  -0.12849
  67        3PX        -0.00000  -0.00000  -0.00000  -0.00000  -0.00001
  68        3PY         0.00272  -0.00479  -0.00363   0.01035   0.00318
  69        3PZ         0.00419  -0.00300  -0.00187   0.00519   0.00685
  70 11  H  1S         -0.00024   0.00034   0.00018   0.00305  -0.02831
  71        2S          0.00042   0.01023   0.01030  -0.00359   0.00476
  72 12  H  1S         -0.00055   0.00032   0.00013   0.00439  -0.02546
  73        2S         -0.00030   0.01031   0.01031  -0.00402   0.00154
  74 13  H  1S         -0.00024   0.00034   0.00018   0.00305  -0.02832
  75        2S          0.00042   0.01023   0.01030  -0.00359   0.00475
  76 14  C  1S         -0.00595  -0.69836   0.69823  -0.01101   0.05940
  77        2S         -0.00154  -0.07264   0.07206   0.01038  -0.05979
  78        2PX        -0.00000   0.00000  -0.00000  -0.00000  -0.00000
  79        2PY         0.00019   0.00005   0.00007  -0.01023   0.03037
  80        2PZ         0.00002   0.00014  -0.00006   0.00755  -0.01148
  81        3S          0.00853   0.06256  -0.05974   0.05624  -0.12849
  82        3PX         0.00000  -0.00000   0.00000   0.00000   0.00001
  83        3PY        -0.00272  -0.00479   0.00363  -0.01035  -0.00318
  84        3PZ         0.00419   0.00300  -0.00187   0.00519   0.00685
  85 15  H  1S         -0.00024  -0.00034   0.00018   0.00305  -0.02832
  86        2S          0.00042  -0.01023   0.01030  -0.00359   0.00475
  87 16  H  1S         -0.00024  -0.00034   0.00018   0.00305  -0.02831
  88        2S          0.00042  -0.01023   0.01030  -0.00359   0.00476
  89 17  H  1S         -0.00055  -0.00032   0.00013   0.00439  -0.02546
  90        2S         -0.00030  -0.01031   0.01031  -0.00402   0.00154
                          11        12        13        14        15
                           O         O         O         O         O
     Eigenvalues --    -1.07286  -0.95802  -0.95165  -0.85243  -0.80942
   1 1   C  1S         -0.08840  -0.00949  -0.11167   0.07394   0.04971
   2        2S          0.09769   0.01034   0.12038  -0.08342  -0.05126
   3        2PX        -0.00000  -0.00000  -0.00000  -0.00000   0.00000
   4        2PY         0.00524   0.01937  -0.02194  -0.10099   0.01957
   5        2PZ        -0.04727   0.02289   0.01436   0.12413  -0.14663
   6        3S          0.18677   0.02157   0.28915  -0.21159  -0.17275
   7        3PX         0.00000   0.00000  -0.00000  -0.00000  -0.00000
   8        3PY         0.00546   0.01882  -0.00392  -0.03378  -0.01051
   9        3PZ        -0.03750   0.01032  -0.04730   0.05349  -0.00886
  10 2   C  1S         -0.11288   0.01059  -0.00900   0.04569  -0.10133
  11        2S          0.12074  -0.01133   0.01193  -0.04872   0.10232
  12        2PX        -0.00000   0.00000   0.00000  -0.00000  -0.00000
  13        2PY         0.02423   0.13403  -0.04629  -0.04673  -0.06709
  14        2PZ         0.02557   0.00011   0.10099  -0.16574  -0.02943
  15        3S          0.24476  -0.02980   0.00166  -0.14121   0.35556
  16        3PX        -0.00000   0.00000   0.00000   0.00000  -0.00000
  17        3PY        -0.02149   0.02322  -0.00279  -0.01319  -0.02675
  18        3PZ        -0.01963   0.00411  -0.00635  -0.06344   0.01509
  19 3   C  1S          0.00000   0.10319   0.00000  -0.09618   0.00000
  20        2S          0.00000  -0.10875   0.00000   0.09852   0.00000
  21        2PX         0.00000   0.00000   0.00000   0.00000   0.00001
  22        2PY         0.09906   0.00000  -0.01250   0.00000   0.20143
  23        2PZ         0.00000  -0.04351   0.00000  -0.07998   0.00000
  24        3S          0.00000  -0.27389   0.00000   0.30365   0.00000
  25        3PX         0.00000   0.00000  -0.00000   0.00000   0.00000
  26        3PY        -0.02538   0.00000  -0.01664   0.00000   0.08020
  27        3PZ         0.00000  -0.03270   0.00000  -0.02433   0.00000
  28 4   C  1S          0.11288   0.01059   0.00900   0.04569   0.10133
  29        2S         -0.12074  -0.01133  -0.01193  -0.04872  -0.10232
  30        2PX        -0.00000  -0.00000   0.00000   0.00000  -0.00000
  31        2PY         0.02423  -0.13403  -0.04629   0.04673  -0.06709
  32        2PZ        -0.02557   0.00011  -0.10099  -0.16574   0.02943
  33        3S         -0.24476  -0.02980  -0.00166  -0.14121  -0.35556
  34        3PX        -0.00000  -0.00000   0.00000  -0.00000  -0.00000
  35        3PY        -0.02149  -0.02322  -0.00279   0.01319  -0.02675
  36        3PZ         0.01963   0.00411   0.00635  -0.06344  -0.01509
  37 5   C  1S          0.08840  -0.00949   0.11167   0.07394  -0.04971
  38        2S         -0.09769   0.01034  -0.12038  -0.08342   0.05126
  39        2PX        -0.00000   0.00000  -0.00000   0.00000   0.00000
  40        2PY         0.00524  -0.01937  -0.02194   0.10099   0.01957
  41        2PZ         0.04727   0.02289  -0.01436   0.12413   0.14663
  42        3S         -0.18677   0.02157  -0.28915  -0.21159   0.17275
  43        3PX         0.00000  -0.00000  -0.00000   0.00000  -0.00000
  44        3PY         0.00546  -0.01882  -0.00392   0.03378  -0.01051
  45        3PZ         0.03750   0.01032   0.04730   0.05349   0.00886
  46 6   N  1S          0.00000  -0.01965   0.00000  -0.08537   0.00000
  47        2S          0.00000   0.01753   0.00000   0.07891   0.00000
  48        2PX         0.00000   0.00000   0.00001   0.00000  -0.00001
  49        2PY         0.07422   0.00000   0.15799   0.00000  -0.17373
  50        2PZ         0.00000   0.00833   0.00000   0.00657   0.00000
  51        3S          0.00000   0.07180   0.00000   0.32310   0.00000
  52        3PX         0.00000   0.00000   0.00001   0.00000  -0.00001
  53        3PY         0.05475   0.00000   0.11689   0.00000  -0.13968
  54        3PZ         0.00000   0.00008   0.00000  -0.02002   0.00000
  55 7   H  1S          0.00000  -0.04843   0.00000   0.10992   0.00000
  56        2S          0.00000  -0.01341   0.00000   0.05227   0.00000
  57 8   H  1S          0.04452   0.01749   0.06956  -0.06602  -0.06952
  58        2S          0.01178   0.00522   0.02575  -0.02564  -0.04140
  59 9   H  1S         -0.04452   0.01749  -0.06956  -0.06602   0.06952
  60        2S         -0.01178   0.00522  -0.02575  -0.02564   0.04140
  61 10  C  1S          0.08639  -0.12907  -0.10485  -0.03325  -0.05888
  62        2S         -0.08318   0.12172   0.09734   0.03040   0.05382
  63        2PX         0.00000   0.00000   0.00000   0.00000   0.00000
  64        2PY        -0.03088  -0.01208  -0.00418  -0.00848  -0.08549
  65        2PZ        -0.02233   0.00452  -0.01408  -0.04812  -0.02809
  66        3S         -0.23102   0.39735   0.32884   0.11507   0.21401
  67        3PX        -0.00001   0.00000   0.00001   0.00000  -0.00000
  68        3PY        -0.00684   0.00124   0.00950   0.00082  -0.04150
  69        3PZ        -0.00553   0.00435  -0.00575  -0.02508  -0.00503
  70 11  H  1S         -0.03994   0.07400   0.06461   0.03588   0.05089
  71        2S          0.00465   0.00960   0.01029   0.01536   0.02384
  72 12  H  1S         -0.04247   0.08102   0.05771   0.00792   0.06589
  73        2S          0.00058   0.01471   0.01089  -0.00263   0.02658
  74 13  H  1S         -0.03994   0.07399   0.06462   0.03591   0.05088
  75        2S          0.00464   0.00960   0.01030   0.01538   0.02383
  76 14  C  1S         -0.08639  -0.12907   0.10485  -0.03325   0.05888
  77        2S          0.08318   0.12172  -0.09734   0.03040  -0.05382
  78        2PX         0.00000  -0.00000   0.00000  -0.00000   0.00000
  79        2PY        -0.03088   0.01208  -0.00418   0.00848  -0.08549
  80        2PZ         0.02233   0.00452   0.01408  -0.04812   0.02809
  81        3S          0.23102   0.39735  -0.32884   0.11507  -0.21401
  82        3PX        -0.00001  -0.00000   0.00001  -0.00000  -0.00000
  83        3PY        -0.00684  -0.00124   0.00950  -0.00082  -0.04150
  84        3PZ         0.00553   0.00435   0.00575  -0.02508   0.00503
  85 15  H  1S          0.03994   0.07399  -0.06462   0.03591  -0.05088
  86        2S         -0.00464   0.00960  -0.01030   0.01538  -0.02383
  87 16  H  1S          0.03994   0.07400  -0.06461   0.03588  -0.05089
  88        2S         -0.00465   0.00960  -0.01029   0.01536  -0.02384
  89 17  H  1S          0.04247   0.08102  -0.05771   0.00792  -0.06589
  90        2S         -0.00058   0.01471  -0.01089  -0.00263  -0.02658
                          16        17        18        19        20
                           O         O         O         O         O
     Eigenvalues --    -0.71044  -0.68545  -0.59846  -0.59796  -0.57962
   1 1   C  1S          0.04284   0.00216   0.03178   0.00000   0.00000
   2        2S         -0.04118  -0.00341  -0.03359  -0.00000  -0.00000
   3        2PX        -0.00001  -0.00000  -0.00001   0.08946  -0.03388
   4        2PY        -0.16816  -0.14273  -0.06414   0.00003   0.00007
   5        2PZ        -0.11610   0.17140  -0.03402   0.00001   0.00008
   6        3S         -0.17421   0.00512  -0.10490  -0.00000   0.00001
   7        3PX        -0.00001  -0.00000  -0.00001   0.08128  -0.03065
   8        3PY        -0.11640  -0.06405  -0.09091   0.00003   0.00004
   9        3PZ        -0.08339   0.04285  -0.02422   0.00001   0.00008
  10 2   C  1S         -0.01489  -0.00461  -0.05651   0.00000  -0.00000
  11        2S          0.01911   0.00556   0.05444   0.00000  -0.00000
  12        2PX        -0.00000  -0.00000  -0.00002   0.12533  -0.07415
  13        2PY        -0.07110  -0.10714   0.18931  -0.00000  -0.00007
  14        2PZ         0.04661  -0.18653  -0.06378  -0.00002  -0.00005
  15        3S          0.03718   0.00767   0.20942  -0.00003   0.00001
  16        3PX        -0.00000  -0.00000  -0.00001   0.10078  -0.05807
  17        3PY        -0.05020  -0.07294   0.20523  -0.00000  -0.00003
  18        3PZ         0.02915  -0.15244  -0.07144   0.00000  -0.00003
  19 3   C  1S          0.04373   0.00000   0.04916   0.00000  -0.00001
  20        2S         -0.04113   0.00000  -0.05484   0.00000   0.00002
  21        2PX         0.00000   0.00001   0.00000   0.10355   0.00000
  22        2PY         0.00000   0.21507   0.00000   0.00001   0.00000
  23        2PZ         0.18468   0.00000  -0.08412   0.00000   0.00016
  24        3S         -0.17386   0.00000  -0.10771   0.00000   0.00004
  25        3PX         0.00000   0.00000   0.00000   0.09775   0.00000
  26        3PY         0.00000   0.07539   0.00000   0.00004   0.00000
  27        3PZ         0.12766   0.00000  -0.00673   0.00000   0.00015
  28 4   C  1S         -0.01489   0.00461  -0.05651  -0.00000  -0.00000
  29        2S          0.01911  -0.00556   0.05444  -0.00000  -0.00000
  30        2PX         0.00000  -0.00000   0.00002   0.12533   0.07415
  31        2PY         0.07110  -0.10714  -0.18931  -0.00000   0.00007
  32        2PZ         0.04661   0.18653  -0.06378   0.00002  -0.00005
  33        3S          0.03718  -0.00767   0.20942   0.00003   0.00001
  34        3PX         0.00000  -0.00000   0.00001   0.10078   0.05807
  35        3PY         0.05020  -0.07294  -0.20523  -0.00000   0.00003
  36        3PZ         0.02915   0.15244  -0.07144  -0.00000  -0.00003
  37 5   C  1S          0.04284  -0.00216   0.03178  -0.00000   0.00000
  38        2S         -0.04118   0.00341  -0.03359   0.00000  -0.00000
  39        2PX         0.00001  -0.00000   0.00001   0.08946   0.03388
  40        2PY         0.16816  -0.14273   0.06414   0.00003  -0.00007
  41        2PZ        -0.11610  -0.17140  -0.03402  -0.00001   0.00008
  42        3S         -0.17421  -0.00512  -0.10490   0.00000   0.00001
  43        3PX         0.00001  -0.00000   0.00001   0.08128   0.03065
  44        3PY         0.11640  -0.06405   0.09091   0.00003  -0.00004
  45        3PZ        -0.08339  -0.04285  -0.02422  -0.00001   0.00008
  46 6   N  1S          0.00154   0.00000  -0.03900   0.00000  -0.00001
  47        2S         -0.00225   0.00000   0.03976   0.00000   0.00001
  48        2PX         0.00000   0.00001   0.00000   0.08794   0.00000
  49        2PY         0.00000   0.22919   0.00000  -0.00003   0.00000
  50        2PZ        -0.12274   0.00000  -0.00028   0.00000   0.00010
  51        3S          0.00378   0.00000   0.12612   0.00000   0.00001
  52        3PX         0.00000   0.00001   0.00000   0.08494   0.00000
  53        3PY         0.00000   0.19168   0.00000  -0.00002   0.00000
  54        3PZ        -0.09813   0.00000   0.01401   0.00000   0.00009
  55 7   H  1S         -0.14509   0.00000   0.00397   0.00000  -0.00010
  56        2S         -0.08502   0.00000   0.01873   0.00000  -0.00008
  57 8   H  1S         -0.15057  -0.02095  -0.08442   0.00002   0.00006
  58        2S         -0.08000  -0.00788  -0.05186   0.00002   0.00004
  59 9   H  1S         -0.15057   0.02095  -0.08442  -0.00002   0.00006
  60        2S         -0.08000   0.00788  -0.05186  -0.00002   0.00004
  61 10  C  1S         -0.01811  -0.00015   0.00619  -0.00000  -0.00000
  62        2S          0.01371  -0.00011   0.00111   0.00000   0.00000
  63        2PX         0.00001  -0.00000   0.00005   0.21752   0.25925
  64        2PY        -0.04088  -0.05477   0.21067  -0.00000  -0.00000
  65        2PZ        -0.02647   0.09094   0.09669   0.00002  -0.00003
  66        3S          0.07892   0.00468  -0.09226  -0.00000   0.00000
  67        3PX         0.00001  -0.00000   0.00004   0.17500   0.21763
  68        3PY        -0.02467  -0.02945   0.12518  -0.00001  -0.00001
  69        3PZ        -0.01427   0.05828   0.04619   0.00001  -0.00002
  70 11  H  1S          0.02344  -0.03058  -0.05209   0.12179   0.14922
  71        2S          0.01128  -0.02258  -0.05084   0.10387   0.12953
  72 12  H  1S          0.01779   0.06396  -0.07409  -0.00011  -0.00015
  73        2S          0.00339   0.05181  -0.06807  -0.00009  -0.00013
  74 13  H  1S          0.02343  -0.03067  -0.05214  -0.12168  -0.14904
  75        2S          0.01127  -0.02265  -0.05089  -0.10378  -0.12938
  76 14  C  1S         -0.01811   0.00015   0.00619   0.00000  -0.00000
  77        2S          0.01371   0.00011   0.00111  -0.00000   0.00000
  78        2PX        -0.00001  -0.00000  -0.00005   0.21752  -0.25925
  79        2PY         0.04088  -0.05477  -0.21067  -0.00000   0.00000
  80        2PZ        -0.02647  -0.09094   0.09669  -0.00002  -0.00003
  81        3S          0.07892  -0.00468  -0.09226   0.00000   0.00000
  82        3PX        -0.00001  -0.00000  -0.00004   0.17500  -0.21763
  83        3PY         0.02467  -0.02945  -0.12518  -0.00001   0.00001
  84        3PZ        -0.01427  -0.05828   0.04619  -0.00001  -0.00002
  85 15  H  1S          0.02343   0.03067  -0.05214   0.12168  -0.14904
  86        2S          0.01127   0.02265  -0.05089   0.10378  -0.12938
  87 16  H  1S          0.02344   0.03058  -0.05209  -0.12179   0.14922
  88        2S          0.01128   0.02258  -0.05084  -0.10387   0.12953
  89 17  H  1S          0.01779  -0.06396  -0.07409   0.00011  -0.00015
  90        2S          0.00339  -0.05181  -0.06807   0.00009  -0.00013
                          21        22        23        24        25
                           O         O         O         O         O
     Eigenvalues --    -0.57953  -0.57171  -0.55464  -0.54353  -0.51814
   1 1   C  1S          0.01464   0.01028   0.03814  -0.02028  -0.00000
   2        2S         -0.01966  -0.01435  -0.04369   0.02147   0.00000
   3        2PX        -0.00001   0.00002   0.00001  -0.00002   0.17836
   4        2PY         0.20639   0.07311   0.02397   0.09743   0.00001
   5        2PZ         0.14808   0.09492   0.07752  -0.08395   0.00000
   6        3S          0.00135   0.00307  -0.10918   0.06831   0.00001
   7        3PX        -0.00001   0.00001   0.00001  -0.00002   0.18122
   8        3PY         0.17214   0.04473   0.00982   0.06964   0.00001
   9        3PZ         0.11839   0.09230   0.07501  -0.01736   0.00002
  10 2   C  1S          0.00479  -0.02442  -0.01784   0.01048   0.00000
  11        2S         -0.00901   0.02478   0.01887  -0.01140  -0.00000
  12        2PX        -0.00002   0.00003   0.00001  -0.00001   0.09629
  13        2PY         0.10830  -0.05614  -0.03491  -0.02295   0.00001
  14        2PZ        -0.15489  -0.10563  -0.08929   0.09427  -0.00000
  15        3S          0.01416   0.08055   0.05330  -0.03138   0.00003
  16        3PX        -0.00002   0.00003   0.00001  -0.00001   0.10289
  17        3PY         0.08470   0.00782   0.02313  -0.03343  -0.00000
  18        3PZ        -0.12290  -0.08553  -0.06813   0.09463  -0.00001
  19 3   C  1S          0.00000   0.01428  -0.02519   0.00000   0.00000
  20        2S          0.00000  -0.01021   0.02472   0.00000   0.00000
  21        2PX        -0.00002   0.00000   0.00000  -0.00001   0.09664
  22        2PY         0.01993   0.00000   0.00000  -0.06597  -0.00001
  23        2PZ         0.00000   0.25697   0.17137   0.00000   0.00000
  24        3S          0.00000  -0.06230   0.10966   0.00000   0.00000
  25        3PX        -0.00002   0.00000   0.00000  -0.00000   0.08776
  26        3PY        -0.00458   0.00000   0.00000  -0.02751  -0.00004
  27        3PZ         0.00000   0.26285   0.18817   0.00000   0.00000
  28 4   C  1S         -0.00479  -0.02442  -0.01784  -0.01048  -0.00000
  29        2S          0.00901   0.02478   0.01887   0.01140   0.00000
  30        2PX        -0.00002  -0.00003  -0.00001  -0.00001   0.09629
  31        2PY         0.10830   0.05614   0.03491  -0.02295   0.00001
  32        2PZ         0.15489  -0.10563  -0.08929  -0.09427   0.00000
  33        3S         -0.01416   0.08055   0.05330   0.03138  -0.00003
  34        3PX        -0.00002  -0.00003  -0.00001  -0.00001   0.10289
  35        3PY         0.08470  -0.00782  -0.02313  -0.03343  -0.00000
  36        3PZ         0.12290  -0.08553  -0.06813  -0.09463   0.00001
  37 5   C  1S         -0.01464   0.01028   0.03814   0.02028   0.00000
  38        2S          0.01966  -0.01435  -0.04369  -0.02147  -0.00000
  39        2PX        -0.00001  -0.00002  -0.00001  -0.00002   0.17836
  40        2PY         0.20639  -0.07311  -0.02397   0.09743   0.00001
  41        2PZ        -0.14808   0.09492   0.07752   0.08395  -0.00000
  42        3S         -0.00135   0.00307  -0.10918  -0.06831  -0.00001
  43        3PX        -0.00001  -0.00001  -0.00001  -0.00002   0.18122
  44        3PY         0.17214  -0.04473  -0.00982   0.06964   0.00001
  45        3PZ        -0.11839   0.09230   0.07501   0.01736  -0.00002
  46 6   N  1S          0.00000  -0.01760  -0.04232   0.00000   0.00000
  47        2S          0.00000   0.02137   0.04205   0.00000   0.00000
  48        2PX        -0.00003   0.00000   0.00000  -0.00003   0.23182
  49        2PY        -0.10765   0.00000   0.00000  -0.12746  -0.00002
  50        2PZ         0.00000   0.13512   0.13969   0.00000   0.00000
  51        3S          0.00000   0.04689   0.16444   0.00000   0.00000
  52        3PX        -0.00003   0.00000   0.00000  -0.00003   0.24610
  53        3PY        -0.09960   0.00000   0.00000  -0.12046  -0.00003
  54        3PZ         0.00000   0.12968   0.13562   0.00000   0.00000
  55 7   H  1S          0.00000  -0.19544  -0.10881   0.00000   0.00000
  56        2S          0.00000  -0.13860  -0.08883   0.00000   0.00000
  57 8   H  1S          0.15716   0.06102   0.00389   0.04471   0.00001
  58        2S          0.11285   0.04105   0.01088   0.01967   0.00001
  59 9   H  1S         -0.15716   0.06102   0.00389  -0.04471  -0.00001
  60        2S         -0.11285   0.04105   0.01088  -0.01967  -0.00001
  61 10  C  1S         -0.00463  -0.00224  -0.00224  -0.00298   0.00000
  62        2S          0.00036   0.00353   0.00372   0.00476   0.00000
  63        2PX        -0.00001  -0.00012  -0.00006  -0.00001  -0.14409
  64        2PY        -0.12785   0.10744  -0.07120  -0.05064  -0.00002
  65        2PZ        -0.05115  -0.12359   0.19973   0.24040   0.00001
  66        3S          0.04863  -0.01635  -0.01509  -0.00712  -0.00000
  67        3PX        -0.00002  -0.00010  -0.00005  -0.00001  -0.13886
  68        3PY        -0.08531   0.07265  -0.07931  -0.06654  -0.00002
  69        3PZ        -0.03663  -0.10977   0.17161   0.21182   0.00001
  70 11  H  1S          0.03099   0.04621  -0.07958  -0.09719  -0.09156
  71        2S          0.02801   0.03452  -0.07583  -0.09199  -0.08497
  72 12  H  1S          0.04362  -0.11286   0.13894   0.14791   0.00010
  73        2S          0.03173  -0.09806   0.12328   0.12690   0.00009
  74 13  H  1S          0.03099   0.04650  -0.07974  -0.09743   0.09146
  75        2S          0.02801   0.03477  -0.07597  -0.09220   0.08488
  76 14  C  1S          0.00463  -0.00224  -0.00224   0.00298  -0.00000
  77        2S         -0.00036   0.00353   0.00372  -0.00476  -0.00000
  78        2PX        -0.00001   0.00012   0.00006  -0.00001  -0.14409
  79        2PY        -0.12785  -0.10744   0.07120  -0.05064  -0.00002
  80        2PZ         0.05115  -0.12359   0.19973  -0.24040  -0.00001
  81        3S         -0.04863  -0.01635  -0.01509   0.00712   0.00000
  82        3PX        -0.00002   0.00010   0.00005  -0.00001  -0.13886
  83        3PY        -0.08531  -0.07265   0.07931  -0.06654  -0.00002
  84        3PZ         0.03663  -0.10977   0.17161  -0.21182  -0.00001
  85 15  H  1S         -0.03099   0.04650  -0.07974   0.09743  -0.09146
  86        2S         -0.02801   0.03477  -0.07597   0.09220  -0.08488
  87 16  H  1S         -0.03099   0.04621  -0.07958   0.09719   0.09156
  88        2S         -0.02801   0.03452  -0.07583   0.09199   0.08497
  89 17  H  1S         -0.04362  -0.11286   0.13894  -0.14791  -0.00010
  90        2S         -0.03173  -0.09806   0.12328  -0.12690  -0.00009
                          26        27        28        29        30
                           O         O         O         O         V
     Eigenvalues --    -0.49756  -0.39197  -0.36868  -0.33549   0.13083
   1 1   C  1S         -0.00035   0.02029   0.00000  -0.00000   0.00000
   2        2S          0.00014  -0.02235  -0.00000   0.00000  -0.00001
   3        2PX         0.00000   0.00000  -0.08600   0.24259  -0.13900
   4        2PY         0.12350   0.04800   0.00001  -0.00001   0.00000
   5        2PZ         0.01458  -0.16559   0.00001   0.00000   0.00000
   6        3S         -0.01133  -0.11330   0.00001  -0.00000   0.00006
   7        3PX         0.00000  -0.00000  -0.12343   0.28511  -0.24397
   8        3PY         0.15775  -0.02847   0.00001  -0.00001   0.00002
   9        3PZ         0.04910   0.02162   0.00000   0.00001  -0.00007
  10 2   C  1S          0.00507  -0.02109  -0.00000  -0.00000   0.00000
  11        2S         -0.00157   0.01634   0.00000   0.00000   0.00000
  12        2PX        -0.00001   0.00001   0.16140   0.22163  -0.13685
  13        2PY        -0.23436  -0.01126  -0.00000  -0.00000   0.00000
  14        2PZ        -0.02660   0.16558  -0.00001  -0.00001   0.00001
  15        3S         -0.03400   0.20193   0.00002   0.00001  -0.00002
  16        3PX        -0.00000   0.00001   0.20505   0.27491  -0.29426
  17        3PY        -0.24873   0.01098  -0.00002   0.00000  -0.00005
  18        3PZ         0.03294   0.22874  -0.00003   0.00001  -0.00013
  19 3   C  1S          0.00000   0.00615   0.00000   0.00000   0.00000
  20        2S          0.00000  -0.00808   0.00000  -0.00000   0.00000
  21        2PX         0.00000   0.00000   0.29139   0.00000   0.27076
  22        2PY         0.25026   0.00000  -0.00001   0.00000   0.00001
  23        2PZ         0.00000  -0.05711   0.00000  -0.00001   0.00000
  24        3S          0.00000   0.01897   0.00000   0.00001   0.00000
  25        3PX        -0.00001   0.00000   0.33118   0.00000   0.61625
  26        3PY         0.19043   0.00000  -0.00004   0.00000  -0.00010
  27        3PZ         0.00000  -0.12808   0.00000  -0.00001   0.00000
  28 4   C  1S         -0.00507  -0.02109   0.00000  -0.00000  -0.00000
  29        2S          0.00157   0.01634  -0.00000   0.00000  -0.00000
  30        2PX        -0.00001  -0.00001   0.16140  -0.22163  -0.13685
  31        2PY        -0.23436   0.01126  -0.00000   0.00000   0.00000
  32        2PZ         0.02660   0.16558   0.00001  -0.00001  -0.00001
  33        3S          0.03400   0.20193  -0.00002   0.00001   0.00002
  34        3PX        -0.00000  -0.00001   0.20505  -0.27491  -0.29426
  35        3PY        -0.24873  -0.01098  -0.00002  -0.00000  -0.00005
  36        3PZ        -0.03294   0.22874   0.00003   0.00001   0.00013
  37 5   C  1S          0.00035   0.02029  -0.00000  -0.00000  -0.00000
  38        2S         -0.00014  -0.02235   0.00000   0.00000   0.00001
  39        2PX         0.00000  -0.00000  -0.08600  -0.24259  -0.13900
  40        2PY         0.12350  -0.04800   0.00001   0.00001   0.00000
  41        2PZ        -0.01458  -0.16559  -0.00001   0.00000  -0.00000
  42        3S          0.01133  -0.11330  -0.00001  -0.00000  -0.00006
  43        3PX         0.00000   0.00000  -0.12343  -0.28511  -0.24397
  44        3PY         0.15775   0.02847   0.00001   0.00001   0.00002
  45        3PZ        -0.04910   0.02162  -0.00000   0.00001   0.00007
  46 6   N  1S          0.00000  -0.07092   0.00000   0.00000   0.00000
  47        2S          0.00000   0.06985   0.00000  -0.00000   0.00000
  48        2PX        -0.00001   0.00000  -0.24301   0.00000   0.26003
  49        2PY        -0.13410   0.00000   0.00001   0.00000  -0.00001
  50        2PZ         0.00000   0.39976   0.00000  -0.00001   0.00000
  51        3S          0.00000   0.26419   0.00000  -0.00001   0.00000
  52        3PX        -0.00001   0.00000  -0.29399   0.00000   0.48334
  53        3PY        -0.11302   0.00000   0.00001   0.00000   0.00001
  54        3PZ         0.00000   0.48649   0.00000  -0.00001   0.00000
  55 7   H  1S          0.00000   0.05313   0.00000   0.00000   0.00000
  56        2S          0.00000   0.04308   0.00000  -0.00001   0.00000
  57 8   H  1S          0.09527  -0.08928   0.00000   0.00000  -0.00000
  58        2S          0.06875  -0.11228  -0.00000  -0.00000   0.00002
  59 9   H  1S         -0.09527  -0.08928  -0.00000   0.00000   0.00000
  60        2S         -0.06875  -0.11228   0.00000  -0.00000  -0.00002
  61 10  C  1S         -0.01620   0.00981   0.00000   0.00000  -0.00000
  62        2S          0.01991  -0.00803  -0.00000   0.00000  -0.00000
  63        2PX        -0.00002   0.00000  -0.05946   0.06366  -0.01504
  64        2PY         0.19974  -0.05074   0.00000   0.00000   0.00001
  65        2PZ         0.03303  -0.05242  -0.00001  -0.00000  -0.00003
  66        3S          0.00616  -0.04897   0.00000  -0.00000   0.00002
  67        3PX        -0.00002   0.00001  -0.07609   0.06231  -0.13382
  68        3PY         0.14094  -0.03675   0.00001   0.00002   0.00013
  69        3PZ         0.00066  -0.07264  -0.00003  -0.00002  -0.00026
  70 11  H  1S         -0.00906   0.02213  -0.04695   0.05686   0.02879
  71        2S         -0.01872   0.03152  -0.04767   0.07844   0.19643
  72 12  H  1S         -0.09243  -0.01166   0.00004  -0.00005  -0.00002
  73        2S         -0.10647  -0.00608   0.00006  -0.00005   0.00009
  74 13  H  1S         -0.00897   0.02216   0.04690  -0.05680  -0.02878
  75        2S         -0.01862   0.03157   0.04760  -0.07838  -0.19653
  76 14  C  1S          0.01620   0.00981  -0.00000   0.00000   0.00000
  77        2S         -0.01991  -0.00803   0.00000   0.00000   0.00000
  78        2PX        -0.00002  -0.00000  -0.05946  -0.06366  -0.01504
  79        2PY         0.19974   0.05074   0.00000  -0.00000   0.00001
  80        2PZ        -0.03303  -0.05242   0.00001  -0.00000   0.00003
  81        3S         -0.00616  -0.04897  -0.00000  -0.00000  -0.00002
  82        3PX        -0.00002  -0.00001  -0.07609  -0.06231  -0.13382
  83        3PY         0.14094   0.03675   0.00001  -0.00002   0.00013
  84        3PZ        -0.00066  -0.07264   0.00003  -0.00002   0.00026
  85 15  H  1S          0.00897   0.02216  -0.04690  -0.05680   0.02878
  86        2S          0.01862   0.03157  -0.04760  -0.07838   0.19653
  87 16  H  1S          0.00906   0.02213   0.04695   0.05686  -0.02879
  88        2S          0.01872   0.03152   0.04767   0.07844  -0.19643
  89 17  H  1S          0.09243  -0.01166  -0.00004  -0.00005   0.00002
  90        2S          0.10647  -0.00608  -0.00006  -0.00005  -0.00009
                          31        32        33        34        35
                           V         V         V         V         V
     Eigenvalues --     0.15043   0.27047   0.29046   0.31192   0.31966
   1 1   C  1S         -0.00000   0.04894   0.01670   0.01535   0.00781
   2        2S          0.00000  -0.03545  -0.00973  -0.00413   0.00932
   3        2PX        -0.23897  -0.00004   0.00007  -0.00005   0.01785
   4        2PY         0.00001  -0.05802  -0.06496  -0.04232  -0.09886
   5        2PZ         0.00001  -0.04161  -0.03279  -0.04041  -0.08132
   6        3S          0.00005  -0.42339  -0.28533  -0.25736  -0.28848
   7        3PX        -0.51040  -0.00013   0.00016  -0.00014   0.03975
   8        3PY         0.00006  -0.33890  -0.25952  -0.29792  -0.44943
   9        3PZ         0.00002  -0.26886  -0.26453  -0.01283  -0.30034
  10 2   C  1S         -0.00000   0.00912   0.01539   0.01743   0.01488
  11        2S         -0.00000   0.00678  -0.00760   0.01116   0.01402
  12        2PX         0.24274   0.00005  -0.00005   0.00007  -0.01200
  13        2PY         0.00001  -0.04765   0.01577  -0.05692  -0.04094
  14        2PZ        -0.00000   0.02032   0.01391   0.03367   0.01156
  15        3S          0.00007  -0.36264  -0.43171  -0.23184  -0.34437
  16        3PX         0.51734   0.00020  -0.00007   0.00025  -0.01923
  17        3PY        -0.00007   0.14797   0.21038  -0.18643  -0.03149
  18        3PZ        -0.00004  -0.04502   0.10005   0.20287   0.09315
  19 3   C  1S         -0.00001   0.06298   0.00000   0.04468   0.00000
  20        2S          0.00001  -0.05436   0.00000  -0.01253   0.00000
  21        2PX         0.00000   0.00000   0.00004   0.00000   0.00506
  22        2PY         0.00000   0.00000  -0.04108   0.00000  -0.06755
  23        2PZ        -0.00002   0.11554   0.00000   0.05404   0.00000
  24        3S         -0.00001  -0.48638   0.00000  -0.48891   0.00000
  25        3PX         0.00000   0.00000   0.00010   0.00000   0.02194
  26        3PY         0.00000   0.00000   0.36492   0.00000   0.00152
  27        3PZ        -0.00011   0.72039   0.00000   0.21723   0.00000
  28 4   C  1S         -0.00000   0.00912  -0.01539   0.01743  -0.01488
  29        2S         -0.00000   0.00678   0.00760   0.01116  -0.01402
  30        2PX        -0.24274  -0.00005  -0.00005  -0.00007  -0.01200
  31        2PY        -0.00001   0.04765   0.01577   0.05692  -0.04094
  32        2PZ        -0.00000   0.02032  -0.01391   0.03367  -0.01156
  33        3S          0.00007  -0.36264   0.43171  -0.23184   0.34437
  34        3PX        -0.51734  -0.00020  -0.00007  -0.00025  -0.01923
  35        3PY         0.00007  -0.14797   0.21038   0.18643  -0.03149
  36        3PZ        -0.00004  -0.04502  -0.10005   0.20287  -0.09315
  37 5   C  1S         -0.00000   0.04894  -0.01670   0.01535  -0.00781
  38        2S          0.00000  -0.03545   0.00973  -0.00413  -0.00932
  39        2PX         0.23897   0.00004   0.00007   0.00005   0.01785
  40        2PY        -0.00001   0.05802  -0.06496   0.04232  -0.09886
  41        2PZ         0.00001  -0.04161   0.03279  -0.04041   0.08132
  42        3S          0.00005  -0.42339   0.28533  -0.25736   0.28848
  43        3PX         0.51040   0.00013   0.00016   0.00014   0.03975
  44        3PY        -0.00006   0.33890  -0.25952   0.29792  -0.44943
  45        3PZ         0.00002  -0.26886   0.26453  -0.01283   0.30034
  46 6   N  1S          0.00000  -0.00854   0.00000   0.02395   0.00000
  47        2S         -0.00000   0.01272   0.00000  -0.00697   0.00000
  48        2PX         0.00000   0.00000  -0.00010   0.00000  -0.02195
  49        2PY         0.00000   0.00000   0.03290   0.00000  -0.02482
  50        2PZ        -0.00001   0.01518   0.00000   0.05689   0.00000
  51        3S         -0.00000   0.00301   0.00000  -0.30929   0.00000
  52        3PX         0.00000   0.00000  -0.00019   0.00000  -0.04409
  53        3PY         0.00000   0.00000   0.11006   0.00000  -0.04272
  54        3PZ        -0.00002   0.12387   0.00000   0.17853   0.00000
  55 7   H  1S          0.00000   0.00407   0.00000   0.06713   0.00000
  56        2S         -0.00012   1.06741   0.00000   0.59930   0.00000
  57 8   H  1S          0.00000   0.01452  -0.02173   0.02821   0.01057
  58        2S         -0.00006   0.70037   0.45599   0.44434   0.73459
  59 9   H  1S          0.00000   0.01452   0.02173   0.02821  -0.01057
  60        2S         -0.00006   0.70037  -0.45599   0.44434  -0.73459
  61 10  C  1S          0.00000   0.05616  -0.09978  -0.10383   0.04919
  62        2S         -0.00000  -0.00685   0.02543   0.02707  -0.01501
  63        2PX         0.00101   0.00007  -0.00007   0.00012  -0.01618
  64        2PY        -0.00002   0.10103  -0.09769   0.02598  -0.08896
  65        2PZ         0.00001   0.02664  -0.02413  -0.06685   0.13391
  66        3S          0.00002  -0.92751   1.43424   1.43277  -0.64917
  67        3PX        -0.03702   0.00042  -0.00039   0.00066  -0.07902
  68        3PY        -0.00011   0.45565  -0.49766   0.18979  -0.43425
  69        3PZ         0.00014   0.03940  -0.08240  -0.40080   0.66226
  70 11  H  1S          0.04977  -0.00522   0.00233  -0.01290   0.01963
  71        2S          0.16099   0.38910  -0.64314  -0.82415   0.79183
  72 12  H  1S         -0.00006   0.01480  -0.01019   0.03040  -0.03880
  73        2S         -0.00035   0.68803  -0.89268  -0.06534  -0.69324
  74 13  H  1S         -0.04972  -0.00523   0.00229  -0.01292   0.00943
  75        2S         -0.16067   0.38959  -0.64375  -0.82367   0.62086
  76 14  C  1S          0.00000   0.05616   0.09978  -0.10383  -0.04919
  77        2S         -0.00000  -0.00685  -0.02543   0.02707   0.01501
  78        2PX        -0.00101  -0.00007  -0.00007  -0.00012  -0.01618
  79        2PY         0.00002  -0.10103  -0.09769  -0.02598  -0.08896
  80        2PZ         0.00001   0.02664   0.02413  -0.06685  -0.13391
  81        3S          0.00002  -0.92751  -1.43424   1.43277   0.64917
  82        3PX         0.03702  -0.00042  -0.00039  -0.00066  -0.07902
  83        3PY         0.00011  -0.45565  -0.49766  -0.18979  -0.43425
  84        3PZ         0.00014   0.03940   0.08240  -0.40080  -0.66226
  85 15  H  1S         -0.04972  -0.00523  -0.00229  -0.01292  -0.00943
  86        2S         -0.16067   0.38959   0.64375  -0.82367  -0.62086
  87 16  H  1S          0.04977  -0.00522  -0.00233  -0.01290  -0.01963
  88        2S          0.16099   0.38910   0.64314  -0.82415  -0.79183
  89 17  H  1S         -0.00006   0.01480   0.01019   0.03040   0.03880
  90        2S         -0.00035   0.68803   0.89268  -0.06534   0.69324
                          36        37        38        39        40
                           V         V         V         V         V
     Eigenvalues --     0.31984   0.32160   0.35155   0.36069   0.36295
   1 1   C  1S          0.00087  -0.00346   0.00007   0.06716   0.07286
   2        2S          0.00100  -0.00249  -0.00003  -0.03115  -0.03344
   3        2PX        -0.16457   0.00006  -0.00500   0.00007   0.00005
   4        2PY        -0.01080   0.00741  -0.00001  -0.13581  -0.07455
   5        2PZ        -0.00886   0.10333  -0.00018  -0.02182  -0.09095
   6        3S         -0.03168   0.07818  -0.00072  -0.94672  -1.03690
   7        3PX        -0.36604  -0.00003  -0.11787   0.00009   0.00015
   8        3PY        -0.04918   0.11593  -0.00010  -0.63302  -0.45696
   9        3PZ        -0.03266   0.34432  -0.00095  -0.04055  -0.27861
  10 2   C  1S          0.00160   0.02024  -0.00002  -0.03651   0.01805
  11        2S          0.00150  -0.01607   0.00005   0.01076  -0.01340
  12        2PX         0.11007   0.00002   0.05980  -0.00001  -0.00008
  13        2PY        -0.00449  -0.02137   0.00012  -0.08583   0.02639
  14        2PZ         0.00126   0.05085  -0.00005   0.04422   0.06664
  15        3S         -0.03703  -0.21065  -0.00003   0.62218  -0.16938
  16        3PX         0.17707   0.00020   0.29910  -0.00003  -0.00035
  17        3PY        -0.00354  -0.16872   0.00066  -0.30705   0.03034
  18        3PZ         0.01011   0.19359  -0.00044   0.05192   0.33312
  19 3   C  1S          0.00000   0.02057  -0.00014   0.00000  -0.06760
  20        2S          0.00000   0.00047   0.00007   0.00000   0.02384
  21        2PX        -0.04554   0.00000   0.00000  -0.00008   0.00000
  22        2PY        -0.00743   0.00000   0.00000  -0.03713   0.00000
  23        2PZ         0.00000   0.16614  -0.00027   0.00000  -0.11996
  24        3S          0.00000  -0.52258   0.00215   0.00000   1.07853
  25        3PX        -0.20093   0.00000   0.00000  -0.00005   0.00000
  26        3PY        -0.00025   0.00000   0.00000  -0.59391   0.00000
  27        3PZ         0.00000   0.69604  -0.00099   0.00000  -0.60770
  28 4   C  1S         -0.00160   0.02024  -0.00002   0.03651   0.01805
  29        2S         -0.00150  -0.01607   0.00005  -0.01076  -0.01340
  30        2PX         0.11007  -0.00002  -0.05980  -0.00001   0.00008
  31        2PY        -0.00449   0.02137  -0.00012  -0.08583  -0.02639
  32        2PZ        -0.00126   0.05085  -0.00005  -0.04422   0.06664
  33        3S          0.03703  -0.21065  -0.00003  -0.62218  -0.16938
  34        3PX         0.17707  -0.00020  -0.29910  -0.00003   0.00035
  35        3PY        -0.00354   0.16872  -0.00066  -0.30705  -0.03034
  36        3PZ        -0.01011   0.19359  -0.00044  -0.05192   0.33312
  37 5   C  1S         -0.00087  -0.00346   0.00007  -0.06716   0.07286
  38        2S         -0.00100  -0.00249  -0.00003   0.03115  -0.03344
  39        2PX        -0.16457  -0.00006   0.00500   0.00007  -0.00005
  40        2PY        -0.01080  -0.00741   0.00001  -0.13581   0.07455
  41        2PZ         0.00886   0.10333  -0.00018   0.02182  -0.09095
  42        3S          0.03168   0.07818  -0.00072   0.94672  -1.03690
  43        3PX        -0.36604   0.00003   0.11787   0.00009  -0.00015
  44        3PY        -0.04918  -0.11593   0.00010  -0.63302   0.45696
  45        3PZ         0.03266   0.34432  -0.00095   0.04055  -0.27861
  46 6   N  1S          0.00000   0.02520  -0.00012   0.00000  -0.02894
  47        2S          0.00000  -0.01394   0.00005   0.00000   0.02187
  48        2PX         0.20208   0.00000   0.00000  -0.00007   0.00000
  49        2PY        -0.00273   0.00000   0.00000  -0.00316   0.00000
  50        2PZ         0.00000   0.00710  -0.00012   0.00000  -0.02783
  51        3S          0.00000  -0.22130   0.00122   0.00000   0.19706
  52        3PX         0.40578   0.00000   0.00000  -0.00014   0.00000
  53        3PY        -0.00477   0.00000   0.00000  -0.04956   0.00000
  54        3PZ         0.00000  -0.03641  -0.00019   0.00000   0.04502
  55 7   H  1S          0.00000   0.05072  -0.00011   0.00000   0.04000
  56        2S          0.00000   1.14563  -0.00245   0.00000  -1.06520
  57 8   H  1S          0.00117   0.01936  -0.00003   0.03056   0.02202
  58        2S          0.08038  -0.32479   0.00100   1.16628   1.12743
  59 9   H  1S         -0.00117   0.01936  -0.00003  -0.03056   0.02202
  60        2S         -0.08038  -0.32479   0.00100  -1.16628   1.12743
  61 10  C  1S          0.00530  -0.03895   0.00005   0.02519  -0.02431
  62        2S         -0.00162   0.01207  -0.00002  -0.01660   0.00701
  63        2PX         0.14820   0.00015   0.21425  -0.00000  -0.00025
  64        2PY        -0.00976  -0.03914  -0.00009   0.02170  -0.02516
  65        2PZ         0.01462   0.16386  -0.00006  -0.08444   0.05147
  66        3S         -0.06985   0.50108  -0.00066  -0.28892   0.35912
  67        3PX         0.72294   0.00080   1.06423   0.00000  -0.00118
  68        3PY        -0.04757  -0.13532  -0.00074   0.20161  -0.12389
  69        3PZ         0.07222   0.70389   0.00008  -0.53096   0.40447
  70 11  H  1S         -0.04539   0.01293  -0.02595  -0.03180   0.03909
  71        2S         -0.71265   0.31309  -1.05622  -0.23804   0.16433
  72 12  H  1S         -0.00418  -0.02195  -0.00007   0.04907  -0.06247
  73        2S         -0.07542  -0.95170   0.00055   0.72858  -0.65027
  74 13  H  1S          0.04851   0.01300   0.02600  -0.03186   0.03914
  75        2S          0.86515   0.31593   1.05563  -0.23904   0.16278
  76 14  C  1S         -0.00530  -0.03895   0.00005  -0.02519  -0.02431
  77        2S          0.00162   0.01207  -0.00002   0.01660   0.00701
  78        2PX         0.14820  -0.00015  -0.21425  -0.00000   0.00025
  79        2PY        -0.00976   0.03914   0.00009   0.02170   0.02516
  80        2PZ        -0.01462   0.16386  -0.00006   0.08444   0.05147
  81        3S          0.06985   0.50108  -0.00066   0.28892   0.35912
  82        3PX         0.72294  -0.00080  -1.06423   0.00000   0.00118
  83        3PY        -0.04757   0.13532   0.00074   0.20161   0.12389
  84        3PZ        -0.07222   0.70389   0.00008   0.53096   0.40447
  85 15  H  1S         -0.04851   0.01300   0.02600   0.03186   0.03914
  86        2S         -0.86515   0.31593   1.05563   0.23904   0.16278
  87 16  H  1S          0.04539   0.01293  -0.02595   0.03180   0.03909
  88        2S          0.71265   0.31309  -1.05622   0.23804   0.16433
  89 17  H  1S          0.00418  -0.02195  -0.00007  -0.04907  -0.06247
  90        2S          0.07542  -0.95170   0.00055  -0.72858  -0.65027
                          41        42        43        44        45
                           V         V         V         V         V
     Eigenvalues --     0.41929   0.44646   0.45388   0.48069   0.53298
   1 1   C  1S          0.00000  -0.03887   0.05563   0.04681   0.01854
   2        2S         -0.00001   0.02387  -0.03681  -0.00870   0.00896
   3        2PX         0.13809  -0.00002  -0.00003  -0.00001   0.00006
   4        2PY         0.00002   0.02702   0.03993   0.13523  -0.03831
   5        2PZ         0.00005  -0.00865   0.04301  -0.03525  -0.10955
   6        3S          0.00011   0.22626  -0.64380  -0.45640  -0.61224
   7        3PX         0.46440  -0.00004  -0.00008   0.00007   0.00017
   8        3PY         0.00000   0.51544  -0.26871   0.91185  -0.26799
   9        3PZ         0.00051   0.09123   0.29972  -0.67079  -0.71897
  10 2   C  1S         -0.00006   0.10597  -0.11263   0.03442   0.06454
  11        2S         -0.00003  -0.06284   0.01978   0.03041   0.01725
  12        2PX        -0.21389   0.00003   0.00003  -0.00001  -0.00010
  13        2PY        -0.00004  -0.08679   0.16779   0.02241   0.15307
  14        2PZ        -0.00003   0.08239  -0.03849   0.01583   0.04381
  15        3S          0.00154  -1.17740   2.04467  -1.09277  -1.87565
  16        3PX        -0.69086   0.00012   0.00011  -0.00008  -0.00029
  17        3PY        -0.00043  -1.18779   0.94004   0.48918   1.33094
  18        3PZ        -0.00026   0.66707  -0.29647  -0.03957   0.53593
  19 3   C  1S          0.00000  -0.06763   0.00000  -0.06549   0.00000
  20        2S          0.00000   0.05368   0.00000   0.03711   0.00000
  21        2PX         0.22019   0.00000  -0.00002   0.00000   0.00015
  22        2PY        -0.00011   0.00000  -0.05949   0.00000   0.17862
  23        2PZ         0.00000  -0.00682   0.00000   0.18881   0.00000
  24        3S          0.00000   0.39154   0.00000   1.01864   0.00000
  25        3PX         0.62087   0.00000  -0.00010   0.00000   0.00035
  26        3PY        -0.00140   0.00000  -0.57533   0.00000   2.42013
  27        3PZ         0.00000  -0.92083   0.00000   1.13802   0.00000
  28 4   C  1S          0.00006   0.10597   0.11263   0.03442  -0.06454
  29        2S          0.00003  -0.06284  -0.01978   0.03041  -0.01725
  30        2PX        -0.21389  -0.00003   0.00003   0.00001  -0.00010
  31        2PY        -0.00004   0.08679   0.16779  -0.02241   0.15307
  32        2PZ         0.00003   0.08239   0.03849   0.01583  -0.04381
  33        3S         -0.00154  -1.17740  -2.04467  -1.09277   1.87565
  34        3PX        -0.69086  -0.00012   0.00011   0.00008  -0.00029
  35        3PY        -0.00043   1.18779   0.94004  -0.48918   1.33094
  36        3PZ         0.00026   0.66707   0.29647  -0.03957  -0.53593
  37 5   C  1S         -0.00000  -0.03887  -0.05563   0.04681  -0.01854
  38        2S          0.00001   0.02387   0.03681  -0.00870  -0.00896
  39        2PX         0.13809   0.00002  -0.00003   0.00001   0.00006
  40        2PY         0.00002  -0.02702   0.03993  -0.13523  -0.03831
  41        2PZ        -0.00005  -0.00865  -0.04301  -0.03525   0.10955
[...]
 1628,0.0001056,0.1075922,0.0207132,0.0230139,-0.0058881,0.0565416,0.00
 12924,-0.0980933,0.0296497,-0.098841,-0.0485616,0.0206392,0.0231861,0.
 0057433,0.0566003,0.0015649,0.0979918,-0.0297387,0.0987308,-0.0488447,
 -0.0608147,-0.0386973,0.0000975,-0.1348033,-0.0194705,0.0001313,0.0001
 441,0.0000738,0.0881396\Polar=90.1561714,0.,73.5848597,0.0006216,0.,33
 .6943537\PolarDeriv=-0.5314669,-0.0834829,0.8346625,-0.0000713,0.00013
 21,-0.0113471,-5.1663489,-1.0492952,-1.7589967,-0.0001441,-0.0002241,0
 .0886986,-0.0003553,-0.0003619,0.0003984,-2.0184749,-2.6414609,0.00020
 61,-3.3823713,5.0475084,-3.2011884,-0.0003331,0.0014269,0.966093,4.310
 1393,2.7569528,2.9098954,0.0010627,0.0012747,0.0613681,0.0023244,-0.00
 05784,0.0017806,-2.9550681,1.8212949,-0.000536,0.0000008,-7.3835095,-0
 .0000001,-0.0000002,-0.000346,0.0000001,3.3615569,0.0000002,-0.2371869
 ,0.0000479,0.,0.1156786,0.,0.0009817,0.,0.,1.6273361,0.,3.3823713,5.04
 75084,3.2011884,0.0003331,0.0014269,-0.966093,4.3101393,-2.7569528,2.9
 098954,0.0010627,-0.0012747,0.0613681,-0.0023244,-0.0005784,-0.0017806
 ,2.9550681,1.8212949,0.000536,0.5314669,-0.0834829,-0.8346625,0.000071
 3,0.0001321,0.0113471,-5.1663489,1.0492952,-1.7589967,-0.0001441,0.000
 2241,0.0886986,0.0003553,-0.0003619,-0.0003984,2.0184749,-2.6414609,-0
 .0002061,0.0000012,0.3840397,-0.0000006,-0.0000002,-0.0006371,0.,0.509
 3728,0.,-10.3525776,0.0002197,0.0000001,0.1087737,-0.0000004,0.0000337
 ,0.,0.,-2.3946562,0.,0.,1.1746977,0.,0.,-0.0000401,0.,0.4983974,0.0000
 012,8.1285889,-0.0000543,-0.0000001,0.3148708,0.,-0.0000774,0.,0.00000
 01,1.4957965,0.,-6.783176,-3.7004769,-2.527589,0.0000786,-0.0000188,-0
 .3368553,-2.6150101,-3.150245,-3.7921552,-0.0000054,0.0000313,-0.25836
 19,0.0001301,-0.000106,0.0000311,-1.3767103,-0.8401551,-0.0000128,6.78
 3176,-3.7004769,2.527589,-0.0000786,-0.0000188,0.3368553,-2.6150101,3.
 150245,-3.7921552,-0.0000054,-0.0000313,-0.2583619,-0.0001301,-0.00010
 6,-0.0000311,1.3767103,-0.8401551,0.0000128,-1.473234,0.8906834,-1.517
 3917,0.0001062,-0.0039786,0.0231422,1.783395,-3.7312897,-2.1625334,-0.
 0040073,0.0053097,-3.8945068,-0.0005171,-0.0036787,0.0048143,-3.584606
 ,-5.0590961,-0.0086351,1.728327,1.564093,0.6809294,2.4036855,0.5035839
 ,0.2039019,1.0253605,2.5312714,4.2717944,0.880631,2.5940547,1.6952046,
 1.7088362,1.2644129,1.5323939,2.1902686,3.3695809,5.2300758,7.1037273,
 -2.3711964,0.4119019,-0.0037907,0.0009526,0.2864425,-2.5481027,1.95796
 79,-2.517359,0.0013427,-0.0027394,0.3423056,-0.0026376,0.0012995,-0.00
 11143,2.4083826,-0.3853537,-0.0026706,1.7212544,1.5652532,0.681036,-2.
 4004968,-0.5015859,0.2026144,1.0259028,2.5310695,4.2799431,-0.8789862,
 -2.5959211,1.6956305,-1.7039212,-1.261457,-1.5349898,2.1858833,3.37095
 18,-5.2192214,1.473234,0.8906834,1.5173917,-0.0001062,-0.0039786,-0.02
 31422,1.783395,3.7312897,-2.1625334,-0.0040073,-0.0053097,-3.8945068,0
 .0005171,-0.0036787,-0.0048143,3.584606,-5.0590961,0.0086351,-1.721254
 4,1.5652532,-0.681036,2.4004968,-0.5015859,-0.2026144,1.0259028,-2.531
 0695,4.2799431,-0.8789862,2.5959211,1.6956305,1.7039212,-1.261457,1.53
 49898,-2.1858833,3.3709518,5.2192214,-1.728327,1.564093,-0.6809294,-2.
 4036855,0.5035839,-0.2039019,1.0253605,-2.5312714,4.2717944,0.880631,-
 2.5940547,1.6952046,-1.7088362,1.2644129,-1.5323939,-2.1902686,3.36958
 09,-5.2300758,-7.1037273,-2.3711964,-0.4119019,0.0037907,0.0009526,-0.
 2864425,-2.5481027,-1.9579679,-2.517359,0.0013427,0.0027394,0.3423056,
 0.0026376,0.0012995,0.0011143,-2.4083826,-0.3853537,0.0026706\HyperPol
 ar=0.,-31.1172773,0.,31.2894409,0.,0.0282093,0.,0.,53.2398666,0.\Quadr
 upole=5.3241342,-2.7720542,-2.5520799,0.,0.0001736,0.\PG=C02 [C2(H1C1N
 1),X(C6H8)]\NImag=0\\0.84940378,0.07951026,0.73873795,-0.00001749,-0.0
 0000670,0.21603411,-0.17072169,0.04683014,0.00000323,0.73181295,-0.056
 10219,-0.32171458,0.00000619,-0.00178653,0.73347880,0.00000145,0.00000
 061,-0.10487376,-0.00000134,-0.00000866,0.22642439,0.06567947,-0.11287
 412,-0.00000282,-0.29303753,-0.03108538,0.00000292,0.73140114,-0.04445
 968,-0.03583240,0.00000194,-0.12344856,-0.21365809,0.00000254,0.,0.848
 59084,-0.00000405,0.00000716,0.01638531,0.00000172,-0.00000439,-0.0956
 9437,-0.00000780,0.,0.19695434,-0.03170065,0.04338981,0.00000107,-0.07
 319552,-0.03342197,0.00000064,-0.29303752,0.12344856,0.00000172,0.7318
 1295,0.06568408,-0.08930099,-0.00000419,0.03342197,0.10609165,-0.00000
 336,0.03108540,-0.21365810,0.00000439,0.00178653,0.73347880,0.00000197
 ,-0.00000036,-0.01452367,0.00000064,0.00000336,0.00982569,0.00000292,-
 0.00000254,-0.09569437,-0.00000134,0.00000866,0.22642439,-0.13197725,0
 .04502187,0.00000571,-0.03170065,-0.06568408,0.00000197,0.06567946,0.0
 4445969,-0.00000405,-0.17072169,0.05610219,0.00000145,0.84940378,-0.04
 502187,0.09465839,0.00000350,-0.04338981,-0.08930099,0.00000036,0.1128
 7410,-0.03583240,-0.00000716,-0.04683014,-0.32171458,-0.00000061,-0.07
 951026,0.73873795,0.00000571,-0.00000350,0.01031684,0.00000107,0.00000
 419,-0.01452367,-0.00000283,-0.00000194,0.01638530,0.00000323,-0.00000
 619,-0.10487376,-0.00001749,0.00000670,0.21603411,-0.29814065,0.054024
 60,0.00000300,0.05122746,0.14114530,0.00000057,-0.13013008,0.,0.000007
 86,0.05122746,-0.14114528,0.00000058,-0.29814065,-0.05402461,0.0000030
 0,0.70009601,0.10800267,-0.20187234,-0.00000308,0.04866389,-0.03672577
 ,0.00000133,0.,0.00286487,0.,-0.04866389,-0.03672576,-0.00000133,-0.10
 800267,-0.20187234,0.00000308,0.,0.45432663,0.00000588,-0.00000149,-0.
 09491263,-0.00000131,-0.00000498,0.03313563,0.00000435,0.,-0.01372558,
 -0.00000131,0.00000498,0.03313564,0.00000588,0.00000149,-0.09491264,-0
 .00001739,0.,0.13072429,-0.00653341,-0.00276703,0.00000042,0.00541059,
 -0.03526400,0.,-0.07455758,0.,0.00000100,0.00541059,0.03526400,0.,-0.0
 0653341,0.00276703,0.00000042,-0.00039501,0.,-0.00000012,0.07347837,-0
 .00304832,0.00090036,0.00000001,0.00403430,-0.01529031,-0.00000062,0.,
 -0.36725309,0.,-0.00403429,-0.01529031,0.00000062,0.00304832,0.0009003
 6,-0.00000001,0.,0.00072265,0.,0.,0.39284671,0.00000046,0.00000063,0.0
 0983523,0.00000148,0.00000032,0.00875601,-0.00000008,0.,-0.05645101,0.
 00000148,-0.00000032,0.00875601,0.00000046,-0.00000063,0.00983523,0.00
 000014,0.,-0.00397567,-0.00000128,0.,0.03412754,-0.27004382,-0.1450031
 5,0.00000635,0.00225435,0.00539598,0.00000035,0.00080771,0.00127448,0.
 00000019,-0.00019466,0.00017316,0.00000015,-0.00047240,0.00291450,0.00
 000045,-0.03674666,-0.01125018,0.00000066,0.00027092,0.00003315,-0.000
 00013,0.30265703,-0.14614257,-0.16879751,0.00000419,-0.03270416,-0.014
 96806,0.00000107,0.00171751,-0.00685605,0.00000003,0.00142529,-0.00015
 416,-0.00000006,0.00377874,-0.00045266,-0.00000016,0.02624183,0.014770
 06,-0.00000085,-0.00168243,-0.00077596,0.00000009,0.14683405,0.1752925
 7,0.00000586,0.00000476,-0.05627539,0.00000163,-0.00000085,0.01041509,
 -0.00000046,-0.00000015,0.00754506,0.00000038,-0.00000003,0.00065203,0
 .00000058,-0.00000011,0.01269575,0.00000166,-0.00000038,-0.00357697,0.
 ,0.00000016,-0.00067228,-0.00000772,-0.00000425,0.03521903,-0.00047240
 ,-0.00291450,0.00000045,-0.00019466,-0.00017316,0.00000015,0.00080771,
 -0.00127448,0.00000019,0.00225435,-0.00539598,0.00000035,-0.27004382,0
 .14500315,0.00000635,-0.03674666,0.01125018,0.00000066,0.00027092,-0.0
 0003315,-0.00000013,-0.00102301,0.00052106,0.00000004,0.30265703,-0.00
 377874,-0.00045266,0.00000016,-0.00142529,-0.00015416,0.00000006,-0.00
 171751,-0.00685605,-0.00000003,0.03270416,-0.01496806,-0.00000107,0.14
 614257,-0.16879751,-0.00000419,-0.02624183,0.01477006,0.00000085,0.001
 68243,-0.00077596,-0.00000009,-0.00052106,0.00051814,0.00000002,-0.146
 83405,0.17529257,0.00000058,0.00000011,0.01269575,0.00000038,0.0000000
 3,0.00065203,-0.00000046,0.00000015,0.00754506,0.00000163,0.00000085,0
 .01041509,0.00000586,-0.00000476,-0.05627539,0.00000166,0.00000038,-0.
 00357696,0.,-0.00000016,-0.00067228,0.00000004,-0.00000002,-0.00013354
 ,-0.00000772,0.00000425,0.03521903,0.00043618,-0.00123906,0.00000032,-
 0.00039250,0.00524451,-0.00000079,-0.03339130,-0.02079335,-0.00000085,
 -0.18429295,-0.04460888,-0.00000306,-0.00150207,-0.00319906,0.00000022
 ,0.00107498,0.00352825,0.00000213,0.00195008,-0.00103017,-0.00000013,0
 .00003999,-0.00004870,-0.00000044,0.00150237,0.00193722,-0.00000238,0.
 55494172,-0.00011040,-0.00256174,-0.00000006,0.00616276,-0.00226855,0.
 00000313,0.01483039,0.01565630,0.00000113,-0.03999447,-0.13209392,-0.0
 0000165,-0.03873464,-0.01486270,-0.00000100,0.00024661,-0.00451066,-0.
 00000260,0.00031933,0.00119321,-0.00000275,-0.00019516,0.00024301,0.,-
 0.00039105,0.00088301,0.00000115,-0.06163919,0.61593153,-0.00000283,-0
 .00000231,0.00002825,0.00000408,0.00000029,0.00794825,0.00000109,0.000
 00143,0.00546090,0.00000430,0.00000244,-0.08933469,0.00000077,-0.00000
 034,0.00599566,0.00000220,0.00000331,0.00968050,-0.00000130,0.00000111
 ,-0.00377260,0.00000005,0.00000009,-0.00188753,0.00000011,-0.00000144,
 -0.00466603,-0.00002327,-0.00002378,0.61372672,0.00018898,-0.00098943,
 -0.00006243,0.00066101,0.00036595,0.00122365,0.00079892,-0.00094762,0.
 00059664,-0.00535454,-0.02414063,-0.03024805,-0.00323538,0.00074363,-0
 .00040750,-0.00108917,-0.00076018,0.00153296,-0.00030470,0.00078139,-0
 .00062189,-0.00004664,0.00005614,-0.00023250,0.00012659,-0.00019953,-0
 .00022454,-0.05940988,-0.00910149,-0.01612150,0.06493258,-0.00018371,0
 .00073483,-0.00001407,-0.00075924,-0.00097169,0.00101380,0.00259551,0.
 00064997,0.00047442,-0.00345647,-0.01320181,-0.01408347,-0.00279451,-0
 .00055506,-0.00036866,0.00018221,-0.00072225,0.00122980,-0.00009956,0.
 00034734,-0.00073786,-0.00008157,0.00001891,-0.00028949,-0.00002957,0.
 00022015,-0.00066979,-0.01035042,-0.14835706,-0.13158997,0.01542340,0.
 16143986,-0.00013725,0.00035976,-0.00006281,-0.00046829,-0.00021653,0.
 00020541,0.00021879,-0.00013999,0.00082950,0.00036105,0.00260971,0.004
 15381,0.00013073,0.00019202,-0.00035969,0.00036834,0.00009281,-0.00027
 784,-0.00041356,0.00019088,-0.00035769,-0.00002428,0.00002132,-0.00000
 315,-0.00000385,0.00003708,0.00014829,-0.01636393,-0.13197086,-0.24264
 381,0.01687922,0.14703141,0.26414121,0.00046792,-0.00053602,0.00000013
 ,-0.00044589,0.00187721,-0.00000159,-0.00501712,-0.00519049,0.00000145
 ,-0.02736301,0.02381180,0.00002500,0.00120796,0.00318146,-0.00000154,-
 0.00002497,-0.00006400,-0.00000117,0.00024877,-0.00011571,0.00000053,0
 .00004056,-0.00010274,0.00000022,0.00074772,-0.00158777,0.00000123,-0.
 22070362,0.13642553,0.00016697,0.00304531,-0.00234988,0.00093196,0.245
 13512,-0.00006145,-0.00003563,0.00000016,-0.00072995,0.00067636,-0.000
 00153,-0.00304835,-0.00271268,-0.00000075,-0.01900001,0.01429587,0.000
 02030,-0.00156740,0.00077430,0.00000011,0.00057873,0.00082766,0.000000
 60,-0.00021501,0.00011826,0.00000059,0.00003767,-0.00000011,-0.0000000
 3,-0.00001946,-0.00018185,-0.00000071,0.14307743,-0.18103004,-0.000143
 75,0.01687792,-0.01490813,0.00116476,-0.15263227,0.19725325,-0.0000003
 6,0.00000150,0.00005866,-0.00000167,-0.00000151,0.00037783,0.00000011,
 -0.00000038,0.00125448,-0.00000955,0.00000363,-0.00181979,0.00000036,-
 0.00000073,0.00008000,0.00000056,0.00000014,-0.00028176,0.00000019,-0.
 00000041,-0.00028226,-0.00000004,0.,0.00002178,0.00000006,0.00000098,0
 .00037186,0.00017286,-0.00014191,-0.05807493,0.02630604,-0.02139343,0.
 00108551,-0.00018652,0.00016296,0.05621768,0.00018895,-0.00098765,0.00
 006240,0.00066051,0.00036489,-0.00122053,0.00080311,-0.00094743,-0.000
 59564,-0.00532797,-0.02418577,0.03021868,-0.00324591,0.00073971,0.0004
 0848,-0.00108645,-0.00076297,-0.00153258,-0.00030515,0.00078208,0.0006
 2029,-0.00004664,0.00005627,0.00023213,0.00012657,-0.00019964,0.000224
 32,-0.05939112,-0.00902611,0.01596910,-0.00034887,0.00190891,-0.001454
 91,0.00302619,0.01691715,-0.02628196,0.06491079,-0.00018183,0.00073395
 ,0.00001427,-0.00075912,-0.00096980,-0.00101449,0.00259618,0.00065165,
 -0.00047531,-0.00343868,-0.01322495,0.01405905,-0.00279720,-0.00055417
 ,0.00037186,0.00018014,-0.00072380,-0.00122822,-0.00010056,0.00034897,
 0.00073925,-0.00008169,0.00001902,0.00028943,-0.00002974,0.00022148,0.
 00066845,-0.01028187,-0.14876979,0.13175284,0.00189243,0.01527029,-0.0
 1935805,-0.00233504,-0.01493863,0.02136906,0.01534227,0.16190102,0.000
 13929,-0.00035996,-0.00006259,0.00046774,0.00021650,0.00020510,-0.0002
 1786,0.00013989,0.00083024,-0.00036517,-0.00262182,0.00414704,-0.00013
 107,-0.00019073,-0.00035926,-0.00037164,-0.00009459,-0.00027844,0.0004
 1445,-0.00019154,-0.00035685,0.00002418,-0.00002141,-0.00000306,0.0000
 0342,-0.00003656,0.00014905,0.01621922,0.13213953,-0.24227603,0.001438
 95,0.01942199,-0.02685205,-0.00093671,-0.00120280,0.00113768,-0.016708
 70,-0.14721288,0.26372595,-0.00150207,0.00319906,0.00000022,-0.1842929
 5,0.04460888,-0.00000306,-0.03339129,0.02079335,-0.00000085,-0.0003925
 0,-0.00524451,-0.00000079,0.00043618,0.00123906,0.00000032,0.00107498,
 -0.00352825,0.00000213,0.00195008,0.00103017,-0.00000013,0.00150237,-0
 .00193722,-0.00000238,0.00003999,0.00004870,-0.00000044,-0.00056495,0.
 00072543,0.00000003,-0.00001318,0.00002112,-0.00000801,-0.00027074,-0.
 00017096,0.00000003,-0.00001299,0.00002112,0.00000804,0.55494172,0.038
 73464,-0.01486270,0.00000100,0.03999447,-0.13209392,0.00000165,-0.0148
 3039,0.01565630,-0.00000113,-0.00616276,-0.00226855,-0.00000313,0.0001
 1040,-0.00256174,0.00000006,-0.00024661,-0.00451065,0.00000260,-0.0003
 1933,0.00119322,0.00000275,0.00039105,0.00088301,-0.00000115,0.0001951
 6,0.00024301,0.,-0.00072543,0.00077540,0.00000039,-0.00001363,-0.00002
 739,-0.00003167,-0.00045562,-0.00017335,0.00000002,-0.00001323,-0.0000
 2727,0.00003161,0.06163919,0.61593153,0.00000077,0.00000034,0.00599566
 ,0.00000430,-0.00000244,-0.08933469,0.00000109,-0.00000143,0.00546090,
 0.00000408,-0.00000029,0.00794825,-0.00000283,0.00000231,0.00002825,0.
 00000220,-0.00000331,0.00968050,-0.00000130,-0.00000111,-0.00377260,0.
 00000011,0.00000144,-0.00466603,0.00000005,-0.00000009,-0.00188753,0.0
 0000003,-0.00000039,-0.00001615,-0.00005363,-0.00002654,-0.00001203,0.
 00000012,0.00000007,-0.00014446,0.00005370,0.00002679,-0.00001202,-0.0
 0002327,0.00002378,0.61372672,-0.00324591,-0.00073971,0.00040848,-0.00
 532797,0.02418577,0.03021868,0.00080311,0.00094743,-0.00059564,0.00066
 051,-0.00036489,-0.00122053,0.00018895,0.00098765,0.00006240,-0.001086
 45,0.00076297,-0.00153258,-0.00030515,-0.00078208,0.00062029,0.0001265
 7,0.00019964,0.00022432,-0.00004664,-0.00005627,0.00023213,-0.00001299
 ,0.00001323,0.00005370,0.00000173,-0.00001854,-0.00001368,0.00003336,0
 .00000742,0.00002036,0.00001391,-0.00000039,-0.00000146,-0.05939112,0.
 00902611,0.01596910,0.06491079,0.00279720,-0.00055417,-0.00037186,0.00
 343868,-0.01322495,-0.01405905,-0.00259619,0.00065165,0.00047531,0.000
 75912,-0.00096980,0.00101449,0.00018183,0.00073395,-0.00001427,-0.0001
 8015,-0.00072380,0.00122822,0.00010056,0.00034897,-0.00073925,0.000029
 74,0.00022148,-0.00066845,0.00008169,0.00001902,-0.00028943,-0.0000211
 2,-0.00002727,-0.00002679,0.00001869,0.00004375,0.00001008,0.00000733,
 -0.00000771,-0.00000703,0.00000039,0.00002600,-0.00000101,0.01028187,-
 0.14876979,-0.13175284,-0.01534227,0.16190102,-0.00013107,0.00019073,-
 0.00035926,-0.00036517,0.00262182,0.00414704,-0.00021786,-0.00013989,0
 .00083025,0.00046774,-0.00021650,0.00020510,0.00013929,0.00035996,-0.0
 0006259,-0.00037164,0.00009459,-0.00027844,0.00041445,0.00019153,-0.00
 035685,0.00000342,0.00003656,0.00014905,0.00002418,0.00002141,-0.00000
 306,0.00000804,-0.00003161,-0.00001202,0.00001357,0.00000997,0.0000194
 6,0.00000375,0.00000625,0.00000279,-0.00000146,0.00000101,-0.00001701,
 0.01621922,-0.13213953,-0.24227603,-0.01670870,0.14721288,0.26372595,-
 0.00323538,-0.00074363,-0.00040750,-0.00535454,0.02414063,-0.03024805,
 0.00079893,0.00094762,0.00059664,0.00066101,-0.00036595,0.00122365,0.0
 0018898,0.00098943,-0.00006243,-0.00108917,0.00076018,0.00153296,-0.00
 030470,-0.00078139,-0.00062189,0.00012659,0.00019953,-0.00022454,-0.00
 004664,-0.00005614,-0.00023250,-0.00001318,0.00001363,-0.00005363,0.00
 001401,-0.00000035,0.00000149,0.00003321,0.00000741,-0.00002048,0.0000
 0173,-0.00001869,0.00001357,-0.05940988,0.00910149,-0.01612150,-0.0003
 4887,-0.00189243,0.00143895,0.06493258,0.00279451,-0.00055506,0.000368
 66,0.00345647,-0.01320181,0.01408347,-0.00259552,0.00064997,-0.0004744
 2,0.00075924,-0.00097169,-0.00101380,0.00018371,0.00073483,0.00001407,
 -0.00018221,-0.00072225,-0.00122980,0.00009956,0.00034734,0.00073785,0
 .00002957,0.00022015,0.00066979,0.00008157,0.00001891,0.00028949,-0.00
 002112,-0.00002739,0.00002654,0.00000035,0.00002602,0.00000100,0.00000
 736,-0.00000774,0.00000712,0.00001854,0.00004375,-0.00000997,0.0103504
 2,-0.14835706,0.13158997,-0.00190891,0.01527029,-0.01942199,-0.0154234
 0,0.16143986,0.00013073,-0.00019202,-0.00035969,0.00036105,-0.00260971
 ,0.00415381,0.00021879,0.00013999,0.00082950,-0.00046829,0.00021653,0.
 00020541,-0.00013725,-0.00035976,-0.00006281,0.00036834,-0.00009281,-0
 .00027784,-0.00041356,-0.00019088,-0.00035768,-0.00000385,-0.00003708,
 0.00014829,-0.00002428,-0.00002132,-0.00000315,-0.00000801,0.00003167,
 -0.00001203,0.00000149,-0.00000100,-0.00001694,-0.00000384,-0.00000625
 ,0.00000281,-0.00001368,-0.00001008,0.00001946,-0.01636393,0.13197086,
 -0.24264381,-0.00145491,0.01935805,-0.02685205,0.01687922,-0.14703141,
 0.26414121,0.00120796,-0.00318146,-0.00000154,-0.02736301,-0.02381180,
 0.00002500,-0.00501712,0.00519049,0.00000145,-0.00044589,-0.00187721,-
 0.00000159,0.00046792,0.00053602,0.00000013,-0.00002497,0.00006400,-0.
 00000117,0.00024877,0.00011571,0.00000053,0.00074772,0.00158777,0.0000
 0123,0.00004056,0.00010274,0.00000022,-0.00027074,0.00045562,0.0000001
 2,0.00003321,-0.00000736,-0.00000384,-0.00016076,-0.00005886,0.,0.0000
 3336,-0.00000733,0.00000375,-0.22070362,-0.13642553,0.00016697,0.00302
 619,0.00233504,-0.00093671,0.00304531,0.00234988,0.00093196,0.24513512
 ,0.00156740,0.00077430,-0.00000011,0.01900001,0.01429587,-0.00002030,0
 .00304835,-0.00271268,0.00000075,0.00072995,0.00067636,0.00000153,0.00
 006145,-0.00003563,-0.00000016,-0.00057873,0.00082766,-0.00000060,0.00
 021501,0.00011826,-0.00000059,0.00001946,-0.00018185,0.00000071,-0.000
 03767,-0.00000011,0.00000003,0.00017096,-0.00017335,-0.00000007,-0.000
 00741,-0.00000774,0.00000625,0.00005886,0.00005014,-0.00000001,-0.0000
 0742,-0.00000771,-0.00000625,-0.14307743,-0.18103004,0.00014375,-0.016
 91715,-0.01493863,0.00120280,-0.01687792,-0.01490813,-0.00116476,0.152
 63227,0.19725325,0.00000036,0.00000073,0.00008000,-0.00000955,-0.00000
 363,-0.00181979,0.00000011,0.00000038,0.00125448,-0.00000167,0.0000015
 1,0.00037783,-0.00000036,-0.00000150,0.00005866,0.00000056,-0.00000014
 ,-0.00028176,0.00000019,0.00000041,-0.00028226,0.00000006,-0.00000098,
 0.00037186,-0.00000004,0.,0.00002178,0.00000003,-0.00000002,-0.0001444
 6,-0.00002048,-0.00000712,0.00000281,0.,0.00000001,-0.00000788,0.00002
 036,0.00000703,0.00000279,0.00017286,0.00014191,-0.05807493,-0.0262819
 6,-0.02136906,0.00113768,0.02630604,0.02139343,0.00108551,-0.00018652,
 -0.00016296,0.05621768\\0.00000357,0.00000577,0.00000130,-0.00000380,-
 0.00002001,0.00000103,0.,0.00000964,0.,0.00000380,-0.00002001,-0.00000
 103,-0.00000357,0.00000577,-0.00000130,0.,0.00000133,0.,0.,0.00000085,
 0.,-0.00000034,-0.00000076,-0.00000094,0.00000034,-0.00000076,0.000000
 94,0.00000023,0.00001431,-0.00000304,-0.00000132,-0.00000075,0.0000040
 7,-0.00000237,-0.00000271,0.00000027,-0.00000146,-0.00000175,-0.000001
 12,-0.00000023,0.00001431,0.00000304,0.00000146,-0.00000175,0.00000112
 ,0.00000132,-0.00000075,-0.00000407,0.00000237,-0.00000271,-0.00000027
 \\\@


 THE HURRIEDER I GO, THE BEHINDER I GET.
 Job cpu time:       0 days  0 hours  0 minutes  5.8 seconds.
 Elapsed time:       0 days  0 hours  0 minutes  5.7 seconds.
 File lengths (MBytes):  RWF=     17 Int=      0 D2E=      0 Chk=      2 Scr=      1
 Normal termination of Gaussian 16 at Mon Jun 16 17:00:06 2025.
