 Entering Gaussian System, Link 0=g16
 Input=/home/gaussian/Documents/Summer_Internship/Acid_Base_adduct/Base/3,5-dimethpyridine/35DMP_sp.com
 Output=/home/gaussian/Documents/Summer_Internship/Acid_Base_adduct/Base/3,5-dimethpyridine/35DMP_sp.log
 Initial command:
 /usr/local/g16/l1.exe "/home/gaussian/tmp/Gau-74636.inp" -scrdir="/home/gaussian/tmp/"
 Entering Link 1 = /usr/local/g16/l1.exe PID=     74639.
  
 Copyright (c) 1988-2017, Gaussian, Inc.  All Rights Reserved.
  
 This is part of the Gaussian(R) 16 program.  It is based on
 the Gaussian(R) 09 system (copyright 2009, Gaussian, Inc.),
 the Gaussian(R) 03 system (copyright 2003, Gaussian, Inc.),
 the Gaussian(R) 98 system (copyright 1998, Gaussian, Inc.),
 the Gaussian(R) 94 system (copyright 1995, Gaussian, Inc.),
 the Gaussian 92(TM) system (copyright 1992, Gaussian, Inc.),
 the Gaussian 90(TM) system (copyright 1990, Gaussian, Inc.),
 the Gaussian 88(TM) system (copyright 1988, Gaussian, Inc.),
 the Gaussian 86(TM) system (copyright 1986, Carnegie Mellon
 University), and the Gaussian 82(TM) system (copyright 1983,
 Carnegie Mellon University). Gaussian is a federally registered
 trademark of Gaussian, Inc.
  
 This software contains proprietary and confidential information,
 including trade secrets, belonging to Gaussian, Inc.
  
 This software is provided under written license and may be
 used, copied, transmitted, or stored only in accord with that
 written license.
  
 The following legend is applicable only to US Government
 contracts under FAR:
  
                    RESTRICTED RIGHTS LEGEND
  
 Use, reproduction and disclosure by the US Government is
 subject to restrictions as set forth in subparagraphs (a)
 and (c) of the Commercial Computer Software - Restricted
 Rights clause in FAR 52.227-19.
  
 Gaussian, Inc.
 340 Quinnipiac St., Bldg. 40, Wallingford CT 06492
  
  
 ---------------------------------------------------------------
 Warning -- This program may not be used in any manner that
 competes with the business of Gaussian, Inc. or will provide
 assistance to any competitor of Gaussian, Inc.  The licensee
 of this program is prohibited from giving any competitor of
 Gaussian, Inc. access to this program.  By using this program,
 the user acknowledges that Gaussian, Inc. is engaged in the
 business of creating and licensing software in the field of
 computational chemistry and represents and warrants to the
 licensee that it is not a competitor of Gaussian, Inc. and that
 it will not use this program in any manner prohibited above.
 ---------------------------------------------------------------
  

 Cite this work as:
 Gaussian 16, Revision B.01,
 M. J. Frisch, G. W. Trucks, H. B. Schlegel, G. E. Scuseria, 
 M. A. Robb, J. R. Cheeseman, G. Scalmani, V. Barone, 
 G. A. Petersson, H. Nakatsuji, X. Li, M. Caricato, A. V. Marenich, 
 J. Bloino, B. G. Janesko, R. Gomperts, B. Mennucci, H. P. Hratchian, 
 J. V. Ortiz, A. F. Izmaylov, J. L. Sonnenberg, D. Williams-Young, 
 F. Ding, F. Lipparini, F. Egidi, J. Goings, B. Peng, A. Petrone, 
 T. Henderson, D. Ranasinghe, V. G. Zakrzewski, J. Gao, N. Rega, 
 G. Zheng, W. Liang, M. Hada, M. Ehara, K. Toyota, R. Fukuda, 
 J. Hasegawa, M. Ishida, T. Nakajima, Y. Honda, O. Kitao, H. Nakai, 
 T. Vreven, K. Throssell, J. A. Montgomery, Jr., J. E. Peralta, 
 F. Ogliaro, M. J. Bearpark, J. J. Heyd, E. N. Brothers, K. N. Kudin, 
 V. N. Staroverov, T. A. Keith, R. Kobayashi, J. Normand, 
 K. Raghavachari, A. P. Rendell, J. C. Burant, S. S. Iyengar, 
 J. Tomasi, M. Cossi, J. M. Millam, M. Klene, C. Adamo, R. Cammi, 
 J. W. Ochterski, R. L. Martin, K. Morokuma, O. Farkas, 
 J. B. Foresman, and D. J. Fox, Gaussian, Inc., Wallingford CT, 2016.
 
 ******************************************
 Gaussian 16:  EM64L-G16RevB.01 20-Dec-2017
                16-Jun-2025 
 ******************************************
 %chk=35DMP_sp.chk
 -------------------------------------
 # hf/3-21g pop=full geom=connectivity
 -------------------------------------
 1/38=1,57=2,172=1/1;
 2/12=2,17=6,18=5,40=1/2;
 3/5=5,11=9,25=1,30=1/1,2,3;
 4//1;
 5/5=2,38=5/2;
 6/7=3,28=1/1;
 99/5=1,9=1/99;
 ---------
 35 DMP sp
 ---------
 Symbolic Z-matrix:
 Charge =  0 Multiplicity = 1
 C                     0.00001   1.14571   1.13114 
 C                     0.        1.20401  -0.25296 
 C                     0.        0.       -0.93934 
 C                     0.       -1.20401  -0.25296 
 C                    -0.00001  -1.14571   1.13114 
 N                     0.        0.        1.80301 
 H                     0.        0.       -2.01378 
 H                     0.00001   2.04599   1.71199 
 H                    -0.00001  -2.04599   1.71199 
 C                     0.00009  -2.52638  -0.98916 
 H                     0.87904  -2.61582  -1.61863 
 H                    -0.00072  -3.35599  -0.29312 
 H                    -0.87794  -2.61522  -1.61999 
 C                    -0.00009   2.52638  -0.98916 
 H                     0.87794   2.61522  -1.61999 
 H                    -0.87904   2.61582  -1.61863 
 H                     0.00072   3.35599  -0.29312 
 
                          Input orientation:                          
 ---------------------------------------------------------------------
 Center     Atomic      Atomic             Coordinates (Angstroms)
 Number     Number       Type             X           Y           Z
 ---------------------------------------------------------------------
      1          6           0        0.000008    1.145710    1.131144
      2          6           0        0.000000    1.204009   -0.252957
      3          6           0        0.000000    0.000000   -0.939344
      4          6           0        0.000000   -1.204009   -0.252957
      5          6           0       -0.000008   -1.145710    1.131144
      6          7           0        0.000000    0.000000    1.803007
      7          1           0        0.000000    0.000000   -2.013782
      8          1           0        0.000006    2.045988    1.711992
      9          1           0       -0.000006   -2.045988    1.711992
     10          6           0        0.000089   -2.526379   -0.989162
     11          1           0        0.879040   -2.615816   -1.618631
     12          1           0       -0.000723   -3.355987   -0.293123
     13          1           0       -0.877938   -2.615216   -1.619986
     14          6           0       -0.000089    2.526379   -0.989162
     15          1           0        0.877938    2.615216   -1.619986
     16          1           0       -0.879040    2.615816   -1.618631
     17          1           0        0.000723    3.355987   -0.293123
 ---------------------------------------------------------------------
                    Distance matrix (angstroms):
                    1          2          3          4          5
     1  C    0.000000
     2  C    1.385328   0.000000
     3  C    2.366341   1.385917   0.000000
     4  C    2.727071   2.408018   1.385917   0.000000
     5  C    2.291420   2.727071   2.366341   1.385328   0.000000
     6  N    1.328176   2.382567   2.742351   2.382567   1.328176
     7  H    3.347120   2.133106   1.074438   2.133106   3.347120
     8  H    1.071394   2.137745   3.348977   3.797829   3.244121
     9  H    3.244121   3.797829   3.348977   2.137745   1.071394
    10  C    4.240275   3.802340   2.526870   1.513493   2.530206
    11  H    4.741628   4.150764   2.841942   2.151970   3.239630
    12  H    4.721632   4.560173   3.417638   2.152353   2.629422
    13  H    4.741737   4.150424   2.841374   2.151987   3.240205
    14  C    2.530206   1.513493   2.526870   3.802340   4.240275
    15  H    3.240205   2.151987   2.841374   4.150424   4.741737
    16  H    3.239630   2.151970   2.841942   4.150764   4.741628
    17  H    2.629422   2.152353   3.417638   4.560173   4.721632
                    6          7          8          9         10
     6  N    0.000000
     7  H    3.816789   0.000000
     8  H    2.048011   4.250583   0.000000
     9  H    2.048011   4.250583   4.091976   0.000000
    10  C    3.765475   2.726250   5.310628   2.743539   0.000000
    11  H    4.395772   2.787714   5.796393   3.491486   1.084797
    12  H    3.956818   3.771381   5.762102   2.395117   1.082922
    13  H    4.396250   2.786612   5.796524   3.492401   1.084787
    14  C    3.765475   2.726250   2.743539   5.310628   5.052758
    15  H    4.396250   2.786612   3.492401   5.796524   5.254004
    16  H    4.395772   2.787714   3.491486   5.796393   5.254643
    17  H    3.956818   3.771381   2.395117   5.762102   5.923403
                   11         12         13         14         15
    11  H    0.000000
    12  H    1.754653   0.000000
    13  H    1.756979   1.754655   0.000000
    14  C    5.254643   5.923403   5.254004   0.000000
    15  H    5.231032   6.179634   5.517293   1.084787   0.000000
    16  H    5.519132   6.179874   5.231032   1.084797   1.756979
    17  H    6.179874   6.711974   6.179634   1.082922   1.754655
                   16         17
    16  H    0.000000
    17  H    1.754653   0.000000
 Stoichiometry    C7H9N
 Framework group  C2[C2(HCN),X(C6H8)]
 Deg. of freedom    22
 Full point group                 C2      NOp   2
 Largest Abelian subgroup         C2      NOp   2
 Largest concise Abelian subgroup C2      NOp   2
                         Standard orientation:                         
 ---------------------------------------------------------------------
 Center     Atomic      Atomic             Coordinates (Angstroms)
 Number     Number       Type             X           Y           Z
 ---------------------------------------------------------------------
      1          6           0        0.000008    1.145710    1.131144
      2          6           0       -0.000000    1.204009   -0.252957
      3          6           0       -0.000000    0.000000   -0.939344
      4          6           0       -0.000000   -1.204009   -0.252957
      5          6           0       -0.000008   -1.145710    1.131144
      6          7           0        0.000000   -0.000000    1.803007
      7          1           0       -0.000000    0.000000   -2.013782
      8          1           0        0.000006    2.045988    1.711992
      9          1           0       -0.000006   -2.045988    1.711992
     10          6           0        0.000089   -2.526379   -0.989162
     11          1           0        0.879040   -2.615816   -1.618631
     12          1           0       -0.000723   -3.355987   -0.293123
     13          1           0       -0.877938   -2.615216   -1.619986
     14          6           0       -0.000089    2.526379   -0.989162
     15          1           0        0.877938    2.615216   -1.619986
     16          1           0       -0.879040    2.615816   -1.618631
     17          1           0        0.000723    3.355987   -0.293123
 ---------------------------------------------------------------------
 Rotational constants (GHZ):           3.7327254           1.7965501           1.2312070
 Standard basis: 3-21G (6D, 7F)
 There are    47 symmetry adapted cartesian basis functions of A   symmetry.
 There are    43 symmetry adapted cartesian basis functions of B   symmetry.
 There are    47 symmetry adapted basis functions of A   symmetry.
 There are    43 symmetry adapted basis functions of B   symmetry.
    90 basis functions,   147 primitive gaussians,    90 cartesian basis functions
    29 alpha electrons       29 beta electrons
       nuclear repulsion energy       346.0250538597 Hartrees.
 NAtoms=   17 NActive=   17 NUniq=   10 SFac= 2.89D+00 NAtFMM=   60 NAOKFM=F Big=F
 Integral buffers will be    131072 words long.
 Raffenetti 1 integral format.
 Two-electron integral symmetry is turned on.
 One-electron integrals computed using PRISM.
 NBasis=    90 RedAO= T EigKep=  2.34D-03  NBF=    47    43
 NBsUse=    90 1.00D-06 EigRej= -1.00D+00 NBFU=    47    43
 ExpMin= 1.83D-01 ExpMax= 2.43D+02 ExpMxC= 2.43D+02 IAcc=3 IRadAn=         5 AccDes= 0.00D+00
 Harris functional with IExCor=  205 and IRadAn=       5 diagonalized for initial guess.
 HarFok:  IExCor=  205 AccDes= 0.00D+00 IRadAn=         5 IDoV= 1 UseB2=F ITyADJ=14
 ICtDFT=  3500011 ScaDFX=  1.000000  1.000000  1.000000  1.000000
 FoFCou: FMM=F IPFlag=           0 FMFlag=      100000 FMFlg1=           0
         NFxFlg=           0 DoJE=T BraDBF=F KetDBF=T FulRan=T
         wScrn=  0.000000 ICntrl=       500 IOpCl=  0 I1Cent=   200000004 NGrid=           0
         NMat0=    1 NMatS0=      1 NMatT0=    0 NMatD0=    1 NMtDS0=    0 NMtDT0=    0
 Petite list used in FoFCou.
 Initial guess orbital symmetries:
       Occupied  (A) (B) (A) (A) (B) (A) (B) (A) (A) (A) (B) (A)
                 (B) (A) (B) (B) (A) (A) (B) (B) (A) (A) (A) (B)
                 (B) (B) (B) (A) (A)
       Virtual   (B) (A) (B) (A) (B) (A) (B) (A) (B) (A) (A) (B)
                 (B) (A) (A) (B) (B) (A) (B) (A) (B) (B) (A) (B)
                 (A) (A) (A) (B) (B) (B) (A) (A) (B) (A) (A) (A)
                 (B) (B) (B) (B) (A) (A) (A) (B) (A) (B) (B) (A)
                 (B) (A) (A) (B) (A) (B) (A) (B) (A) (B) (B) (A)
                 (A)
 The electronic state of the initial guess is 1-A.
 Keep R1 ints in memory in symmetry-blocked form, NReq=12591722.
 Requested convergence on RMS density matrix=1.00D-08 within 128 cycles.
 Requested convergence on MAX density matrix=1.00D-06.
 Requested convergence on             energy=1.00D-06.
 No special actions if energy rises.
 SCF Done:  E(RHF) =  -322.955314136     A.U. after   12 cycles
            NFock= 12  Conv=0.43D-08     -V/T= 2.0018

 **********************************************************************

            Population analysis using the SCF Density.

 **********************************************************************

 Orbital symmetries:
       Occupied  (A) (B) (A) (B) (A) (A) (B) (A) (A) (A) (B) (A)
                 (B) (A) (B) (A) (B) (A) (B) (A) (B) (A) (A) (B)
                 (B) (B) (A) (B) (A)
       Virtual   (B) (A) (A) (B) (A) (B) (B) (A) (A) (B) (A) (B)
                 (A) (B) (A) (B) (B) (A) (B) (A) (B) (B) (A) (A)
                 (A) (B) (B) (A) (B) (A) (B) (A) (B) (A) (A) (B)
                 (A) (B) (A) (B) (B) (A) (B) (A) (A) (B) (A) (B)
                 (A) (B) (A) (B) (A) (B) (A) (B) (A) (B) (B) (A)
                 (A)
 The electronic state is 1-A.
 Alpha  occ. eigenvalues --  -15.48594 -11.20575 -11.20528 -11.19329 -11.19322
 Alpha  occ. eigenvalues --  -11.18800 -11.17156 -11.17149  -1.26954  -1.10775
 Alpha  occ. eigenvalues --   -1.07286  -0.95802  -0.95165  -0.85243  -0.80942
 Alpha  occ. eigenvalues --   -0.71044  -0.68545  -0.59846  -0.59796  -0.57962
 Alpha  occ. eigenvalues --   -0.57953  -0.57171  -0.55464  -0.54353  -0.51814
 Alpha  occ. eigenvalues --   -0.49756  -0.39197  -0.36868  -0.33549
 Alpha virt. eigenvalues --    0.13083   0.15043   0.27047   0.29046   0.31192
 Alpha virt. eigenvalues --    0.31966   0.31984   0.32160   0.35155   0.36069
 Alpha virt. eigenvalues --    0.36295   0.41929   0.44646   0.45388   0.48069
 Alpha virt. eigenvalues --    0.53298   0.60718   0.61640   0.67357   0.75536
 Alpha virt. eigenvalues --    0.91922   0.92744   0.94486   0.94844   0.95696
 Alpha virt. eigenvalues --    0.99099   1.01658   1.03493   1.05367   1.08663
 Alpha virt. eigenvalues --    1.09328   1.12611   1.16716   1.17621   1.19576
 Alpha virt. eigenvalues --    1.20161   1.21585   1.21691   1.33945   1.34294
 Alpha virt. eigenvalues --    1.34471   1.34777   1.36092   1.36683   1.42152
 Alpha virt. eigenvalues --    1.44668   1.56137   1.56141   1.61343   1.62319
 Alpha virt. eigenvalues --    1.68060   1.74830   1.78370   1.85018   1.92657
 Alpha virt. eigenvalues --    1.96963   2.16771   2.26161   2.28948   2.31821
 Alpha virt. eigenvalues --    3.29445
     Molecular Orbital Coefficients:
                           1         2         3         4         5
                           O         O         O         O         O
     Eigenvalues --   -15.48594 -11.20575 -11.20528 -11.19329 -11.19322
   1 1   C  1S         -0.00023   0.69803   0.69743   0.00656   0.00681
   2        2S         -0.00106   0.07051   0.06671  -0.00183  -0.00189
   3        2PX        -0.00000  -0.00000  -0.00000  -0.00000  -0.00000
   4        2PY        -0.00105  -0.00203   0.00016  -0.00004  -0.00008
   5        2PZ         0.00082  -0.00057  -0.00004   0.00085   0.00121
   6        3S          0.03784  -0.05438  -0.03711   0.01848   0.02630
   7        3PX        -0.00000  -0.00000  -0.00000   0.00000  -0.00000
   8        3PY        -0.03104   0.00571  -0.01043  -0.00193  -0.00593
   9        3PZ        -0.00578   0.01964   0.00252  -0.00955  -0.01426
  10 2   C  1S          0.00055  -0.00697  -0.00739   0.69811   0.69754
  11        2S          0.00243  -0.00324  -0.00212   0.07095   0.07143
  12        2PX         0.00000  -0.00000  -0.00000  -0.00000  -0.00000
  13        2PY        -0.00125  -0.00015  -0.00038  -0.00087  -0.00009
  14        2PZ        -0.00008  -0.00130  -0.00150   0.00011   0.00044
  15        3S         -0.02896   0.02238   0.00413  -0.06049  -0.07493
  16        3PX        -0.00000   0.00000   0.00000  -0.00000  -0.00000
  17        3PY         0.03138  -0.00081   0.01129   0.00529   0.01301
  18        3PZ        -0.01122   0.02157   0.00753  -0.00251  -0.00734
  19 3   C  1S         -0.00044   0.00000  -0.01215   0.00000  -0.04638
  20        2S         -0.00204   0.00000  -0.00359   0.00000  -0.01025
  21        2PX         0.00000  -0.00000   0.00000  -0.00000   0.00000
  22        2PY         0.00000  -0.00110   0.00000  -0.00190   0.00000
  23        2PZ         0.00011   0.00000  -0.00097   0.00000  -0.00137
  24        3S          0.03957   0.00000   0.01886   0.00000   0.05105
  25        3PX         0.00000  -0.00000   0.00000   0.00000   0.00000
  26        3PY         0.00000   0.00878   0.00000   0.01734   0.00000
  27        3PZ         0.02385   0.00000   0.01073   0.00000   0.02111
  28 4   C  1S          0.00055   0.00697  -0.00739  -0.69811   0.69754
  29        2S          0.00243   0.00324  -0.00212  -0.07095   0.07143
  30        2PX        -0.00000  -0.00000   0.00000  -0.00000   0.00000
  31        2PY         0.00125  -0.00015   0.00038  -0.00087   0.00009
  32        2PZ        -0.00008   0.00130  -0.00150  -0.00011   0.00044
  33        3S         -0.02896  -0.02238   0.00413   0.06049  -0.07493
  34        3PX         0.00000   0.00000  -0.00000  -0.00000   0.00000
  35        3PY        -0.03138  -0.00081  -0.01129   0.00529  -0.01301
  36        3PZ        -0.01122  -0.02157   0.00753   0.00251  -0.00734
  37 5   C  1S         -0.00023  -0.69803   0.69743  -0.00656   0.00681
  38        2S         -0.00106  -0.07051   0.06671   0.00183  -0.00189
  39        2PX         0.00000  -0.00000   0.00000  -0.00000   0.00000
  40        2PY         0.00105  -0.00203  -0.00016  -0.00004   0.00008
  41        2PZ         0.00082   0.00057  -0.00004  -0.00085   0.00121
  42        3S          0.03784   0.05438  -0.03711  -0.01848   0.02630
  43        3PX         0.00000  -0.00000   0.00000   0.00000   0.00000
  44        3PY         0.03104   0.00571   0.01043  -0.00193   0.00593
  45        3PZ        -0.00578  -0.01964   0.00252   0.00955  -0.01426
  46 6   N  1S          0.98678   0.00000   0.00031   0.00000   0.00025
  47        2S          0.10641   0.00000   0.00142   0.00000   0.00141
  48        2PX         0.00000  -0.00000   0.00000   0.00000   0.00000
  49        2PY         0.00000   0.00005   0.00000  -0.00040   0.00000
  50        2PZ        -0.00539   0.00000   0.00018   0.00000  -0.00006
  51        3S         -0.09372   0.00000  -0.00255   0.00000  -0.00996
  52        3PX         0.00000   0.00000   0.00000  -0.00000   0.00000
  53        3PY         0.00000  -0.00370   0.00000  -0.00073   0.00000
  54        3PZ         0.02656   0.00000   0.00356   0.00000   0.00626
  55 7   H  1S          0.00070   0.00000   0.00022   0.00000  -0.00054
  56        2S          0.00566   0.00000   0.00363   0.00000   0.00288
  57 8   H  1S          0.00106  -0.00211  -0.00043  -0.00058  -0.00032
  58        2S          0.00767   0.00303   0.01220   0.00103   0.00266
  59 9   H  1S          0.00106   0.00211  -0.00043   0.00058  -0.00032
  60        2S          0.00767  -0.00303   0.01220  -0.00103   0.00266
  61 10  C  1S          0.00011   0.00186  -0.00338   0.00126  -0.00493
  62        2S          0.00029   0.00060  -0.00091   0.00064  -0.00182
  63        2PX        -0.00000   0.00000  -0.00000  -0.00000   0.00000
  64        2PY        -0.00089   0.00013  -0.00059  -0.00007  -0.00040
  65        2PZ        -0.00067   0.00034  -0.00060   0.00050  -0.00036
  66        3S         -0.01319  -0.00242  -0.00297  -0.00740   0.00730
  67        3PX         0.00000  -0.00000   0.00000   0.00000  -0.00000
  68        3PY        -0.00387  -0.00264   0.00004  -0.00345   0.00493
  69        3PZ        -0.00273   0.00142  -0.00156  -0.00499   0.00343
  70 11  H  1S          0.00038   0.00013   0.00001   0.00053  -0.00087
  71        2S          0.00018   0.00027  -0.00007  -0.00184   0.00158
  72 12  H  1S          0.00014   0.00000   0.00006   0.00061  -0.00045
  73        2S          0.00131  -0.00128   0.00068   0.00133  -0.00043
  74 13  H  1S          0.00038   0.00013   0.00001   0.00053  -0.00087
  75        2S          0.00018   0.00027  -0.00007  -0.00183   0.00158
  76 14  C  1S          0.00011  -0.00186  -0.00338  -0.00126  -0.00493
  77        2S          0.00029  -0.00060  -0.00091  -0.00064  -0.00182
  78        2PX         0.00000   0.00000   0.00000  -0.00000  -0.00000
  79        2PY         0.00089   0.00013   0.00059  -0.00007   0.00040
  80        2PZ        -0.00067  -0.00034  -0.00060  -0.00050  -0.00036
  81        3S         -0.01319   0.00242  -0.00297   0.00740   0.00730
  82        3PX        -0.00000  -0.00000  -0.00000   0.00000   0.00000
  83        3PY         0.00387  -0.00264  -0.00004  -0.00345  -0.00493
  84        3PZ        -0.00273  -0.00142  -0.00156   0.00499   0.00343
  85 15  H  1S          0.00038  -0.00013   0.00001  -0.00053  -0.00087
  86        2S          0.00018  -0.00027  -0.00007   0.00183   0.00158
  87 16  H  1S          0.00038  -0.00013   0.00001  -0.00053  -0.00087
  88        2S          0.00018  -0.00027  -0.00007   0.00184   0.00158
  89 17  H  1S          0.00014  -0.00000   0.00006  -0.00061  -0.00045
  90        2S          0.00131   0.00128   0.00068  -0.00133  -0.00043
                           6         7         8         9        10
                           O         O         O         O         O
     Eigenvalues --   -11.18800 -11.17156 -11.17149  -1.26954  -1.10775
   1 1   C  1S          0.00859  -0.00182   0.00341  -0.10141  -0.00837
   2        2S         -0.00029   0.00020  -0.00059   0.11688   0.00550
   3        2PX        -0.00000  -0.00000   0.00000  -0.00000   0.00000
   4        2PY         0.00039   0.00049  -0.00025  -0.08828  -0.05100
   5        2PZ         0.00114  -0.00023   0.00049   0.01018   0.08331
   6        3S         -0.00501  -0.00122   0.00287   0.08308  -0.00299
   7        3PX         0.00000   0.00000  -0.00000   0.00000  -0.00000
   8        3PY         0.00430   0.00225  -0.00154   0.06931   0.02616
   9        3PZ         0.00040   0.00049  -0.00234   0.01602   0.01396
  10 2   C  1S          0.03199  -0.00111   0.00481  -0.05414   0.10721
  11        2S         -0.00066   0.00047  -0.00096   0.05402  -0.11934
  12        2PX        -0.00000   0.00000  -0.00000  -0.00000   0.00000
  13        2PY         0.00196   0.00098  -0.00032  -0.02463   0.04153
  14        2PZ         0.00029  -0.00009   0.00019   0.03113   0.03183
  15        3S          0.03023  -0.00927   0.01131   0.15515  -0.19355
  16        3PX         0.00000  -0.00000  -0.00000  -0.00000   0.00000
  17        3PY        -0.02724  -0.01625   0.01041  -0.08971  -0.03467
  18        3PZ        -0.00136   0.00379  -0.00650   0.03263   0.01121
  19 3   C  1S          0.98616   0.00000   0.00781  -0.04125   0.13350
  20        2S          0.09972   0.00000  -0.00011   0.05264  -0.14476
  21        2PX         0.00000  -0.00000   0.00000   0.00000   0.00000
  22        2PY         0.00000   0.00120   0.00000   0.00000   0.00000
  23        2PZ         0.00129   0.00000   0.00031   0.03266  -0.04801
  24        3S         -0.09687   0.00000   0.00225  -0.03421  -0.32027
  25        3PX         0.00000   0.00000   0.00000   0.00000   0.00000
  26        3PY         0.00000  -0.00751   0.00000   0.00000   0.00000
  27        3PZ        -0.02607   0.00000   0.00320  -0.05318  -0.04821
  28 4   C  1S          0.03199   0.00111   0.00481  -0.05414   0.10721
  29        2S         -0.00066  -0.00047  -0.00096   0.05402  -0.11934
  30        2PX         0.00000   0.00000   0.00000   0.00000  -0.00000
  31        2PY        -0.00196   0.00098   0.00032   0.02463  -0.04153
  32        2PZ         0.00029   0.00009   0.00019   0.03113   0.03183
  33        3S          0.03023   0.00927   0.01131   0.15515  -0.19355
  34        3PX        -0.00000  -0.00000   0.00000   0.00000  -0.00000
  35        3PY         0.02724  -0.01625  -0.01041   0.08971   0.03467
  36        3PZ        -0.00136  -0.00379  -0.00650   0.03263   0.01121
  37 5   C  1S          0.00859   0.00182   0.00341  -0.10141  -0.00837
  38        2S         -0.00029  -0.00020  -0.00059   0.11688   0.00550
  39        2PX         0.00000  -0.00000  -0.00000   0.00000  -0.00000
  40        2PY        -0.00039   0.00049   0.00025   0.08828   0.05100
  41        2PZ         0.00114   0.00023   0.00049   0.01018   0.08331
  42        3S         -0.00501   0.00122   0.00287   0.08308  -0.00299
  43        3PX        -0.00000   0.00000   0.00000  -0.00000   0.00000
  44        3PY        -0.00430   0.00225   0.00154  -0.06931  -0.02616
  45        3PZ         0.00040  -0.00049  -0.00234   0.01602   0.01396
  46 6   N  1S         -0.00009   0.00000  -0.00002  -0.17229  -0.09738
  47        2S         -0.00075   0.00000  -0.00036   0.14737   0.08482
  48        2PX         0.00000   0.00000   0.00000   0.00000   0.00000
  49        2PY         0.00000   0.00017   0.00000   0.00000   0.00000
  50        2PZ         0.00006   0.00000   0.00013  -0.09987  -0.02972
  51        3S          0.00562   0.00000  -0.00008   0.57215   0.34153
  52        3PX         0.00000  -0.00000   0.00000   0.00000   0.00000
  53        3PY         0.00000   0.00026   0.00000   0.00000   0.00000
  54        3PZ        -0.00112   0.00000   0.00014  -0.13788  -0.05697
  55 7   H  1S         -0.00245   0.00000  -0.00019   0.01038  -0.06068
  56        2S          0.00575   0.00000   0.00176  -0.01840  -0.01381
  57 8   H  1S         -0.00036  -0.00026   0.00011   0.02534   0.00148
  58        2S          0.00009  -0.00010   0.00052  -0.02988  -0.00796
  59 9   H  1S         -0.00036   0.00026   0.00011   0.02534   0.00148
  60        2S          0.00009   0.00010   0.00052  -0.02988  -0.00796
  61 10  C  1S         -0.00595   0.69836   0.69823  -0.01101   0.05940
  62        2S         -0.00154   0.07264   0.07206   0.01038  -0.05979
  63        2PX         0.00000   0.00000   0.00000  -0.00000   0.00000
  64        2PY        -0.00019   0.00005  -0.00007   0.01023  -0.03037
  65        2PZ         0.00002  -0.00014  -0.00006   0.00755  -0.01148
  66        3S          0.00853  -0.06256  -0.05974   0.05624  -0.12849
  67        3PX        -0.00000   0.00000  -0.00000  -0.00001  -0.00001
  68        3PY         0.00272  -0.00479  -0.00363   0.01035   0.00318
  69        3PZ         0.00419  -0.00300  -0.00187   0.00519   0.00685
  70 11  H  1S         -0.00024   0.00034   0.00018   0.00305  -0.02831
  71        2S          0.00042   0.01023   0.01030  -0.00359   0.00476
  72 12  H  1S         -0.00055   0.00032   0.00013   0.00439  -0.02546
  73        2S         -0.00030   0.01031   0.01031  -0.00402   0.00154
  74 13  H  1S         -0.00024   0.00034   0.00018   0.00305  -0.02832
  75        2S          0.00042   0.01023   0.01030  -0.00359   0.00475
  76 14  C  1S         -0.00595  -0.69836   0.69823  -0.01101   0.05940
  77        2S         -0.00154  -0.07264   0.07206   0.01038  -0.05979
  78        2PX        -0.00000   0.00000  -0.00000   0.00000  -0.00000
  79        2PY         0.00019   0.00005   0.00007  -0.01023   0.03037
  80        2PZ         0.00002   0.00014  -0.00006   0.00755  -0.01148
  81        3S          0.00853   0.06256  -0.05974   0.05624  -0.12849
  82        3PX         0.00000   0.00000   0.00000   0.00001   0.00001
  83        3PY        -0.00272  -0.00479   0.00363  -0.01035  -0.00318
  84        3PZ         0.00419   0.00300  -0.00187   0.00519   0.00685
  85 15  H  1S         -0.00024  -0.00034   0.00018   0.00305  -0.02832
  86        2S          0.00042  -0.01023   0.01030  -0.00359   0.00475
  87 16  H  1S         -0.00024  -0.00034   0.00018   0.00305  -0.02831
  88        2S          0.00042  -0.01023   0.01030  -0.00359   0.00476
  89 17  H  1S         -0.00055  -0.00032   0.00013   0.00439  -0.02546
  90        2S         -0.00030  -0.01031   0.01031  -0.00402   0.00154
                          11        12        13        14        15
                           O         O         O         O         O
     Eigenvalues --    -1.07286  -0.95802  -0.95165  -0.85243  -0.80942
   1 1   C  1S         -0.08840  -0.00949  -0.11167   0.07394   0.04971
   2        2S          0.09769   0.01034   0.12038  -0.08342  -0.05126
   3        2PX        -0.00000  -0.00000   0.00000   0.00000   0.00000
   4        2PY         0.00524   0.01937  -0.02194  -0.10099   0.01957
   5        2PZ        -0.04727   0.02289   0.01436   0.12413  -0.14663
   6        3S          0.18677   0.02157   0.28915  -0.21159  -0.17275
   7        3PX         0.00000   0.00000  -0.00000   0.00000   0.00000
   8        3PY         0.00546   0.01882  -0.00392  -0.03378  -0.01051
   9        3PZ        -0.03750   0.01032  -0.04730   0.05349  -0.00886
  10 2   C  1S         -0.11288   0.01059  -0.00900   0.04569  -0.10133
  11        2S          0.12074  -0.01133   0.01193  -0.04872   0.10232
  12        2PX        -0.00000  -0.00000   0.00000  -0.00000  -0.00000
  13        2PY         0.02423   0.13403  -0.04629  -0.04673  -0.06709
  14        2PZ         0.02557   0.00011   0.10099  -0.16574  -0.02943
  15        3S          0.24476  -0.02980   0.00166  -0.14121   0.35556
  16        3PX        -0.00000  -0.00000   0.00000   0.00000  -0.00000
  17        3PY        -0.02149   0.02322  -0.00279  -0.01319  -0.02675
  18        3PZ        -0.01963   0.00411  -0.00635  -0.06344   0.01509
  19 3   C  1S          0.00000   0.10319   0.00000  -0.09618   0.00000
  20        2S          0.00000  -0.10875   0.00000   0.09852   0.00000
  21        2PX        -0.00000   0.00000   0.00000   0.00000  -0.00000
  22        2PY         0.09906   0.00000  -0.01250   0.00000   0.20143
  23        2PZ         0.00000  -0.04351   0.00000  -0.07998   0.00000
  24        3S          0.00000  -0.27389   0.00000   0.30365   0.00000
  25        3PX         0.00000   0.00000  -0.00000   0.00000   0.00000
  26        3PY        -0.02538   0.00000  -0.01664   0.00000   0.08020
  27        3PZ         0.00000  -0.03270   0.00000  -0.02433   0.00000
  28 4   C  1S          0.11288   0.01059   0.00900   0.04569   0.10133
  29        2S         -0.12074  -0.01133  -0.01193  -0.04872  -0.10232
  30        2PX        -0.00000   0.00000   0.00000   0.00000  -0.00000
  31        2PY         0.02423  -0.13403  -0.04629   0.04673  -0.06709
  32        2PZ        -0.02557   0.00011  -0.10099  -0.16574   0.02943
  33        3S         -0.24476  -0.02980  -0.00166  -0.14121  -0.35556
  34        3PX        -0.00000   0.00000   0.00000  -0.00000  -0.00000
  35        3PY        -0.02149  -0.02322  -0.00279   0.01319  -0.02675
  36        3PZ         0.01963   0.00411   0.00635  -0.06344  -0.01509
  37 5   C  1S          0.08840  -0.00949   0.11167   0.07394  -0.04971
  38        2S         -0.09769   0.01034  -0.12038  -0.08342   0.05126
  39        2PX        -0.00000   0.00000   0.00000  -0.00000   0.00000
  40        2PY         0.00524  -0.01937  -0.02194   0.10099   0.01957
  41        2PZ         0.04727   0.02289  -0.01436   0.12413   0.14663
  42        3S         -0.18677   0.02157  -0.28915  -0.21159   0.17275
  43        3PX         0.00000  -0.00000  -0.00000  -0.00000   0.00000
  44        3PY         0.00546  -0.01882  -0.00392   0.03378  -0.01051
  45        3PZ         0.03750   0.01032   0.04730   0.05349   0.00886
  46 6   N  1S          0.00000  -0.01965   0.00000  -0.08537   0.00000
  47        2S          0.00000   0.01753   0.00000   0.07891   0.00000
  48        2PX         0.00000   0.00000   0.00000   0.00000  -0.00000
  49        2PY         0.07422   0.00000   0.15799   0.00000  -0.17373
  50        2PZ         0.00000   0.00833   0.00000   0.00657   0.00000
  51        3S          0.00000   0.07180   0.00000   0.32310   0.00000
  52        3PX        -0.00000   0.00000   0.00000   0.00000  -0.00000
  53        3PY         0.05475   0.00000   0.11689   0.00000  -0.13968
  54        3PZ         0.00000   0.00008   0.00000  -0.02002   0.00000
  55 7   H  1S          0.00000  -0.04843   0.00000   0.10992   0.00000
  56        2S          0.00000  -0.01341   0.00000   0.05227   0.00000
  57 8   H  1S          0.04452   0.01749   0.06956  -0.06602  -0.06952
  58        2S          0.01178   0.00522   0.02575  -0.02564  -0.04140
  59 9   H  1S         -0.04452   0.01749  -0.06956  -0.06602   0.06952
  60        2S         -0.01178   0.00522  -0.02575  -0.02564   0.04140
  61 10  C  1S          0.08639  -0.12907  -0.10485  -0.03325  -0.05888
  62        2S         -0.08318   0.12172   0.09734   0.03040   0.05382
  63        2PX         0.00000   0.00000   0.00000   0.00000   0.00000
  64        2PY        -0.03088  -0.01208  -0.00418  -0.00848  -0.08549
  65        2PZ        -0.02233   0.00452  -0.01408  -0.04812  -0.02809
  66        3S         -0.23102   0.39735   0.32884   0.11507   0.21401
  67        3PX        -0.00001   0.00000   0.00001   0.00000  -0.00000
  68        3PY        -0.00684   0.00124   0.00950   0.00082  -0.04150
  69        3PZ        -0.00553   0.00435  -0.00575  -0.02508  -0.00503
  70 11  H  1S         -0.03994   0.07400   0.06461   0.03588   0.05089
  71        2S          0.00465   0.00960   0.01029   0.01536   0.02384
  72 12  H  1S         -0.04247   0.08102   0.05771   0.00792   0.06589
  73        2S          0.00058   0.01471   0.01089  -0.00263   0.02658
  74 13  H  1S         -0.03994   0.07399   0.06462   0.03591   0.05088
  75        2S          0.00464   0.00960   0.01030   0.01538   0.02383
  76 14  C  1S         -0.08639  -0.12907   0.10485  -0.03325   0.05888
  77        2S          0.08318   0.12172  -0.09734   0.03040  -0.05382
  78        2PX         0.00000  -0.00000   0.00000  -0.00000   0.00000
  79        2PY        -0.03088   0.01208  -0.00418   0.00848  -0.08549
  80        2PZ         0.02233   0.00452   0.01408  -0.04812   0.02809
  81        3S          0.23102   0.39735  -0.32884   0.11507  -0.21401
  82        3PX        -0.00001  -0.00000   0.00001  -0.00000  -0.00000
  83        3PY        -0.00684  -0.00124   0.00950  -0.00082  -0.04150
  84        3PZ         0.00553   0.00435   0.00575  -0.02508   0.00503
  85 15  H  1S          0.03994   0.07399  -0.06462   0.03591  -0.05088
  86        2S         -0.00464   0.00960  -0.01030   0.01538  -0.02383
  87 16  H  1S          0.03994   0.07400  -0.06461   0.03588  -0.05089
  88        2S         -0.00465   0.00960  -0.01029   0.01536  -0.02384
  89 17  H  1S          0.04247   0.08102  -0.05771   0.00792  -0.06589
  90        2S         -0.00058   0.01471  -0.01089  -0.00263  -0.02658
                          16        17        18        19        20
                           O         O         O         O         O
     Eigenvalues --    -0.71044  -0.68545  -0.59846  -0.59796  -0.57962
   1 1   C  1S          0.04284   0.00216   0.03178   0.00000   0.00000
   2        2S         -0.04118  -0.00341  -0.03359  -0.00000  -0.00000
   3        2PX        -0.00000   0.00000  -0.00001   0.08946  -0.03388
   4        2PY        -0.16816  -0.14273  -0.06414   0.00004   0.00006
   5        2PZ        -0.11610   0.17140  -0.03402   0.00001   0.00007
   6        3S         -0.17421   0.00512  -0.10490  -0.00000   0.00001
   7        3PX        -0.00000  -0.00000  -0.00001   0.08128  -0.03065
   8        3PY        -0.11640  -0.06405  -0.09091   0.00004   0.00004
   9        3PZ        -0.08339   0.04285  -0.02422   0.00000   0.00008
  10 2   C  1S         -0.01489  -0.00461  -0.05651   0.00000  -0.00000
  11        2S          0.01911   0.00556   0.05444   0.00000  -0.00000
  12        2PX        -0.00000  -0.00000  -0.00002   0.12533  -0.07415
  13        2PY        -0.07110  -0.10714   0.18931   0.00000  -0.00007
  14        2PZ         0.04661  -0.18653  -0.06378  -0.00002  -0.00005
  15        3S          0.03718   0.00767   0.20942  -0.00003   0.00001
  16        3PX        -0.00000  -0.00000  -0.00002   0.10078  -0.05807
  17        3PY        -0.05020  -0.07294   0.20523   0.00000  -0.00003
  18        3PZ         0.02915  -0.15244  -0.07144   0.00000  -0.00003
  19 3   C  1S          0.04373   0.00000   0.04916   0.00000  -0.00001
  20        2S         -0.04113   0.00000  -0.05484   0.00000   0.00002
  21        2PX         0.00000  -0.00000   0.00000   0.10355   0.00000
  22        2PY         0.00000   0.21507   0.00000   0.00001   0.00000
  23        2PZ         0.18468   0.00000  -0.08412   0.00000   0.00016
  24        3S         -0.17386   0.00000  -0.10771   0.00000   0.00004
  25        3PX         0.00000   0.00000   0.00000   0.09775   0.00000
  26        3PY         0.00000   0.07539   0.00000   0.00005   0.00000
  27        3PZ         0.12766   0.00000  -0.00673   0.00000   0.00015
  28 4   C  1S         -0.01489   0.00461  -0.05651  -0.00000  -0.00000
  29        2S          0.01911  -0.00556   0.05444  -0.00000  -0.00000
  30        2PX         0.00000  -0.00000   0.00002   0.12533   0.07415
  31        2PY         0.07110  -0.10714  -0.18931   0.00000   0.00007
  32        2PZ         0.04661   0.18653  -0.06378   0.00002  -0.00005
  33        3S          0.03718  -0.00767   0.20942   0.00003   0.00001
  34        3PX         0.00000  -0.00000   0.00002   0.10078   0.05807
  35        3PY         0.05020  -0.07294  -0.20523   0.00000   0.00003
  36        3PZ         0.02915   0.15244  -0.07144  -0.00000  -0.00003
  37 5   C  1S          0.04284  -0.00216   0.03178  -0.00000   0.00000
  38        2S         -0.04118   0.00341  -0.03359   0.00000  -0.00000
  39        2PX         0.00000   0.00000   0.00001   0.08946   0.03388
  40        2PY         0.16816  -0.14273   0.06414   0.00004  -0.00006
  41        2PZ        -0.11610  -0.17140  -0.03402  -0.00001   0.00007
  42        3S         -0.17421  -0.00512  -0.10490   0.00000   0.00001
  43        3PX         0.00000  -0.00000   0.00001   0.08128   0.03065
  44        3PY         0.11640  -0.06405   0.09091   0.00004  -0.00004
  45        3PZ        -0.08339  -0.04285  -0.02422  -0.00000   0.00008
  46 6   N  1S          0.00154   0.00000  -0.03900   0.00000  -0.00001
  47        2S         -0.00225   0.00000   0.03976   0.00000   0.00001
  48        2PX         0.00000   0.00000   0.00000   0.08794   0.00000
  49        2PY         0.00000   0.22919   0.00000  -0.00003   0.00000
  50        2PZ        -0.12274   0.00000  -0.00028   0.00000   0.00010
  51        3S          0.00378   0.00000   0.12612   0.00000   0.00001
  52        3PX         0.00000   0.00000   0.00000   0.08494   0.00000
  53        3PY         0.00000   0.19168   0.00000  -0.00002   0.00000
  54        3PZ        -0.09813   0.00000   0.01401   0.00000   0.00009
  55 7   H  1S         -0.14509   0.00000   0.00397   0.00000  -0.00010
  56        2S         -0.08502   0.00000   0.01873   0.00000  -0.00008
  57 8   H  1S         -0.15057  -0.02095  -0.08442   0.00002   0.00006
  58        2S         -0.08000  -0.00788  -0.05186   0.00002   0.00004
  59 9   H  1S         -0.15057   0.02095  -0.08442  -0.00002   0.00006
  60        2S         -0.08000   0.00788  -0.05186  -0.00002   0.00004
  61 10  C  1S         -0.01811  -0.00015   0.00619  -0.00000  -0.00000
  62        2S          0.01371  -0.00011   0.00111   0.00000   0.00000
  63        2PX         0.00002  -0.00000   0.00004   0.21752   0.25925
  64        2PY        -0.04088  -0.05477   0.21067   0.00000   0.00000
  65        2PZ        -0.02647   0.09094   0.09669   0.00002  -0.00003
  66        3S          0.07892   0.00468  -0.09226  -0.00000   0.00001
  67        3PX         0.00001   0.00000   0.00004   0.17500   0.21763
  68        3PY        -0.02467  -0.02945   0.12518  -0.00000  -0.00000
  69        3PZ        -0.01427   0.05828   0.04619   0.00001  -0.00002
  70 11  H  1S          0.02344  -0.03058  -0.05209   0.12179   0.14922
  71        2S          0.01128  -0.02258  -0.05084   0.10387   0.12952
  72 12  H  1S          0.01779   0.06396  -0.07409  -0.00011  -0.00015
  73        2S          0.00339   0.05181  -0.06807  -0.00009  -0.00013
  74 13  H  1S          0.02343  -0.03067  -0.05214  -0.12168  -0.14904
  75        2S          0.01127  -0.02265  -0.05089  -0.10378  -0.12938
  76 14  C  1S         -0.01811   0.00015   0.00619   0.00000  -0.00000
  77        2S          0.01371   0.00011   0.00111  -0.00000   0.00000
  78        2PX        -0.00002  -0.00000  -0.00004   0.21752  -0.25925
  79        2PY         0.04088  -0.05477  -0.21067   0.00000  -0.00000
  80        2PZ        -0.02647  -0.09094   0.09669  -0.00002  -0.00003
  81        3S          0.07892  -0.00468  -0.09226   0.00000   0.00001
  82        3PX        -0.00001   0.00000  -0.00004   0.17500  -0.21763
  83        3PY         0.02467  -0.02945  -0.12518  -0.00000   0.00000
  84        3PZ        -0.01427  -0.05828   0.04619  -0.00001  -0.00002
  85 15  H  1S          0.02343   0.03067  -0.05214   0.12168  -0.14904
  86        2S          0.01127   0.02265  -0.05089   0.10378  -0.12938
  87 16  H  1S          0.02344   0.03058  -0.05209  -0.12179   0.14922
  88        2S          0.01128   0.02258  -0.05084  -0.10387   0.12952
  89 17  H  1S          0.01779  -0.06396  -0.07409   0.00011  -0.00015
  90        2S          0.00339  -0.05181  -0.06807   0.00009  -0.00013
                          21        22        23        24        25
                           O         O         O         O         O
     Eigenvalues --    -0.57953  -0.57171  -0.55464  -0.54353  -0.51814
   1 1   C  1S          0.01464   0.01028   0.03814  -0.02028  -0.00000
   2        2S         -0.01966  -0.01435  -0.04369   0.02147   0.00000
   3        2PX        -0.00002   0.00002   0.00001  -0.00002   0.17836
   4        2PY         0.20639   0.07311   0.02397   0.09743   0.00002
   5        2PZ         0.14808   0.09492   0.07752  -0.08395   0.00000
   6        3S          0.00135   0.00307  -0.10918   0.06831   0.00001
   7        3PX        -0.00002   0.00001   0.00001  -0.00003   0.18122
   8        3PY         0.17214   0.04473   0.00982   0.06964   0.00001
   9        3PZ         0.11839   0.09230   0.07501  -0.01736   0.00002
  10 2   C  1S          0.00479  -0.02442  -0.01784   0.01048   0.00000
  11        2S         -0.00901   0.02478   0.01887  -0.01140  -0.00000
  12        2PX        -0.00003   0.00003   0.00002  -0.00001   0.09629
  13        2PY         0.10830  -0.05614  -0.03491  -0.02295   0.00001
  14        2PZ        -0.15489  -0.10563  -0.08929   0.09427  -0.00000
  15        3S          0.01416   0.08055   0.05330  -0.03138   0.00003
  16        3PX        -0.00002   0.00003   0.00001  -0.00001   0.10289
  17        3PY         0.08470   0.00782   0.02313  -0.03343  -0.00000
  18        3PZ        -0.12290  -0.08553  -0.06813   0.09463  -0.00001
  19 3   C  1S          0.00000   0.01428  -0.02519   0.00000   0.00000
  20        2S          0.00000  -0.01021   0.02472   0.00000   0.00000
  21        2PX        -0.00002   0.00000   0.00000  -0.00001   0.09664
  22        2PY         0.01993   0.00000   0.00000  -0.06597  -0.00001
  23        2PZ         0.00000   0.25697   0.17137   0.00000   0.00000
  24        3S          0.00000  -0.06230   0.10966   0.00000   0.00000
  25        3PX        -0.00002   0.00000   0.00000  -0.00000   0.08776
  26        3PY        -0.00458   0.00000   0.00000  -0.02751  -0.00004
  27        3PZ         0.00000   0.26285   0.18817   0.00000   0.00000
  28 4   C  1S         -0.00479  -0.02442  -0.01784  -0.01048  -0.00000
  29        2S          0.00901   0.02478   0.01887   0.01140   0.00000
  30        2PX        -0.00003  -0.00003  -0.00002  -0.00001   0.09629
  31        2PY         0.10830   0.05614   0.03491  -0.02295   0.00001
  32        2PZ         0.15489  -0.10563  -0.08929  -0.09427   0.00000
  33        3S         -0.01416   0.08055   0.05330   0.03138  -0.00003
  34        3PX        -0.00002  -0.00003  -0.00001  -0.00001   0.10289
  35        3PY         0.08470  -0.00782  -0.02313  -0.03343  -0.00000
  36        3PZ         0.12290  -0.08553  -0.06813  -0.09463   0.00001
  37 5   C  1S         -0.01464   0.01028   0.03814   0.02028   0.00000
  38        2S          0.01966  -0.01435  -0.04369  -0.02147  -0.00000
  39        2PX        -0.00002  -0.00002  -0.00001  -0.00002   0.17836
  40        2PY         0.20639  -0.07311  -0.02397   0.09743   0.00002
  41        2PZ        -0.14808   0.09492   0.07752   0.08395  -0.00000
  42        3S         -0.00135   0.00307  -0.10918  -0.06831  -0.00001
  43        3PX        -0.00002  -0.00001  -0.00001  -0.00003   0.18122
  44        3PY         0.17214  -0.04473  -0.00982   0.06964   0.00001
  45        3PZ        -0.11839   0.09230   0.07501   0.01736  -0.00002
  46 6   N  1S          0.00000  -0.01760  -0.04232   0.00000   0.00000
  47        2S          0.00000   0.02137   0.04205   0.00000   0.00000
  48        2PX        -0.00002   0.00000   0.00000  -0.00003   0.23182
  49        2PY        -0.10765   0.00000   0.00000  -0.12746  -0.00002
  50        2PZ         0.00000   0.13512   0.13969   0.00000   0.00000
  51        3S          0.00000   0.04689   0.16444   0.00000   0.00000
  52        3PX        -0.00002   0.00000   0.00000  -0.00003   0.24610
  53        3PY        -0.09960   0.00000   0.00000  -0.12046  -0.00002
  54        3PZ         0.00000   0.12968   0.13562   0.00000   0.00000
  55 7   H  1S          0.00000  -0.19544  -0.10881   0.00000   0.00000
  56        2S          0.00000  -0.13860  -0.08883   0.00000   0.00000
  57 8   H  1S          0.15716   0.06102   0.00389   0.04471   0.00001
  58        2S          0.11285   0.04105   0.01088   0.01967   0.00001
  59 9   H  1S         -0.15716   0.06102   0.00389  -0.04471  -0.00001
  60        2S         -0.11285   0.04105   0.01088  -0.01967  -0.00001
  61 10  C  1S         -0.00463  -0.00224  -0.00224  -0.00298   0.00000
  62        2S          0.00036   0.00353   0.00372   0.00476   0.00000
  63        2PX        -0.00001  -0.00012  -0.00006  -0.00001  -0.14409
  64        2PY        -0.12785   0.10744  -0.07120  -0.05064  -0.00002
  65        2PZ        -0.05115  -0.12359   0.19973   0.24040   0.00001
  66        3S          0.04863  -0.01635  -0.01509  -0.00712  -0.00000
  67        3PX        -0.00001  -0.00010  -0.00005  -0.00001  -0.13886
  68        3PY        -0.08531   0.07265  -0.07931  -0.06654  -0.00002
  69        3PZ        -0.03663  -0.10977   0.17161   0.21182   0.00001
  70 11  H  1S          0.03099   0.04622  -0.07959  -0.09719  -0.09156
  71        2S          0.02801   0.03452  -0.07583  -0.09199  -0.08497
  72 12  H  1S          0.04362  -0.11286   0.13894   0.14791   0.00010
  73        2S          0.03173  -0.09806   0.12328   0.12690   0.00009
  74 13  H  1S          0.03099   0.04650  -0.07974  -0.09743   0.09146
  75        2S          0.02801   0.03477  -0.07597  -0.09220   0.08488
  76 14  C  1S          0.00463  -0.00224  -0.00224   0.00298  -0.00000
  77        2S         -0.00036   0.00353   0.00372  -0.00476  -0.00000
  78        2PX        -0.00001   0.00012   0.00006  -0.00001  -0.14409
  79        2PY        -0.12785  -0.10744   0.07120  -0.05064  -0.00002
  80        2PZ         0.05115  -0.12359   0.19973  -0.24040  -0.00001
  81        3S         -0.04863  -0.01635  -0.01509   0.00712   0.00000
  82        3PX        -0.00001   0.00010   0.00005  -0.00001  -0.13886
  83        3PY        -0.08531  -0.07265   0.07931  -0.06654  -0.00002
  84        3PZ         0.03663  -0.10977   0.17161  -0.21182  -0.00001
  85 15  H  1S         -0.03099   0.04650  -0.07974   0.09743  -0.09146
  86        2S         -0.02801   0.03477  -0.07597   0.09220  -0.08488
  87 16  H  1S         -0.03099   0.04622  -0.07959   0.09719   0.09156
  88        2S         -0.02801   0.03452  -0.07583   0.09199   0.08497
  89 17  H  1S         -0.04362  -0.11286   0.13894  -0.14791  -0.00010
  90        2S         -0.03173  -0.09806   0.12328  -0.12690  -0.00009
                          26        27        28        29        30
                           O         O         O         O         V
     Eigenvalues --    -0.49756  -0.39197  -0.36868  -0.33549   0.13083
   1 1   C  1S         -0.00035   0.02029   0.00000  -0.00000   0.00000
   2        2S          0.00014  -0.02235  -0.00000   0.00000  -0.00001
   3        2PX        -0.00000   0.00000  -0.08600   0.24259  -0.13900
   4        2PY         0.12350   0.04800   0.00000  -0.00000  -0.00000
   5        2PZ         0.01458  -0.16559   0.00001   0.00000   0.00000
   6        3S         -0.01133  -0.11330   0.00001  -0.00000   0.00006
   7        3PX        -0.00000   0.00000  -0.12343   0.28511  -0.24397
   8        3PY         0.15775  -0.02847   0.00000  -0.00000   0.00001
   9        3PZ         0.04910   0.02162   0.00000   0.00001  -0.00007
  10 2   C  1S          0.00507  -0.02109  -0.00000  -0.00000   0.00000
  11        2S         -0.00157   0.01634  -0.00000   0.00000   0.00000
  12        2PX        -0.00000   0.00001   0.16140   0.22163  -0.13685
  13        2PY        -0.23436  -0.01126   0.00000   0.00001  -0.00000
  14        2PZ        -0.02660   0.16558  -0.00001  -0.00001   0.00001
  15        3S         -0.03400   0.20193   0.00002   0.00001  -0.00002
  16        3PX         0.00001   0.00001   0.20505   0.27491  -0.29426
  17        3PY        -0.24873   0.01098  -0.00001   0.00001  -0.00006
  18        3PZ         0.03294   0.22874  -0.00003   0.00001  -0.00013
  19 3   C  1S          0.00000   0.00615   0.00000   0.00000   0.00000
  20        2S          0.00000  -0.00808   0.00000  -0.00000   0.00000
  21        2PX        -0.00000   0.00000   0.29139   0.00000   0.27076
  22        2PY         0.25026   0.00000   0.00000   0.00000   0.00001
  23        2PZ         0.00000  -0.05711   0.00000  -0.00001   0.00000
  24        3S          0.00000   0.01897   0.00000   0.00001   0.00000
  25        3PX        -0.00001   0.00000   0.33118   0.00000   0.61625
  26        3PY         0.19043   0.00000  -0.00003   0.00000  -0.00008
  27        3PZ         0.00000  -0.12808   0.00000  -0.00001   0.00000
  28 4   C  1S         -0.00507  -0.02109   0.00000  -0.00000  -0.00000
  29        2S          0.00157   0.01634   0.00000   0.00000  -0.00000
  30        2PX        -0.00000  -0.00001   0.16140  -0.22163  -0.13685
  31        2PY        -0.23436   0.01126   0.00000  -0.00001  -0.00000
  32        2PZ         0.02660   0.16558   0.00001  -0.00001  -0.00001
  33        3S          0.03400   0.20193  -0.00002   0.00001   0.00002
  34        3PX         0.00001  -0.00001   0.20505  -0.27491  -0.29426
  35        3PY        -0.24873  -0.01098  -0.00001  -0.00001  -0.00006
  36        3PZ        -0.03294   0.22874   0.00003   0.00001   0.00013
  37 5   C  1S          0.00035   0.02029  -0.00000  -0.00000  -0.00000
  38        2S         -0.00014  -0.02235   0.00000   0.00000   0.00001
  39        2PX        -0.00000  -0.00000  -0.08600  -0.24259  -0.13900
  40        2PY         0.12350  -0.04800   0.00000   0.00000  -0.00000
  41        2PZ        -0.01458  -0.16559  -0.00001   0.00000  -0.00000
  42        3S          0.01133  -0.11330  -0.00001  -0.00000  -0.00006
  43        3PX        -0.00000  -0.00000  -0.12343  -0.28511  -0.24397
  44        3PY         0.15775   0.02847   0.00000   0.00000   0.00001
  45        3PZ        -0.04910   0.02162  -0.00000   0.00001   0.00007
  46 6   N  1S          0.00000  -0.07092   0.00000   0.00000   0.00000
  47        2S          0.00000   0.06985   0.00000  -0.00000   0.00000
  48        2PX        -0.00000   0.00000  -0.24301   0.00000   0.26003
  49        2PY        -0.13410   0.00000   0.00000   0.00000   0.00000
  50        2PZ         0.00000   0.39976   0.00000  -0.00001   0.00000
  51        3S          0.00000   0.26419   0.00000  -0.00001   0.00000
  52        3PX        -0.00000   0.00000  -0.29399   0.00000   0.48334
  53        3PY        -0.11302   0.00000   0.00000   0.00000   0.00002
  54        3PZ         0.00000   0.48649   0.00000  -0.00001   0.00000
  55 7   H  1S          0.00000   0.05313   0.00000   0.00000   0.00000
  56        2S          0.00000   0.04308   0.00000  -0.00001   0.00000
  57 8   H  1S          0.09527  -0.08928   0.00000   0.00000  -0.00000
  58        2S          0.06875  -0.11228  -0.00000  -0.00000   0.00002
  59 9   H  1S         -0.09527  -0.08928  -0.00000   0.00000   0.00000
  60        2S         -0.06875  -0.11228   0.00000  -0.00000  -0.00002
  61 10  C  1S         -0.01620   0.00981   0.00000   0.00000  -0.00000
  62        2S          0.01991  -0.00803  -0.00000   0.00000  -0.00000
  63        2PX        -0.00003   0.00001  -0.05946   0.06366  -0.01504
  64        2PY         0.19974  -0.05074  -0.00000   0.00001   0.00001
  65        2PZ         0.03303  -0.05242  -0.00001  -0.00000  -0.00003
  66        3S          0.00616  -0.04897   0.00000  -0.00000   0.00002
  67        3PX        -0.00003   0.00001  -0.07609   0.06231  -0.13382
  68        3PY         0.14094  -0.03675   0.00001   0.00002   0.00013
  69        3PZ         0.00066  -0.07264  -0.00003  -0.00002  -0.00026
  70 11  H  1S         -0.00906   0.02213  -0.04695   0.05686   0.02879
  71        2S         -0.01872   0.03152  -0.04767   0.07844   0.19643
  72 12  H  1S         -0.09243  -0.01166   0.00004  -0.00005  -0.00002
  73        2S         -0.10647  -0.00608   0.00006  -0.00005   0.00009
  74 13  H  1S         -0.00897   0.02216   0.04690  -0.05680  -0.02878
  75        2S         -0.01862   0.03157   0.04760  -0.07838  -0.19653
  76 14  C  1S          0.01620   0.00981  -0.00000   0.00000   0.00000
  77        2S         -0.01991  -0.00803   0.00000   0.00000   0.00000
  78        2PX        -0.00003  -0.00001  -0.05946  -0.06366  -0.01504
  79        2PY         0.19974   0.05074  -0.00000  -0.00001   0.00001
  80        2PZ        -0.03303  -0.05242   0.00001  -0.00000   0.00003
  81        3S         -0.00616  -0.04897  -0.00000  -0.00000  -0.00002
  82        3PX        -0.00003  -0.00001  -0.07609  -0.06231  -0.13382
  83        3PY         0.14094   0.03675   0.00001  -0.00002   0.00013
  84        3PZ        -0.00066  -0.07264   0.00003  -0.00002   0.00026
  85 15  H  1S          0.00897   0.02216  -0.04690  -0.05680   0.02878
  86        2S          0.01862   0.03157  -0.04760  -0.07838   0.19653
  87 16  H  1S          0.00906   0.02213   0.04695   0.05686  -0.02879
  88        2S          0.01872   0.03152   0.04767   0.07844  -0.19643
  89 17  H  1S          0.09243  -0.01166  -0.00004  -0.00005   0.00002
  90        2S          0.10647  -0.00608  -0.00006  -0.00005  -0.00009
                          31        32        33        34        35
                           V         V         V         V         V
     Eigenvalues --     0.15043   0.27047   0.29046   0.31192   0.31966
   1 1   C  1S         -0.00000   0.04894   0.01670   0.01535   0.00781
   2        2S          0.00000  -0.03545  -0.00973  -0.00413   0.00932
   3        2PX        -0.23897  -0.00004   0.00008  -0.00005   0.01791
   4        2PY         0.00001  -0.05802  -0.06496  -0.04232  -0.09886
   5        2PZ         0.00001  -0.04161  -0.03279  -0.04041  -0.08132
   6        3S          0.00005  -0.42339  -0.28533  -0.25736  -0.28847
   7        3PX        -0.51040  -0.00012   0.00017  -0.00013   0.03990
   8        3PY         0.00004  -0.33890  -0.25952  -0.29792  -0.44941
   9        3PZ         0.00002  -0.26886  -0.26453  -0.01283  -0.30033
  10 2   C  1S         -0.00000   0.00912   0.01539   0.01743   0.01488
  11        2S         -0.00000   0.00678  -0.00760   0.01116   0.01402
  12        2PX         0.24274   0.00006  -0.00005   0.00007  -0.01203
  13        2PY         0.00001  -0.04765   0.01577  -0.05692  -0.04094
  14        2PZ        -0.00000   0.02032   0.01391   0.03367   0.01156
  15        3S          0.00007  -0.36264  -0.43171  -0.23184  -0.34435
  16        3PX         0.51734   0.00020  -0.00007   0.00025  -0.01929
  17        3PY        -0.00005   0.14797   0.21038  -0.18643  -0.03149
  18        3PZ        -0.00004  -0.04502   0.10005   0.20287   0.09315
  19 3   C  1S         -0.00001   0.06298   0.00000   0.04468   0.00000
  20        2S          0.00001  -0.05436   0.00000  -0.01253   0.00000
  21        2PX         0.00000   0.00000   0.00004   0.00000   0.00508
  22        2PY         0.00000   0.00000  -0.04108   0.00000  -0.06754
  23        2PZ        -0.00002   0.11554   0.00000   0.05404   0.00000
  24        3S         -0.00001  -0.48638   0.00000  -0.48891   0.00000
  25        3PX         0.00000   0.00000   0.00009   0.00000   0.02201
  26        3PY         0.00000   0.00000   0.36492   0.00000   0.00152
  27        3PZ        -0.00011   0.72040   0.00000   0.21723   0.00000
  28 4   C  1S         -0.00000   0.00912  -0.01539   0.01743  -0.01488
  29        2S         -0.00000   0.00678   0.00760   0.01116  -0.01402
  30        2PX        -0.24274  -0.00006  -0.00005  -0.00007  -0.01203
  31        2PY        -0.00001   0.04765   0.01577   0.05692  -0.04094
  32        2PZ        -0.00000   0.02032  -0.01391   0.03367  -0.01156
  33        3S          0.00007  -0.36264   0.43171  -0.23184   0.34435
  34        3PX        -0.51734  -0.00020  -0.00007  -0.00025  -0.01929
  35        3PY         0.00005  -0.14797   0.21038   0.18643  -0.03149
  36        3PZ        -0.00004  -0.04502  -0.10005   0.20287  -0.09315
  37 5   C  1S         -0.00000   0.04894  -0.01670   0.01535  -0.00781
  38        2S          0.00000  -0.03545   0.00973  -0.00413  -0.00932
  39        2PX         0.23897   0.00004   0.00008   0.00005   0.01791
  40        2PY        -0.00001   0.05802  -0.06496   0.04232  -0.09886
  41        2PZ         0.00001  -0.04161   0.03279  -0.04041   0.08132
  42        3S          0.00005  -0.42339   0.28533  -0.25736   0.28847
  43        3PX         0.51040   0.00012   0.00017   0.00013   0.03990
  44        3PY        -0.00004   0.33890  -0.25952   0.29792  -0.44941
  45        3PZ         0.00002  -0.26886   0.26453  -0.01283   0.30033
  46 6   N  1S          0.00000  -0.00854   0.00000   0.02395   0.00000
  47        2S         -0.00000   0.01272   0.00000  -0.00697   0.00000
  48        2PX         0.00000   0.00000  -0.00010   0.00000  -0.02202
  49        2PY         0.00000   0.00000   0.03290   0.00000  -0.02482
  50        2PZ        -0.00001   0.01518   0.00000   0.05689   0.00000
  51        3S         -0.00000   0.00301   0.00000  -0.30929   0.00000
  52        3PX         0.00000   0.00000  -0.00020   0.00000  -0.04423
  53        3PY         0.00000   0.00000   0.11006   0.00000  -0.04272
  54        3PZ        -0.00002   0.12387   0.00000   0.17853   0.00000
  55 7   H  1S          0.00000   0.00407   0.00000   0.06713   0.00000
  56        2S         -0.00012   1.06741   0.00000   0.59930   0.00000
  57 8   H  1S          0.00000   0.01452  -0.02173   0.02821   0.01057
  58        2S         -0.00006   0.70037   0.45599   0.44434   0.73456
  59 9   H  1S          0.00000   0.01452   0.02173   0.02821  -0.01057
  60        2S         -0.00006   0.70037  -0.45599   0.44434  -0.73456
  61 10  C  1S          0.00000   0.05616  -0.09978  -0.10383   0.04918
  62        2S         -0.00000  -0.00685   0.02543   0.02707  -0.01501
  63        2PX         0.00101   0.00007  -0.00007   0.00012  -0.01623
  64        2PY        -0.00002   0.10103  -0.09769   0.02598  -0.08896
  65        2PZ         0.00001   0.02664  -0.02413  -0.06685   0.13391
  66        3S          0.00002  -0.92751   1.43424   1.43277  -0.64914
  67        3PX        -0.03702   0.00041  -0.00037   0.00065  -0.07927
  68        3PY        -0.00011   0.45565  -0.49766   0.18979  -0.43423
  69        3PZ         0.00014   0.03940  -0.08240  -0.40080   0.66223
  70 11  H  1S          0.04977  -0.00522   0.00233  -0.01290   0.01965
  71        2S          0.16099   0.38910  -0.64314  -0.82415   0.79209
  72 12  H  1S         -0.00006   0.01480  -0.01019   0.03040  -0.03880
  73        2S         -0.00035   0.68803  -0.89268  -0.06534  -0.69321
  74 13  H  1S         -0.04971  -0.00523   0.00229  -0.01292   0.00941
  75        2S         -0.16067   0.38959  -0.64374  -0.82367   0.62055
  76 14  C  1S          0.00000   0.05616   0.09978  -0.10383  -0.04918
  77        2S         -0.00000  -0.00685  -0.02543   0.02707   0.01501
  78        2PX        -0.00101  -0.00007  -0.00007  -0.00012  -0.01623
  79        2PY         0.00002  -0.10103  -0.09769  -0.02598  -0.08896
  80        2PZ         0.00001   0.02664   0.02413  -0.06685  -0.13391
  81        3S          0.00002  -0.92751  -1.43424   1.43277   0.64914
  82        3PX         0.03702  -0.00041  -0.00037  -0.00065  -0.07927
  83        3PY         0.00011  -0.45565  -0.49766  -0.18979  -0.43423
  84        3PZ         0.00014   0.03940   0.08240  -0.40080  -0.66223
  85 15  H  1S         -0.04971  -0.00523  -0.00229  -0.01292  -0.00941
  86        2S         -0.16067   0.38959   0.64374  -0.82367  -0.62055
  87 16  H  1S          0.04977  -0.00522  -0.00233  -0.01290  -0.01965
  88        2S          0.16099   0.38910   0.64314  -0.82415  -0.79209
  89 17  H  1S         -0.00006   0.01480   0.01019   0.03040   0.03880
  90        2S         -0.00035   0.68803   0.89268  -0.06534   0.69321
                          36        37        38        39        40
                           V         V         V         V         V
     Eigenvalues --     0.31984   0.32160   0.35155   0.36069   0.36295
   1 1   C  1S          0.00087  -0.00346   0.00007   0.06716   0.07286
   2        2S          0.00100  -0.00249  -0.00003  -0.03115  -0.03344
   3        2PX        -0.16456   0.00006  -0.00500   0.00008   0.00005
   4        2PY        -0.01084   0.00741  -0.00001  -0.13581  -0.07455
   5        2PZ        -0.00888   0.10333  -0.00018  -0.02182  -0.09095
   6        3S         -0.03179   0.07818  -0.00071  -0.94672  -1.03690
   7        3PX        -0.36603  -0.00004  -0.11787   0.00011   0.00017
   8        3PY        -0.04935   0.11593  -0.00010  -0.63302  -0.45696
   9        3PZ        -0.03277   0.34432  -0.00095  -0.04055  -0.27861
  10 2   C  1S          0.00160   0.02024  -0.00002  -0.03651   0.01805
  11        2S          0.00151  -0.01607   0.00005   0.01076  -0.01340
  12        2PX         0.11006   0.00002   0.05980  -0.00000  -0.00008
  13        2PY        -0.00450  -0.02137   0.00012  -0.08583   0.02639
  14        2PZ         0.00126   0.05085  -0.00005   0.04422   0.06664
  15        3S         -0.03715  -0.21065  -0.00003   0.62218  -0.16938
  16        3PX         0.17706   0.00021   0.29910  -0.00002  -0.00035
  17        3PY        -0.00355  -0.16872   0.00067  -0.30705   0.03034
  18        3PZ         0.01014   0.19359  -0.00044   0.05192   0.33312
  19 3   C  1S          0.00000   0.02057  -0.00014   0.00000  -0.06760
  20        2S          0.00000   0.00047   0.00007   0.00000   0.02384
  21        2PX        -0.04554   0.00000   0.00000  -0.00008   0.00000
  22        2PY        -0.00746   0.00000   0.00000  -0.03713   0.00000
  23        2PZ         0.00000   0.16614  -0.00027   0.00000  -0.11996
  24        3S          0.00000  -0.52258   0.00215   0.00000   1.07853
  25        3PX        -0.20092   0.00000   0.00000  -0.00003   0.00000
  26        3PY        -0.00026   0.00000   0.00000  -0.59391   0.00000
  27        3PZ         0.00000   0.69604  -0.00099   0.00000  -0.60770
  28 4   C  1S         -0.00160   0.02024  -0.00002   0.03651   0.01805
  29        2S         -0.00151  -0.01607   0.00005  -0.01076  -0.01340
  30        2PX         0.11006  -0.00002  -0.05980  -0.00000   0.00008
  31        2PY        -0.00450   0.02137  -0.00012  -0.08583  -0.02639
  32        2PZ        -0.00126   0.05085  -0.00005  -0.04422   0.06664
  33        3S          0.03715  -0.21065  -0.00003  -0.62218  -0.16938
  34        3PX         0.17706  -0.00021  -0.29910  -0.00002   0.00035
  35        3PY        -0.00355   0.16872  -0.00067  -0.30705  -0.03034
  36        3PZ        -0.01014   0.19359  -0.00044  -0.05192   0.33312
  37 5   C  1S         -0.00087  -0.00346   0.00007  -0.06716   0.07286
  38        2S         -0.00100  -0.00249  -0.00003   0.03115  -0.03344
  39        2PX        -0.16456  -0.00006   0.00500   0.00008  -0.00005
  40        2PY        -0.01084  -0.00741   0.00001  -0.13581   0.07455
  41        2PZ         0.00888   0.10333  -0.00018   0.02182  -0.09095
  42        3S          0.03179   0.07818  -0.00071   0.94672  -1.03690
  43        3PX        -0.36603   0.00004   0.11787   0.00011  -0.00017
  44        3PY        -0.04935  -0.11593   0.00010  -0.63302   0.45696
  45        3PZ         0.03277   0.34432  -0.00095   0.04055  -0.27861
  46 6   N  1S          0.00000   0.02520  -0.00012   0.00000  -0.02894
  47        2S          0.00000  -0.01394   0.00005   0.00000   0.02187
  48        2PX         0.20207   0.00000   0.00000  -0.00007   0.00000
  49        2PY        -0.00273   0.00000   0.00000  -0.00316   0.00000
  50        2PZ         0.00000   0.00710  -0.00012   0.00000  -0.02783
  51        3S          0.00000  -0.22130   0.00122   0.00000   0.19706
  52        3PX         0.40576   0.00000   0.00000  -0.00013   0.00000
  53        3PY        -0.00477   0.00000   0.00000  -0.04956   0.00000
  54        3PZ         0.00000  -0.03641  -0.00019   0.00000   0.04502
  55 7   H  1S          0.00000   0.05072  -0.00011   0.00000   0.04000
  56        2S          0.00000   1.14563  -0.00244   0.00000  -1.06520
  57 8   H  1S          0.00117   0.01936  -0.00003   0.03056   0.02202
  58        2S          0.08064  -0.32479   0.00100   1.16628   1.12743
  59 9   H  1S         -0.00117   0.01936  -0.00003  -0.03056   0.02202
  60        2S         -0.08064  -0.32479   0.00100  -1.16628   1.12743
  61 10  C  1S          0.00532  -0.03895   0.00005   0.02519  -0.02431
  62        2S         -0.00163   0.01207  -0.00002  -0.01660   0.00701
  63        2PX         0.14819   0.00015   0.21425  -0.00000  -0.00024
  64        2PY        -0.00979  -0.03914  -0.00009   0.02170  -0.02516
  65        2PZ         0.01466   0.16386  -0.00006  -0.08444   0.05147
  66        3S         -0.07008   0.50108  -0.00067  -0.28892   0.35912
  67        3PX         0.72292   0.00080   1.06423  -0.00001  -0.00118
  68        3PY        -0.04770  -0.13532  -0.00071   0.20161  -0.12389
  69        3PZ         0.07245   0.70389   0.00008  -0.53096   0.40447
  70 11  H  1S         -0.04538   0.01293  -0.02595  -0.03180   0.03909
  71        2S         -0.71236   0.31309  -1.05622  -0.23804   0.16433
  72 12  H  1S         -0.00419  -0.02195  -0.00007   0.04907  -0.06247
  73        2S         -0.07567  -0.95170   0.00055   0.72858  -0.65027
  74 13  H  1S          0.04851   0.01300   0.02600  -0.03186   0.03914
  75        2S          0.86538   0.31592   1.05564  -0.23904   0.16278
  76 14  C  1S         -0.00532  -0.03895   0.00005  -0.02519  -0.02431
  77        2S          0.00163   0.01207  -0.00002   0.01660   0.00701
  78        2PX         0.14819  -0.00015  -0.21425  -0.00000   0.00024
  79        2PY        -0.00979   0.03914   0.00009   0.02170   0.02516
  80        2PZ        -0.01466   0.16386  -0.00006   0.08444   0.05147
  81        3S          0.07008   0.50108  -0.00067   0.28892   0.35912
  82        3PX         0.72292  -0.00080  -1.06423  -0.00001   0.00118
  83        3PY        -0.04770   0.13532   0.00071   0.20161   0.12389
  84        3PZ        -0.07245   0.70389   0.00008   0.53096   0.40447
  85 15  H  1S         -0.04851   0.01300   0.02600   0.03186   0.03914
  86        2S         -0.86538   0.31592   1.05564   0.23904   0.16278
  87 16  H  1S          0.04538   0.01293  -0.02595   0.03180   0.03909
  88        2S          0.71236   0.31309  -1.05622   0.23804   0.16433
  89 17  H  1S          0.00419  -0.02195  -0.00007  -0.04907  -0.06247
  90        2S          0.07567  -0.95170   0.00055  -0.72858  -0.65027
                          41        42        43        44        45
                           V         V         V         V         V
     Eigenvalues --     0.41929   0.44646   0.45388   0.48069   0.53298
   1 1   C  1S          0.00000  -0.03887   0.05563   0.04681   0.01854
   2        2S         -0.00001   0.02387  -0.03681  -0.00870   0.00896
   3        2PX         0.13809  -0.00002  -0.00004  -0.00001   0.00006
   4        2PY         0.00003   0.02702   0.03993   0.13523  -0.03831
   5        2PZ         0.00005  -0.00865   0.04301  -0.03525  -0.10955
   6        3S          0.00011   0.22626  -0.64380  -0.45640  -0.61224
   7        3PX         0.46440  -0.00006  -0.00007   0.00004   0.00018
   8        3PY         0.00002   0.51544  -0.26871   0.91185  -0.26799
   9        3PZ         0.00051   0.09123   0.29972  -0.67079  -0.71897
  10 2   C  1S         -0.00006   0.10597  -0.11263   0.03442   0.06454
  11        2S         -0.00003  -0.06284   0.01978   0.03041   0.01725
  12        2PX        -0.21389   0.00004   0.00003  -0.00002  -0.00011
  13        2PY        -0.00005  -0.08679   0.16779   0.02241   0.15307
  14        2PZ        -0.00003   0.08239  -0.03849   0.01583   0.04381
  15        3S          0.00154  -1.17740   2.04467  -1.09277  -1.87565
  16        3PX        -0.69086   0.00016   0.00008  -0.00010  -0.00034
  17        3PY        -0.00045  -1.18779   0.94004   0.48918   1.33094
  18        3PZ        -0.00026   0.66707  -0.29647  -0.03957   0.53593
  19 3   C  1S          0.00000  -0.06763   0.00000  -0.06549   0.00000
  20        2S          0.00000   0.05368   0.00000   0.03711   0.00000
  21        2PX         0.22019   0.00000  -0.00002   0.00000   0.00014
  22        2PY        -0.00011   0.00000  -0.05949   0.00000   0.17862
  23        2PZ         0.00000  -0.00682   0.00000   0.18881   0.00000
  24        3S          0.00000   0.39154   0.00000   1.01864   0.00000
  25        3PX         0.62087   0.00000  -0.00008   0.00000   0.00026
  26        3PY        -0.00138   0.00000  -0.57533   0.00000   2.42013
  27        3PZ         0.00000  -0.92083   0.00000   1.13802   0.00000
  28 4   C  1S          0.00006   0.10597   0.11263   0.03442  -0.06454
  29        2S          0.00003  -0.06284  -0.01978   0.03041  -0.01725
  30        2PX        -0.21389  -0.00004   0.00003   0.00002  -0.00011
  31        2PY        -0.00005   0.08679   0.16779  -0.02241   0.15307
  32        2PZ         0.00003   0.08239   0.03849   0.01583  -0.04381
  33        3S         -0.00154  -1.17740  -2.04467  -1.09277   1.87565
  34        3PX        -0.69086  -0.00016   0.00008   0.00010  -0.00034
  35        3PY        -0.00045   1.18779   0.94004  -0.48918   1.33094
  36        3PZ         0.00026   0.66707   0.29647  -0.03957  -0.53593
  37 5   C  1S         -0.00000  -0.03887  -0.05563   0.04681  -0.01854
  38        2S          0.00001   0.02387   0.03681  -0.00870  -0.00896
  39        2PX         0.13809   0.00002  -0.00004   0.00001   0.00006
  40        2PY         0.00003  -0.02702   0.03993  -0.13523  -0.03831
  41        2PZ        -0.00005  -0.00865  -0.04301  -0.03525   0.10955
  42        3S         -0.00011   0.22626   0.64380  -0.45640   0.61224
  43        3PX         0.46440   0.00006  -0.00007  -0.00004   0.00018
  44        3PY         0.00002  -0.51544  -0.26871  -0.91185  -0.26799
  45        3PZ        -0.00051   0.09123  -0.29972  -0.67079   0.71897
  46 6   N  1S          0.00000   0.00642   0.00000  -0.15255   0.00000
  47        2S          0.00000  -0.04336   0.00000   0.03740   0.00000
  48        2PX        -0.15420   0.00000   0.00003   0.00000  -0.00006
  49        2PY        -0.00007   0.00000   0.09251   0.00000   0.15027
  50        2PZ         0.00000   0.08005   0.00000  -0.12012   0.00000
  51        3S          0.00000   0.28698   0.00000   2.08146   0.00000
  52        3PX        -0.37389   0.00000   0.00006   0.00000  -0.00013
  53        3PY        -0.00032   0.00000   0.09517   0.00000   0.54260
  54        3PZ         0.00000  -0.03554   0.00000  -0.60143   0.00000
  55 7   H  1S          0.00000   0.00334   0.00000  -0.02316   0.00000
  56        2S          0.00000  -1.01623   0.00000   0.73847   0.00000
  57 8   H  1S          0.00004  -0.01569  -0.02186   0.02461  -0.05769
  58        2S         -0.00026  -0.57431   0.26338  -0.16247   0.75026
  59 9   H  1S         -0.00004  -0.01569   0.02186   0.02461   0.05769
  60        2S          0.00026  -0.57431  -0.26338  -0.16247  -0.75026
  61 10  C  1S         -0.00002  -0.04922  -0.07160  -0.01341   0.00458
  62        2S         -0.00003  -0.01091  -0.00815  -0.00835   0.02499
  63        2PX         0.15427   0.00007  -0.00010  -0.00012   0.00024
  64        2PY        -0.00007   0.14345   0.03927  -0.02580   0.16515
  65        2PZ         0.00008   0.02136   0.10419  -0.07472  -0.02370
  66        3S          0.00038   0.93401   1.21937   0.21189  -0.17860
  67        3PX         0.77946   0.00022  -0.00042  -0.00040   0.00067
  68        3PY        -0.00002   1.22325   0.94878  -0.00453   0.30427
  69        3PZ         0.00033   0.53591   0.81199  -0.19716   0.22374
  70 11  H  1S          0.01107   0.04559   0.02922   0.02050   0.02698
  71        2S         -0.69929   0.10384   0.14878  -0.21550   0.15197
  72 12  H  1S         -0.00001   0.03062   0.06145  -0.04841   0.00704
  73        2S          0.00009   0.35917  -0.28998  -0.02272   0.46516
  74 13  H  1S         -0.01107   0.04562   0.02920   0.02057   0.02693
  75        2S          0.69884   0.10424   0.14845  -0.21667   0.15341
  76 14  C  1S          0.00002  -0.04922   0.07160  -0.01341  -0.00458
  77        2S          0.00003  -0.01091   0.00815  -0.00835  -0.02499
  78        2PX         0.15427  -0.00007  -0.00010   0.00012   0.00024
  79        2PY        -0.00007  -0.14345   0.03927   0.02580   0.16515
  80        2PZ        -0.00008   0.02136  -0.10419  -0.07472   0.02370
  81        3S         -0.00038   0.93401  -1.21937   0.21189   0.17860
  82        3PX         0.77946  -0.00022  -0.00042   0.00040   0.00067
  83        3PY        -0.00002  -1.22325   0.94878   0.00453   0.30427
  84        3PZ        -0.00033   0.53591  -0.81199  -0.19716  -0.22374
  85 15  H  1S          0.01107   0.04562  -0.02920   0.02057  -0.02693
  86        2S         -0.69884   0.10424  -0.14845  -0.21667  -0.15341
  87 16  H  1S         -0.01107   0.04559  -0.02922   0.02050  -0.02698
  88        2S          0.69929   0.10384  -0.14878  -0.21550  -0.15197
  89 17  H  1S          0.00001   0.03062  -0.06145  -0.04841  -0.00704
  90        2S         -0.00009   0.35917   0.28998  -0.02272  -0.46516
                          46        47        48        49        50
                           V         V         V         V         V
     Eigenvalues --     0.60718   0.61640   0.67357   0.75536   0.91922
   1 1   C  1S         -0.10657   0.03698   0.00760  -0.07713  -0.00002
   2        2S          0.01784   0.00847  -0.00980  -0.11245   0.00000
   3        2PX         0.00004  -0.00006  -0.00005   0.00001  -0.42462
   4        2PY        -0.15179  -0.05057   0.04897   0.05984  -0.00003
   5        2PZ        -0.05733   0.19726  -0.04511  -0.12512  -0.00012
   6        3S          2.20659  -1.12820  -0.52588   2.18083   0.00018
   7        3PX         0.00000   0.00000   0.00001  -0.00001   0.39590
   8        3PY        -1.02470  -0.48330  -1.27445  -1.29407  -0.00053
   9        3PZ        -0.93035   1.26936   2.13949  -1.30666   0.00045
  10 2   C  1S          0.03225  -0.00892  -0.00494   0.12169   0.00007
  11        2S         -0.04216  -0.01219   0.00355  -0.07225  -0.00007
  12        2PX        -0.00000   0.00002  -0.00001  -0.00001  -0.37290
  13        2PY         0.12261   0.17096   0.07984   0.14510  -0.00001
  14        2PZ        -0.19335   0.17761   0.17966  -0.19190  -0.00000
  15        3S         -0.28341   0.44769   0.10436  -2.66786  -0.00003
  16        3PX        -0.00006   0.00003   0.00003  -0.00004   0.01496
  17        3PY         0.61147   1.34467   1.09554   2.47630   0.00086
  18        3PZ        -1.88936   1.55556   2.15181  -1.35251   0.00034
  19 3   C  1S          0.00000  -0.10988   0.00000  -0.10942   0.00000
  20        2S          0.00000   0.00063   0.00000  -0.02371   0.00000
  21        2PX        -0.00006   0.00000   0.00008   0.00000  -0.37063
  22        2PY        -0.09209   0.00000  -0.10956   0.00000   0.00074
  23        2PZ         0.00000   0.07197   0.00000   0.06307   0.00000
  24        3S          0.00000   2.88453   0.00000   3.10867   0.00000
  25        3PX         0.00004   0.00000  -0.00005   0.00000   0.34208
  26        3PY        -0.74572   0.00000   2.48875   0.00000   0.00029
  27        3PZ         0.00000   0.90343   0.00000   2.59306   0.00000
  28 4   C  1S         -0.03225  -0.00892   0.00494   0.12169  -0.00007
  29        2S          0.04216  -0.01219  -0.00355  -0.07225   0.00007
  30        2PX        -0.00000  -0.00002  -0.00001   0.00001  -0.37290
  31        2PY         0.12261  -0.17096   0.07984  -0.14510  -0.00001
  32        2PZ         0.19335   0.17761  -0.17966  -0.19190   0.00000
  33        3S          0.28341   0.44769  -0.10436  -2.66786   0.00003
  34        3PX        -0.00006  -0.00003   0.00003   0.00004   0.01496
  35        3PY         0.61147  -1.34467   1.09554  -2.47630   0.00086
  36        3PZ         1.88936   1.55556  -2.15181  -1.35251  -0.00034
  37 5   C  1S          0.10657   0.03698  -0.00760  -0.07713   0.00002
  38        2S         -0.01784   0.00847   0.00980  -0.11245  -0.00000
  39        2PX         0.00004   0.00006  -0.00005  -0.00001  -0.42462
  40        2PY        -0.15179   0.05057   0.04897  -0.05984  -0.00003
  41        2PZ         0.05733   0.19726   0.04511  -0.12512   0.00012
  42        3S         -2.20659  -1.12820   0.52588   2.18083  -0.00018
  43        3PX         0.00000  -0.00000   0.00001   0.00001   0.39590
  44        3PY        -1.02470   0.48330  -1.27445   1.29407  -0.00053
  45        3PZ         0.93035   1.26936  -2.13949  -1.30666  -0.00045
  46 6   N  1S          0.00000   0.04767   0.00000   0.07424   0.00000
  47        2S          0.00000   0.00708   0.00000  -0.01719   0.00000
  48        2PX        -0.00002   0.00000   0.00002   0.00000  -0.03261
  49        2PY        -0.21702   0.00000  -0.19664   0.00000  -0.00008
  50        2PZ         0.00000  -0.09669   0.00000   0.11065   0.00000
  51        3S          0.00000  -0.91308   0.00000  -1.50834   0.00000
[...]
  83        3PY        -0.00000  -0.00000  -0.00002   0.00000  -0.00000
  84        3PZ         0.00000   0.00000  -0.00000   0.00000  -0.00000
  85 15  H  1S         -0.00000   0.00000  -0.00000  -0.00000  -0.00000
  86        2S          0.00000   0.00000  -0.00000  -0.00000  -0.00000
  87 16  H  1S         -0.00000   0.00000  -0.00000  -0.00000   0.00000
  88        2S          0.00000   0.00000  -0.00000  -0.00000   0.00000
  89 17  H  1S          0.00000   0.00000   0.00000   0.00000   0.00000
  90        2S          0.00000   0.00000   0.00000   0.00000   0.00000
                          71        72        73        74        75
  71        2S          0.13048
  72 12  H  1S         -0.00497   0.18233
  73        2S         -0.01341   0.09062   0.12382
  74 13  H  1S         -0.00528  -0.00019  -0.00488   0.18100
  75        2S         -0.01537  -0.00496  -0.01340   0.09194   0.13048
  76 14  C  1S          0.00000   0.00000  -0.00000   0.00000   0.00000
  77        2S         -0.00000   0.00000   0.00000   0.00000  -0.00000
  78        2PX        -0.00000   0.00000   0.00000   0.00000  -0.00000
  79        2PY        -0.00000   0.00000   0.00000  -0.00000  -0.00000
  80        2PZ        -0.00000   0.00000   0.00000  -0.00000  -0.00000
  81        3S          0.00000   0.00000   0.00000  -0.00000   0.00000
  82        3PX         0.00000   0.00000   0.00000   0.00000   0.00000
  83        3PY        -0.00000   0.00000   0.00000  -0.00000  -0.00000
  84        3PZ        -0.00000   0.00000   0.00000  -0.00000  -0.00000
  85 15  H  1S         -0.00000   0.00000   0.00000   0.00000   0.00000
  86        2S         -0.00000   0.00000  -0.00000   0.00000   0.00000
  87 16  H  1S          0.00000   0.00000   0.00000  -0.00000  -0.00000
  88        2S          0.00000   0.00000  -0.00000  -0.00000  -0.00000
  89 17  H  1S          0.00000   0.00000  -0.00000   0.00000   0.00000
  90        2S         -0.00000  -0.00000  -0.00000   0.00000  -0.00000
                          76        77        78        79        80
  76 14  C  1S          2.03883
  77        2S          0.02276   0.09978
  78        2PX         0.00000   0.00000   0.28574
  79        2PY         0.00000   0.00000   0.00000   0.27314
  80        2PZ         0.00000   0.00000   0.00000  -0.00000   0.28350
  81        3S         -0.07884   0.17565   0.00000   0.00000   0.00000
  82        3PX         0.00000   0.00000   0.13011  -0.00000   0.00000
  83        3PY         0.00000   0.00000  -0.00000   0.09569  -0.00000
  84        3PZ         0.00000   0.00000   0.00000  -0.00000   0.12287
  85 15  H  1S         -0.00099   0.00930   0.04074   0.00025   0.02042
  86        2S          0.00182   0.00289   0.02899   0.00030   0.01486
  87 16  H  1S         -0.00099   0.00930   0.04082   0.00026   0.02033
  88        2S          0.00182   0.00289   0.02906   0.00030   0.01479
  89 17  H  1S         -0.00101   0.00940   0.00000   0.03548   0.02661
  90        2S          0.00174   0.00334   0.00000   0.02547   0.01805
                          81        82        83        84        85
  81        3S          0.85214
  82        3PX         0.00000   0.21389
  83        3PY         0.00000  -0.00000   0.12743
  84        3PZ         0.00000   0.00000  -0.00000   0.19922
  85 15  H  1S          0.05909   0.06002  -0.00034   0.02808   0.18100
  86        2S          0.02332   0.06347  -0.00015   0.03020   0.09194
  87 16  H  1S          0.05909   0.06015  -0.00034   0.02795  -0.00020
  88        2S          0.02332   0.06360  -0.00014   0.03007  -0.00528
  89 17  H  1S          0.06069   0.00000   0.04546   0.04304  -0.00019
  90        2S          0.02659   0.00000   0.04876   0.04364  -0.00488
                          86        87        88        89        90
  86        2S          0.13048
  87 16  H  1S         -0.00528   0.18100
  88        2S         -0.01537   0.09195   0.13048
  89 17  H  1S         -0.00496  -0.00019  -0.00497   0.18233
  90        2S         -0.01340  -0.00488  -0.01341   0.09062   0.12382
     Gross orbital populations:
                           1
   1 1   C  1S          1.98731
   2        2S          0.40644
   3        2PX         0.40863
   4        2PY         0.58349
   5        2PZ         0.61456
   6        3S          0.73824
   7        3PX         0.58046
   8        3PY         0.28356
   9        3PZ         0.25581
  10 2   C  1S          1.98862
  11        2S          0.39412
  12        2PX         0.40482
  13        2PY         0.59249
  14        2PZ         0.61933
  15        3S          0.87241
  16        3PX         0.58434
  17        3PY         0.37732
  18        3PZ         0.33483
  19 3   C  1S          1.98848
  20        2S          0.39886
  21        2PX         0.40187
  22        2PY         0.62776
  23        2PZ         0.58800
  24        3S          0.88403
  25        3PX         0.57505
  26        3PY         0.19325
  27        3PZ         0.48808
  28 4   C  1S          1.98862
  29        2S          0.39412
  30        2PX         0.40482
  31        2PY         0.59249
  32        2PZ         0.61933
  33        3S          0.87241
  34        3PX         0.58434
  35        3PY         0.37732
  36        3PZ         0.33483
  37 5   C  1S          1.98731
  38        2S          0.40644
  39        2PX         0.40863
  40        2PY         0.58349
  41        2PZ         0.61456
  42        3S          0.73824
  43        3PX         0.58046
  44        3PY         0.28356
  45        3PZ         0.25581
  46 6   N  1S          1.99059
  47        2S          0.38314
  48        2PX         0.43280
  49        2PY         0.58143
  50        2PZ         0.75625
  51        3S          1.46127
  52        3PX         0.65059
  53        3PY         0.52066
  54        3PZ         0.90440
  55 7   H  1S          0.47701
  56        2S          0.28158
  57 8   H  1S          0.48371
  58        2S          0.26907
  59 9   H  1S          0.48371
  60        2S          0.26907
  61 10  C  1S          1.98842
  62        2S          0.35456
  63        2PX         0.55319
  64        2PY         0.53314
  65        2PZ         0.55009
  66        3S          1.14084
  67        3PX         0.56790
  68        3PY         0.38633
  69        3PZ         0.52063
  70 11  H  1S          0.46838
  71        2S          0.30740
  72 12  H  1S          0.47162
  73        2S          0.30958
  74 13  H  1S          0.46839
  75        2S          0.30741
  76 14  C  1S          1.98842
  77        2S          0.35456
  78        2PX         0.55319
  79        2PY         0.53314
  80        2PZ         0.55009
  81        3S          1.14084
  82        3PX         0.56790
  83        3PY         0.38633
  84        3PZ         0.52063
  85 15  H  1S          0.46839
  86        2S          0.30741
  87 16  H  1S          0.46838
  88        2S          0.30740
  89 17  H  1S          0.47162
  90        2S          0.30958
          Condensed to atoms (all electrons):
               1          2          3          4          5          6
     1  C    4.932715   0.361836  -0.095004  -0.004227  -0.141881   0.422654
     2  C    0.361836   5.573450   0.415690  -0.085105  -0.004227  -0.067448
     3  C   -0.095004   0.415690   5.252927   0.415690  -0.095004  -0.034337
     4  C   -0.004227  -0.085105   0.415690   5.573450   0.361836  -0.067448
     5  C   -0.141881  -0.004227  -0.095004   0.361836   4.932715   0.422654
     6  N    0.422654  -0.067448  -0.034337  -0.067448   0.422654   7.074619
     7  H    0.001690  -0.032887   0.406427  -0.032887   0.001690  -0.000080
     8  H    0.412545  -0.068264   0.003231  -0.000893   0.003383  -0.037305
     9  H    0.003383  -0.000893   0.003231  -0.068264   0.412545  -0.037305
    10  C    0.000129   0.002152  -0.063533   0.227404  -0.035765   0.002618
    11  H    0.000009   0.000049  -0.001563  -0.051799   0.000721  -0.000029
    12  H    0.000017  -0.000073   0.002924  -0.049862  -0.001049   0.000000
    13  H    0.000009   0.000050  -0.001563  -0.051792   0.000725  -0.000029
    14  C   -0.035765   0.227404  -0.063533   0.002152   0.000129   0.002618
    15  H    0.000725  -0.051792  -0.001563   0.000050   0.000009  -0.000029
    16  H    0.000721  -0.051799  -0.001563   0.000049   0.000009  -0.000029
    17  H   -0.001049  -0.049862   0.002924  -0.000073   0.000017   0.000000
               7          8          9         10         11         12
     1  C    0.001690   0.412545   0.003383   0.000129   0.000009   0.000017
     2  C   -0.032887  -0.068264  -0.000893   0.002152   0.000049  -0.000073
     3  C    0.406427   0.003231   0.003231  -0.063533  -0.001563   0.002924
     4  C   -0.032887  -0.000893  -0.068264   0.227404  -0.051799  -0.049862
     5  C    0.001690   0.003383   0.412545  -0.035765   0.000721  -0.001049
     6  N   -0.000080  -0.037305  -0.037305   0.002618  -0.000029   0.000000
     7  H    0.415535  -0.000035  -0.000035  -0.001163   0.000369   0.000012
     8  H   -0.000035   0.437353   0.000041   0.000003  -0.000000  -0.000000
     9  H   -0.000035   0.000041   0.437353   0.001349  -0.000037   0.001453
    10  C   -0.001163   0.000003   0.001349   5.310154   0.382255   0.387252
    11  H    0.000369  -0.000000  -0.000037   0.382255   0.495373  -0.023438
    12  H    0.000012  -0.000000   0.001453   0.387252  -0.023438   0.487397
    13  H    0.000371  -0.000000  -0.000037   0.382268  -0.026134  -0.023436
    14  C   -0.001163   0.001349   0.000003  -0.000030   0.000000   0.000000
    15  H    0.000371  -0.000037  -0.000000   0.000000  -0.000001  -0.000000
    16  H    0.000369  -0.000037  -0.000000   0.000000   0.000000  -0.000000
    17  H    0.000012   0.001453  -0.000000   0.000000  -0.000000  -0.000000
              13         14         15         16         17
     1  C    0.000009  -0.035765   0.000725   0.000721  -0.001049
     2  C    0.000050   0.227404  -0.051792  -0.051799  -0.049862
     3  C   -0.001563  -0.063533  -0.001563  -0.001563   0.002924
     4  C   -0.051792   0.002152   0.000050   0.000049  -0.000073
     5  C    0.000725   0.000129   0.000009   0.000009   0.000017
     6  N   -0.000029   0.002618  -0.000029  -0.000029   0.000000
     7  H    0.000371  -0.001163   0.000371   0.000369   0.000012
     8  H   -0.000000   0.001349  -0.000037  -0.000037   0.001453
     9  H   -0.000037   0.000003  -0.000000  -0.000000  -0.000000
    10  C    0.382268  -0.000030   0.000000   0.000000   0.000000
    11  H   -0.026134   0.000000  -0.000001   0.000000  -0.000000
    12  H   -0.023436   0.000000  -0.000000  -0.000000  -0.000000
    13  H    0.495368   0.000000   0.000000  -0.000001  -0.000000
    14  C    0.000000   5.310154   0.382268   0.382255   0.387252
    15  H    0.000000   0.382268   0.495368  -0.026134  -0.023436
    16  H   -0.000001   0.382255  -0.026134   0.495373  -0.023438
    17  H   -0.000000   0.387252  -0.023436  -0.023438   0.487397
 Mulliken charges:
               1
     1  C    0.141492
     2  C   -0.168282
     3  C   -0.145383
     4  C   -0.168282
     5  C    0.141492
     6  N   -0.681128
     7  H    0.241404
     8  H    0.247213
     9  H    0.247213
    10  C   -0.595094
    11  H    0.224223
    12  H    0.218801
    13  H    0.224200
    14  C   -0.595094
    15  H    0.224200
    16  H    0.224223
    17  H    0.218801
 Sum of Mulliken charges =  -0.00000
 Mulliken charges with hydrogens summed into heavy atoms:
               1
     1  C    0.388705
     2  C   -0.168282
     3  C    0.096021
     4  C   -0.168282
     5  C    0.388705
     6  N   -0.681128
    10  C    0.072130
    14  C    0.072130
 Electronic spatial extent (au):  <R**2>=            991.7688
 Charge=             -0.0000 electrons
 Dipole moment (field-independent basis, Debye):
    X=             -0.0000    Y=             -0.0000    Z=             -2.7951  Tot=              2.7951
 Quadrupole moment (field-independent basis, Debye-Ang):
   XX=            -51.6988   YY=            -41.1050   ZZ=            -51.9946
   XY=             -0.0005   XZ=             -0.0000   YZ=             -0.0000
 Traceless Quadrupole moment (field-independent basis, Debye-Ang):
   XX=             -3.4326   YY=              7.1611   ZZ=             -3.7285
   XY=             -0.0005   XZ=             -0.0000   YZ=             -0.0000
 Octapole moment (field-independent basis, Debye-Ang**2):
  XXX=             -0.0000  YYY=             -0.0000  ZZZ=            -19.6318  XYY=              0.0000
  XXY=             -0.0000  XXZ=             -1.7465  XZZ=              0.0000  YZZ=             -0.0000
  YYZ=              4.1991  XYZ=              0.0015
 Hexadecapole moment (field-independent basis, Debye-Ang**3):
 XXXX=            -64.7866 YYYY=           -825.2886 ZZZZ=           -450.7246 XXXY=              0.0007
 XXXZ=              0.0000 YYYX=              0.0163 YYYZ=              0.0000 ZZZX=              0.0000
 ZZZY=              0.0000 XXYY=           -159.8831 XXZZ=            -79.5588 YYZZ=           -196.2810
 XXYZ=              0.0000 YYXZ=             -0.0000 ZZXY=              0.0079
 N-N= 3.460250538597D+02 E-N=-1.443612677137D+03  KE= 3.223907167613D+02
 Symmetry A    KE= 2.009974358263D+02
 Symmetry B    KE= 1.213932809350D+02
 Orbital energies and kinetic energies (alpha):
                                 1                 2
   1         O               -15.485939         21.929450
   2         O               -11.205755         15.872889
   3         O               -11.205275         15.866450
   4         O               -11.193291         15.874184
   5         O               -11.193221         15.879401
   6         O               -11.188003         15.875296
   7         O               -11.171562         15.876231
   8         O               -11.171492         15.875219
   9         O                -1.269537          1.821059
  10         O                -1.107748          1.646508
  11         O                -1.072857          1.514305
  12         O                -0.958024          1.389881
  13         O                -0.951653          1.535541
  14         O                -0.852427          1.528715
  15         O                -0.809420          1.556256
  16         O                -0.710436          1.055968
  17         O                -0.685454          1.397776
  18         O                -0.598461          1.355450
  19         O                -0.597965          0.895598
  20         O                -0.579619          0.929582
  21         O                -0.579528          1.279484
  22         O                -0.571705          1.197881
  23         O                -0.554643          1.212674
  24         O                -0.543530          1.175399
  25         O                -0.518143          1.063977
  26         O                -0.497562          1.468535
  27         O                -0.391968          1.837403
  28         O                -0.368677          1.186466
  29         O                -0.335490          1.097781
  30         V                 0.130835          1.353220
  31         V                 0.150432          1.283636
  32         V                 0.270472          0.950449
  33         V                 0.290456          0.979094
  34         V                 0.311919          1.130905
  35         V                 0.319655          0.951002
  36         V                 0.319838          1.187959
  37         V                 0.321600          1.025301
  38         V                 0.351553          0.894039
  39         V                 0.360695          1.101741
  40         V                 0.362949          1.151829
  41         V                 0.419289          1.458044
  42         V                 0.446455          1.723574
  43         V                 0.453883          1.860688
  44         V                 0.480685          1.943192
  45         V                 0.532975          1.545826
  46         V                 0.607181          2.095939
  47         V                 0.616397          1.933042
  48         V                 0.673565          1.348292
  49         V                 0.755358          2.611960
  50         V                 0.919217          2.332484
  51         V                 0.927438          2.591988
  52         V                 0.944860          2.340801
  53         V                 0.948442          2.169116
  54         V                 0.956963          2.558210
  55         V                 0.990993          2.971772
  56         V                 1.016576          2.307343
  57         V                 1.034933          2.796808
  58         V                 1.053674          2.676511
  59         V                 1.086629          2.636679
  60         V                 1.093280          3.001605
  61         V                 1.126109          3.310034
  62         V                 1.167158          2.914773
  63         V                 1.176214          2.729758
  64         V                 1.195758          2.734291
  65         V                 1.201612          2.796957
  66         V                 1.215848          3.265037
  67         V                 1.216911          2.743068
  68         V                 1.339451          2.908887
  69         V                 1.342940          3.004887
  70         V                 1.344708          3.182148
  71         V                 1.347766          2.967887
  72         V                 1.360923          2.816357
  73         V                 1.366833          2.999709
  74         V                 1.421519          3.171847
  75         V                 1.446683          3.225624
  76         V                 1.561365          3.166431
  77         V                 1.561411          3.905486
  78         V                 1.613433          2.960771
  79         V                 1.623192          3.139672
  80         V                 1.680599          3.500955
  81         V                 1.748301          3.606542
  82         V                 1.783698          3.129575
  83         V                 1.850180          3.344944
  84         V                 1.926565          3.301502
  85         V                 1.969630          3.532901
  86         V                 2.167709          3.245871
  87         V                 2.261612          3.417169
  88         V                 2.289481          3.625350
  89         V                 2.318205          3.447664
  90         V                 3.294446          5.097084
 Total kinetic energy from orbitals= 3.223907167613D+02
 1\1\GINC-IISERK51\SP\RHF\3-21G\C7H9N1\GAUSSIAN\16-Jun-2025\0\\# hf/3-2
 1g pop=full geom=connectivity\\35 DMP sp\\0,1\C,0,0.000008,1.14571,1.1
 31144\C,0,0.,1.204009,-0.252957\C,0,0.,0.,-0.939344\C,0,0.,-1.204009,-
 0.252957\C,0,-0.000008,-1.14571,1.131144\N,0,0.,0.,1.803007\H,0,0.,0.,
 -2.013782\H,0,0.000006,2.045988,1.711992\H,0,-0.000006,-2.045988,1.711
 992\C,0,0.000089,-2.526379,-0.989162\H,0,0.87904,-2.615816,-1.618631\H
 ,0,-0.000723,-3.355987,-0.293123\H,0,-0.877938,-2.615216,-1.619986\C,0
 ,-0.000089,2.526379,-0.989162\H,0,0.877938,2.615216,-1.619986\H,0,-0.8
 7904,2.615816,-1.618631\H,0,0.000723,3.355987,-0.293123\\Version=EM64L
 -G16RevB.01\State=1-A\HF=-322.9553141\RMSD=4.254e-09\Dipole=0.,0.,-1.0
 996681\Quadrupole=-2.55208,5.3241344,-2.7720544,-0.0003891,0.,0.\PG=C0
 2 [C2(H1C1N1),X(C6H8)]\\@


 AS FAR AS THE LAWS OF MATHEMATICS REFER TO REALITY,
 THEY ARE NOT CERTAIN; AND AS FAR AS THEY ARE CERTAIN,
 THEY DO NOT REFER TO REALITY.

                                         -- ALBERT EINSTEIN
 Job cpu time:       0 days  0 hours  0 minutes  1.1 seconds.
 Elapsed time:       0 days  0 hours  0 minutes  1.1 seconds.
 File lengths (MBytes):  RWF=     10 Int=      0 D2E=      0 Chk=      2 Scr=      1
 Normal termination of Gaussian 16 at Mon Jun 16 17:01:02 2025.
