 Entering Gaussian System, Link 0=g16
 Input=/home/gaussian/Documents/Summer_Internship/Acid_Base_adduct/Base/3,5-dimethpyridine/35DMP_ion_opt.com
 Output=/home/gaussian/Documents/Summer_Internship/Acid_Base_adduct/Base/3,5-dimethpyridine/35DMP_ion_opt.log
 Initial command:
 /usr/local/g16/l1.exe "/home/gaussian/tmp/Gau-74736.inp" -scrdir="/home/gaussian/tmp/"
 Entering Link 1 = /usr/local/g16/l1.exe PID=     74739.
  
 Copyright (c) 1988-2017, Gaussian, Inc.  All Rights Reserved.
  
 This is part of the Gaussian(R) 16 program.  It is based on
 the Gaussian(R) 09 system (copyright 2009, Gaussian, Inc.),
 the Gaussian(R) 03 system (copyright 2003, Gaussian, Inc.),
 the Gaussian(R) 98 system (copyright 1998, Gaussian, Inc.),
 the Gaussian(R) 94 system (copyright 1995, Gaussian, Inc.),
 the Gaussian 92(TM) system (copyright 1992, Gaussian, Inc.),
 the Gaussian 90(TM) system (copyright 1990, Gaussian, Inc.),
 the Gaussian 88(TM) system (copyright 1988, Gaussian, Inc.),
 the Gaussian 86(TM) system (copyright 1986, Carnegie Mellon
 University), and the Gaussian 82(TM) system (copyright 1983,
 Carnegie Mellon University). Gaussian is a federally registered
 trademark of Gaussian, Inc.
  
 This software contains proprietary and confidential information,
 including trade secrets, belonging to Gaussian, Inc.
  
 This software is provided under written license and may be
 used, copied, transmitted, or stored only in accord with that
 written license.
  
 The following legend is applicable only to US Government
 contracts under FAR:
  
                    RESTRICTED RIGHTS LEGEND
  
 Use, reproduction and disclosure by the US Government is
 subject to restrictions as set forth in subparagraphs (a)
 and (c) of the Commercial Computer Software - Restricted
 Rights clause in FAR 52.227-19.
  
 Gaussian, Inc.
 340 Quinnipiac St., Bldg. 40, Wallingford CT 06492
  
  
 ---------------------------------------------------------------
 Warning -- This program may not be used in any manner that
 competes with the business of Gaussian, Inc. or will provide
 assistance to any competitor of Gaussian, Inc.  The licensee
 of this program is prohibited from giving any competitor of
 Gaussian, Inc. access to this program.  By using this program,
 the user acknowledges that Gaussian, Inc. is engaged in the
 business of creating and licensing software in the field of
 computational chemistry and represents and warrants to the
 licensee that it is not a competitor of Gaussian, Inc. and that
 it will not use this program in any manner prohibited above.
 ---------------------------------------------------------------
  

 Cite this work as:
 Gaussian 16, Revision B.01,
 M. J. Frisch, G. W. Trucks, H. B. Schlegel, G. E. Scuseria, 
 M. A. Robb, J. R. Cheeseman, G. Scalmani, V. Barone, 
 G. A. Petersson, H. Nakatsuji, X. Li, M. Caricato, A. V. Marenich, 
 J. Bloino, B. G. Janesko, R. Gomperts, B. Mennucci, H. P. Hratchian, 
 J. V. Ortiz, A. F. Izmaylov, J. L. Sonnenberg, D. Williams-Young, 
 F. Ding, F. Lipparini, F. Egidi, J. Goings, B. Peng, A. Petrone, 
 T. Henderson, D. Ranasinghe, V. G. Zakrzewski, J. Gao, N. Rega, 
 G. Zheng, W. Liang, M. Hada, M. Ehara, K. Toyota, R. Fukuda, 
 J. Hasegawa, M. Ishida, T. Nakajima, Y. Honda, O. Kitao, H. Nakai, 
 T. Vreven, K. Throssell, J. A. Montgomery, Jr., J. E. Peralta, 
 F. Ogliaro, M. J. Bearpark, J. J. Heyd, E. N. Brothers, K. N. Kudin, 
 V. N. Staroverov, T. A. Keith, R. Kobayashi, J. Normand, 
 K. Raghavachari, A. P. Rendell, J. C. Burant, S. S. Iyengar, 
 J. Tomasi, M. Cossi, J. M. Millam, M. Klene, C. Adamo, R. Cammi, 
 J. W. Ochterski, R. L. Martin, K. Morokuma, O. Farkas, 
 J. B. Foresman, and D. J. Fox, Gaussian, Inc., Wallingford CT, 2016.
 
 ******************************************
 Gaussian 16:  EM64L-G16RevB.01 20-Dec-2017
                16-Jun-2025 
 ******************************************
 %chk=35DMP_ion_opt.chk
 ----------------------------------------------
 # opt freq hf/3-21g pop=full geom=connectivity
 ----------------------------------------------
 1/18=20,19=15,38=1,57=2/1,3;
 2/9=110,12=2,17=6,18=5,40=1/2;
 3/5=5,11=9,25=1,30=1,71=1/1,2,3;
 4//1;
 5/5=2,38=5/2;
 6/7=3,28=1/1;
 7//1,2,3,16;
 1/18=20,19=15/3(2);
 2/9=110/2;
 99//99;
 2/9=110/2;
 3/5=5,11=9,25=1,30=1,71=1/1,2,3;
 4/5=5,16=3,69=1/1;
 5/5=2,38=5/2;
 7//1,2,3,16;
 1/18=20,19=15/3(-5);
 2/9=110/2;
 6/7=3,19=2,28=1/1;
 99/9=1/99;
 --------------
 35 DMP ion opt
 --------------
 Symbolic Z-matrix:
 Charge =  1 Multiplicity = 1
 C                     0.        1.17916   1.08305 
 C                     0.        1.21872  -0.28973 
 C                     0.        0.       -0.96178 
 C                     0.       -1.21872  -0.28973 
 C                    0.        -1.17916   1.08305 
 N                     0.        0.        1.72331 
 H                     0.        0.       -2.03487 
 H                     0.00001   2.06018   1.68792 
 H                    -0.00001  -2.06018   1.68792 
 C                     0.00006  -2.53336  -1.04056 
 H                     0.87991  -2.60768  -1.66839 
 H                    -0.00066  -3.37416  -0.3601 
 H                    -0.87901  -2.60712  -1.66955 
 C                    -0.00006   2.53336  -1.04056 
 H                     0.87901   2.60712  -1.66955 
 H                    -0.87991   2.60768  -1.66839 
 H                     0.00066   3.37416  -0.3601 
 H                     0.        0.        2.72948 
 

 GradGradGradGradGradGradGradGradGradGradGradGradGradGradGradGradGradGrad
 Berny optimization.
 Initialization pass.
                           ----------------------------
                           !    Initial Parameters    !
                           ! (Angstroms and Degrees)  !
 --------------------------                            --------------------------
 ! Name  Definition              Value          Derivative Info.                !
 --------------------------------------------------------------------------------
 ! R1    R(1,2)                  1.3733         estimate D2E/DX2                !
 ! R2    R(1,6)                  1.3418         estimate D2E/DX2                !
 ! R3    R(1,8)                  1.0687         estimate D2E/DX2                !
 ! R4    R(2,3)                  1.3917         estimate D2E/DX2                !
 ! R5    R(2,14)                 1.5139         estimate D2E/DX2                !
 ! R6    R(3,4)                  1.3917         estimate D2E/DX2                !
 ! R7    R(3,7)                  1.0731         estimate D2E/DX2                !
 ! R8    R(4,5)                  1.3733         estimate D2E/DX2                !
 ! R9    R(4,10)                 1.5139         estimate D2E/DX2                !
 ! R10   R(5,6)                  1.3418         estimate D2E/DX2                !
 ! R11   R(5,9)                  1.0687         estimate D2E/DX2                !
 ! R12   R(6,18)                 1.0062         estimate D2E/DX2                !
 ! R13   R(10,11)                1.0834         estimate D2E/DX2                !
 ! R14   R(10,12)                1.0817         estimate D2E/DX2                !
 ! R15   R(10,13)                1.0834         estimate D2E/DX2                !
 ! R16   R(14,15)                1.0834         estimate D2E/DX2                !
 ! R17   R(14,16)                1.0834         estimate D2E/DX2                !
 ! R18   R(14,17)                1.0817         estimate D2E/DX2                !
 ! A1    A(2,1,6)              120.1524         estimate D2E/DX2                !
 ! A2    A(2,1,8)              122.821          estimate D2E/DX2                !
 ! A3    A(6,1,8)              117.0266         estimate D2E/DX2                !
 ! A4    A(1,2,3)              117.2231         estimate D2E/DX2                !
 ! A5    A(1,2,14)             121.3833         estimate D2E/DX2                !
 ! A6    A(3,2,14)             121.3935         estimate D2E/DX2                !
 ! A7    A(2,3,4)              122.2517         estimate D2E/DX2                !
 ! A8    A(2,3,7)              118.8741         estimate D2E/DX2                !
 ! A9    A(4,3,7)              118.8741         estimate D2E/DX2                !
 ! A10   A(3,4,5)              117.2231         estimate D2E/DX2                !
 ! A11   A(3,4,10)             121.3935         estimate D2E/DX2                !
 ! A12   A(5,4,10)             121.3833         estimate D2E/DX2                !
 ! A13   A(4,5,6)              120.1524         estimate D2E/DX2                !
 ! A14   A(4,5,9)              122.821          estimate D2E/DX2                !
 ! A15   A(6,5,9)              117.0266         estimate D2E/DX2                !
 ! A16   A(1,6,5)              122.9971         estimate D2E/DX2                !
 ! A17   A(1,6,18)             118.5014         estimate D2E/DX2                !
 ! A18   A(5,6,18)             118.5014         estimate D2E/DX2                !
 ! A19   A(4,10,11)            110.3035         estimate D2E/DX2                !
 ! A20   A(4,10,12)            111.2847         estimate D2E/DX2                !
 ! A21   A(4,10,13)            110.3048         estimate D2E/DX2                !
 ! A22   A(11,10,12)           108.1653         estimate D2E/DX2                !
 ! A23   A(11,10,13)           108.5315         estimate D2E/DX2                !
 ! A24   A(12,10,13)           108.1647         estimate D2E/DX2                !
 ! A25   A(2,14,15)            110.3048         estimate D2E/DX2                !
 ! A26   A(2,14,16)            110.3035         estimate D2E/DX2                !
 ! A27   A(2,14,17)            111.2847         estimate D2E/DX2                !
 ! A28   A(15,14,16)           108.5315         estimate D2E/DX2                !
 ! A29   A(15,14,17)           108.1647         estimate D2E/DX2                !
 ! A30   A(16,14,17)           108.1653         estimate D2E/DX2                !
 ! D1    D(6,1,2,3)             -0.0004         estimate D2E/DX2                !
 ! D2    D(6,1,2,14)           179.9971         estimate D2E/DX2                !
 ! D3    D(8,1,2,3)            179.9997         estimate D2E/DX2                !
 ! D4    D(8,1,2,14)            -0.0028         estimate D2E/DX2                !
 ! D5    D(2,1,6,5)              0.0002         estimate D2E/DX2                !
 ! D6    D(2,1,6,18)          -179.9998         estimate D2E/DX2                !
 ! D7    D(8,1,6,5)           -179.9999         estimate D2E/DX2                !
 ! D8    D(8,1,6,18)             0.0001         estimate D2E/DX2                !
 ! D9    D(1,2,3,4)              0.0002         estimate D2E/DX2                !
 ! D10   D(1,2,3,7)           -179.9998         estimate D2E/DX2                !
 ! D11   D(14,2,3,4)          -179.9973         estimate D2E/DX2                !
 ! D12   D(14,2,3,7)             0.0027         estimate D2E/DX2                !
 ! D13   D(1,2,14,15)          120.1015         estimate D2E/DX2                !
 ! D14   D(1,2,14,16)         -120.0155         estimate D2E/DX2                !
 ! D15   D(1,2,14,17)            0.0429         estimate D2E/DX2                !
 ! D16   D(3,2,14,15)          -59.9011         estimate D2E/DX2                !
 ! D17   D(3,2,14,16)           59.9819         estimate D2E/DX2                !
 ! D18   D(3,2,14,17)         -179.9597         estimate D2E/DX2                !
 ! D19   D(2,3,4,5)              0.0002         estimate D2E/DX2                !
 ! D20   D(2,3,4,10)          -179.9973         estimate D2E/DX2                !
 ! D21   D(7,3,4,5)           -179.9998         estimate D2E/DX2                !
 ! D22   D(7,3,4,10)             0.0027         estimate D2E/DX2                !
 ! D23   D(3,4,5,6)             -0.0004         estimate D2E/DX2                !
 ! D24   D(3,4,5,9)            179.9997         estimate D2E/DX2                !
 ! D25   D(10,4,5,6)           179.9971         estimate D2E/DX2                !
 ! D26   D(10,4,5,9)            -0.0028         estimate D2E/DX2                !
 ! D27   D(3,4,10,11)           59.9819         estimate D2E/DX2                !
 ! D28   D(3,4,10,12)         -179.9597         estimate D2E/DX2                !
 ! D29   D(3,4,10,13)          -59.9011         estimate D2E/DX2                !
 ! D30   D(5,4,10,11)         -120.0155         estimate D2E/DX2                !
 ! D31   D(5,4,10,12)            0.0429         estimate D2E/DX2                !
 ! D32   D(5,4,10,13)          120.1015         estimate D2E/DX2                !
 ! D33   D(4,5,6,1)              0.0002         estimate D2E/DX2                !
 ! D34   D(4,5,6,18)          -179.9998         estimate D2E/DX2                !
 ! D35   D(9,5,6,1)           -179.9999         estimate D2E/DX2                !
 ! D36   D(9,5,6,18)             0.0001         estimate D2E/DX2                !
 --------------------------------------------------------------------------------
 Trust Radius=3.00D-01 FncErr=1.00D-07 GrdErr=1.00D-07 EigMax=2.50D+02 EigMin=1.00D-04
 Number of steps in this run=     94 maximum allowed number of steps=    108.
 GradGradGradGradGradGradGradGradGradGradGradGradGradGradGradGradGradGrad

                          Input orientation:                          
 ---------------------------------------------------------------------
 Center     Atomic      Atomic             Coordinates (Angstroms)
 Number     Number       Type             X           Y           Z
 ---------------------------------------------------------------------
      1          6           0        0.000004    1.179155    1.083047
      2          6           0        0.000000    1.218723   -0.289726
      3          6           0        0.000000    0.000000   -0.961780
      4          6           0        0.000000   -1.218723   -0.289726
      5          6           0       -0.000004   -1.179155    1.083047
      6          7           0        0.000000    0.000000    1.723314
      7          1           0        0.000000    0.000000   -2.034866
      8          1           0        0.000009    2.060176    1.687922
      9          1           0       -0.000009   -2.060176    1.687922
     10          6           0        0.000060   -2.533355   -1.040562
     11          1           0        0.879914   -2.607678   -1.668393
     12          1           0       -0.000658   -3.374164   -0.360102
     13          1           0       -0.879011   -2.607124   -1.669546
     14          6           0       -0.000060    2.533355   -1.040562
     15          1           0        0.879011    2.607124   -1.669546
     16          1           0       -0.879914    2.607678   -1.668393
     17          1           0        0.000658    3.374164   -0.360102
     18          1           0        0.000000    0.000000    2.729479
 ---------------------------------------------------------------------
                    Distance matrix (angstroms):
                    1          2          3          4          5
     1  C    0.000000
     2  C    1.373343   0.000000
     3  C    2.360450   1.391741   0.000000
     4  C    2.763028   2.437446   1.391741   0.000000
     5  C    2.358310   2.763028   2.360450   1.373343   0.000000
     6  N    1.341771   2.353214   2.685094   2.353214   1.341771
     7  H    3.333435   2.128567   1.073086   2.128567   3.333435
     8  H    1.068678   2.149217   3.356374   3.829134   3.295321
     9  H    3.295321   3.829134   3.356374   2.149217   1.068678
    10  C    4.276967   3.826466   2.534580   1.513939   2.518645
    11  H    4.762853   4.161288   2.841397   2.145732   3.222632
    12  H    4.776546   4.593426   3.427390   2.156590   2.626927
    13  H    4.762913   4.160970   2.840896   2.145745   3.223122
    14  C    2.518645   1.513939   2.534580   3.826466   4.276967
    15  H    3.223122   2.145745   2.840896   4.160970   4.762913
    16  H    3.222632   2.145732   2.841397   4.161288   4.762853
    17  H    2.626927   2.156590   3.427390   4.593426   4.776546
    18  H    2.025128   3.255900   3.691259   3.255900   2.025128
                    6          7          8          9         10
     6  N    0.000000
     7  H    3.758180   0.000000
     8  H    2.060480   4.254818   0.000000
     9  H    2.060480   4.254818   4.120352   0.000000
    10  C    3.749253   2.721494   5.342766   2.769210   0.000000
    11  H    4.367827   2.776425   5.816180   3.512673   1.083438
    12  H    3.965552   3.766937   5.807448   2.433304   1.081659
    13  H    4.368210   2.775467   5.816267   3.513458   1.083434
    14  C    3.749253   2.721494   2.769210   5.342766   5.066710
    15  H    4.368210   2.775467   3.513458   5.816267   5.252875
    16  H    4.367827   2.776425   3.512673   5.816180   5.253451
    17  H    3.965552   3.766937   2.433304   5.807448   5.946579
    18  H    1.006165   4.764345   2.308499   2.308499   4.542147
                   11         12         13         14         15
    11  H    0.000000
    12  H    1.753435   0.000000
    13  H    1.758925   1.753425   0.000000
    14  C    5.253451   5.946579   5.252875   0.000000
    15  H    5.214802   6.185812   5.502638   1.083434   0.000000
    16  H    5.504265   6.186045   5.214802   1.083438   1.758925
    17  H    6.186045   6.748328   6.185812   1.081659   1.753425
    18  H    5.188016   4.574986   5.188562   4.542147   5.188562
                   16         17         18
    16  H    0.000000
    17  H    1.753435   0.000000
    18  H    5.188016   4.574986   0.000000
 Stoichiometry    C7H10N(1+)
 Framework group  C2[C2(HCNH),X(C6H8)]
 Deg. of freedom    23
 Full point group                 C2      NOp   2
 Largest Abelian subgroup         C2      NOp   2
 Largest concise Abelian subgroup C2      NOp   2
                         Standard orientation:                         
 ---------------------------------------------------------------------
 Center     Atomic      Atomic             Coordinates (Angstroms)
 Number     Number       Type             X           Y           Z
 ---------------------------------------------------------------------
      1          6           0        0.000004    1.179155    1.083047
      2          6           0       -0.000000    1.218723   -0.289726
      3          6           0       -0.000000   -0.000000   -0.961780
      4          6           0       -0.000000   -1.218723   -0.289726
      5          6           0       -0.000004   -1.179155    1.083047
      6          7           0        0.000000    0.000000    1.723314
      7          1           0       -0.000000   -0.000000   -2.034866
      8          1           0        0.000009    2.060176    1.687922
      9          1           0       -0.000009   -2.060176    1.687922
     10          6           0        0.000060   -2.533355   -1.040562
     11          1           0        0.879914   -2.607678   -1.668393
     12          1           0       -0.000658   -3.374164   -0.360102
     13          1           0       -0.879011   -2.607124   -1.669546
     14          6           0       -0.000060    2.533355   -1.040562
     15          1           0        0.879011    2.607124   -1.669546
     16          1           0       -0.879914    2.607678   -1.668393
     17          1           0        0.000658    3.374164   -0.360102
     18          1           0        0.000000    0.000000    2.729479
 ---------------------------------------------------------------------
 Rotational constants (GHZ):           3.5900760           1.7727987           1.2044041
 Standard basis: 3-21G (6D, 7F)
 There are    49 symmetry adapted cartesian basis functions of A   symmetry.
 There are    43 symmetry adapted cartesian basis functions of B   symmetry.
 There are    49 symmetry adapted basis functions of A   symmetry.
 There are    43 symmetry adapted basis functions of B   symmetry.
    92 basis functions,   150 primitive gaussians,    92 cartesian basis functions
    29 alpha electrons       29 beta electrons
       nuclear repulsion energy       357.8414427505 Hartrees.
 NAtoms=   18 NActive=   18 NUniq=   11 SFac= 2.68D+00 NAtFMM=   60 NAOKFM=F Big=F
 Integral buffers will be    131072 words long.
 Raffenetti 1 integral format.
 Two-electron integral symmetry is turned on.
 One-electron integrals computed using PRISM.
 NBasis=    92 RedAO= T EigKep=  2.17D-03  NBF=    49    43
 NBsUse=    92 1.00D-06 EigRej= -1.00D+00 NBFU=    49    43
 ExpMin= 1.83D-01 ExpMax= 2.43D+02 ExpMxC= 2.43D+02 IAcc=3 IRadAn=         5 AccDes= 0.00D+00
 Harris functional with IExCor=  205 and IRadAn=       5 diagonalized for initial guess.
 HarFok:  IExCor=  205 AccDes= 0.00D+00 IRadAn=         5 IDoV= 1 UseB2=F ITyADJ=14
 ICtDFT=  3500011 ScaDFX=  1.000000  1.000000  1.000000  1.000000
 FoFCou: FMM=F IPFlag=           0 FMFlag=      100000 FMFlg1=           0
         NFxFlg=           0 DoJE=T BraDBF=F KetDBF=T FulRan=T
         wScrn=  0.000000 ICntrl=       500 IOpCl=  0 I1Cent=   200000004 NGrid=           0
         NMat0=    1 NMatS0=      1 NMatT0=    0 NMatD0=    1 NMtDS0=    0 NMtDT0=    0
 Petite list used in FoFCou.
 Initial guess orbital symmetries:
       Occupied  (A) (B) (A) (A) (B) (A) (B) (A) (A) (A) (B) (A)
                 (B) (A) (B) (A) (B) (A) (A) (B) (B) (A) (A) (B)
                 (B) (B) (A) (B) (A)
       Virtual   (B) (A) (B) (A) (B) (A) (A) (B) (A) (B) (A) (A)
                 (B) (B) (A) (A) (B) (B) (A) (B) (A) (B) (A) (B)
                 (B) (A) (A) (A) (B) (B) (B) (A) (A) (B) (A) (A)
                 (A) (B) (B) (A) (B) (B) (A) (A) (B) (A) (B) (A)
                 (B) (A) (B) (A) (B) (A) (B) (B) (A) (A) (A) (B)
                 (B) (A) (A)
 The electronic state of the initial guess is 1-A.
 Keep R1 ints in memory in symmetry-blocked form, NReq=13741858.
 Requested convergence on RMS density matrix=1.00D-08 within 128 cycles.
 Requested convergence on MAX density matrix=1.00D-06.
 Requested convergence on             energy=1.00D-06.
 No special actions if energy rises.
 SCF Done:  E(RHF) =  -323.347436577     A.U. after   13 cycles
            NFock= 13  Conv=0.72D-08     -V/T= 2.0022

 **********************************************************************

            Population analysis using the SCF Density.

 **********************************************************************

 Orbital symmetries:
       Occupied  (A) (B) (A) (A) (B) (A) (B) (A) (A) (A) (B) (B)
                 (A) (A) (B) (A) (B) (A) (B) (B) (A) (A) (A) (B)
                 (B) (A) (B) (B) (A)
       Virtual   (B) (A) (A) (A) (B) (B) (A) (B) (A) (B) (A) (A)
                 (B) (A) (B) (A) (B) (B) (A) (B) (A) (B) (A) (B)
                 (A) (A) (B) (B) (A) (A) (B) (B) (A) (B) (A) (A)
                 (B) (A) (B) (B) (A) (A) (B) (A) (B) (A) (A) (B)
                 (B) (A) (B) (A) (B) (A) (B) (A) (B) (A) (B) (A)
                 (B) (A) (A)
 The electronic state is 1-A.
 Alpha  occ. eigenvalues --  -15.78902 -11.43971 -11.43920 -11.39229 -11.38762
 Alpha  occ. eigenvalues --  -11.38753 -11.32001 -11.31994  -1.53444  -1.31772
 Alpha  occ. eigenvalues --   -1.27563  -1.15041  -1.12254  -1.09047  -1.01100
 Alpha  occ. eigenvalues --   -0.96345  -0.89906  -0.87587  -0.80037  -0.79742
 Alpha  occ. eigenvalues --   -0.77457  -0.72922  -0.72427  -0.72355  -0.70365
 Alpha  occ. eigenvalues --   -0.68719  -0.67626  -0.57749  -0.53561
 Alpha virt. eigenvalues --   -0.10287  -0.04076   0.05550   0.12776   0.13363
 Alpha virt. eigenvalues --    0.14039   0.15878   0.16303   0.18345   0.19392
 Alpha virt. eigenvalues --    0.19711   0.21555   0.25305   0.27751   0.28344
 Alpha virt. eigenvalues --    0.29584   0.33824   0.39662   0.41125   0.46217
 Alpha virt. eigenvalues --    0.56668   0.72988   0.73900   0.74018   0.75394
 Alpha virt. eigenvalues --    0.77984   0.80195   0.84143   0.84491   0.86671
 Alpha virt. eigenvalues --    0.87206   0.88076   0.88553   0.98094   0.99890
 Alpha virt. eigenvalues --    1.01646   1.01927   1.04417   1.05806   1.14737
 Alpha virt. eigenvalues --    1.14947   1.18770   1.19774   1.20746   1.21205
 Alpha virt. eigenvalues --    1.22036   1.25535   1.26859   1.29789   1.38370
 Alpha virt. eigenvalues --    1.40828   1.45369   1.50261   1.58826   1.64653
 Alpha virt. eigenvalues --    1.74273   1.74616   1.88092   2.03688   2.03909
 Alpha virt. eigenvalues --    2.11883   2.12531   2.99346
     Molecular Orbital Coefficients:
                           1         2         3         4         5
                           O         O         O         O         O
     Eigenvalues --   -15.78902 -11.43971 -11.43920 -11.39229 -11.38762
   1 1   C  1S         -0.00032   0.69802   0.69755   0.00294   0.00113
   2        2S         -0.00151   0.07017   0.06665  -0.00062  -0.00249
   3        2PX         0.00000   0.00000  -0.00000  -0.00000  -0.00000
   4        2PY        -0.00084  -0.00232  -0.00004   0.00043   0.00002
   5        2PZ         0.00076  -0.00038   0.00019   0.00105   0.00100
   6        3S          0.03562  -0.05378  -0.03741  -0.00761   0.01970
   7        3PX        -0.00000  -0.00000  -0.00000   0.00000   0.00000
   8        3PY        -0.02840   0.00536  -0.00917   0.00512  -0.00257
   9        3PZ        -0.00685   0.01914   0.00107   0.00198  -0.00994
  10 2   C  1S          0.00050  -0.00154  -0.00132  -0.03776   0.69814
  11        2S          0.00224  -0.00277  -0.00162  -0.00775   0.07095
  12        2PX        -0.00000  -0.00000  -0.00000  -0.00000  -0.00000
  13        2PY        -0.00106  -0.00014  -0.00026   0.00200  -0.00107
  14        2PZ        -0.00016  -0.00143  -0.00163   0.00019   0.00039
  15        3S         -0.02789   0.02189   0.00370   0.03702  -0.06097
  16        3PX         0.00000   0.00000   0.00000   0.00000  -0.00000
  17        3PY         0.02785  -0.00048   0.00971  -0.02864   0.00559
  18        3PZ        -0.01150   0.02162   0.00696   0.00025  -0.00322
  19 3   C  1S         -0.00040   0.00000  -0.00467   0.98597   0.00000
  20        2S         -0.00191   0.00000  -0.00280   0.10008   0.00000
  21        2PX         0.00000  -0.00000   0.00000   0.00000  -0.00000
  22        2PY         0.00000  -0.00114   0.00000   0.00000  -0.00181
  23        2PZ        -0.00007   0.00000  -0.00106   0.00158   0.00000
  24        3S          0.03498   0.00000   0.01632  -0.10068   0.00000
  25        3PX         0.00000  -0.00000   0.00000   0.00000   0.00000
  26        3PY         0.00000   0.00904   0.00000   0.00000   0.01733
  27        3PZ         0.02156   0.00000   0.00988  -0.02746   0.00000
  28 4   C  1S          0.00050   0.00154  -0.00132  -0.03776  -0.69814
  29        2S          0.00224   0.00277  -0.00162  -0.00775  -0.07095
  30        2PX         0.00000  -0.00000   0.00000   0.00000  -0.00000
  31        2PY         0.00106  -0.00014   0.00026  -0.00200  -0.00107
  32        2PZ        -0.00016   0.00143  -0.00163   0.00019  -0.00039
  33        3S         -0.02789  -0.02189   0.00370   0.03702   0.06097
  34        3PX        -0.00000   0.00000  -0.00000  -0.00000  -0.00000
  35        3PY        -0.02785  -0.00048  -0.00971   0.02864   0.00559
  36        3PZ        -0.01150  -0.02162   0.00696   0.00025   0.00322
  37 5   C  1S         -0.00032  -0.69802   0.69755   0.00294  -0.00113
  38        2S         -0.00151  -0.07017   0.06665  -0.00062   0.00249
  39        2PX        -0.00000   0.00000   0.00000   0.00000  -0.00000
  40        2PY         0.00084  -0.00232   0.00004  -0.00043   0.00002
  41        2PZ         0.00076   0.00038   0.00019   0.00105  -0.00100
  42        3S          0.03562   0.05378  -0.03741  -0.00761  -0.01970
  43        3PX         0.00000  -0.00000   0.00000  -0.00000   0.00000
  44        3PY         0.02840   0.00536   0.00917  -0.00512  -0.00257
  45        3PZ        -0.00685  -0.01914   0.00107   0.00198   0.00994
  46 6   N  1S          0.98658   0.00000   0.00023  -0.00011   0.00000
  47        2S          0.10606   0.00000   0.00096  -0.00092   0.00000
  48        2PX         0.00000  -0.00000   0.00000   0.00000   0.00000
  49        2PY         0.00000   0.00022   0.00000   0.00000  -0.00038
  50        2PZ        -0.00224   0.00000  -0.00009   0.00017   0.00000
  51        3S         -0.08964   0.00000   0.00040   0.00650   0.00000
  52        3PX         0.00000   0.00000   0.00000   0.00000  -0.00000
  53        3PY         0.00000  -0.00360   0.00000   0.00000  -0.00115
  54        3PZ         0.01991   0.00000   0.00422  -0.00190   0.00000
  55 7   H  1S          0.00065   0.00000   0.00020  -0.00232   0.00000
  56        2S          0.00521   0.00000   0.00362   0.00558   0.00000
  57 8   H  1S          0.00097  -0.00212  -0.00046  -0.00034  -0.00053
  58        2S          0.00711   0.00316   0.01226  -0.00040   0.00121
  59 9   H  1S          0.00097   0.00212  -0.00046  -0.00034   0.00053
  60        2S          0.00711  -0.00316   0.01226  -0.00040  -0.00121
  61 10  C  1S          0.00008   0.00059  -0.00102  -0.00129   0.00040
  62        2S          0.00018   0.00052  -0.00075  -0.00096   0.00054
  63        2PX        -0.00000   0.00000  -0.00000  -0.00000  -0.00000
  64        2PY        -0.00079   0.00013  -0.00055  -0.00011  -0.00009
  65        2PZ        -0.00062   0.00036  -0.00058   0.00007   0.00049
  66        3S         -0.01159  -0.00249  -0.00224   0.00790  -0.00708
  67        3PX         0.00000  -0.00000   0.00000  -0.00000   0.00000
  68        3PY        -0.00339  -0.00277   0.00032   0.00232  -0.00326
  69        3PZ        -0.00218   0.00126  -0.00112   0.00390  -0.00500
  70 11  H  1S          0.00033   0.00014  -0.00002  -0.00017   0.00052
  71        2S          0.00019   0.00022   0.00001   0.00030  -0.00185
  72 12  H  1S          0.00006   0.00003  -0.00000  -0.00052   0.00061
  73        2S          0.00118  -0.00133   0.00064  -0.00022   0.00132
  74 13  H  1S          0.00034   0.00014  -0.00002  -0.00017   0.00052
  75        2S          0.00019   0.00022   0.00001   0.00030  -0.00185
  76 14  C  1S          0.00008  -0.00059  -0.00102  -0.00129  -0.00040
  77        2S          0.00018  -0.00052  -0.00075  -0.00096  -0.00054
  78        2PX         0.00000   0.00000   0.00000   0.00000  -0.00000
  79        2PY         0.00079   0.00013   0.00055   0.00011  -0.00009
  80        2PZ        -0.00062  -0.00036  -0.00058   0.00007  -0.00049
  81        3S         -0.01159   0.00249  -0.00224   0.00790   0.00708
  82        3PX        -0.00000  -0.00000  -0.00000   0.00000   0.00000
  83        3PY         0.00339  -0.00277  -0.00032  -0.00232  -0.00326
  84        3PZ        -0.00218  -0.00126  -0.00112   0.00390   0.00500
  85 15  H  1S          0.00034  -0.00014  -0.00002  -0.00017  -0.00052
  86        2S          0.00019  -0.00022   0.00001   0.00030   0.00185
  87 16  H  1S          0.00033  -0.00014  -0.00002  -0.00017  -0.00052
  88        2S          0.00019  -0.00022   0.00001   0.00030   0.00185
  89 17  H  1S          0.00006  -0.00003  -0.00000  -0.00052  -0.00061
  90        2S          0.00118   0.00133   0.00064  -0.00022  -0.00132
  91 18  H  1S          0.00034   0.00000  -0.00142  -0.00014   0.00000
  92        2S          0.00367   0.00000   0.00017   0.00041   0.00000
                           6         7         8         9        10
                           O         O         O         O         O
     Eigenvalues --   -11.38753 -11.32001 -11.31994  -1.53444  -1.31772
   1 1   C  1S          0.00130  -0.00053   0.00092  -0.08904   0.02380
   2        2S         -0.00267   0.00038  -0.00082   0.10691  -0.03130
   3        2PX        -0.00000  -0.00000   0.00000  -0.00000   0.00000
   4        2PY         0.00001   0.00049  -0.00024  -0.08558  -0.02563
   5        2PZ         0.00142  -0.00027   0.00046   0.02160   0.09332
   6        3S          0.02765  -0.00124   0.00257   0.03844  -0.04923
   7        3PX        -0.00000   0.00000  -0.00000   0.00000  -0.00000
   8        3PY        -0.00625   0.00221  -0.00090   0.08619   0.01656
   9        3PZ        -0.01575   0.00076  -0.00215   0.03434   0.01244
  10 2   C  1S          0.69732  -0.00027   0.00135  -0.03565   0.11565
  11        2S          0.07116   0.00054  -0.00126   0.03278  -0.12875
  12        2PX        -0.00000   0.00000  -0.00000  -0.00000   0.00000
  13        2PY        -0.00009   0.00095  -0.00033  -0.01616   0.05462
  14        2PZ         0.00076  -0.00008   0.00022   0.02798   0.00512
  15        3S         -0.07317  -0.00911   0.01158   0.13921  -0.22206
  16        3PX        -0.00000  -0.00000  -0.00000  -0.00000   0.00000
  17        3PY         0.01108  -0.01603   0.01032  -0.10107  -0.00980
  18        3PZ        -0.00932   0.00394  -0.00659   0.04416  -0.00380
  19 3   C  1S          0.05240   0.00000   0.00173  -0.02314   0.13425
  20        2S         -0.00015   0.00000  -0.00070   0.03330  -0.15029
  21        2PX         0.00000  -0.00000   0.00000   0.00000   0.00000
  22        2PY         0.00000   0.00119   0.00000   0.00000   0.00000
  23        2PZ        -0.00117   0.00000   0.00029   0.02212  -0.06081
  24        3S          0.04112   0.00000   0.00248  -0.07932  -0.29011
  25        3PX         0.00000   0.00000   0.00000   0.00000   0.00000
  26        3PY         0.00000  -0.00760   0.00000   0.00000   0.00000
  27        3PZ         0.01887   0.00000   0.00339  -0.06563  -0.03845
  28 4   C  1S          0.69732   0.00027   0.00135  -0.03565   0.11565
  29        2S          0.07116  -0.00054  -0.00126   0.03278  -0.12875
  30        2PX         0.00000   0.00000   0.00000   0.00000  -0.00000
  31        2PY         0.00009   0.00095   0.00033   0.01616  -0.05462
  32        2PZ         0.00076   0.00008   0.00022   0.02798   0.00512
  33        3S         -0.07317   0.00911   0.01158   0.13921  -0.22206
  34        3PX         0.00000  -0.00000   0.00000   0.00000  -0.00000
  35        3PY        -0.01108  -0.01603  -0.01032   0.10107   0.00980
  36        3PZ        -0.00932  -0.00394  -0.00659   0.04416  -0.00380
  37 5   C  1S          0.00130   0.00053   0.00092  -0.08904   0.02380
  38        2S         -0.00267  -0.00038  -0.00082   0.10691  -0.03130
  39        2PX         0.00000  -0.00000  -0.00000   0.00000  -0.00000
  40        2PY        -0.00001   0.00049   0.00024   0.08558   0.02563
  41        2PZ         0.00142   0.00027   0.00046   0.02160   0.09332
  42        3S          0.02765   0.00124   0.00257   0.03844  -0.04923
  43        3PX         0.00000   0.00000   0.00000  -0.00000   0.00000
  44        3PY         0.00625   0.00221   0.00090  -0.08619  -0.01656
  45        3PZ        -0.01575  -0.00076  -0.00215   0.03434   0.01244
  46 6   N  1S          0.00023   0.00000  -0.00003  -0.19982  -0.07996
  47        2S          0.00121   0.00000  -0.00044   0.17489   0.07115
  48        2PX         0.00000   0.00000   0.00000   0.00000   0.00000
  49        2PY         0.00000   0.00018   0.00000   0.00000   0.00000
  50        2PZ        -0.00004   0.00000   0.00030  -0.04119   0.04704
  51        3S         -0.00976   0.00000   0.00044   0.67532   0.29179
  52        3PX         0.00000  -0.00000   0.00000   0.00000   0.00000
  53        3PY         0.00000   0.00010   0.00000   0.00000   0.00000
  54        3PZ         0.00619   0.00000  -0.00100  -0.10268   0.02017
  55 7   H  1S         -0.00071   0.00000  -0.00016   0.00389  -0.05484
  56        2S          0.00362   0.00000   0.00181  -0.02040  -0.00387
  57 8   H  1S         -0.00022  -0.00028   0.00009   0.02132  -0.00602
  58        2S          0.00311  -0.00020   0.00022  -0.03890  -0.00092
  59 9   H  1S         -0.00022   0.00028   0.00009   0.02132  -0.00602
  60        2S          0.00311   0.00020   0.00022  -0.03890  -0.00092
  61 10  C  1S         -0.00177   0.69836   0.69828  -0.00481   0.04351
  62        2S         -0.00152   0.07265   0.07212   0.00385  -0.04423
  63        2PX         0.00000   0.00000   0.00000   0.00000   0.00000
  64        2PY        -0.00042   0.00025   0.00013   0.00611  -0.02852
  65        2PZ        -0.00036  -0.00001   0.00007   0.00528  -0.01321
  66        3S          0.00712  -0.06241  -0.05984   0.04873  -0.08997
  67        3PX        -0.00000   0.00000   0.00000  -0.00000  -0.00001
  68        3PY         0.00473  -0.00486  -0.00382   0.01331   0.00167
  69        3PZ         0.00385  -0.00304  -0.00201   0.00562   0.00527
  70 11  H  1S         -0.00086   0.00034   0.00020   0.00037  -0.01884
  71        2S          0.00169   0.01023   0.01029  -0.00287   0.00703
  72 12  H  1S         -0.00048   0.00031   0.00013   0.00177  -0.01711
  73        2S         -0.00049   0.01024   0.01027  -0.00312   0.00286
  74 13  H  1S         -0.00086   0.00034   0.00020   0.00037  -0.01884
  75        2S          0.00169   0.01023   0.01029  -0.00287   0.00702
  76 14  C  1S         -0.00177  -0.69836   0.69828  -0.00481   0.04351
  77        2S         -0.00152  -0.07265   0.07212   0.00385  -0.04423
  78        2PX        -0.00000   0.00000  -0.00000  -0.00000  -0.00000
  79        2PY         0.00042   0.00025  -0.00013  -0.00611   0.02852
  80        2PZ        -0.00036   0.00001   0.00007   0.00528  -0.01321
  81        3S          0.00712   0.06241  -0.05984   0.04873  -0.08997
  82        3PX         0.00000   0.00000  -0.00000   0.00000   0.00001
  83        3PY        -0.00473  -0.00486   0.00382  -0.01331  -0.00167
  84        3PZ         0.00385   0.00304  -0.00201   0.00562   0.00527
  85 15  H  1S         -0.00086  -0.00034   0.00020   0.00037  -0.01884
  86        2S          0.00169  -0.01023   0.01029  -0.00287   0.00702
  87 16  H  1S         -0.00086  -0.00034   0.00020   0.00037  -0.01884
  88        2S          0.00169  -0.01023   0.01029  -0.00287   0.00703
  89 17  H  1S         -0.00048  -0.00031   0.00013   0.00177  -0.01711
  90        2S         -0.00049  -0.01024   0.01027  -0.00312   0.00286
  91 18  H  1S         -0.00065   0.00000   0.00007   0.08273   0.06231
  92        2S          0.00062   0.00000   0.00079   0.01283   0.01354
                          11        12        13        14        15
                           O         O         O         O         O
     Eigenvalues --    -1.27563  -1.15041  -1.12254  -1.09047  -1.01100
   1 1   C  1S         -0.11669  -0.08730  -0.00578   0.08743   0.01604
   2        2S          0.13153   0.09493   0.00637  -0.10134  -0.01506
   3        2PX        -0.00000   0.00000  -0.00000   0.00000   0.00000
   4        2PY        -0.00931  -0.04175   0.04426  -0.02902   0.03012
   5        2PZ        -0.04021   0.06887   0.01758   0.09065  -0.17421
   6        3S          0.23856   0.21438   0.02679  -0.21352  -0.04487
   7        3PX         0.00000  -0.00000   0.00000   0.00000  -0.00000
   8        3PY         0.01077   0.00488   0.01630  -0.03119  -0.02437
   9        3PZ        -0.04337  -0.02461   0.00945   0.02317  -0.04128
  10 2   C  1S         -0.10790   0.04677  -0.00659   0.01389  -0.09127
  11        2S          0.11702  -0.04786   0.00732  -0.01393   0.09504
  12        2PX        -0.00000   0.00000  -0.00000  -0.00000   0.00000
  13        2PY         0.01066  -0.04204   0.13859  -0.05139  -0.07718
  14        2PZ         0.04956   0.08108  -0.01374  -0.15810   0.04132
  15        3S          0.22930  -0.13941   0.00599  -0.07498   0.30313
  16        3PX        -0.00000   0.00000  -0.00000  -0.00000   0.00000
  17        3PY        -0.03165  -0.00557   0.04259   0.01895  -0.02308
  18        3PZ        -0.01696  -0.00599  -0.00573  -0.06531   0.03312
  19 3   C  1S          0.00000   0.00000   0.08325  -0.11840   0.00000
  20        2S          0.00000   0.00000  -0.08946   0.12472   0.00000
  21        2PX        -0.00000   0.00000   0.00000   0.00000   0.00000
  22        2PY         0.09038  -0.07177   0.00000   0.00000   0.15559
  23        2PZ         0.00000   0.00000  -0.04517  -0.05047   0.00000
  24        3S          0.00000   0.00000  -0.21792   0.37626   0.00000
  25        3PX         0.00000  -0.00000   0.00000   0.00000  -0.00000
  26        3PY        -0.03167  -0.02209   0.00000   0.00000   0.05872
  27        3PZ         0.00000   0.00000  -0.02946   0.01310   0.00000
  28 4   C  1S          0.10790  -0.04677  -0.00659   0.01389   0.09127
  29        2S         -0.11702   0.04786   0.00732  -0.01393  -0.09504
  30        2PX        -0.00000   0.00000   0.00000   0.00000   0.00000
  31        2PY         0.01066  -0.04204  -0.13859   0.05139  -0.07718
  32        2PZ        -0.04956  -0.08108  -0.01374  -0.15810  -0.04132
  33        3S         -0.22930   0.13941   0.00599  -0.07498  -0.30313
  34        3PX        -0.00000   0.00000   0.00000   0.00000   0.00000
  35        3PY        -0.03165  -0.00557  -0.04259  -0.01895  -0.02308
  36        3PZ         0.01696   0.00599  -0.00573  -0.06531  -0.03312
  37 5   C  1S          0.11669   0.08730  -0.00578   0.08743  -0.01604
  38        2S         -0.13153  -0.09493   0.00637  -0.10134   0.01506
  39        2PX        -0.00000   0.00000   0.00000  -0.00000   0.00000
  40        2PY        -0.00931  -0.04175  -0.04426   0.02902   0.03012
  41        2PZ         0.04021  -0.06887   0.01758   0.09065   0.17421
  42        3S         -0.23856  -0.21438   0.02679  -0.21352   0.04487
  43        3PX         0.00000  -0.00000  -0.00000  -0.00000  -0.00000
  44        3PY         0.01077   0.00488  -0.01630   0.03119  -0.02437
  45        3PZ         0.04337   0.02461   0.00945   0.02317   0.04128
  46 6   N  1S          0.00000   0.00000  -0.01030  -0.06208   0.00000
  47        2S          0.00000   0.00000   0.00984   0.05951   0.00000
  48        2PX         0.00000   0.00000   0.00000   0.00000  -0.00000
  49        2PY         0.13707   0.20108   0.00000   0.00000  -0.18208
  50        2PZ         0.00000   0.00000   0.05736   0.17427   0.00000
  51        3S          0.00000   0.00000   0.03403   0.23848   0.00000
  52        3PX        -0.00000   0.00000   0.00000   0.00000   0.00000
  53        3PY         0.12150   0.18746   0.00000   0.00000  -0.18969
  54        3PZ         0.00000   0.00000   0.05828   0.16113   0.00000
  55 7   H  1S          0.00000   0.00000  -0.03488   0.10340   0.00000
  56        2S          0.00000   0.00000  -0.00730   0.03687   0.00000
  57 8   H  1S          0.05934   0.06076   0.02377  -0.05198  -0.04703
  58        2S          0.01061   0.01851   0.01098   0.00049  -0.02279
  59 9   H  1S         -0.05934  -0.06076   0.02377  -0.05198   0.04703
  60        2S         -0.01061  -0.01851   0.01098   0.00049   0.02279
  61 10  C  1S          0.05575  -0.10661  -0.13203  -0.02384  -0.08616
  62        2S         -0.05411   0.10010   0.12543   0.02295   0.07955
  63        2PX         0.00000  -0.00000  -0.00000  -0.00000   0.00000
  64        2PY        -0.02715   0.01971   0.00093   0.00925  -0.05672
  65        2PZ        -0.02182   0.00345   0.01025  -0.02452  -0.02904
  66        3S         -0.14394   0.31261   0.39360   0.06281   0.29864
  67        3PX        -0.00000   0.00001   0.00000   0.00000  -0.00000
  68        3PY        -0.00498   0.01664   0.00666   0.00134  -0.01615
  69        3PZ        -0.00490   0.00112   0.00613  -0.01298  -0.00412
  70 11  H  1S         -0.02290   0.05743   0.07207   0.02056   0.06338
  71        2S          0.00710   0.00034   0.00376   0.00497   0.01908
  72 12  H  1S         -0.02595   0.05286   0.07856   0.00339   0.06801
  73        2S          0.00385   0.00552   0.00989  -0.00420   0.01735
  74 13  H  1S         -0.02290   0.05744   0.07207   0.02058   0.06338
  75        2S          0.00709   0.00035   0.00377   0.00498   0.01908
  76 14  C  1S         -0.05575   0.10661  -0.13203  -0.02384   0.08616
  77        2S          0.05411  -0.10010   0.12543   0.02295  -0.07955
  78        2PX         0.00000  -0.00000   0.00000   0.00000   0.00000
  79        2PY        -0.02715   0.01971  -0.00093  -0.00925  -0.05672
  80        2PZ         0.02182  -0.00345   0.01025  -0.02452   0.02904
  81        3S          0.14394  -0.31261   0.39360   0.06281  -0.29864
  82        3PX        -0.00000   0.00001  -0.00000  -0.00000  -0.00000
  83        3PY        -0.00498   0.01664  -0.00666  -0.00134  -0.01615
  84        3PZ         0.00490  -0.00112   0.00613  -0.01298   0.00412
  85 15  H  1S          0.02290  -0.05744   0.07207   0.02058  -0.06338
  86        2S         -0.00709  -0.00035   0.00377   0.00498  -0.01908
  87 16  H  1S          0.02290  -0.05743   0.07207   0.02056  -0.06338
  88        2S         -0.00710  -0.00034   0.00376   0.00497  -0.01908
  89 17  H  1S          0.02595  -0.05286   0.07856   0.00339  -0.06801
  90        2S         -0.00385  -0.00552   0.00989  -0.00420  -0.01735
  91 18  H  1S          0.00000   0.00000   0.03443   0.13018   0.00000
  92        2S          0.00000   0.00000   0.00606   0.04013   0.00000
                          16        17        18        19        20
                           O         O         O         O         O
     Eigenvalues --    -0.96345  -0.89906  -0.87587  -0.80037  -0.79742
   1 1   C  1S         -0.03732   0.02702   0.05060   0.00000   0.00659
   2        2S          0.03806  -0.03024  -0.05305  -0.00000  -0.01036
   3        2PX         0.00000  -0.00000  -0.00000   0.17596  -0.00006
   4        2PY         0.20149  -0.16758  -0.04834   0.00007   0.21548
   5        2PZ         0.01127   0.12276  -0.15223   0.00005   0.16536
   6        3S          0.17807  -0.13329  -0.16092   0.00001   0.03166
   7        3PX         0.00000  -0.00000  -0.00000   0.14730  -0.00005
   8        3PY         0.07229  -0.06217  -0.09276   0.00006   0.18018
   9        3PZ         0.02779   0.02150  -0.11267   0.00005   0.17546
  10 2   C  1S         -0.02829  -0.02550  -0.05429  -0.00000  -0.00429
  11        2S          0.02834   0.02556   0.06025   0.00000  -0.00059
  12        2PX         0.00000  -0.00000  -0.00000   0.11844  -0.00004
  13        2PY         0.02951  -0.11833  -0.02851   0.00000   0.03072
  14        2PZ         0.03042  -0.18194   0.06080  -0.00005  -0.16594
  15        3S          0.08701   0.09688   0.14573   0.00001   0.08086
  16        3PX        -0.00000  -0.00000  -0.00000   0.10137  -0.00003
  17        3PY         0.04244  -0.08893   0.01992  -0.00000   0.02137
  18        3PZ         0.00256  -0.12249   0.01540  -0.00002  -0.09718
  19 3   C  1S         -0.01210   0.00000   0.05404   0.00000   0.00000
  20        2S          0.01232   0.00000  -0.05435   0.00000   0.00000
  21        2PX         0.00000  -0.00000   0.00000   0.09031  -0.00003
  22        2PY         0.00000   0.24764   0.00000   0.00004   0.10875
  23        2PZ        -0.01685   0.00000   0.22554   0.00000   0.00000
  24        3S          0.04989   0.00000  -0.19295   0.00000   0.00000
  25        3PX         0.00000   0.00000   0.00000   0.07696  -0.00002
  26        3PY         0.00000   0.08341   0.00000   0.00003   0.05115
  27        3PZ        -0.01065   0.00000   0.18899   0.00000   0.00000
  28 4   C  1S         -0.02829   0.02550  -0.05429   0.00000   0.00429
  29        2S          0.02834  -0.02556   0.06025  -0.00000   0.00059
  30        2PX        -0.00000  -0.00000   0.00000   0.11844  -0.00004
  31        2PY        -0.02951  -0.11833   0.02851   0.00000   0.03072
  32        2PZ         0.03042   0.18194   0.06080   0.00005   0.16594
  33        3S          0.08701  -0.09688   0.14573  -0.00001  -0.08086
  34        3PX         0.00000  -0.00000   0.00000   0.10137  -0.00003
  35        3PY        -0.04244  -0.08893  -0.01992  -0.00000   0.02137
  36        3PZ         0.00256   0.12249   0.01540   0.00002   0.09718
  37 5   C  1S         -0.03732  -0.02702   0.05060  -0.00000  -0.00659
  38        2S          0.03806   0.03024  -0.05305   0.00000   0.01036
  39        2PX        -0.00000  -0.00000   0.00000   0.17596  -0.00006
  40        2PY        -0.20149  -0.16758   0.04834   0.00007   0.21548
  41        2PZ         0.01127  -0.12276  -0.15223  -0.00005  -0.16536
  42        3S          0.17807   0.13329  -0.16092  -0.00001  -0.03166
  43        3PX        -0.00000  -0.00000   0.00000   0.14730  -0.00005
  44        3PY        -0.07229  -0.06217   0.09276   0.00006   0.18018
  45        3PZ         0.02779  -0.02150  -0.11267  -0.00005  -0.17546
  46 6   N  1S          0.02760   0.00000  -0.01788   0.00000   0.00000
  47        2S         -0.02204   0.00000   0.02085   0.00000   0.00000
  48        2PX         0.00000  -0.00000   0.00000   0.31712  -0.00010
  49        2PY         0.00000   0.22126   0.00000  -0.00004  -0.12798
  50        2PZ         0.29042   0.00000   0.19389   0.00000   0.00000
  51        3S         -0.15151   0.00000   0.05485   0.00000   0.00000
  52        3PX         0.00000  -0.00000   0.00000   0.34837  -0.00011
  53        3PY         0.00000   0.24135   0.00000  -0.00004  -0.14239
  54        3PZ         0.30795   0.00000   0.23091   0.00000   0.00000
  55 7   H  1S          0.01713   0.00000  -0.17649   0.00000   0.00000
  56        2S          0.00413   0.00000  -0.07862   0.00000   0.00000
  57 8   H  1S          0.12317  -0.06649  -0.11888   0.00005   0.17013
  58        2S          0.06313  -0.02951  -0.03901   0.00003   0.08651
  59 9   H  1S          0.12317   0.06649  -0.11888  -0.00005  -0.17013
  60        2S          0.06313   0.02951  -0.03901  -0.00003  -0.08651
  61 10  C  1S          0.04104  -0.00614   0.00065  -0.00000  -0.01540
  62        2S         -0.03574   0.00584  -0.00063   0.00000   0.01124
  63        2PX        -0.00000  -0.00000   0.00001   0.08030  -0.00001
  64        2PY         0.03216  -0.05290   0.00822  -0.00002  -0.09424
  65        2PZ         0.03769   0.05349   0.02487   0.00000  -0.00995
  66        3S         -0.16083   0.02062  -0.02215   0.00002   0.08053
  67        3PX        -0.00000   0.00000   0.00001   0.05275  -0.00001
  68        3PY         0.00476  -0.02504  -0.00823  -0.00002  -0.05387
  69        3PZ         0.01593   0.03006   0.01122   0.00000  -0.00203
  70 11  H  1S         -0.03892  -0.01195  -0.00942   0.04062   0.01902
  71        2S         -0.01397  -0.00730  -0.00930   0.03048   0.01198
  72 12  H  1S         -0.02515   0.04889   0.00283  -0.00002   0.05017
  73        2S         -0.00544   0.03455  -0.00239  -0.00002   0.02904
  74 13  H  1S         -0.03893  -0.01200  -0.00945  -0.04058   0.01901
  75        2S         -0.01397  -0.00733  -0.00932  -0.03045   0.01197
  76 14  C  1S          0.04104   0.00614   0.00065   0.00000   0.01540
  77        2S         -0.03574  -0.00584  -0.00063  -0.00000  -0.01124
  78        2PX         0.00000  -0.00000  -0.00001   0.08030  -0.00001
  79        2PY        -0.03216  -0.05290  -0.00822  -0.00002  -0.09424
  80        2PZ         0.03769  -0.05349   0.02487  -0.00000   0.00995
  81        3S         -0.16083  -0.02062  -0.02215  -0.00002  -0.08053
  82        3PX         0.00000   0.00000  -0.00001   0.05275  -0.00001
  83        3PY        -0.00476  -0.02504   0.00823  -0.00002  -0.05387
  84        3PZ         0.01593  -0.03006   0.01122  -0.00000   0.00203
  85 15  H  1S         -0.03893   0.01200  -0.00945   0.04058  -0.01901
  86        2S         -0.01397   0.00733  -0.00932   0.03045  -0.01197
  87 16  H  1S         -0.03892   0.01195  -0.00942  -0.04062  -0.01902
  88        2S         -0.01397   0.00730  -0.00930  -0.03048  -0.01198
  89 17  H  1S         -0.02515  -0.04889   0.00283   0.00002  -0.05017
  90        2S         -0.00544  -0.03455  -0.00239   0.00002  -0.02904
  91 18  H  1S          0.14746   0.00000   0.14365   0.00000   0.00000
  92        2S          0.05639   0.00000   0.07874   0.00000   0.00000
                          21        22        23        24        25
                           O         O         O         O         O
     Eigenvalues --    -0.77457  -0.72922  -0.72427  -0.72355  -0.70365
   1 1   C  1S         -0.01397  -0.00000   0.00135  -0.00000  -0.02646
   2        2S          0.01369  -0.00000  -0.00403   0.00000   0.02879
   3        2PX         0.00000  -0.05038   0.00004  -0.06170   0.00001
   4        2PY         0.06295   0.00002   0.01541   0.00000   0.06615
   5        2PZ         0.08943   0.00012   0.10850  -0.00002  -0.06532
   6        3S          0.05471   0.00002   0.02855   0.00001   0.11880
   7        3PX         0.00000  -0.04602   0.00004  -0.05877   0.00000
   8        3PY         0.09110   0.00001   0.00859   0.00001   0.05317
   9        3PZ         0.08703   0.00011   0.08152  -0.00002  -0.01065
  10 2   C  1S          0.04046  -0.00002  -0.02848   0.00000   0.01789
  11        2S         -0.03922   0.00002   0.02701   0.00000  -0.01617
  12        2PX         0.00001  -0.09028   0.00008   0.06124  -0.00001
  13        2PY        -0.20371   0.00002   0.03317  -0.00003  -0.13205
  14        2PZ        -0.00349  -0.00013  -0.13849   0.00002   0.08527
  15        3S         -0.15555   0.00011   0.11074  -0.00006  -0.08692
  16        3PX         0.00001  -0.07756   0.00007   0.04998  -0.00000
  17        3PY        -0.21091   0.00008   0.08085  -0.00003  -0.15224
  18        3PZ         0.03312  -0.00012  -0.13610   0.00003   0.08634
  19 3   C  1S         -0.03418   0.00002   0.03228   0.00000   0.00000
  20        2S          0.04241  -0.00002  -0.03098   0.00000   0.00000
  21        2PX         0.00000   0.00000   0.00000   0.05491  -0.00001
  22        2PY         0.00000   0.00000   0.00000   0.00002   0.03334
  23        2PZ         0.23677   0.00013   0.14895   0.00000   0.00000
  24        3S          0.03167  -0.00008  -0.12701   0.00000   0.00000
  25        3PX         0.00000   0.00000   0.00000   0.05400  -0.00000
  26        3PY         0.00000   0.00000   0.00000   0.00006   0.02739
  27        3PZ         0.16150   0.00018   0.20226   0.00000   0.00000
  28 4   C  1S          0.04046  -0.00002  -0.02848  -0.00000  -0.01789
  29        2S         -0.03922   0.00002   0.02701  -0.00000   0.01617
  30        2PX        -0.00001   0.09028  -0.00008   0.06124  -0.00001
  31        2PY         0.20371  -0.00002  -0.03317  -0.00003  -0.13205
  32        2PZ        -0.00349  -0.00013  -0.13849  -0.00002  -0.08527
  33        3S         -0.15555   0.00011   0.11074   0.00006   0.08692
  34        3PX        -0.00001   0.07756  -0.00007   0.04998  -0.00000
  35        3PY         0.21091  -0.00008  -0.08085  -0.00003  -0.15224
  36        3PZ         0.03312  -0.00012  -0.13610  -0.00003  -0.08634
  37 5   C  1S         -0.01397  -0.00000   0.00135   0.00000   0.02646
  38        2S          0.01369  -0.00000  -0.00403  -0.00000  -0.02879
  39        2PX        -0.00000   0.05038  -0.00004  -0.06170   0.00001
  40        2PY        -0.06295  -0.00002  -0.01541   0.00000   0.06615
  41        2PZ         0.08943   0.00012   0.10850   0.00002   0.06532
  42        3S          0.05471   0.00002   0.02855  -0.00001  -0.11880
  43        3PX        -0.00000   0.04602  -0.00004  -0.05877   0.00000
  44        3PY        -0.09110  -0.00001  -0.00859   0.00001   0.05317
  45        3PZ         0.08703   0.00011   0.08152   0.00002   0.01065
  46 6   N  1S          0.02642   0.00000   0.00009   0.00000   0.00000
  47        2S         -0.02594   0.00000   0.00304   0.00000   0.00000
  48        2PX         0.00000   0.00000   0.00000  -0.19346   0.00002
  49        2PY         0.00000   0.00000   0.00000  -0.00001  -0.10959
  50        2PZ         0.03374  -0.00006  -0.06053   0.00000   0.00000
  51        3S         -0.09554  -0.00004  -0.02054   0.00000   0.00000
  52        3PX         0.00000   0.00000   0.00000  -0.22876   0.00003
  53        3PY         0.00000   0.00000   0.00000  -0.00000  -0.13673
  54        3PZ         0.01479  -0.00008  -0.07035   0.00000   0.00000
  55 7   H  1S         -0.11887  -0.00012  -0.13633   0.00000   0.00000
  56        2S         -0.07818  -0.00007  -0.06813   0.00000   0.00000
  57 8   H  1S          0.08761   0.00005   0.04652   0.00000   0.04491
  58        2S          0.04485   0.00003   0.02661   0.00000   0.01660
  59 9   H  1S          0.08761   0.00005   0.04652  -0.00000  -0.04491
  60        2S          0.04485   0.00003   0.02661  -0.00000  -0.01660
  61 10  C  1S         -0.01841   0.00000   0.00064  -0.00000   0.00016
  62        2S          0.00954   0.00000   0.00330   0.00000   0.00499
  63        2PX         0.00000   0.25868  -0.00023   0.23793  -0.00005
  64        2PY        -0.15095   0.00018   0.19830   0.00003   0.03023
  65        2PZ        -0.10218  -0.00008  -0.11378   0.00004   0.25511
  66        3S          0.14428  -0.00005  -0.05222  -0.00002  -0.05782
  67        3PX        -0.00000   0.22147  -0.00020   0.20770  -0.00004
  68        3PY        -0.07187   0.00011   0.12890   0.00001  -0.02025
  69        3PZ        -0.04329  -0.00009  -0.11698   0.00003   0.20479
  70 11  H  1S          0.05617   0.14454   0.03656   0.13428  -0.10489
  71        2S          0.04284   0.11163   0.02171   0.10420  -0.08970
  72 12  H  1S          0.04943  -0.00025  -0.15760  -0.00011   0.10019
  73        2S          0.03766  -0.00020  -0.12895  -0.00009   0.07514
  74 13  H  1S          0.05619  -0.14436   0.03697  -0.13420  -0.10502
  75        2S          0.04284  -0.11151   0.02202  -0.10414  -0.08981
  76 14  C  1S         -0.01841   0.00000   0.00064   0.00000  -0.00016
  77        2S          0.00954   0.00000   0.00330  -0.00000  -0.00499
  78        2PX        -0.00000  -0.25868   0.00023   0.23793  -0.00005
  79        2PY         0.15095  -0.00018  -0.19830   0.00003   0.03023
  80        2PZ        -0.10218  -0.00008  -0.11378  -0.00004  -0.25511
  81        3S          0.14428  -0.00005  -0.05222   0.00002   0.05782
  82        3PX         0.00000  -0.22147   0.00020   0.20770  -0.00004
  83        3PY         0.07187  -0.00011  -0.12890   0.00001  -0.02025
  84        3PZ        -0.04329  -0.00009  -0.11698  -0.00003  -0.20479
  85 15  H  1S          0.05619  -0.14436   0.03697   0.13420   0.10502
  86        2S          0.04284  -0.11151   0.02202   0.10414   0.08981
  87 16  H  1S          0.05617   0.14454   0.03656  -0.13428   0.10489
  88        2S          0.04284   0.11163   0.02171  -0.10420   0.08970
  89 17  H  1S          0.04943  -0.00025  -0.15760   0.00011  -0.10019
  90        2S          0.03766  -0.00020  -0.12895   0.00009  -0.07514
  91 18  H  1S         -0.00214  -0.00005  -0.04884   0.00000   0.00000
  92        2S          0.00057  -0.00005  -0.04237   0.00000   0.00000
                          26        27        28        29        30
                           O         O         O         O         V
     Eigenvalues --    -0.68719  -0.67626  -0.57749  -0.53561  -0.10287
   1 1   C  1S          0.02415  -0.00113   0.00000  -0.00000   0.00000
   2        2S         -0.02980   0.00040  -0.00000   0.00000  -0.00000
   3        2PX         0.00001  -0.00000   0.01263   0.25686  -0.21360
   4        2PY        -0.00899  -0.04600   0.00000   0.00000   0.00000
   5        2PZ         0.16097  -0.02533   0.00000  -0.00000   0.00000
   6        3S         -0.06601   0.02485   0.00000  -0.00001   0.00004
   7        3PX         0.00001  -0.00000   0.00737   0.29995  -0.37071
   8        3PY         0.01251  -0.09017   0.00000  -0.00000   0.00001
   9        3PZ         0.10507  -0.05025   0.00001   0.00001  -0.00004
  10 2   C  1S         -0.01581  -0.00667  -0.00000  -0.00000   0.00000
  11        2S          0.01661   0.00242  -0.00000  -0.00000   0.00000
  12        2PX         0.00001   0.00001   0.19031   0.20692  -0.08215
  13        2PY         0.01842   0.22414   0.00000   0.00000  -0.00000
  14        2PZ        -0.17109   0.01878  -0.00000  -0.00000   0.00000
  15        3S          0.03452   0.05431   0.00003   0.00002  -0.00000
  16        3PX         0.00000   0.00000   0.23094   0.24088  -0.15597
  17        3PY         0.08976   0.24688  -0.00001   0.00001  -0.00004
  18        3PZ        -0.15260  -0.05293  -0.00001   0.00001  -0.00009
  19 3   C  1S         -0.01595   0.00000   0.00000   0.00000   0.00000
  20        2S          0.01267   0.00000   0.00000  -0.00000   0.00000
  21        2PX         0.00000   0.00001   0.28117   0.00000   0.27811
  22        2PY         0.00000  -0.23565   0.00000   0.00000   0.00001
  23        2PZ         0.15201   0.00000   0.00000  -0.00001   0.00000
  24        3S          0.10282   0.00000   0.00000   0.00001   0.00000
  25        3PX         0.00000   0.00002   0.29394   0.00000   0.53772
  26        3PY         0.00000  -0.18212  -0.00003   0.00000  -0.00006
  27        3PZ         0.23684   0.00000   0.00000  -0.00001   0.00000
  28 4   C  1S         -0.01581   0.00667   0.00000  -0.00000  -0.00000
  29        2S          0.01661  -0.00242   0.00000  -0.00000  -0.00000
  30        2PX        -0.00001   0.00001   0.19031  -0.20692  -0.08215
  31        2PY        -0.01842   0.22414   0.00000  -0.00000  -0.00000
  32        2PZ        -0.17109  -0.01878   0.00000  -0.00000  -0.00000
  33        3S          0.03452  -0.05431  -0.00003   0.00002   0.00000
  34        3PX        -0.00000   0.00000   0.23094  -0.24088  -0.15597
  35        3PY        -0.08976   0.24688  -0.00001  -0.00001  -0.00004
  36        3PZ        -0.15260   0.05293   0.00001   0.00001   0.00009
  37 5   C  1S          0.02415   0.00113  -0.00000  -0.00000  -0.00000
  38        2S         -0.02980  -0.00040   0.00000   0.00000   0.00000
  39        2PX        -0.00001  -0.00000   0.01263  -0.25686  -0.21360
  40        2PY         0.00899  -0.04600   0.00000  -0.00000   0.00000
  41        2PZ         0.16097   0.02533  -0.00000  -0.00000  -0.00000
  42        3S         -0.06601  -0.02485  -0.00000  -0.00001  -0.00004
  43        3PX        -0.00001  -0.00000   0.00737  -0.29995  -0.37071
  44        3PY        -0.01251  -0.09017   0.00000   0.00000   0.00001
  45        3PZ         0.10507   0.05025  -0.00001   0.00001   0.00004
  46 6   N  1S         -0.01331   0.00000   0.00000   0.00000   0.00000
  47        2S          0.01181   0.00000   0.00000   0.00000   0.00000
  48        2PX         0.00000  -0.00001  -0.20823   0.00000   0.25281
  49        2PY         0.00000   0.06693   0.00000   0.00000   0.00000
  50        2PZ        -0.09598   0.00000   0.00000   0.00000   0.00000
  51        3S          0.07053   0.00000   0.00000  -0.00001   0.00000
  52        3PX         0.00000  -0.00001  -0.27644   0.00000   0.47819
  53        3PY         0.00000   0.06303  -0.00000   0.00000   0.00001
  54        3PZ        -0.12466   0.00000   0.00000  -0.00000   0.00000
  55 7   H  1S         -0.10900   0.00000   0.00000   0.00000   0.00000
  56        2S         -0.06379   0.00000   0.00000  -0.00001   0.00000
  57 8   H  1S          0.03699  -0.05001   0.00000   0.00000  -0.00000
  58        2S          0.03540  -0.03113  -0.00000  -0.00001   0.00001
  59 9   H  1S          0.03699   0.05001  -0.00000   0.00000   0.00000
  60        2S          0.03540   0.03113   0.00000  -0.00001  -0.00001
  61 10  C  1S         -0.00231   0.00634   0.00000  -0.00000  -0.00000
  62        2S          0.00569  -0.01210  -0.00000   0.00000   0.00000
  63        2PX        -0.00003   0.00003  -0.10576   0.08247  -0.00115
  64        2PY         0.00175  -0.22572  -0.00000   0.00000   0.00001
  65        2PZ         0.21196   0.05104  -0.00001  -0.00000  -0.00001
  66        3S         -0.04157   0.05252  -0.00000   0.00000   0.00001
  67        3PX        -0.00002   0.00002  -0.12814   0.09004  -0.06053
  68        3PY        -0.03844  -0.15250   0.00000   0.00001   0.00008
  69        3PZ         0.18036   0.08686  -0.00002  -0.00001  -0.00014
  70 11  H  1S         -0.08724  -0.01910  -0.07307   0.06289   0.01662
  71        2S         -0.07838  -0.00878  -0.06415   0.06850   0.09399
  72 12  H  1S          0.10278   0.15024   0.00006  -0.00005  -0.00001
  73        2S          0.08351   0.13645   0.00006  -0.00004   0.00007
  74 13  H  1S         -0.08739  -0.01925   0.07301  -0.06284  -0.01661
  75        2S         -0.07850  -0.00891   0.06409  -0.06845  -0.09406
  76 14  C  1S         -0.00231  -0.00634  -0.00000  -0.00000   0.00000
  77        2S          0.00569   0.01210   0.00000   0.00000  -0.00000
  78        2PX         0.00003   0.00003  -0.10576  -0.08247  -0.00115
  79        2PY        -0.00175  -0.22572  -0.00000  -0.00000   0.00001
  80        2PZ         0.21196  -0.05104   0.00001  -0.00000   0.00001
  81        3S         -0.04157  -0.05252   0.00000   0.00000  -0.00001
  82        3PX         0.00002   0.00002  -0.12814  -0.09004  -0.06053
  83        3PY         0.03844  -0.15250   0.00000  -0.00001   0.00008
  84        3PZ         0.18036  -0.08686   0.00002  -0.00001   0.00014
  85 15  H  1S         -0.08739   0.01925  -0.07301  -0.06284   0.01661
  86        2S         -0.07850   0.00891  -0.06409  -0.06845   0.09406
  87 16  H  1S         -0.08724   0.01910   0.07307   0.06289  -0.01662
  88        2S         -0.07838   0.00878   0.06415   0.06850  -0.09399
  89 17  H  1S          0.10278  -0.15024  -0.00006  -0.00005   0.00001
  90        2S          0.08351  -0.13645  -0.00006  -0.00004  -0.00007
  91 18  H  1S         -0.06887   0.00000   0.00000   0.00000   0.00000
  92        2S         -0.05985   0.00000   0.00000  -0.00000   0.00000
                          31        32        33        34        35
                           V         V         V         V         V
     Eigenvalues --    -0.04076   0.05550   0.12776   0.13363   0.14039
   1 1   C  1S         -0.00000   0.03271   0.05402  -0.00008   0.04408
   2        2S          0.00000  -0.01870  -0.04474   0.00003  -0.01990
   3        2PX        -0.22969  -0.00002  -0.00002  -0.18308  -0.00040
   4        2PY         0.00001  -0.09531   0.00113   0.00029  -0.15475
   5        2PZ         0.00001  -0.05013  -0.04458   0.00019  -0.08723
   6        3S          0.00004  -0.47567  -0.39243   0.00130  -0.73090
   7        3PX        -0.49494  -0.00004  -0.00007  -0.44423  -0.00096
   8        3PY         0.00002  -0.30322  -0.16222   0.00113  -0.64090
   9        3PZ         0.00002  -0.19122  -0.43213   0.00105  -0.42819
  10 2   C  1S         -0.00000   0.01686   0.00629  -0.00004   0.00859
  11        2S         -0.00000  -0.01221   0.01503  -0.00002   0.00439
  12        2PX         0.25875   0.00002   0.00003   0.20950   0.00044
  13        2PY         0.00001  -0.01816  -0.03500   0.00003  -0.03031
  14        2PZ        -0.00000  -0.01044   0.02667  -0.00006   0.02906
  15        3S          0.00005  -0.18382  -0.46238   0.00129  -0.36558
  16        3PX         0.54225   0.00007   0.00014   0.46977   0.00104
  17        3PY        -0.00003  -0.11677   0.22643  -0.00034   0.09613
  18        3PZ        -0.00002   0.02424  -0.11500  -0.00024   0.12475
  19 3   C  1S         -0.00000   0.03696   0.03969   0.00000   0.00000
  20        2S          0.00001  -0.02889  -0.04430   0.00000   0.00000
  21        2PX         0.00000   0.00000   0.00000  -0.16625  -0.00032
  22        2PY         0.00000   0.00000   0.00000   0.00012  -0.07973
  23        2PZ        -0.00001   0.00509   0.12162   0.00000   0.00000
  24        3S         -0.00001  -0.36433  -0.22948   0.00000   0.00000
  25        3PX         0.00000   0.00000   0.00000  -0.51639  -0.00110
  26        3PY         0.00000   0.00000   0.00000  -0.00073   0.15449
  27        3PZ        -0.00006   0.07973   0.73277   0.00000   0.00000
  28 4   C  1S         -0.00000   0.01686   0.00629   0.00004  -0.00859
  29        2S         -0.00000  -0.01221   0.01503   0.00002  -0.00439
  30        2PX        -0.25875  -0.00002  -0.00003   0.20950   0.00044
  31        2PY        -0.00001   0.01816   0.03500   0.00003  -0.03031
  32        2PZ        -0.00000  -0.01044   0.02667   0.00006  -0.02906
  33        3S          0.00005  -0.18382  -0.46238  -0.00129   0.36558
  34        3PX        -0.54225  -0.00007  -0.00014   0.46977   0.00104
  35        3PY         0.00003   0.11677  -0.22643  -0.00034   0.09613
  36        3PZ        -0.00002   0.02424  -0.11500   0.00024  -0.12475
  37 5   C  1S         -0.00000   0.03271   0.05402   0.00008  -0.04408
  38        2S          0.00000  -0.01870  -0.04474  -0.00003   0.01990
  39        2PX         0.22969   0.00002   0.00002  -0.18308  -0.00040
  40        2PY        -0.00001   0.09531  -0.00113   0.00029  -0.15475
  41        2PZ         0.00001  -0.05013  -0.04458  -0.00019   0.08723
  42        3S          0.00004  -0.47567  -0.39243  -0.00130   0.73090
  43        3PX         0.49494   0.00004   0.00007  -0.44423  -0.00096
  44        3PY        -0.00002   0.30322   0.16222   0.00113  -0.64090
  45        3PZ         0.00002  -0.19122  -0.43213  -0.00105   0.42819
  46 6   N  1S         -0.00000   0.07974  -0.07966   0.00000   0.00000
  47        2S          0.00000  -0.03481   0.04108   0.00000   0.00000
  48        2PX         0.00000   0.00000   0.00000   0.17284   0.00037
  49        2PY         0.00000   0.00000   0.00000  -0.00007   0.01889
  50        2PZ         0.00000  -0.15605   0.07408   0.00000   0.00000
  51        3S          0.00001  -0.82812   0.82413   0.00000   0.00000
  52        3PX         0.00000   0.00000   0.00000   0.34702   0.00074
  53        3PY         0.00000   0.00000   0.00000  -0.00028   0.05814
  54        3PZ         0.00001  -0.46904   0.34418   0.00000   0.00000
  55 7   H  1S          0.00000   0.02865   0.00333   0.00000   0.00000
  56        2S         -0.00006   0.31086   0.93539   0.00000   0.00000
  57 8   H  1S         -0.00000   0.03573   0.02702   0.00000   0.00974
  58        2S         -0.00004   0.68932   0.63712  -0.00225   1.20342
  59 9   H  1S         -0.00000   0.03573   0.02702  -0.00000  -0.00974
  60        2S         -0.00004   0.68932   0.63712   0.00225  -1.20342
  61 10  C  1S          0.00000  -0.01041   0.05785   0.00010  -0.04194
  62        2S         -0.00000   0.00363  -0.01484  -0.00003   0.01038
  63        2PX         0.01585   0.00001   0.00007   0.08279   0.00015
  64        2PY        -0.00001   0.06058   0.07018   0.00022  -0.10587
  65        2PZ         0.00001   0.01816   0.01000  -0.00001   0.01517
  66        3S          0.00002   0.09605  -0.90769  -0.00155   0.65723
  67        3PX         0.01758   0.00009   0.00040   0.41903   0.00070
  68        3PY        -0.00007   0.23001   0.33662   0.00106  -0.49651
  69        3PZ         0.00009   0.02779   0.03582  -0.00006   0.07927
  70 11  H  1S          0.05058  -0.00703   0.00150  -0.05624   0.00077
  71        2S          0.11997  -0.01796   0.37042  -0.52891  -0.21339
  72 12  H  1S         -0.00005   0.00870   0.00130   0.00007  -0.01134
  73        2S         -0.00021   0.14913   0.57892   0.00196  -0.74063
  74 13  H  1S         -0.05054  -0.00704   0.00153   0.05620   0.00100
  75        2S         -0.11977  -0.01794   0.37099   0.52961  -0.21110
  76 14  C  1S          0.00000  -0.01041   0.05785  -0.00010   0.04194
  77        2S         -0.00000   0.00363  -0.01484   0.00003  -0.01038
  78        2PX        -0.01585  -0.00001  -0.00007   0.08279   0.00015
  79        2PY         0.00001  -0.06058  -0.07018   0.00022  -0.10587
  80        2PZ         0.00001   0.01816   0.01000   0.00001  -0.01517
  81        3S          0.00002   0.09605  -0.90769   0.00155  -0.65723
  82        3PX        -0.01758  -0.00009  -0.00040   0.41903   0.00070
  83        3PY         0.00007  -0.23001  -0.33662   0.00106  -0.49651
  84        3PZ         0.00009   0.02779   0.03582   0.00006  -0.07927
  85 15  H  1S         -0.05054  -0.00704   0.00153  -0.05620  -0.00100
  86        2S         -0.11977  -0.01794   0.37099  -0.52961   0.21110
  87 16  H  1S          0.05058  -0.00703   0.00150   0.05624  -0.00077
  88        2S          0.11997  -0.01796   0.37042   0.52891   0.21339
  89 17  H  1S         -0.00005   0.00870   0.00130  -0.00007   0.01134
  90        2S         -0.00021   0.14913   0.57892  -0.00196   0.74063
  91 18  H  1S         -0.00001   0.10200  -0.02797   0.00000   0.00000
  92        2S         -0.00003   1.17362  -0.75429   0.00000   0.00000
                          36        37        38        39        40
                           V         V         V         V         V
     Eigenvalues --     0.15878   0.16303   0.18345   0.19392   0.19711
   1 1   C  1S         -0.02196  -0.02338   0.01439   0.06034   0.06926
   2        2S          0.00774   0.00521  -0.00366  -0.03851  -0.03586
   3        2PX         0.00002  -0.00005  -0.00004   0.00010   0.00006
   4        2PY        -0.01203   0.09336  -0.01602  -0.02895  -0.00534
   5        2PZ         0.12617   0.03194  -0.05899   0.03329  -0.04591
   6        3S          0.24320   0.36984  -0.19641  -0.80622  -0.94364
   7        3PX        -0.00001  -0.00013  -0.00008   0.00018  -0.00007
   8        3PY         0.01047   0.46161  -0.23693  -0.18341  -0.12828
   9        3PZ         0.56160  -0.07811  -0.17384   0.35321  -0.17936
  10 2   C  1S          0.01410   0.02292   0.00900  -0.05221   0.02695
  11        2S         -0.01555  -0.01811   0.02367  -0.00019  -0.01398
  12        2PX         0.00001   0.00007   0.00004  -0.00005   0.00003
  13        2PY        -0.03478   0.07273  -0.04495  -0.03128   0.03756
  14        2PZ         0.05817  -0.01578   0.02286   0.04425   0.08898
  15        3S         -0.04545  -0.49673  -0.22628   0.98719  -0.35351
  16        3PX         0.00007   0.00015   0.00018  -0.00024   0.00025
  17        3PY        -0.20429   0.30876  -0.13402  -0.15459   0.08355
  18        3PZ         0.29246  -0.01728   0.09599   0.17518   0.40027
  19 3   C  1S          0.05567   0.00000   0.02961   0.00000  -0.07563
  20        2S         -0.02548   0.00000  -0.00449   0.00000   0.03781
  21        2PX         0.00000  -0.00007   0.00000  -0.00004   0.00000
  22        2PY         0.00000   0.05262   0.00000  -0.00080   0.00000
  23        2PZ         0.19563   0.00000   0.01399   0.00000  -0.02147
  24        3S         -0.88669   0.00000  -0.29663   0.00000   1.06623
  25        3PX         0.00000  -0.00018   0.00000   0.00015   0.00000
  26        3PY         0.00000   0.60124   0.00000  -0.42942   0.00000
  27        3PZ         0.78147   0.00000   0.04620   0.00000  -0.10540
  28 4   C  1S          0.01410  -0.02292   0.00900   0.05221   0.02695
  29        2S         -0.01555   0.01811   0.02367   0.00019  -0.01398
  30        2PX        -0.00001   0.00007  -0.00004  -0.00005  -0.00003
  31        2PY         0.03478   0.07273   0.04495  -0.03128  -0.03756
  32        2PZ         0.05817   0.01578   0.02286  -0.04425   0.08898
  33        3S         -0.04545   0.49673  -0.22628  -0.98719  -0.35351
  34        3PX        -0.00007   0.00015  -0.00018  -0.00024  -0.00025
  35        3PY         0.20429   0.30876   0.13402  -0.15459  -0.08355
  36        3PZ         0.29246   0.01728   0.09599  -0.17518   0.40027
  37 5   C  1S         -0.02196   0.02338   0.01439  -0.06034   0.06926
  38        2S          0.00774  -0.00521  -0.00366   0.03851  -0.03586
  39        2PX        -0.00002  -0.00005   0.00004   0.00010  -0.00006
  40        2PY         0.01203   0.09336   0.01602  -0.02895   0.00534
  41        2PZ         0.12617  -0.03194  -0.05899  -0.03329  -0.04591
  42        3S          0.24320  -0.36984  -0.19641   0.80622  -0.94364
  43        3PX         0.00001  -0.00013   0.00008   0.00018   0.00007
  44        3PY        -0.01047   0.46161   0.23693  -0.18341   0.12828
  45        3PZ         0.56160   0.07811  -0.17384  -0.35321  -0.17936
  46 6   N  1S          0.05280   0.00000  -0.02304   0.00000  -0.06096
  47        2S         -0.02626   0.00000   0.01213   0.00000   0.03382
  48        2PX         0.00000   0.00005   0.00000  -0.00008   0.00000
  49        2PY         0.00000   0.06127   0.00000   0.02043   0.00000
  50        2PZ         0.06956   0.00000   0.10697   0.00000  -0.01863
  51        3S         -0.57021   0.00000   0.22941   0.00000   0.63512
  52        3PX         0.00000   0.00010   0.00000  -0.00014   0.00000
  53        3PY         0.00000   0.25402   0.00000   0.01153   0.00000
  54        3PZ         0.12056   0.00000   0.37360   0.00000  -0.02553
  55 7   H  1S          0.07330   0.00000   0.05558   0.00000   0.04951
  56        2S          1.46934   0.00000   0.25703   0.00000  -0.48443
  57 8   H  1S         -0.00076  -0.04563   0.03485   0.01564   0.04486
  58        2S         -0.49713  -0.65999   0.44994   0.40093   0.73054
  59 9   H  1S         -0.00076   0.04563   0.03485  -0.01564   0.04486
  60        2S         -0.49713   0.65999   0.44994  -0.40093   0.73054
  61 10  C  1S         -0.04528  -0.10346  -0.09169  -0.01990  -0.04736
  62        2S          0.01446   0.03916   0.02550   0.00020   0.01251
  63        2PX         0.00004   0.00002   0.00010   0.00006   0.00020
  64        2PY         0.00520  -0.00639   0.02492   0.07371  -0.05066
  65        2PZ         0.12095  -0.04370  -0.10297  -0.13548   0.08490
  66        3S          0.56549   1.38364   1.29289   0.29494   0.67489
  67        3PX         0.00025   0.00011   0.00055   0.00036   0.00106
  68        3PY         0.07093  -0.15090   0.16466   0.43319  -0.23798
  69        3PZ         0.38517  -0.19289  -0.52767  -0.71344   0.51805
  70 11  H  1S         -0.00463   0.00128  -0.01809  -0.03512   0.04272
  71        2S          0.07698  -0.69606  -0.87214  -0.62043   0.13696
  72 12  H  1S          0.00514  -0.00332   0.03158   0.06874  -0.07912
  73        2S         -0.50994  -0.47875   0.08453   0.88535  -1.00453
  74 13  H  1S         -0.00462   0.00130  -0.01810  -0.03518   0.04291
  75        2S          0.07798  -0.69594  -0.87191  -0.62108   0.14001
  76 14  C  1S         -0.04528   0.10346  -0.09169   0.01990  -0.04736
  77        2S          0.01446  -0.03916   0.02550  -0.00020   0.01251
  78        2PX        -0.00004   0.00002  -0.00010   0.00006  -0.00020
  79        2PY        -0.00520  -0.00639  -0.02492   0.07371   0.05066
  80        2PZ         0.12095   0.04370  -0.10297   0.13548   0.08490
  81        3S          0.56549  -1.38364   1.29289  -0.29494   0.67489
  82        3PX        -0.00025   0.00011  -0.00055   0.00036  -0.00106
  83        3PY        -0.07093  -0.15090  -0.16466   0.43319   0.23798
  84        3PZ         0.38517   0.19289  -0.52767   0.71344   0.51805
  85 15  H  1S         -0.00462  -0.00130  -0.01810   0.03518   0.04291
  86        2S          0.07798   0.69594  -0.87191   0.62108   0.14001
  87 16  H  1S         -0.00463  -0.00128  -0.01809   0.03512   0.04272
  88        2S          0.07698   0.69606  -0.87214   0.62043   0.13696
  89 17  H  1S          0.00514   0.00332   0.03158  -0.06874  -0.07912
  90        2S         -0.50994   0.47875   0.08453  -0.88535  -1.00453
  91 18  H  1S         -0.01990   0.00000  -0.00310   0.00000  -0.00468
  92        2S         -0.07532   0.00000  -0.58692   0.00000  -0.24060
                          41        42        43        44        45
                           V         V         V         V         V
     Eigenvalues --     0.21555   0.25305   0.27751   0.28344   0.29584
   1 1   C  1S         -0.00009  -0.00003   0.02389   0.07466   0.03728
   2        2S          0.00005   0.00000  -0.01855  -0.03618  -0.01748
   3        2PX         0.00689   0.07033   0.00002  -0.00002  -0.00000
   4        2PY         0.00010   0.00001  -0.12870   0.09349   0.14185
   5        2PZ         0.00003   0.00008   0.02523  -0.00614  -0.01954
   6        3S          0.00158   0.00064  -0.31101  -1.16823  -0.13780
   7        3PX        -0.10195   0.30158  -0.00000   0.00002   0.00007
   8        3PY         0.00076  -0.00010  -1.00988   0.03074   0.58478
   9        3PZ        -0.00024   0.00058   0.41980   0.34154  -0.48087
[...]
 0036603,-0.2703687,0.0003786,1.5047874,-0.003307,-1.015459,1.0447877,3
 .6461595,-0.003426,-0.3953971,0.0043518,3.6232941,2.0061712,4.9905381,
 -2.0732513,1.803701,-3.2955127,1.3021389,1.6236807,-0.0847696,2.169920
 3,-1.2183404,0.373821,-1.3429783,-0.5626168,-1.5754916,0.8083559,-1.08
 97521,2.4262086,-2.3852005,-4.2066382,-0.0021815,-2.3227323,-0.0019862
 ,0.3014364,0.0009622,-0.0008296,-0.2925686,-0.003072,-7.2174125,0.0006
 949,1.9701941,-0.3490469,-0.3427521,0.0012016,2.5803629,-0.002231,-1.9
 2257,2.2855161,-4.9815625,-2.0696711,-1.7988612,-3.2964313,-1.2996744,
 -1.6257238,-0.0838769,-2.1675792,-1.2128436,-0.3721297,-1.3438349,-0.5
 62541,-1.575925,-0.8070792,-1.0907941,-2.4277004,-2.3851467,-4.2133573
 ,0.0071606,-3.2335442,0.0022333,5.0414158,-0.0030958,-0.0036603,0.2703
 687,-0.0003786,-1.5047874,-0.003307,-1.015459,-1.0447877,3.6461595,-0.
 003426,-0.3953971,-0.0043518,-3.6232941,2.0061712,4.9815625,2.0696711,
 1.7988612,-3.2964313,-1.2996744,1.6257238,0.0838769,2.1675792,1.212843
 6,-0.3721297,-1.3438349,0.562541,-1.575925,-0.8070792,-1.0907941,2.427
 7004,2.3851467,-4.2133573,-4.9905381,2.0732513,-1.803701,-3.2955127,1.
 3021389,-1.6236807,0.0847696,-2.1699203,1.2183404,0.373821,-1.3429783,
 0.5626168,-1.5754916,0.8083559,-1.0897521,-2.4262086,2.3852005,-4.2066
 382,0.0021815,2.3227323,0.0019862,0.3014364,0.0009622,0.0008296,0.2925
 686,0.003072,7.2174125,0.0006949,1.9701941,0.3490469,-0.3427521,0.0012
 016,2.5803629,0.002231,1.92257,2.2855161,0.,0.0000004,0.0000001,1.1977
 965,0.0000575,0.,0.,0.,-0.0000002,0.0000034,1.3937669,-0.0000003,0.017
 3576,0.0000013,0.3871939,0.,0.0000001,9.3834669\HyperPolar=0.,0.,0.,0.
 ,-42.7287601,0.0206606,26.0577477,0.,0.,39.2108417\Quadrupole=-10.6953
 26,4.4577018,6.2376242,-0.000495,0.,0.\PG=C02 [C2(H1C1N1H1),X(C6H8)]\N
 Imag=0\\0.21455417,0.00000173,0.83361202,0.00000465,0.09554319,0.82962
 611,-0.10169421,0.00000069,-0.00000210,0.22529798,-0.00000092,-0.17191
 364,0.03864760,-0.00000841,0.71435612,-0.00000419,-0.04730507,-0.36034
 708,0.00000738,-0.01287425,0.75360932,0.01377664,0.00000183,-0.0000024
 8,-0.09600659,0.00000329,0.00000348,0.20871488,0.00000111,0.06386033,-
 0.09874727,0.00000080,-0.29043109,-0.03243260,-0.00000412,0.72573325,-
 0.00000044,-0.05165230,-0.03837592,0.00000039,-0.11070364,-0.20824173,
 0.,0.,0.85276932,-0.01192237,-0.00000004,-0.00000156,0.01230728,0.0000
 0166,-0.00000108,-0.09600658,0.00000080,-0.00000039,0.22529798,-0.0000
 0036,-0.02720393,0.03040614,0.00000166,-0.06406301,-0.02007605,0.00000
 329,-0.29043110,0.11070364,-0.00000841,0.71435612,0.00000161,0.0624582
 5,-0.06442172,0.00000108,0.02007605,0.09075012,-0.00000348,0.03243262,
 -0.20824173,-0.00000738,0.01287425,0.75360932,0.01935931,-0.00000141,0
 .00000122,-0.01192237,-0.00000036,-0.00000161,0.01377663,0.00000111,0.
 00000044,-0.10169421,-0.00000092,0.00000419,0.21455417,-0.00000141,-0.
 11352739,0.04278903,-0.00000004,-0.02720393,-0.06245825,0.00000183,0.0
 6386034,0.05165230,0.00000069,-0.17191364,0.04730507,0.00000173,0.8336
 1202,-0.00000122,-0.04278903,0.08122042,0.00000156,-0.03040614,-0.0644
 2172,0.00000248,0.09874727,-0.03837591,0.00000210,-0.03864760,-0.36034
 708,-0.00000465,-0.09554319,0.82962611,-0.10361690,0.00000009,0.000000
 06,0.01802693,0.00000071,0.00000052,-0.01334449,-0.00000062,0.,0.01802
 692,0.00000071,-0.00000052,-0.10361690,0.00000009,-0.00000006,0.204472
 88,0.00000143,-0.30332313,0.01167156,-0.00000221,0.04933708,0.12109344
 ,-0.00000270,-0.11932416,0.,-0.00000220,0.04933707,-0.12109343,0.00000
 143,-0.30332312,-0.01167155,0.00000195,0.79025273,0.00000017,0.1039741
 0,-0.22646111,-0.00000150,0.04709540,-0.04729298,0.,-0.00000001,0.0041
 0825,0.00000150,-0.04709539,-0.04729298,-0.00000017,-0.10397410,-0.226
 46111,0.,0.,0.99003226,0.00947998,0.00000018,-0.00000060,0.01158274,-0
 .00000094,0.00000110,-0.06446157,0.00000026,0.,0.01158274,-0.00000094,
 -0.00000110,0.00947998,0.00000018,0.00000060,-0.00069902,-0.00000057,0
 .,0.03584312,0.,-0.00622324,-0.00380620,0.00000003,0.00491153,-0.03486
 216,-0.00000038,-0.07508485,0.,0.00000003,0.00491153,0.03486216,0.,-0.
 00622324,0.00380621,0.00000003,-0.00123990,0.,0.00000040,0.07519553,0.
 ,-0.00186292,-0.00046730,0.00000036,0.00287752,-0.01181341,0.,0.,-0.37
 850818,-0.00000036,-0.00287752,-0.01181341,0.,0.00186292,-0.00046730,0
 .,0.,0.00141973,0.,0.,0.39888798,-0.05804664,-0.00000209,-0.00000134,0
 .01240884,-0.00000103,0.00000031,0.00803833,0.00000032,0.00000021,-0.0
 0027225,-0.00000015,-0.00000023,0.00819187,-0.00000008,0.00000017,0.00
 460085,-0.00000013,-0.00000011,-0.00144285,0.00000001,-0.00000007,0.03
 540421,-0.00000181,-0.28119833,-0.14845698,-0.00000030,0.00739128,0.00
 543920,-0.00000008,-0.00121313,0.00222955,0.00000007,0.00100953,-0.001
 68927,-0.00000004,0.00054211,0.00709649,0.00000015,-0.03163873,-0.0200
 1863,0.00000005,0.00047137,0.00019171,0.00000192,0.30346138,-0.0000010
 4,-0.15936348,-0.18252124,-0.00000026,-0.02951500,-0.01064985,-0.00000
 007,0.00136242,-0.00677764,0.00000002,0.00084719,-0.00011438,0.0000000
 1,0.00255689,-0.00313946,0.00000008,0.02962850,0.01563165,-0.00000003,
 -0.00153670,-0.00042527,0.00000111,0.15538030,0.18426026,0.00819187,-0
 .00000008,-0.00000017,-0.00027225,-0.00000015,0.00000023,0.00803833,0.
 00000032,-0.00000021,0.01240884,-0.00000103,-0.00000031,-0.05804664,-0
 .00000209,0.00000134,0.00460086,-0.00000013,0.00000011,-0.00144285,0.0
 0000001,0.00000007,0.00119032,-0.00000005,0.,0.03540421,-0.00000004,0.
 00054211,-0.00709649,0.00000007,0.00100953,0.00168927,-0.00000008,-0.0
 0121314,-0.00222955,-0.00000030,0.00739128,-0.00543920,-0.00000181,-0.
 28119833,0.14845698,0.00000015,-0.03163873,0.02001863,0.00000005,0.000
 47137,-0.00019171,-0.00000005,-0.00077899,0.00078302,0.00000192,0.3034
 6138,-0.00000001,-0.00255689,-0.00313946,-0.00000002,-0.00084719,-0.00
 011438,0.00000007,-0.00136242,-0.00677764,0.00000026,0.02951500,-0.010
 64985,0.00000104,0.15936348,-0.18252124,-0.00000008,-0.02962850,0.0156
 3166,0.00000003,0.00153670,-0.00042527,0.,-0.00078302,0.00067824,-0.00
 000111,-0.15538030,0.18426026,-0.00066902,-0.00000037,0.00000599,0.006
 63019,-0.00000556,-0.00000404,0.00666284,0.00000256,-0.00000074,-0.091
 35654,-0.00000688,-0.00000286,0.00561288,-0.00000131,0.00000183,0.0115
 2953,0.00000209,-0.00000424,-0.00352698,0.00000118,-0.00000063,-0.0011
 4253,-0.00000019,-0.00000005,-0.00573745,0.00000057,0.00000099,0.62435
 931,-0.00000017,0.00026932,-0.00072514,0.00000131,-0.00060852,0.004080
 75,0.00000104,-0.03280279,-0.01862108,0.00000237,-0.17890596,-0.043796
 06,0.00000046,0.00144495,-0.00273502,-0.00000241,0.00016540,0.00413509
 ,-0.00000023,0.00214811,-0.00112093,0.00000024,-0.00000288,-0.00006071
 ,0.00000191,0.00155830,0.00202908,0.00002453,0.55493015,-0.00000002,0.
 00027651,-0.00406824,-0.00000343,0.00745889,-0.00131079,-0.00000145,0.
 01385979,0.01580857,0.00000146,-0.03684356,-0.12805882,0.00000097,-0.0
 3690776,-0.01912936,0.00000299,-0.00048902,-0.00333109,0.00000248,0.00
 028592,0.00111246,0.00000016,0.00002279,0.00016816,-0.00000148,-0.0007
 2176,0.00124972,0.00001833,-0.07084220,0.61610935,-0.00004440,0.000054
 52,-0.00030573,0.00017882,0.00045462,0.00012612,0.00064684,-0.00023844
 ,0.00012321,0.00458463,-0.00001474,-0.00350579,-0.00030353,-0.00045374
 ,-0.00021322,-0.00060638,-0.00045904,-0.00028052,-0.00025437,0.0004890
 8,-0.00003878,0.00001367,0.00000870,-0.00001875,0.00025921,-0.00001749
 ,-0.00003190,-0.24801625,0.01349960,0.13643302,0.26784035,0.00022435,0
 .00074407,-0.00155385,-0.00103794,0.00101889,0.00117381,-0.00051102,0.
 00029455,-0.00139979,0.03096467,-0.00620701,-0.02432421,0.00028020,-0.
 00320516,0.00003350,-0.00167852,-0.00131869,-0.00060440,0.00058892,-0.
 00042007,0.00063196,0.00007595,0.00000902,0.00004111,0.00045965,-0.000
 09239,-0.00019685,0.01205668,-0.05950576,-0.00724839,-0.01384566,0.065
 99627,0.00014893,-0.00012909,0.00069941,-0.00080304,-0.00074330,-0.000
 82727,-0.00047365,0.00271932,0.00060161,0.01407628,-0.00441528,-0.0143
 1668,0.00052576,-0.00249608,-0.00033593,-0.00129708,0.00026094,-0.0008
 7541,0.00062809,-0.00002760,0.00032342,0.00017113,-0.00002025,0.000018
 40,0.00074680,-0.00003171,0.00012136,0.13527979,-0.00904178,-0.1493373
 4,-0.15001935,0.01419689,0.16293885,0.00006509,0.00000074,-0.00000179,
 0.00037727,0.00000185,0.00000172,0.00124698,-0.00000005,0.00000084,-0.
 00283860,0.00001059,-0.00000448,0.00035666,-0.00000011,0.00000005,-0.0
 0033158,-0.00000111,0.00000004,-0.00023174,-0.00000022,0.00000031,0.00
 002238,0.00000004,0.,0.00056729,-0.00000058,-0.00000077,-0.05637378,-0
 .00015537,0.00012423,0.00126497,-0.02633568,0.02033095,0.05469056,-0.0
 0000017,0.00078060,-0.00061363,0.00000118,-0.00039048,0.00210621,-0.00
 000117,-0.00509180,-0.00459372,-0.00002006,-0.02662009,0.02101431,0.00
 000063,0.00139266,0.00302141,0.00000140,-0.00052640,-0.00007725,-0.000
 00040,0.00012494,-0.00017619,-0.00000017,0.00003992,-0.00008403,-0.000
 00112,0.00022410,-0.00140548,-0.00014887,-0.22914880,0.13835663,-0.000
 71727,0.00310343,-0.00209836,0.00016509,0.25333350,-0.00000015,0.00015
 678,-0.00002339,0.00000145,-0.00089515,0.00096543,0.00000099,-0.003456
 21,-0.00318205,-0.00001920,-0.02194201,0.01414758,0.00000017,-0.000977
 11,0.00160061,-0.00000058,0.00018693,0.00062183,-0.00000053,-0.0002751
 2,0.00005618,0.00000005,0.00001461,-0.00001291,0.00000033,-0.00017716,
 -0.00027554,0.00012535,0.14581070,-0.17992112,-0.00160014,0.01736442,-
 0.01423790,-0.00013969,-0.15302715,0.19470950,-0.00004429,-0.00005515,
 0.00030369,0.00017873,-0.00045285,-0.00012438,0.00064799,0.00023602,-0
 .00012371,0.00457779,0.00001923,0.00351919,-0.00030335,0.00045429,0.00
 021099,-0.00060644,0.00046007,0.00028322,-0.00025365,-0.00049009,0.000
 03903,0.00001374,-0.00000859,0.00001880,0.00025972,0.00001765,0.000031
 53,-0.24768515,-0.01337334,-0.13657773,-0.02557134,-0.00125180,-0.0193
 8453,0.00130736,0.00072108,0.00163198,0.26747122,-0.00022412,0.0007434
 9,-0.00155252,0.00103536,0.00101886,0.00117250,0.00050974,0.00029868,-
 0.00140004,-0.03093933,-0.00618554,-0.02436279,-0.00028092,-0.00321408
 ,0.00002910,0.00167810,-0.00131607,-0.00060653,-0.00058762,-0.00042071
 ,0.00063245,-0.00007569,0.00000901,0.00004118,-0.00045950,-0.00009267,
 -0.00019704,-0.01192403,-0.05949360,-0.00717445,0.00126499,-0.00016713
 ,0.00195688,0.02631482,0.00308662,0.01739819,0.01369811,0.06598340,-0.
 00014902,-0.00012860,0.00069982,0.00080382,-0.00074359,-0.00082694,0.0
 0047366,0.00272116,0.00060305,-0.01405295,-0.00440146,-0.01433335,-0.0
 0052763,-0.00249803,-0.00033609,0.00129462,0.00026109,-0.00087641,-0.0
 0062912,-0.00002845,0.00032463,-0.00017107,-0.00002033,0.00001848,-0.0
 0074534,-0.00003162,0.00012228,-0.13541953,-0.00897626,-0.14969618,0.0
 1933188,0.00194284,0.01523957,-0.02031136,-0.00208599,-0.01426265,0.15
 017190,0.01412007,0.16333575,0.00561288,-0.00000131,-0.00000183,-0.091
 35654,-0.00000688,0.00000286,0.00666283,0.00000256,0.00000074,0.006630
 19,-0.00000556,0.00000404,-0.00066902,-0.00000037,-0.00000599,0.011529
 53,0.00000209,0.00000424,-0.00352698,0.00000118,0.00000063,-0.00573745
 ,0.00000057,-0.00000099,-0.00114253,-0.00000019,0.00000005,-0.00046423
 ,-0.00000012,0.00000044,0.00000831,0.00014105,0.00003350,-0.00013818,-
 0.00000012,-0.00000017,0.00000825,-0.00014098,-0.00003369,0.62435931,0
 .00000046,0.00144495,0.00273502,0.00000237,-0.17890596,0.04379606,0.00
 000104,-0.03280279,0.01862108,0.00000131,-0.00060852,-0.00408075,-0.00
 000017,0.00026932,0.00072514,-0.00000241,0.00016539,-0.00413509,-0.000
 00023,0.00214811,0.00112094,0.00000191,0.00155830,-0.00202908,0.000000
 24,-0.00000288,0.00006071,-0.00000012,-0.00046300,0.00057295,0.0000178
 3,-0.00001636,0.00001087,-0.00000002,-0.00018413,-0.00016506,-0.000017
 87,-0.00001627,0.00001084,0.00002453,0.55493015,-0.00000097,0.03690776
 ,-0.01912936,-0.00000146,0.03684356,-0.12805882,0.00000145,-0.01385979
 ,0.01580857,0.00000343,-0.00745889,-0.00131079,0.00000002,-0.00027651,
 -0.00406824,-0.00000299,0.00048903,-0.00333108,-0.00000248,-0.00028592
 ,0.00111246,0.00000148,0.00072176,0.00124972,-0.00000016,-0.00002279,0
 .00016816,-0.00000044,-0.00057295,0.00095523,0.00000981,0.00001632,-0.
 00003090,0.00000003,-0.00040947,-0.00020828,-0.00000981,0.00001662,-0.
 00003079,-0.00001833,0.07084220,0.61610935,-0.00030335,0.00045429,-0.0
 0021099,0.00457779,0.00001923,-0.00351919,0.00064799,0.00023602,0.0001
 2372,0.00017873,-0.00045285,0.00012438,-0.00004429,-0.00005515,-0.0003
 0369,-0.00060644,0.00046008,-0.00028322,-0.00025365,-0.00049009,-0.000
 03903,0.00025972,0.00001765,-0.00003153,0.00001374,-0.00000859,-0.0000
 1880,0.00000825,-0.00001787,0.00000981,0.00001393,-0.00000409,0.000004
 43,0.00000058,0.00000119,-0.00000878,-0.00001723,0.00000442,0.00000697
 ,-0.24768515,-0.01337334,0.13657773,0.26747122,-0.00028092,-0.00321408
 ,-0.00002910,-0.03093933,-0.00618554,0.02436279,0.00050974,0.00029868,
 0.00140004,0.00103536,0.00101886,-0.00117250,-0.00022412,0.00074349,0.
 00155252,0.00167809,-0.00131607,0.00060653,-0.00058762,-0.00042071,-0.
 00063245,-0.00045950,-0.00009267,0.00019704,-0.00007569,0.00000901,-0.
 00004118,-0.00014098,-0.00001627,-0.00001662,0.00000419,0.00000379,0.0
 0000595,-0.00002280,0.00001701,-0.00000007,0.00000442,-0.00002545,0.00
 000448,-0.01192403,-0.05949360,0.00717445,0.01369811,0.06598340,0.0005
 2763,0.00249803,-0.00033609,0.01405295,0.00440146,-0.01433335,-0.00047
 366,-0.00272116,0.00060305,-0.00080382,0.00074359,-0.00082694,0.000149
 02,0.00012860,0.00069982,-0.00129462,-0.00026109,-0.00087641,0.0006291
 2,0.00002845,0.00032463,0.00074534,0.00003162,0.00012228,0.00017107,0.
 00002033,0.00001848,0.00003369,-0.00001084,-0.00003079,0.00000436,-0.0
 0000585,0.00003084,0.00000928,0.00000005,-0.00000393,-0.00000697,-0.00
 000448,0.00001715,0.13541953,0.00897626,-0.14969618,-0.15017190,-0.014
 12007,0.16333575,-0.00030353,-0.00045374,0.00021322,0.00458463,-0.0000
 1474,0.00350579,0.00064684,-0.00023843,-0.00012322,0.00017882,0.000454
 62,-0.00012612,-0.00004440,0.00005452,0.00030573,-0.00060638,-0.000459
 04,0.00028051,-0.00025437,0.00048908,0.00003878,0.00025921,-0.00001749
 ,0.00003190,0.00001367,0.00000870,0.00001875,0.00000831,0.00001783,-0.
 00000981,-0.00001720,-0.00000446,-0.00000697,0.00000060,-0.00000115,0.
 00000880,0.00001393,0.00000419,-0.00000436,-0.24801625,0.01349960,-0.1
 3643302,-0.02557134,0.00126499,-0.01933188,0.26784035,0.00028020,-0.00
 320516,-0.00003350,0.03096467,-0.00620701,0.02432421,-0.00051102,0.000
 29455,0.00139980,-0.00103794,0.00101889,-0.00117381,0.00022435,0.00074
 407,0.00155385,-0.00167852,-0.00131870,0.00060440,0.00058892,-0.000420
 07,-0.00063196,0.00045965,-0.00009239,0.00019685,0.00007595,0.00000902
 ,-0.00004111,0.00014105,-0.00001636,-0.00001632,-0.00000446,-0.0000254
 5,0.00000450,0.00002288,0.00001691,-0.00000005,-0.00000409,0.00000379,
 0.00000585,0.01205668,-0.05950576,0.00724839,-0.00125180,-0.00016713,-
 0.00194284,-0.01384566,0.06599627,-0.00052576,0.00249608,-0.00033593,-
 0.01407628,0.00441528,-0.01431668,0.00047365,-0.00271932,0.00060160,0.
 00080304,0.00074330,-0.00082727,-0.00014893,0.00012909,0.00069941,0.00
 129708,-0.00026094,-0.00087541,-0.00062809,0.00002760,0.00032342,-0.00
 074680,0.00003171,0.00012136,-0.00017113,0.00002025,0.00001840,-0.0000
 3350,-0.00001087,-0.00003090,0.00000697,-0.00000450,0.00001719,-0.0000
 0935,0.00000007,-0.00000396,-0.00000443,-0.00000595,0.00003084,-0.1352
 7979,0.00904178,-0.14933734,0.01938453,-0.00195688,0.01523957,0.150019
 35,-0.01419689,0.16293885,0.00035666,-0.00000011,-0.00000005,-0.002838
 60,0.00001059,0.00000448,0.00124698,-0.00000005,-0.00000084,0.00037727
 ,0.00000185,-0.00000172,0.00006509,0.00000074,0.00000179,-0.00033158,-
 0.00000111,-0.00000004,-0.00023174,-0.00000022,-0.00000031,0.00056729,
 -0.00000058,0.00000077,0.00002238,0.00000004,0.,-0.00013818,-0.0000000
 2,-0.00000003,0.00000060,0.00002288,0.00000935,-0.00001273,0.00000001,
 0.,0.00000058,-0.00002280,-0.00000928,-0.05637378,-0.00015537,-0.00012
 423,0.00130736,0.02631482,0.02031136,0.00126497,-0.02633568,-0.0203309
 5,0.05469056,0.00000063,0.00139266,-0.00302141,-0.00002006,-0.02662009
 ,-0.02101431,-0.00000117,-0.00509180,0.00459372,0.00000118,-0.00039048
 ,-0.00210621,-0.00000017,0.00078060,0.00061363,0.00000140,-0.00052640,
 0.00007725,-0.00000040,0.00012494,0.00017619,-0.00000112,0.00022410,0.
 00140548,-0.00000017,0.00003992,0.00008403,-0.00000012,-0.00018413,0.0
 0040947,-0.00000115,0.00001691,-0.00000007,0.00000001,-0.00012277,-0.0
 0006925,0.00000119,0.00001701,-0.00000005,-0.00014887,-0.22914880,-0.1
 3835663,0.00072108,0.00308662,0.00208599,-0.00071727,0.00310343,0.0020
 9836,0.00016509,0.25333350,-0.00000017,0.00097711,0.00160061,0.0000192
 0,0.02194201,0.01414758,-0.00000099,0.00345621,-0.00318205,-0.00000145
 ,0.00089515,0.00096543,0.00000015,-0.00015678,-0.00002339,0.00000058,-
 0.00018693,0.00062183,0.00000053,0.00027512,0.00005618,-0.00000033,0.0
 0017716,-0.00027554,-0.00000005,-0.00001461,-0.00001291,0.00000017,0.0
 0016506,-0.00020828,-0.00000880,0.00000005,-0.00000396,0.,0.00006925,0
 .00005812,0.00000878,0.00000007,-0.00000393,-0.00012535,-0.14581070,-0
 .17992112,-0.00163198,-0.01739819,-0.01426265,0.00160014,-0.01736442,-
 0.01423790,0.00013969,0.15302715,0.19470950,0.00524811,0.00000024,-0.0
 0000019,0.00793937,-0.00000011,0.00000049,-0.00093486,-0.00000018,0.,0
 .00793938,-0.00000012,-0.00000049,0.00524810,0.00000024,0.00000019,-0.
 04842138,-0.00000090,0.,-0.00138878,0.,0.,-0.00432869,0.,0.00000004,-0
 .00432869,0.,-0.00000004,0.00029882,0.00000023,0.00000009,0.00000215,-
 0.00014517,0.00002963,0.00002687,-0.00000007,0.00000011,0.00000215,0.0
 0014527,-0.00002948,0.00029883,0.00000023,-0.00000009,0.00000214,0.000
 14528,0.00002948,0.00000214,-0.00014517,-0.00002963,0.00002687,-0.0000
 0007,-0.00000011,0.03236747,0.00000002,0.00641935,0.04384355,0.0000001
 6,-0.00651400,0.00178447,-0.00000006,-0.00115372,0.,0.00000016,-0.0065
 1400,-0.00178447,0.00000002,0.00641935,-0.04384355,-0.00000036,-0.0924
 4758,0.,-0.00000001,-0.00005461,0.,0.,0.00030110,0.00014901,0.,0.00030
 111,-0.00014901,-0.00000022,0.00063186,-0.00098285,-0.00004155,-0.0002
 2891,-0.00015184,-0.00000007,-0.00003522,0.00005270,0.00004172,-0.0002
 2932,-0.00015196,-0.00000022,0.00063186,0.00098285,0.00004172,-0.00022
 932,0.00015196,-0.00004155,-0.00022891,0.00015184,-0.00000007,-0.00003
 522,-0.00005270,0.00000031,0.09296618,0.,0.00049958,-0.01421954,-0.000
 00012,0.00297051,0.00308255,0.,0.,0.00075885,0.00000012,-0.00297051,0.
 00308255,0.,-0.00049958,-0.01421954,0.,0.,-0.47039326,0.,0.,-0.0000209
 5,0.,-0.00034840,0.00164775,0.,0.00034840,0.00164776,-0.00000010,0.000
 29317,-0.00028058,-0.00001241,-0.00006304,-0.00002526,-0.00000003,0.00
 000332,-0.00002750,0.00001244,-0.00006324,-0.00002525,0.00000010,-0.00
 029317,-0.00028058,-0.00001243,0.00006324,-0.00002525,0.00001241,0.000
 06304,-0.00002526,0.00000003,-0.00000333,-0.00002750,0.,0.,0.48935104\
 \-0.00000032,-0.00011144,0.00000329,0.00000023,-0.00002936,-0.00012701
 ,0.,0.,0.00013833,-0.00000023,0.00002936,-0.00012701,0.00000032,0.0001
 1144,0.00000329,0.,0.,-0.00008290,0.,0.,0.00001898,0.,-0.00001792,-0.0
 0000461,0.,0.00001792,-0.00000461,0.00000028,0.00003651,0.00008457,-0.
 00000214,0.00000401,-0.00000550,-0.00000037,-0.00003748,-0.00000198,0.
 00000235,0.00000414,-0.00000592,-0.00000028,-0.00003651,0.00008457,-0.
 00000235,-0.00000414,-0.00000592,0.00000214,-0.00000401,-0.00000550,0.
 00000037,0.00003748,-0.00000198,0.,0.,0.00003990\\\@


 A SUCCESSFUL PURSUIT OF SCIENCE MAKES A MAN THE
 BENEFACTOR OF ALL MANKIND OF EVERY AGE.
   --  JOSEPH PRIESTLEY, "EXPERIMENTS AND
 OBSERVATIONS ON DIFFERENT KINDS OF AIR", 1774
 Job cpu time:       0 days  0 hours  0 minutes  6.2 seconds.
 Elapsed time:       0 days  0 hours  0 minutes  6.2 seconds.
 File lengths (MBytes):  RWF=     19 Int=      0 D2E=      0 Chk=      2 Scr=      1
 Normal termination of Gaussian 16 at Mon Jun 16 17:03:25 2025.
