 Entering Gaussian System, Link 0=g16
 Input=/home/gaussian/Documents/program files/Aromaticity/AM1 HF3-21G*/cyclobutadiene/opt freq/meth_cyclobutadiene_sp.com
 Output=/home/gaussian/Documents/program files/Aromaticity/AM1 HF3-21G*/cyclobutadiene/opt freq/meth_cyclobutadiene_sp.log
 Initial command:
 /usr/local/g16/l1.exe "/home/gaussian/tmp/Gau-142780.inp" -scrdir="/home/gaussian/tmp/"
 Entering Link 1 = /usr/local/g16/l1.exe PID=    142783.
  
 Copyright (c) 1988-2017, Gaussian, Inc.  All Rights Reserved.
  
 This is part of the Gaussian(R) 16 program.  It is based on
 the Gaussian(R) 09 system (copyright 2009, Gaussian, Inc.),
 the Gaussian(R) 03 system (copyright 2003, Gaussian, Inc.),
 the Gaussian(R) 98 system (copyright 1998, Gaussian, Inc.),
 the Gaussian(R) 94 system (copyright 1995, Gaussian, Inc.),
 the Gaussian 92(TM) system (copyright 1992, Gaussian, Inc.),
 the Gaussian 90(TM) system (copyright 1990, Gaussian, Inc.),
 the Gaussian 88(TM) system (copyright 1988, Gaussian, Inc.),
 the Gaussian 86(TM) system (copyright 1986, Carnegie Mellon
 University), and the Gaussian 82(TM) system (copyright 1983,
 Carnegie Mellon University). Gaussian is a federally registered
 trademark of Gaussian, Inc.
  
 This software contains proprietary and confidential information,
 including trade secrets, belonging to Gaussian, Inc.
  
 This software is provided under written license and may be
 used, copied, transmitted, or stored only in accord with that
 written license.
  
 The following legend is applicable only to US Government
 contracts under FAR:
  
                    RESTRICTED RIGHTS LEGEND
  
 Use, reproduction and disclosure by the US Government is
 subject to restrictions as set forth in subparagraphs (a)
 and (c) of the Commercial Computer Software - Restricted
 Rights clause in FAR 52.227-19.
  
 Gaussian, Inc.
 340 Quinnipiac St., Bldg. 40, Wallingford CT 06492
  
  
 ---------------------------------------------------------------
 Warning -- This program may not be used in any manner that
 competes with the business of Gaussian, Inc. or will provide
 assistance to any competitor of Gaussian, Inc.  The licensee
 of this program is prohibited from giving any competitor of
 Gaussian, Inc. access to this program.  By using this program,
 the user acknowledges that Gaussian, Inc. is engaged in the
 business of creating and licensing software in the field of
 computational chemistry and represents and warrants to the
 licensee that it is not a competitor of Gaussian, Inc. and that
 it will not use this program in any manner prohibited above.
 ---------------------------------------------------------------
  

 Cite this work as:
 Gaussian 16, Revision B.01,
 M. J. Frisch, G. W. Trucks, H. B. Schlegel, G. E. Scuseria, 
 M. A. Robb, J. R. Cheeseman, G. Scalmani, V. Barone, 
 G. A. Petersson, H. Nakatsuji, X. Li, M. Caricato, A. V. Marenich, 
 J. Bloino, B. G. Janesko, R. Gomperts, B. Mennucci, H. P. Hratchian, 
 J. V. Ortiz, A. F. Izmaylov, J. L. Sonnenberg, D. Williams-Young, 
 F. Ding, F. Lipparini, F. Egidi, J. Goings, B. Peng, A. Petrone, 
 T. Henderson, D. Ranasinghe, V. G. Zakrzewski, J. Gao, N. Rega, 
 G. Zheng, W. Liang, M. Hada, M. Ehara, K. Toyota, R. Fukuda, 
 J. Hasegawa, M. Ishida, T. Nakajima, Y. Honda, O. Kitao, H. Nakai, 
 T. Vreven, K. Throssell, J. A. Montgomery, Jr., J. E. Peralta, 
 F. Ogliaro, M. J. Bearpark, J. J. Heyd, E. N. Brothers, K. N. Kudin, 
 V. N. Staroverov, T. A. Keith, R. Kobayashi, J. Normand, 
 K. Raghavachari, A. P. Rendell, J. C. Burant, S. S. Iyengar, 
 J. Tomasi, M. Cossi, J. M. Millam, M. Klene, C. Adamo, R. Cammi, 
 J. W. Ochterski, R. L. Martin, K. Morokuma, O. Farkas, 
 J. B. Foresman, and D. J. Fox, Gaussian, Inc., Wallingford CT, 2016.
 
 ******************************************
 Gaussian 16:  EM64L-G16RevB.01 20-Dec-2017
                12-Jun-2025 
 ******************************************
 %chk=meth_cyclobutadiene_sp.chk
 -----------------------------------------
 # opt freq am1 pop=full geom=connectivity
 -----------------------------------------
 1/18=20,19=15,26=1,38=1,57=2/1,3;
 2/9=110,12=2,17=6,18=5,40=1/2;
 3/5=2,25=1,41=700000,71=1/1,2,3;
 4/35=1/1;
 5/5=2,35=1,38=5/2;
 6/7=3,28=1/1;
 7//1,2,3,16;
 1/18=20,19=15,26=1/3(2);
 2/9=110/2;
 99//99;
 2/9=110/2;
 3/5=2,25=1,41=700000,71=1,135=20/1,2,3;
 4/5=5,16=3,35=1/1;
 5/5=2,35=1,38=5/2;
 7//1,2,3,16;
 1/18=20,19=15,26=1/3(-5);
 2/9=110/2;
 6/7=3,19=2,28=1/1;
 99/9=1/99;
 ------------
 Optimisation
 ------------
 Symbolic Z-matrix:
 Charge =  0 Multiplicity = 1
 C                     0.79876   0.97901  0. 
 C                     1.63827  -0.04352  -0.00003 
 C                     0.41098  -1.06445   0. 
 C                    -0.43919  -0.04877  -0.00005 
 H                     0.89144   2.04113   0.00011 
 H                     2.69912  -0.14943   0.00011 
 H                     0.31816  -2.12651   0.0001 
 C                    -1.91379   0.12734   0.00002 
 H                    -2.23167   0.68541  -0.87647 
 H                    -2.41565  -0.83329  -0.00022 
 H                    -2.23167   0.68499   0.87677 
 

 GradGradGradGradGradGradGradGradGradGradGradGradGradGradGradGradGradGrad
 Berny optimization.
 Initialization pass.
                           ----------------------------
                           !    Initial Parameters    !
                           ! (Angstroms and Degrees)  !
 --------------------------                            --------------------------
 ! Name  Definition              Value          Derivative Info.                !
 --------------------------------------------------------------------------------
 ! R1    R(1,2)                  1.323          estimate D2E/DX2                !
 ! R2    R(1,4)                  1.609          estimate D2E/DX2                !
 ! R3    R(1,5)                  1.0661         estimate D2E/DX2                !
 ! R4    R(2,3)                  1.5964         estimate D2E/DX2                !
 ! R5    R(2,6)                  1.0661         estimate D2E/DX2                !
 ! R6    R(3,4)                  1.3245         estimate D2E/DX2                !
 ! R7    R(3,7)                  1.0661         estimate D2E/DX2                !
 ! R8    R(4,8)                  1.4851         estimate D2E/DX2                !
 ! R9    R(8,9)                  1.0866         estimate D2E/DX2                !
 ! R10   R(8,10)                 1.0838         estimate D2E/DX2                !
 ! R11   R(8,11)                 1.0866         estimate D2E/DX2                !
 ! A1    A(2,1,4)               89.6858         estimate D2E/DX2                !
 ! A2    A(2,1,5)              135.6264         estimate D2E/DX2                !
 ! A3    A(4,1,5)              134.6878         estimate D2E/DX2                !
 ! A4    A(1,2,3)               90.3693         estimate D2E/DX2                !
 ! A5    A(1,2,6)              135.0876         estimate D2E/DX2                !
 ! A6    A(3,2,6)              134.5431         estimate D2E/DX2                !
 ! A7    A(2,3,4)               90.1751         estimate D2E/DX2                !
 ! A8    A(2,3,7)              134.7506         estimate D2E/DX2                !
 ! A9    A(4,3,7)              135.0743         estimate D2E/DX2                !
 ! A10   A(1,4,3)               89.7698         estimate D2E/DX2                !
 ! A11   A(1,4,8)              133.4887         estimate D2E/DX2                !
 ! A12   A(3,4,8)              136.7415         estimate D2E/DX2                !
 ! A13   A(4,8,9)              110.57           estimate D2E/DX2                !
 ! A14   A(4,8,10)             110.7733         estimate D2E/DX2                !
 ! A15   A(4,8,11)             110.5717         estimate D2E/DX2                !
 ! A16   A(9,8,10)             108.637          estimate D2E/DX2                !
 ! A17   A(9,8,11)             107.5585         estimate D2E/DX2                !
 ! A18   A(10,8,11)            108.6378         estimate D2E/DX2                !
 ! D1    D(4,1,2,3)             -0.0028         estimate D2E/DX2                !
 ! D2    D(4,1,2,6)           -179.9905         estimate D2E/DX2                !
 ! D3    D(5,1,2,3)            179.9915         estimate D2E/DX2                !
 ! D4    D(5,1,2,6)              0.0038         estimate D2E/DX2                !
 ! D5    D(2,1,4,3)              0.0033         estimate D2E/DX2                !
 ! D6    D(2,1,4,8)            179.9958         estimate D2E/DX2                !
 ! D7    D(5,1,4,3)           -179.991          estimate D2E/DX2                !
 ! D8    D(5,1,4,8)              0.0014         estimate D2E/DX2                !
 ! D9    D(1,2,3,4)              0.0033         estimate D2E/DX2                !
 ! D10   D(1,2,3,7)           -179.9928         estimate D2E/DX2                !
 ! D11   D(6,2,3,4)            179.9912         estimate D2E/DX2                !
 ! D12   D(6,2,3,7)             -0.005          estimate D2E/DX2                !
 ! D13   D(2,3,4,1)             -0.0027         estimate D2E/DX2                !
 ! D14   D(2,3,4,8)           -179.9947         estimate D2E/DX2                !
 ! D15   D(7,3,4,1)            179.9934         estimate D2E/DX2                !
 ! D16   D(7,3,4,8)              0.0014         estimate D2E/DX2                !
 ! D17   D(1,4,8,9)             59.4982         estimate D2E/DX2                !
 ! D18   D(1,4,8,10)           179.9904         estimate D2E/DX2                !
 ! D19   D(1,4,8,11)           -59.5154         estimate D2E/DX2                !
 ! D20   D(3,4,8,9)           -120.5128         estimate D2E/DX2                !
 ! D21   D(3,4,8,10)            -0.0207         estimate D2E/DX2                !
 ! D22   D(3,4,8,11)           120.4736         estimate D2E/DX2                !
 --------------------------------------------------------------------------------
 Trust Radius=3.00D-01 FncErr=1.00D-07 GrdErr=1.00D-07 EigMax=2.50D+02 EigMin=1.00D-04
 Number of steps in this run=     61 maximum allowed number of steps=    100.
 GradGradGradGradGradGradGradGradGradGradGradGradGradGradGradGradGradGrad

                          Input orientation:                          
 ---------------------------------------------------------------------
 Center     Atomic      Atomic             Coordinates (Angstroms)
 Number     Number       Type             X           Y           Z
 ---------------------------------------------------------------------
      1          6           0        0.798761    0.979014   -0.000004
      2          6           0        1.638273   -0.043517   -0.000026
      3          6           0        0.410983   -1.064451    0.000003
      4          6           0       -0.439186   -0.048773   -0.000052
      5          1           0        0.891443    2.041127    0.000106
      6          1           0        2.699116   -0.149425    0.000109
      7          1           0        0.318161   -2.126506    0.000099
      8          6           0       -1.913786    0.127341    0.000015
      9          1           0       -2.231670    0.685414   -0.876473
     10          1           0       -2.415647   -0.833286   -0.000223
     11          1           0       -2.231670    0.684993    0.876765
 ---------------------------------------------------------------------
                    Distance matrix (angstroms):
                    1          2          3          4          5
     1  C    0.000000
     2  C    1.323008   0.000000
     3  C    2.079933   1.596417   0.000000
     4  C    1.608993   2.077466   1.324534   0.000000
     5  H    1.066149   2.214384   3.142524   2.477550   0.000000
     6  H    2.210141   1.066117   2.464310   3.139916   2.840106
     7  H    3.142488   2.466078   1.066104   2.211459   4.206877
     8  C    2.843107   3.556166   2.612455   1.485080   3.395863
     9  H    3.168266   4.034347   3.288442   2.126063   3.515705
    10  H    3.690102   4.130133   2.836067   2.126466   4.381677
    11  H    3.168388   4.034346   3.288295   2.126081   3.515888
                    6          7          8          9         10
     6  H    0.000000
     7  H    3.094801   0.000000
     8  C    4.621197   3.171973   0.000000
     9  H    5.077204   3.895755   1.086613   0.000000
    10  H    5.160278   3.024256   1.083821   1.762984   0.000000
    11  H    5.077148   3.895473   1.086608   1.753238   1.762988
                   11
    11  H    0.000000
 Stoichiometry    C5H6
 Framework group  C1[X(C5H6)]
 Deg. of freedom    27
 Full point group                 C1      NOp   1
 Largest Abelian subgroup         C1      NOp   1
 Largest concise Abelian subgroup C1      NOp   1
                         Standard orientation:                         
 ---------------------------------------------------------------------
 Center     Atomic      Atomic             Coordinates (Angstroms)
 Number     Number       Type             X           Y           Z
 ---------------------------------------------------------------------
      1          6           0       -0.798761   -0.979014   -0.000004
      2          6           0       -1.638273    0.043517   -0.000026
      3          6           0       -0.410983    1.064451    0.000003
      4          6           0        0.439186    0.048773   -0.000052
      5          1           0       -0.891443   -2.041127    0.000106
      6          1           0       -2.699116    0.149425    0.000109
      7          1           0       -0.318161    2.126506    0.000099
      8          6           0        1.913786   -0.127341    0.000015
      9          1           0        2.231670   -0.685414   -0.876473
     10          1           0        2.415647    0.833286   -0.000223
     11          1           0        2.231670   -0.684993    0.876765
 ---------------------------------------------------------------------
 Rotational constants (GHZ):          13.5434815           4.4433036           3.4157184
 Standard basis: VSTO-6G (5D, 7F)
 There are    26 symmetry adapted cartesian basis functions of A   symmetry.
 There are    26 symmetry adapted basis functions of A   symmetry.
    26 basis functions,   156 primitive gaussians,    26 cartesian basis functions
    13 alpha electrons       13 beta electrons
       nuclear repulsion energy        93.0240442504 Hartrees.
 Integral buffers will be    131072 words long.
 Regular integral format.
 Two-electron integral symmetry is turned off.
 Do NDO integrals.
 One-electron integrals computed using PRISM.
 NBasis=    26 RedAO= F EigKep=  0.00D+00  NBF=    26
 NBsUse=    26 1.00D-04 EigRej=  0.00D+00 NBFU=    26
 Simple Huckel Guess.
 Keep J ints in memory in canonical form, NReq=860916.
 Overlap will be assumed to be unity.
 Requested convergence on RMS density matrix=1.00D-08 within 128 cycles.
 Requested convergence on MAX density matrix=1.00D-06.
 Requested convergence on             energy=1.00D-06.
 No special actions if energy rises.
 SCF Done:  E(RAM1) =  0.172448773160     A.U. after   13 cycles
            NFock= 12  Conv=0.56D-08     -V/T= 1.0043

 **********************************************************************

            Population analysis using the SCF Density.

 **********************************************************************

 Orbital symmetries:
       Occupied  (A) (A) (A) (A) (A) (A) (A) (A) (A) (A) (A) (A)
                 (A)
       Virtual   (A) (A) (A) (A) (A) (A) (A) (A) (A) (A) (A) (A)
                 (A)
 The electronic state is 1-A.
 Alpha  occ. eigenvalues --   -1.42637  -1.14975  -0.96762  -0.81800  -0.66192
 Alpha  occ. eigenvalues --   -0.60066  -0.54642  -0.52919  -0.49025  -0.46563
 Alpha  occ. eigenvalues --   -0.43893  -0.40869  -0.31986
 Alpha virt. eigenvalues --    0.01570   0.08027   0.10563   0.12837   0.15998
 Alpha virt. eigenvalues --    0.16994   0.17020   0.17846   0.17984   0.18452
 Alpha virt. eigenvalues --    0.18801   0.20010   0.23568
     Molecular Orbital Coefficients:
                           1         2         3         4         5
                           O         O         O         O         O
     Eigenvalues --    -1.42637  -1.14975  -0.96762  -0.81800  -0.66192
   1 1   C  1S          0.43320  -0.24042  -0.41998  -0.34422   0.27986
   2        1PX        -0.00138   0.12658   0.13252  -0.23442  -0.08008
   3        1PY         0.16982  -0.06301   0.05587   0.11973  -0.35155
   4        1PZ        -0.00000  -0.00000  -0.00001   0.00000   0.00003
   5 2   C  1S          0.42878  -0.33036  -0.23695   0.47297  -0.19513
   6        1PX         0.16584  -0.03865   0.06125  -0.18547   0.07769
   7        1PY        -0.03912   0.06444   0.24226   0.15910  -0.05571
   8        1PZ         0.00001  -0.00001  -0.00001   0.00002   0.00001
   9 3   C  1S          0.44295  -0.01499   0.53796   0.18542   0.30300
  10        1PX         0.02014   0.13784   0.12440  -0.21238  -0.00530
  11        1PY        -0.17293   0.02697   0.02230   0.13517   0.39208
  12        1PZ        -0.00000   0.00000  -0.00000   0.00001   0.00003
  13 4   C  1S          0.48515   0.30001   0.18606  -0.33641  -0.30055
  14        1PX        -0.12998   0.26663  -0.13452   0.09129  -0.03445
  15        1PY         0.03822   0.01752   0.27391   0.13107   0.06718
  16        1PZ         0.00001   0.00001   0.00000  -0.00000   0.00001
  17 5   H  1S          0.10429  -0.07271  -0.20895  -0.21128   0.37114
  18 6   H  1S          0.10229  -0.11265  -0.11591   0.32350  -0.15516
  19 7   H  1S          0.10742   0.01069   0.24147   0.14847   0.40382
  20 8   C  1S          0.19525   0.65046  -0.28066   0.20766   0.06892
  21        1PX        -0.07849  -0.06001  -0.06687   0.17747   0.22320
  22        1PY         0.01219   0.01502   0.05722   0.01645   0.00682
  23        1PZ        -0.00000  -0.00000  -0.00000   0.00001   0.00002
  24 9   H  1S          0.06514   0.24338  -0.13985   0.11193   0.07423
  25 10  H  1S          0.06764   0.25016  -0.10097   0.14525   0.11107
  26 11  H  1S          0.06514   0.24338  -0.13984   0.11194   0.07425
                           6         7         8         9        10
                           O         O         O         O         O
     Eigenvalues --    -0.60066  -0.54642  -0.52919  -0.49025  -0.46563
   1 1   C  1S         -0.00544   0.00241  -0.00001  -0.01941   0.04527
   2        1PX         0.07823  -0.32032  -0.00001   0.30626   0.20686
   3        1PY         0.29627   0.05571   0.00001  -0.37019   0.02507
   4        1PZ        -0.00003  -0.00002   0.17041   0.00004   0.00003
   5 2   C  1S         -0.09119  -0.02388  -0.00001  -0.01687   0.04558
   6        1PX         0.45434   0.05803  -0.00001  -0.25698   0.19114
   7        1PY         0.05433  -0.30370  -0.00002   0.39940   0.27277
   8        1PZ        -0.00004  -0.00003   0.15591   0.00003   0.00002
   9 3   C  1S          0.03065  -0.06316  -0.00001   0.02940  -0.01775
  10        1PX        -0.21035   0.30091   0.00004  -0.02411  -0.42736
  11        1PY        -0.19374  -0.16650  -0.00005  -0.33793   0.10463
  12        1PZ        -0.00002  -0.00005   0.24255  -0.00003   0.00004
  13 4   C  1S         -0.22068  -0.05005  -0.00001   0.01261  -0.00571
  14        1PX        -0.34726  -0.04436  -0.00003  -0.30517   0.18276
  15        1PY        -0.09061   0.41224   0.00004   0.08605  -0.31171
  16        1PZ        -0.00001  -0.00004   0.37536  -0.00001   0.00003
  17 5   H  1S         -0.20703  -0.02777  -0.00000   0.28067   0.00111
  18 6   H  1S         -0.35610  -0.08854   0.00001   0.24290  -0.10279
  19 7   H  1S         -0.12319  -0.14779  -0.00003  -0.25859   0.05935
  20 8   C  1S          0.08255   0.00896   0.00000  -0.01365   0.02219
  21        1PX         0.39021   0.17474   0.00000   0.29082  -0.16008
  22        1PY        -0.13526   0.48429   0.00004   0.08449   0.48646
  23        1PZ         0.00002  -0.00005   0.63899  -0.00002  -0.00001
  24 9   H  1S          0.17194  -0.15017  -0.41142   0.02973  -0.25156
  25 10  H  1S          0.08261   0.40095  -0.00009   0.16820   0.33716
  26 11  H  1S          0.17193  -0.15009   0.41151   0.02972  -0.25140
                          11        12        13        14        15
                           O         O         O         V         V
     Eigenvalues --    -0.43893  -0.40869  -0.31986   0.01570   0.08027
   1 1   C  1S         -0.00001   0.09916  -0.00000  -0.00000   0.00006
   2        1PX        -0.00001   0.34600  -0.00001   0.00003   0.00002
   3        1PY         0.00006   0.28629  -0.00005   0.00004  -0.00003
   4        1PZ         0.49674  -0.00005  -0.47579   0.49159  -0.50422
   5 2   C  1S         -0.00003  -0.08363   0.00002   0.00003  -0.00006
   6        1PX         0.00003  -0.31211  -0.00002  -0.00003   0.00003
   7        1PY        -0.00004  -0.20758   0.00001   0.00000  -0.00002
   8        1PZ         0.51145   0.00000  -0.46062  -0.48842   0.51221
   9 3   C  1S         -0.00001  -0.10402   0.00000  -0.00001   0.00005
  10        1PX         0.00003   0.24294   0.00001   0.00002  -0.00003
  11        1PY        -0.00004   0.29972  -0.00005   0.00005   0.00003
  12        1PZ         0.41635   0.00003   0.52824  -0.49674  -0.48200
  13 4   C  1S         -0.00001   0.08937  -0.00002  -0.00002  -0.00006
  14        1PX        -0.00001  -0.31662  -0.00000  -0.00001  -0.00000
  15        1PY         0.00001  -0.29295   0.00001  -0.00001   0.00003
  16        1PZ         0.33471  -0.00000   0.49445   0.50262   0.46373
  17 5   H  1S         -0.00002  -0.23991   0.00001   0.00000  -0.00006
  18 6   H  1S         -0.00000   0.22949  -0.00001  -0.00002   0.00007
  19 7   H  1S         -0.00001   0.24460  -0.00001   0.00000  -0.00005
  20 8   C  1S         -0.00000  -0.04779   0.00000   0.00001   0.00003
  21        1PX         0.00002   0.25425  -0.00000  -0.00001  -0.00005
  22        1PY        -0.00003   0.10778  -0.00000  -0.00000   0.00001
  23        1PZ        -0.30759   0.00001  -0.09895   0.01110   0.07774
  24 9   H  1S          0.23629  -0.01446   0.11859   0.10072   0.12243
  25 10  H  1S          0.00005   0.19557   0.00003   0.00003   0.00002
  26 11  H  1S         -0.23633  -0.01441  -0.11862  -0.10075  -0.12247
                          16        17        18        19        20
                           V         V         V         V         V
     Eigenvalues --     0.10563   0.12837   0.15998   0.16994   0.17020
   1 1   C  1S          0.26179  -0.25198  -0.00658   0.20701   0.00105
   2        1PX         0.45446  -0.17150  -0.02063  -0.01198  -0.00006
   3        1PY         0.17191   0.01799  -0.00944  -0.16100  -0.00081
   4        1PZ        -0.00001  -0.00008  -0.00000  -0.00020   0.04406
   5 2   C  1S          0.16517   0.34430  -0.03168  -0.01506  -0.00007
   6        1PX         0.21105   0.09786  -0.10643  -0.00474  -0.00003
   7        1PY         0.31288   0.30544  -0.09804   0.03119   0.00016
   8        1PZ        -0.00001   0.00010   0.00001   0.00015  -0.03213
   9 3   C  1S         -0.18268  -0.33091  -0.14810   0.18164   0.00093
  10        1PX         0.33535   0.30911  -0.37122  -0.03437  -0.00015
  11        1PY         0.15556   0.05839   0.04871   0.19651   0.00098
  12        1PZ         0.00004  -0.00006  -0.00000  -0.00048   0.09851
  13 4   C  1S         -0.25275   0.28605   0.31563   0.22596   0.00111
  14        1PX         0.22997   0.05041   0.07515   0.45109   0.00225
  15        1PY         0.41797  -0.16483   0.16677  -0.00145  -0.00001
  16        1PZ        -0.00003   0.00007   0.00002   0.00095  -0.18685
  17 5   H  1S         -0.05799   0.27853  -0.00391  -0.31966  -0.00162
  18 6   H  1S          0.02472  -0.30041  -0.06162   0.00499   0.00002
  19 7   H  1S         -0.00775   0.26765   0.10873  -0.33249  -0.00169
  20 8   C  1S          0.04546  -0.16068  -0.13841  -0.12596  -0.00060
  21        1PX        -0.02425   0.27369   0.30568   0.50642   0.00250
  22        1PY         0.11945  -0.11178   0.49048  -0.25281  -0.00129
  23        1PZ        -0.00001   0.00004   0.00005  -0.00346   0.69362
  24 9   H  1S          0.05521  -0.01430   0.25232  -0.15609   0.48457
  25 10  H  1S         -0.19265   0.11082  -0.43163   0.07942   0.00054
  26 11  H  1S          0.05516  -0.01431   0.25206  -0.15115  -0.48629
                          21        22        23        24        25
                           V         V         V         V         V
     Eigenvalues --     0.17846   0.17984   0.18452   0.18801   0.20010
   1 1   C  1S         -0.13222  -0.33560   0.05476  -0.04557   0.16043
   2        1PX        -0.06640   0.39750   0.08672   0.32963  -0.14989
   3        1PY         0.26058   0.16958  -0.24020  -0.08648   0.35202
   4        1PZ        -0.00001  -0.00004   0.00001  -0.00000  -0.00003
   5 2   C  1S         -0.31094   0.23991   0.09001   0.06469  -0.14557
   6        1PX         0.41513  -0.09977  -0.07810   0.04587  -0.31777
   7        1PY        -0.02347  -0.40989  -0.08607  -0.29544   0.23364
   8        1PZ        -0.00006   0.00004   0.00001   0.00000   0.00001
   9 3   C  1S         -0.07246   0.21285  -0.11305  -0.19667  -0.18185
  10        1PX        -0.04689  -0.03450  -0.00944  -0.30095  -0.31250
  11        1PY        -0.07479   0.11472  -0.36909  -0.19457   0.24759
  12        1PZ        -0.00000   0.00001  -0.00003  -0.00002   0.00002
  13 4   C  1S          0.06619  -0.06375  -0.07212   0.07289   0.14729
  14        1PX         0.13876   0.09530  -0.01848   0.15554  -0.22478
  15        1PY         0.00122  -0.00606   0.00085   0.35226   0.39698
  16        1PZ         0.00001  -0.00000  -0.00000   0.00001   0.00001
  17 5   H  1S          0.32622   0.43056  -0.23674  -0.02228   0.14927
  18 6   H  1S          0.60472  -0.22951  -0.12493   0.02023  -0.16215
  19 7   H  1S          0.12714  -0.26709   0.40253   0.32450  -0.04683
  20 8   C  1S          0.08750   0.13757   0.41404  -0.28182   0.19981
  21        1PX         0.23446   0.12538   0.19471  -0.07047  -0.02631
  22        1PY        -0.06311  -0.00870  -0.03560  -0.30808  -0.23636
  23        1PZ         0.00002   0.00000  -0.00001   0.00002  -0.00001
  24 9   H  1S         -0.13997  -0.12499  -0.32643   0.07329  -0.20076
  25 10  H  1S         -0.09949  -0.12995  -0.31328   0.41384   0.03819
  26 11  H  1S         -0.13998  -0.12499  -0.32641   0.07336  -0.20068
                          26
                           V
     Eigenvalues --     0.23568
   1 1   C  1S         -0.18223
   2        1PX         0.04952
   3        1PY        -0.41713
   4        1PZ         0.00003
   5 2   C  1S          0.18995
   6        1PX         0.40013
   7        1PY        -0.12411
   8        1PZ        -0.00001
   9 3   C  1S         -0.19534
  10        1PX        -0.06522
  11        1PY         0.44034
  12        1PZ         0.00003
  13 4   C  1S          0.20018
  14        1PX        -0.40877
  15        1PY         0.14686
  16        1PZ         0.00000
  17 5   H  1S         -0.15510
  18 6   H  1S          0.14986
  19 7   H  1S         -0.16308
  20 8   C  1S          0.14840
  21        1PX        -0.08459
  22        1PY        -0.02100
  23        1PZ        -0.00001
  24 9   H  1S         -0.06793
  25 10  H  1S         -0.04191
  26 11  H  1S         -0.06791
     Density Matrix:
                           1         2         3         4         5
   1 1   C  1S          1.26189
   2        1PX         0.01624   0.91995
   3        1PY        -0.07824  -0.00903   0.96873
   4        1PZ         0.00000  -0.00001   0.00001   1.00433
   5 2   C  1S          0.28363  -0.38643   0.32144  -0.00004   1.25830
   6        1PX         0.24270  -0.17990   0.26582   0.00004  -0.07437
   7        1PY        -0.44312   0.43186  -0.31960   0.00002   0.03201
   8        1PZ        -0.00000   0.00002   0.00007   0.99956  -0.00001
   9 3   C  1S         -0.04296  -0.01396  -0.02728   0.00001   0.20418
  10        1PX         0.00409  -0.08091   0.00065  -0.00001  -0.38637
  11        1PY         0.02821   0.00711  -0.00924  -0.00001  -0.18774
  12        1PZ         0.00001   0.00001   0.00001  -0.00637  -0.00000
  13 4   C  1S          0.20205   0.39453   0.18373  -0.00002  -0.04455
  14        1PX        -0.24078  -0.36140  -0.20360   0.00002   0.02129
  15        1PY        -0.34469  -0.55253  -0.22930   0.00003   0.00367
  16        1PZ        -0.00000  -0.00000  -0.00001  -0.01005   0.00000
  17 5   H  1S          0.59776  -0.04270  -0.76119   0.00006  -0.03836
  18 6   H  1S         -0.03918   0.07973  -0.05190   0.00002   0.59686
  19 7   H  1S          0.07346   0.04295   0.05877  -0.00001  -0.04378
  20 8   C  1S         -0.02003  -0.04372  -0.01199   0.00000   0.03520
  21        1PX         0.04100   0.08530   0.03192  -0.00001  -0.06164
  22        1PY         0.01372   0.00630   0.00515  -0.00000   0.01133
  23        1PZ         0.00000   0.00000   0.00000   0.00636  -0.00000
  24 9   H  1S         -0.00802  -0.01275  -0.00731  -0.01833  -0.00747
  25 10  H  1S          0.04912   0.08441   0.03483  -0.00001  -0.00725
  26 11  H  1S         -0.00800  -0.01272  -0.00729   0.01833  -0.00747
                           6         7         8         9        10
   6        1PX         0.96593
   7        1PY        -0.01326   0.92998
   8        1PZ        -0.00000  -0.00001   0.99611
   9 3   C  1S          0.25584   0.34799  -0.00001   1.25791
  10        1PX        -0.36963  -0.54941   0.00001  -0.02212   0.91409
  11        1PY        -0.21471  -0.23008   0.00001   0.08094  -0.00176
  12        1PZ        -0.00001  -0.00002   0.01487   0.00001   0.00001
  13 4   C  1S         -0.03219  -0.00643   0.00000   0.28924   0.40503
  14        1PX        -0.01575  -0.01117  -0.00000  -0.22915  -0.17955
  15        1PY        -0.00832  -0.07373  -0.00001   0.43681   0.42429
  16        1PZ        -0.00000   0.00000   0.00391   0.00001   0.00002
  17 5   H  1S         -0.03477   0.09143   0.00000   0.07351  -0.04269
  18 6   H  1S         -0.75692   0.09931   0.00007  -0.04523   0.09264
  19 7   H  1S         -0.05413  -0.08714   0.00001   0.59734   0.04347
  20 8   C  1S          0.03517   0.01553  -0.00000  -0.01744  -0.04244
  21        1PX        -0.05526  -0.02670   0.00001   0.03313   0.07325
  22        1PY         0.01342   0.01246  -0.00000  -0.02205  -0.00733
  23        1PZ        -0.00000  -0.00000  -0.02422   0.00000   0.00000
  24 9   H  1S         -0.00792  -0.01173   0.00415   0.02964   0.03042
  25 10  H  1S         -0.00392   0.01441   0.00000  -0.02339  -0.01102
  26 11  H  1S         -0.00792  -0.01172  -0.00415   0.02962   0.03040
                          11        12        13        14        15
  11        1PY         0.96673
  12        1PZ        -0.00001   1.02244
  13 4   C  1S         -0.32391  -0.00005   1.24578
  14        1PX         0.25502   0.00001   0.03443   0.92988
  15        1PY        -0.31310  -0.00004  -0.02695  -0.00958   0.93407
  16        1PZ        -0.00008   0.98319  -0.00001   0.00000   0.00001
  17 5   H  1S         -0.05920  -0.00001  -0.04279   0.05346   0.08823
  18 6   H  1S          0.03851   0.00000   0.07849  -0.06170  -0.03271
  19 7   H  1S          0.76176   0.00005  -0.03645   0.03540  -0.09029
  20 8   C  1S          0.01547   0.00001   0.24769   0.39335  -0.04810
  21        1PX        -0.04310  -0.00001  -0.52573  -0.66011   0.10601
  22        1PY         0.00940   0.00000   0.05401   0.10095   0.10996
  23        1PZ         0.00000  -0.05069  -0.00002  -0.00003   0.00000
  24 9   H  1S         -0.02518   0.12245  -0.02255  -0.04121  -0.00838
  25 10  H  1S          0.02055   0.00003  -0.02758  -0.03436   0.03140
  26 11  H  1S         -0.02514  -0.12250  -0.02255  -0.04122  -0.00837
                          16        17        18        19        20
  16        1PZ         0.99483
  17 5   H  1S          0.00000   0.84435
  18 6   H  1S         -0.00001   0.01266   0.84438
  19 7   H  1S         -0.00000  -0.04623   0.02268   0.84463
  20 8   C  1S          0.00001   0.00748  -0.02208   0.00097   1.19544
  21        1PX        -0.00003  -0.01939   0.04056  -0.01030   0.06150
  22        1PY         0.00000   0.00046  -0.00455  -0.00207  -0.00473
  23        1PZ         0.17595  -0.00000   0.00000   0.00000   0.00001
  24 9   H  1S         -0.03341   0.00465   0.00394  -0.00542   0.49238
  25 10  H  1S         -0.00001  -0.01415   0.01272   0.01380   0.49666
  26 11  H  1S          0.03342   0.00464   0.00394  -0.00541   0.49238
                          21        22        23        24        25
  21        1PX         0.90637
  22        1PY         0.00941   1.02440
  23        1PZ        -0.00001   0.00000   1.02543
  24 9   H  1S          0.22431  -0.43726  -0.69459   0.91344
  25 10  H  1S          0.36792   0.76852  -0.00019  -0.04938   0.91718
  26 11  H  1S          0.22430  -0.43692   0.69480  -0.04342  -0.04938
                          26
  26 11  H  1S          0.91344
    Full Mulliken population analysis:
                           1         2         3         4         5
   1 1   C  1S          1.26189
   2        1PX         0.00000   0.91995
   3        1PY         0.00000   0.00000   0.96873
   4        1PZ         0.00000   0.00000   0.00000   1.00433
   5 2   C  1S          0.00000   0.00000   0.00000   0.00000   1.25830
   6        1PX         0.00000   0.00000   0.00000   0.00000   0.00000
   7        1PY         0.00000   0.00000   0.00000   0.00000   0.00000
   8        1PZ         0.00000   0.00000   0.00000   0.00000   0.00000
   9 3   C  1S          0.00000   0.00000   0.00000   0.00000   0.00000
  10        1PX         0.00000   0.00000   0.00000   0.00000   0.00000
  11        1PY         0.00000   0.00000   0.00000   0.00000   0.00000
  12        1PZ         0.00000   0.00000   0.00000   0.00000   0.00000
  13 4   C  1S          0.00000   0.00000   0.00000   0.00000   0.00000
  14        1PX         0.00000   0.00000   0.00000   0.00000   0.00000
  15        1PY         0.00000   0.00000   0.00000   0.00000   0.00000
  16        1PZ         0.00000   0.00000   0.00000   0.00000   0.00000
  17 5   H  1S          0.00000   0.00000   0.00000   0.00000   0.00000
  18 6   H  1S          0.00000   0.00000   0.00000   0.00000   0.00000
  19 7   H  1S          0.00000   0.00000   0.00000   0.00000   0.00000
  20 8   C  1S          0.00000   0.00000   0.00000   0.00000   0.00000
  21        1PX         0.00000   0.00000   0.00000   0.00000   0.00000
  22        1PY         0.00000   0.00000   0.00000   0.00000   0.00000
  23        1PZ         0.00000   0.00000   0.00000   0.00000   0.00000
  24 9   H  1S          0.00000   0.00000   0.00000   0.00000   0.00000
  25 10  H  1S          0.00000   0.00000   0.00000   0.00000   0.00000
  26 11  H  1S          0.00000   0.00000   0.00000   0.00000   0.00000
                           6         7         8         9        10
   6        1PX         0.96593
   7        1PY         0.00000   0.92998
   8        1PZ         0.00000   0.00000   0.99611
   9 3   C  1S          0.00000   0.00000   0.00000   1.25791
  10        1PX         0.00000   0.00000   0.00000   0.00000   0.91409
  11        1PY         0.00000   0.00000   0.00000   0.00000   0.00000
  12        1PZ         0.00000   0.00000   0.00000   0.00000   0.00000
  13 4   C  1S          0.00000   0.00000   0.00000   0.00000   0.00000
  14        1PX         0.00000   0.00000   0.00000   0.00000   0.00000
  15        1PY         0.00000   0.00000   0.00000   0.00000   0.00000
  16        1PZ         0.00000   0.00000   0.00000   0.00000   0.00000
  17 5   H  1S          0.00000   0.00000   0.00000   0.00000   0.00000
  18 6   H  1S          0.00000   0.00000   0.00000   0.00000   0.00000
  19 7   H  1S          0.00000   0.00000   0.00000   0.00000   0.00000
  20 8   C  1S          0.00000   0.00000   0.00000   0.00000   0.00000
  21        1PX         0.00000   0.00000   0.00000   0.00000   0.00000
  22        1PY         0.00000   0.00000   0.00000   0.00000   0.00000
  23        1PZ         0.00000   0.00000   0.00000   0.00000   0.00000
  24 9   H  1S          0.00000   0.00000   0.00000   0.00000   0.00000
  25 10  H  1S          0.00000   0.00000   0.00000   0.00000   0.00000
  26 11  H  1S          0.00000   0.00000   0.00000   0.00000   0.00000
                          11        12        13        14        15
  11        1PY         0.96673
  12        1PZ         0.00000   1.02244
  13 4   C  1S          0.00000   0.00000   1.24578
  14        1PX         0.00000   0.00000   0.00000   0.92988
  15        1PY         0.00000   0.00000   0.00000   0.00000   0.93407
  16        1PZ         0.00000   0.00000   0.00000   0.00000   0.00000
  17 5   H  1S          0.00000   0.00000   0.00000   0.00000   0.00000
  18 6   H  1S          0.00000   0.00000   0.00000   0.00000   0.00000
  19 7   H  1S          0.00000   0.00000   0.00000   0.00000   0.00000
  20 8   C  1S          0.00000   0.00000   0.00000   0.00000   0.00000
  21        1PX         0.00000   0.00000   0.00000   0.00000   0.00000
  22        1PY         0.00000   0.00000   0.00000   0.00000   0.00000
  23        1PZ         0.00000   0.00000   0.00000   0.00000   0.00000
  24 9   H  1S          0.00000   0.00000   0.00000   0.00000   0.00000
  25 10  H  1S          0.00000   0.00000   0.00000   0.00000   0.00000
  26 11  H  1S          0.00000   0.00000   0.00000   0.00000   0.00000
                          16        17        18        19        20
  16        1PZ         0.99483
  17 5   H  1S          0.00000   0.84435
  18 6   H  1S          0.00000   0.00000   0.84438
  19 7   H  1S          0.00000   0.00000   0.00000   0.84463
  20 8   C  1S          0.00000   0.00000   0.00000   0.00000   1.19544
  21        1PX         0.00000   0.00000   0.00000   0.00000   0.00000
  22        1PY         0.00000   0.00000   0.00000   0.00000   0.00000
  23        1PZ         0.00000   0.00000   0.00000   0.00000   0.00000
  24 9   H  1S          0.00000   0.00000   0.00000   0.00000   0.00000
  25 10  H  1S          0.00000   0.00000   0.00000   0.00000   0.00000
  26 11  H  1S          0.00000   0.00000   0.00000   0.00000   0.00000
                          21        22        23        24        25
  21        1PX         0.90637
  22        1PY         0.00000   1.02440
  23        1PZ         0.00000   0.00000   1.02543
  24 9   H  1S          0.00000   0.00000   0.00000   0.91344
  25 10  H  1S          0.00000   0.00000   0.00000   0.00000   0.91718
  26 11  H  1S          0.00000   0.00000   0.00000   0.00000   0.00000
                          26
  26 11  H  1S          0.91344
     Gross orbital populations:
                           1
   1 1   C  1S          1.26189
   2        1PX         0.91995
   3        1PY         0.96873
   4        1PZ         1.00433
   5 2   C  1S          1.25830
   6        1PX         0.96593
   7        1PY         0.92998
   8        1PZ         0.99611
   9 3   C  1S          1.25791
  10        1PX         0.91409
  11        1PY         0.96673
  12        1PZ         1.02244
  13 4   C  1S          1.24578
  14        1PX         0.92988
  15        1PY         0.93407
  16        1PZ         0.99483
  17 5   H  1S          0.84435
  18 6   H  1S          0.84438
  19 7   H  1S          0.84463
  20 8   C  1S          1.19544
  21        1PX         0.90637
  22        1PY         1.02440
  23        1PZ         1.02543
  24 9   H  1S          0.91344
  25 10  H  1S          0.91718
  26 11  H  1S          0.91344
          Condensed to atoms (all electrons):
               1          2          3          4          5          6
     1  C    4.154897   0.000000   0.000000   0.000000   0.000000   0.000000
     2  C    0.000000   4.150324   0.000000   0.000000   0.000000   0.000000
     3  C    0.000000   0.000000   4.161171   0.000000   0.000000   0.000000
     4  C    0.000000   0.000000   0.000000   4.104554   0.000000   0.000000
     5  H    0.000000   0.000000   0.000000   0.000000   0.844351   0.000000
     6  H    0.000000   0.000000   0.000000   0.000000   0.000000   0.844383
     7  H    0.000000   0.000000   0.000000   0.000000   0.000000   0.000000
     8  C    0.000000   0.000000   0.000000   0.000000   0.000000   0.000000
     9  H    0.000000   0.000000   0.000000   0.000000   0.000000   0.000000
    10  H    0.000000   0.000000   0.000000   0.000000   0.000000   0.000000
    11  H    0.000000   0.000000   0.000000   0.000000   0.000000   0.000000
               7          8          9         10         11
     1  C    0.000000   0.000000   0.000000   0.000000   0.000000
     2  C    0.000000   0.000000   0.000000   0.000000   0.000000
     3  C    0.000000   0.000000   0.000000   0.000000   0.000000
     4  C    0.000000   0.000000   0.000000   0.000000   0.000000
     5  H    0.000000   0.000000   0.000000   0.000000   0.000000
     6  H    0.000000   0.000000   0.000000   0.000000   0.000000
     7  H    0.844627   0.000000   0.000000   0.000000   0.000000
     8  C    0.000000   4.151639   0.000000   0.000000   0.000000
     9  H    0.000000   0.000000   0.913442   0.000000   0.000000
    10  H    0.000000   0.000000   0.000000   0.917176   0.000000
    11  H    0.000000   0.000000   0.000000   0.000000   0.913438
 Mulliken charges:
               1
     1  C   -0.154897
     2  C   -0.150324
     3  C   -0.161171
     4  C   -0.104554
     5  H    0.155649
     6  H    0.155617
     7  H    0.155373
     8  C   -0.151639
     9  H    0.086558
    10  H    0.082824
    11  H    0.086562
 Sum of Mulliken charges =   0.00000
 Mulliken charges with hydrogens summed into heavy atoms:
               1
     1  C    0.000752
     2  C    0.005294
     3  C   -0.005798
     4  C   -0.104554
     8  C    0.104306
 Charge=              0.0000 electrons
 Dipole moment (field-independent basis, Debye):
    X=              0.3105    Y=             -0.1371    Z=              0.0004  Tot=              0.3394
 N-N= 9.302404425041D+01 E-N=-1.276042664313D+02  KE=-4.045235298043D+01
 Orbital energies and kinetic energies (alpha):
                                 1                 2
   1         O                -1.426366         -2.448093
   2         O                -1.149748         -2.022270
   3         O                -0.967619         -1.880810
   4         O                -0.818002         -1.702931
   5         O                -0.661915         -1.396329
   6         O                -0.600657         -1.405237
   7         O                -0.546423         -1.369715
   8         O                -0.529190         -1.260267
   9         O                -0.490253         -1.300996
  10         O                -0.465625         -1.277308
  11         O                -0.438929         -1.446636
  12         O                -0.408693         -1.282873
  13         O                -0.319864         -1.432711
  14         V                 0.015703         -1.386254
  15         V                 0.080265         -1.324480
  16         V                 0.105631         -1.312261
  17         V                 0.128371         -1.119151
  18         V                 0.159984         -0.974853
  19         V                 0.169936         -1.027322
  20         V                 0.170199         -0.802713
  21         V                 0.178456         -0.742013
  22         V                 0.179842         -0.944643
  23         V                 0.184521         -0.741391
  24         V                 0.188005         -0.995931
  25         V                 0.200101         -1.138933
  26         V                 0.235683         -1.173783
 Total kinetic energy from orbitals=-4.045235298043D+01
 Calling FoFJK, ICntrl=      2127 FMM=F ISym2X=0 I1Cent= 0 IOpClX= 0 NMat=1 NMatS=1 NMatT=0.
 ***** Axes restored to original set *****
 -------------------------------------------------------------------
 Center     Atomic                   Forces (Hartrees/Bohr)
 Number     Number              X              Y              Z
 -------------------------------------------------------------------
      1        6          -0.044147528    0.002794502   -0.000003890
      2        6          -0.006182216   -0.043847695    0.000012721
      3        6           0.042724734   -0.002551096   -0.000004382
      4        6          -0.028022951    0.051180912    0.000011204
      5        1          -0.006609689    0.009181019   -0.000003026
      6        1           0.008228592   -0.008311348   -0.000004783
      7        1           0.006512507   -0.009417013   -0.000001884
      8        6           0.046434762    0.000030507   -0.000009929
      9        1          -0.004722352    0.012031091   -0.020316413
     10        1          -0.009495344   -0.023112915   -0.000004689
     11        1          -0.004720516    0.012022036    0.020325073
 -------------------------------------------------------------------
 Cartesian Forces:  Max     0.051180912 RMS     0.020218862

 GradGradGradGradGradGradGradGradGradGradGradGradGradGradGradGradGradGrad
 Berny optimization.
 FormGI is forming the generalized inverse of G from B-inverse, IUseBI=4.
 Internal  Forces:  Max     0.041629067 RMS     0.012939111
 Search for a local minimum.
 Step number   1 out of a maximum of   61
 All quantities printed in internal units (Hartrees-Bohrs-Radians)
 Mixed Optimization -- RFO/linear search
 Second derivative matrix not updated -- first step.
 ITU=  0
     Eigenvalues ---    0.00963   0.00969   0.01258   0.01479   0.01744
     Eigenvalues ---    0.02307   0.07380   0.07461   0.16000   0.16000
     Eigenvalues ---    0.16000   0.16000   0.16000   0.16000   0.22494
     Eigenvalues ---    0.23285   0.23917   0.25000   0.33994   0.35207
     Eigenvalues ---    0.35208   0.35537   0.37721   0.37725   0.37727
     Eigenvalues ---    0.51580   0.61004
 RFO step:  Lambda=-2.26200202D-02 EMin= 9.63316316D-03
 Linear search not attempted -- first point.
 Iteration  1 RMS(Cart)=  0.05732629 RMS(Int)=  0.00068315
 Iteration  2 RMS(Cart)=  0.00080897 RMS(Int)=  0.00003143
 Iteration  3 RMS(Cart)=  0.00000029 RMS(Int)=  0.00003143
 Variable       Old X    -DE/DX   Delta X   Delta X   Delta X     New X
                                 (Linear)    (Quad)   (Total)
    R1        2.50012   0.04163   0.00000   0.06576   0.06575   2.56588
    R2        3.04056  -0.03182   0.00000  -0.12450  -0.12452   2.91603
    R3        2.01473   0.00857   0.00000   0.02144   0.02144   2.03617
    R4        3.01679  -0.03133   0.00000  -0.11956  -0.11954   2.89725
    R5        2.01467   0.00901   0.00000   0.02254   0.02254   2.03721
    R6        2.50301   0.04047   0.00000   0.06399   0.06400   2.56701
    R7        2.01464   0.00881   0.00000   0.02204   0.02204   2.03669
    R8        2.80639  -0.02719   0.00000  -0.07499  -0.07499   2.73141
    R9        2.05340   0.02395   0.00000   0.06391   0.06391   2.11731
   R10        2.04813   0.02488   0.00000   0.06583   0.06583   2.11395
   R11        2.05339   0.02395   0.00000   0.06392   0.06392   2.11731
    A1        1.56531  -0.00037   0.00000  -0.00055  -0.00057   1.56474
    A2        2.36713   0.00762   0.00000   0.04100   0.04101   2.40814
    A3        2.35074  -0.00725   0.00000  -0.04045  -0.04044   2.31031
    A4        1.57724  -0.00000   0.00000   0.00001   0.00002   1.57726
    A5        2.35772   0.00751   0.00000   0.04111   0.04110   2.39882
    A6        2.34822  -0.00751   0.00000  -0.04111  -0.04112   2.30710
    A7        1.57385  -0.00035   0.00000  -0.00223  -0.00220   1.57165
    A8        2.35184  -0.00719   0.00000  -0.03919  -0.03921   2.31263
    A9        2.35749   0.00754   0.00000   0.04142   0.04141   2.39890
   A10        1.56678   0.00072   0.00000   0.00277   0.00276   1.56954
   A11        2.32982  -0.00619   0.00000  -0.02278  -0.02278   2.30704
   A12        2.38659   0.00547   0.00000   0.02002   0.02002   2.40661
   A13        1.92981  -0.00239   0.00000  -0.01270  -0.01278   1.91703
   A14        1.93336  -0.00230   0.00000  -0.01337  -0.01347   1.91989
   A15        1.92984  -0.00240   0.00000  -0.01274  -0.01282   1.91702
   A16        1.89607   0.00227   0.00000   0.01171   0.01161   1.90768
   A17        1.87725   0.00285   0.00000   0.01708   0.01702   1.89427
   A18        1.89609   0.00227   0.00000   0.01170   0.01160   1.90769
    D1       -0.00005   0.00000   0.00000   0.00006   0.00006   0.00001
    D2       -3.14143  -0.00000   0.00000  -0.00006  -0.00006  -3.14149
    D3        3.14144   0.00000   0.00000   0.00008   0.00008   3.14153
    D4        0.00007  -0.00000   0.00000  -0.00004  -0.00004   0.00002
    D5        0.00006  -0.00000   0.00000  -0.00008  -0.00007  -0.00002
    D6        3.14152  -0.00000   0.00000  -0.00001  -0.00001   3.14151
    D7       -3.14144  -0.00000   0.00000  -0.00010  -0.00010  -3.14154
    D8        0.00003  -0.00000   0.00000  -0.00004  -0.00004  -0.00001
    D9        0.00006  -0.00000   0.00000  -0.00008  -0.00007  -0.00002
   D10       -3.14147  -0.00000   0.00000  -0.00008  -0.00008  -3.14155
   D11        3.14144   0.00000   0.00000   0.00006   0.00006   3.14150
   D12       -0.00009   0.00000   0.00000   0.00005   0.00005  -0.00003
   D13       -0.00005   0.00000   0.00000   0.00006   0.00006   0.00001
   D14       -3.14150  -0.00000   0.00000  -0.00000  -0.00000  -3.14150
   D15        3.14148   0.00000   0.00000   0.00006   0.00006   3.14154
   D16        0.00002  -0.00000   0.00000  -0.00000  -0.00000   0.00002
   D17        1.03844   0.00024   0.00000   0.00247   0.00245   1.04089
   D18        3.14142  -0.00000   0.00000  -0.00003  -0.00003   3.14139
   D19       -1.03874  -0.00025   0.00000  -0.00256  -0.00255  -1.04129
   D20       -2.10335   0.00025   0.00000   0.00256   0.00254  -2.10080
   D21       -0.00036   0.00000   0.00000   0.00006   0.00006  -0.00030
   D22        2.10266  -0.00024   0.00000  -0.00247  -0.00246   2.10020
         Item               Value     Threshold  Converged?
 Maximum Force            0.041629     0.000450     NO 
 RMS     Force            0.012939     0.000300     NO 
 Maximum Displacement     0.234234     0.001800     NO 
 RMS     Displacement     0.057456     0.001200     NO 
 Predicted change in Energy=-1.209912D-02
 GradGradGradGradGradGradGradGradGradGradGradGradGradGradGradGradGradGrad

                          Input orientation:                          
 ---------------------------------------------------------------------
 Center     Atomic      Atomic             Coordinates (Angstroms)
 Number     Number       Type             X           Y           Z
 ---------------------------------------------------------------------
      1          6           0        0.730577    0.966430   -0.000009
      2          6           0        1.604454   -0.072786    0.000033
      3          6           0        0.437428   -1.067086   -0.000006
      4          6           0       -0.444420   -0.033837   -0.000026
      5          1           0        0.767492    2.043292    0.000032
      6          1           0        2.673563   -0.211298    0.000141
      7          1           0        0.398435   -2.144148    0.000037
      8          6           0       -1.877751    0.152546    0.000020
      9          1           0       -2.186133    0.729890   -0.909347
     10          1           0       -2.392741   -0.840519   -0.000224
     11          1           0       -2.186127    0.729446    0.909668
 ---------------------------------------------------------------------
                    Distance matrix (angstroms):
                    1          2          3          4          5
     1  C    0.000000
     2  C    1.357804   0.000000
     3  C    2.054537   1.533161   0.000000
     4  C    1.543098   2.049244   1.358403   0.000000
     5  H    1.077494   2.275586   3.127841   2.404827   0.000000
     6  H    2.272056   1.078045   2.394300   3.123029   2.952335
     7  H    3.128260   2.396877   1.077767   2.272403   4.203671
     8  C    2.732359   3.489488   2.616783   1.445399   3.251496
     9  H    3.064318   3.979926   3.307430   2.108011   3.357960
    10  H    3.608349   4.070256   2.839223   2.108718   4.278251
    11  H    3.064448   3.979889   3.307276   2.108006   3.358198
                    6          7          8          9         10
     6  H    0.000000
     7  H    2.985317   0.000000
     8  C    4.565835   3.233547   0.000000
     9  H    5.032857   3.970776   1.120435   0.000000
    10  H    5.105228   3.080602   1.118657   1.826302   0.000000
    11  H    5.032776   3.970508   1.120433   1.819015   1.826303
                   11
    11  H    0.000000
 Stoichiometry    C5H6
 Framework group  C1[X(C5H6)]
 Deg. of freedom    27
 Full point group                 C1      NOp   1
 Largest Abelian subgroup         C1      NOp   1
 Largest concise Abelian subgroup C1      NOp   1
                         Standard orientation:                         
 ---------------------------------------------------------------------
 Center     Atomic      Atomic             Coordinates (Angstroms)
 Number     Number       Type             X           Y           Z
 ---------------------------------------------------------------------
      1          6           0       -0.691991   -0.999584   -0.000019
      2          6           0       -1.612286   -0.001241    0.000023
      3          6           0       -0.491751    1.045172   -0.000016
      4          6           0        0.436236    0.053154   -0.000037
      5          1           0       -0.679827   -2.077009    0.000022
      6          1           0       -2.686594    0.088441    0.000130
      7          1           0       -0.501847    2.122893    0.000026
      8          6           0        1.876568   -0.067762    0.000009
      9          1           0        2.210922   -0.630464   -0.909358
     10          1           0        2.345799    0.947725   -0.000235
     11          1           0        2.210896   -0.630020    0.909658
 ---------------------------------------------------------------------
 Rotational constants (GHZ):          13.4929686           4.6229004           3.5232524
 Standard basis: VSTO-6G (5D, 7F)
 There are    26 symmetry adapted cartesian basis functions of A   symmetry.
 There are    26 symmetry adapted basis functions of A   symmetry.
    26 basis functions,   156 primitive gaussians,    26 cartesian basis functions
    13 alpha electrons       13 beta electrons
       nuclear repulsion energy        93.3698715321 Hartrees.
 Integral buffers will be    131072 words long.
 Regular integral format.
 Two-electron integral symmetry is turned off.
 Do NDO integrals.
 One-electron integrals computed using PRISM.
 NBasis=    26 RedAO= F EigKep=  0.00D+00  NBF=    26
 NBsUse=    26 1.00D-04 EigRej=  0.00D+00 NBFU=    26
 Initial guess from the checkpoint file:  "meth_cyclobutadiene_sp.chk"
 B after Tr=     0.000000    0.000000   -0.000000
         Rot=    0.999756    0.000000   -0.000002   -0.022069 Ang=   2.53 deg.
 Keep J ints in memory in canonical form, NReq=860916.
 Overlap will be assumed to be unity.
 Requested convergence on RMS density matrix=1.00D-08 within 128 cycles.
 Requested convergence on MAX density matrix=1.00D-06.
 Requested convergence on             energy=1.00D-06.
 No special actions if energy rises.
 SCF Done:  E(RAM1) =  0.161371018569     A.U. after   13 cycles
            NFock= 12  Conv=0.32D-08     -V/T= 1.0040
 Calling FoFJK, ICntrl=      2127 FMM=F ISym2X=0 I1Cent= 0 IOpClX= 0 NMat=1 NMatS=1 NMatT=0.
 ***** Axes restored to original set *****
 -------------------------------------------------------------------
 Center     Atomic                   Forces (Hartrees/Bohr)
 Number     Number              X              Y              Z
 -------------------------------------------------------------------
      1        6           0.005372088   -0.002276944    0.000003864
      2        6           0.000000735    0.005512899    0.000001529
      3        6          -0.002096898   -0.000890273    0.000002622
      4        6           0.002229937   -0.002502282    0.000000723
      5        1          -0.001403447   -0.000551727   -0.000002125
      6        1          -0.000625741   -0.001209646   -0.000002740
      7        1           0.001320409    0.000567402   -0.000001705
      8        6           0.000522596    0.000570321   -0.000004536
      9        1          -0.001547787   -0.000140260    0.000504461
     10        1          -0.002223900    0.001059794    0.000000781
     11        1          -0.001547991   -0.000139281   -0.000502875
 -------------------------------------------------------------------
 Cartesian Forces:  Max     0.005512899 RMS     0.001732571

 GradGradGradGradGradGradGradGradGradGradGradGradGradGradGradGradGradGrad
 Berny optimization.
 Using GEDIIS/GDIIS optimizer.
 FormGI is forming the generalized inverse of G from B-inverse, IUseBI=4.
 Internal  Forces:  Max     0.004931188 RMS     0.001345480
 Search for a local minimum.
 Step number   2 out of a maximum of   61
 All quantities printed in internal units (Hartrees-Bohrs-Radians)
 Mixed Optimization -- RFO/linear search
 Update second derivatives using D2CorX and points    1    2
 DE= -1.11D-02 DEPred=-1.21D-02 R= 9.16D-01
 TightC=F SS=  1.41D+00  RLast= 2.64D-01 DXNew= 5.0454D-01 7.9242D-01
 Trust test= 9.16D-01 RLast= 2.64D-01 DXMaxT set to 5.05D-01
 ITU=  1  0
 Use linear search instead of GDIIS.
     Eigenvalues ---    0.00963   0.01037   0.01337   0.01553   0.01862
     Eigenvalues ---    0.02394   0.07536   0.07595   0.15525   0.16000
     Eigenvalues ---    0.16000   0.16000   0.16000   0.16312   0.22477
     Eigenvalues ---    0.23544   0.24696   0.25204   0.34386   0.35207
     Eigenvalues ---    0.35424   0.36382   0.37723   0.37726   0.38070
     Eigenvalues ---    0.51005   0.62197
 RFO step:  Lambda=-3.35498201D-04 EMin= 9.63316316D-03
 Quartic linear search produced a step of -0.03468.
 Iteration  1 RMS(Cart)=  0.01136717 RMS(Int)=  0.00009190
 Iteration  2 RMS(Cart)=  0.00008737 RMS(Int)=  0.00002534
 Iteration  3 RMS(Cart)=  0.00000000 RMS(Int)=  0.00002534
 Variable       Old X    -DE/DX   Delta X   Delta X   Delta X     New X
                                 (Linear)    (Quad)   (Total)
    R1        2.56588  -0.00368  -0.00228  -0.00296  -0.00524   2.56064
    R2        2.91603   0.00181   0.00432   0.00062   0.00494   2.92098
    R3        2.03617  -0.00060  -0.00074  -0.00041  -0.00116   2.03501
    R4        2.89725   0.00169   0.00415   0.00041   0.00456   2.90181
    R5        2.03721  -0.00047  -0.00078  -0.00001  -0.00079   2.03642
    R6        2.56701  -0.00026  -0.00222   0.00334   0.00113   2.56814
    R7        2.03669  -0.00061  -0.00076  -0.00042  -0.00118   2.03550
    R8        2.73141   0.00493   0.00260   0.01004   0.01264   2.74405
    R9        2.11731  -0.00006  -0.00222   0.00320   0.00099   2.11830
   R10        2.11395   0.00008  -0.00228   0.00368   0.00140   2.11535
   R11        2.11731  -0.00005  -0.00222   0.00321   0.00099   2.11830
    A1        1.56474   0.00113   0.00002   0.00334   0.00336   1.56810
    A2        2.40814   0.00084  -0.00142   0.00913   0.00771   2.41585
    A3        2.31031  -0.00197   0.00140  -0.01247  -0.01107   2.29923
    A4        1.57726   0.00004  -0.00000  -0.00119  -0.00119   1.57607
    A5        2.39882   0.00128  -0.00143   0.01079   0.00937   2.40819
    A6        2.30710  -0.00132   0.00143  -0.00960  -0.00817   2.29893
    A7        1.57165   0.00001   0.00008   0.00127   0.00135   1.57300
    A8        2.31263  -0.00133   0.00136  -0.01090  -0.00954   2.30309
    A9        2.39890   0.00132  -0.00144   0.00963   0.00819   2.40709
   A10        1.56954  -0.00119  -0.00010  -0.00343  -0.00352   1.56602
   A11        2.30704  -0.00122   0.00079  -0.00645  -0.00566   2.30138
   A12        2.40661   0.00241  -0.00069   0.00988   0.00918   2.41579
   A13        1.91703   0.00148   0.00044   0.00791   0.00829   1.92532
   A14        1.91989   0.00299   0.00047   0.01783   0.01820   1.93810
   A15        1.91702   0.00148   0.00044   0.00790   0.00829   1.92531
   A16        1.90768  -0.00217  -0.00040  -0.01182  -0.01231   1.89537
   A17        1.89427  -0.00172  -0.00059  -0.01057  -0.01118   1.88309
   A18        1.90769  -0.00217  -0.00040  -0.01183  -0.01232   1.89537
    D1        0.00001  -0.00000  -0.00000  -0.00004  -0.00005  -0.00003
    D2       -3.14149  -0.00000   0.00000  -0.00012  -0.00012   3.14157
    D3        3.14153   0.00000  -0.00000   0.00008   0.00008  -3.14158
    D4        0.00002   0.00000   0.00000   0.00001   0.00001   0.00003
    D5       -0.00002   0.00000   0.00000   0.00005   0.00005   0.00004
    D6        3.14151   0.00000   0.00000   0.00009   0.00009  -3.14159
    D7       -3.14154  -0.00000   0.00000  -0.00007  -0.00006   3.14159
    D8       -0.00001  -0.00000   0.00000  -0.00003  -0.00003  -0.00004
    D9       -0.00002   0.00000   0.00000   0.00005   0.00005   0.00004
   D10       -3.14155  -0.00000   0.00000  -0.00005  -0.00004  -3.14159
   D11        3.14150   0.00000  -0.00000   0.00012   0.00012  -3.14157
   D12       -0.00003   0.00000  -0.00000   0.00003   0.00002  -0.00001
   D13        0.00001  -0.00000  -0.00000  -0.00004  -0.00005  -0.00003
   D14       -3.14150  -0.00000   0.00000  -0.00009  -0.00009  -3.14159
   D15        3.14154   0.00000  -0.00000   0.00006   0.00006  -3.14159
   D16        0.00002   0.00000   0.00000   0.00002   0.00002   0.00004
   D17        1.04089  -0.00014  -0.00009  -0.00164  -0.00175   1.03914
   D18        3.14139   0.00000   0.00000  -0.00001  -0.00001   3.14138
   D19       -1.04129   0.00014   0.00009   0.00160   0.00171  -1.03957
   D20       -2.10080  -0.00014  -0.00009  -0.00159  -0.00170  -2.10250
   D21       -0.00030   0.00000  -0.00000   0.00004   0.00004  -0.00026
   D22        2.10020   0.00014   0.00009   0.00166   0.00177   2.10197
         Item               Value     Threshold  Converged?
 Maximum Force            0.004931     0.000450     NO 
 RMS     Force            0.001345     0.000300     NO 
 Maximum Displacement     0.047670     0.001800     NO 
 RMS     Displacement     0.011378     0.001200     NO 
 Predicted change in Energy=-1.825773D-04
 GradGradGradGradGradGradGradGradGradGradGradGradGradGradGradGradGradGrad

                          Input orientation:                          
 ---------------------------------------------------------------------
 Center     Atomic      Atomic             Coordinates (Angstroms)
 Number     Number       Type             X           Y           Z
 ---------------------------------------------------------------------
      1          6           0        0.735229    0.962598    0.000055
      2          6           0        1.611713   -0.070789    0.000036
      3          6           0        0.445892   -1.070211    0.000050
      4          6           0       -0.440880   -0.040398    0.000019
      5          1           0        0.759258    2.039212    0.000049
      6          1           0        2.679683   -0.214721    0.000027
      7          1           0        0.420475   -2.147051    0.000047
      8          6           0       -1.879933    0.153733    0.000008
      9          1           0       -2.194316    0.733934   -0.906123
     10          1           0       -2.417967   -0.827881   -0.000242
     11          1           0       -2.194376    0.733505    0.906393
 ---------------------------------------------------------------------
                    Distance matrix (angstroms):
                    1          2          3          4          5
     1  C    0.000000
     2  C    1.355033   0.000000
     3  C    2.053296   1.535572   0.000000
     4  C    1.545714   2.052818   1.358999   0.000000
     5  H    1.076882   2.275694   3.125173   2.401063   0.000000
     6  H    2.273099   1.077625   2.392004   3.125428   2.961122
     7  H    3.125538   2.393724   1.077141   2.275944   4.199949
     8  C    2.737396   3.498857   2.628212   1.452089   3.243510
     9  H    3.075009   3.994316   3.323671   2.120194   3.353877
    10  H    3.626080   4.100184   2.874093   2.128146   4.279600
    11  H    3.075145   3.994332   3.323532   2.120186   3.354144
                    6          7          8          9         10
     6  H    0.000000
     7  H    2.972864   0.000000
     8  C    4.574479   3.253534   0.000000
     9  H    5.047467   3.994791   1.120957   0.000000
    10  H    5.134393   3.130009   1.119395   1.819315   0.000000
    11  H    5.047482   3.994560   1.120957   1.812516   1.819315
                   11
    11  H    0.000000
 Stoichiometry    C5H6
 Framework group  C1[X(C5H6)]
 Deg. of freedom    27
 Full point group                 C1      NOp   1
 Largest Abelian subgroup         C1      NOp   1
 Largest concise Abelian subgroup C1      NOp   1
                         Standard orientation:                         
 ---------------------------------------------------------------------
 Center     Atomic      Atomic             Coordinates (Angstroms)
 Number     Number       Type             X           Y           Z
 ---------------------------------------------------------------------
      1          6           0       -0.690707   -0.999361    0.000023
      2          6           0       -1.616344   -0.009760    0.000003
      3          6           0       -0.500436    1.045101    0.000018
      4          6           0        0.435303    0.059570   -0.000013
      5          1           0       -0.662421   -2.075871    0.000017
      6          1           0       -2.690044    0.082135   -0.000005
      7          1           0       -0.527346    2.121905    0.000015
      8          6           0        1.882086   -0.064443   -0.000024
      9          1           0        2.224276   -0.628692   -0.906155
     10          1           0        2.371812    0.942142   -0.000274
     11          1           0        2.224315   -0.628260    0.906361
 ---------------------------------------------------------------------
 Rotational constants (GHZ):          13.5076364           4.5922825           3.5058507
 Standard basis: VSTO-6G (5D, 7F)
 There are    26 symmetry adapted cartesian basis functions of A   symmetry.
 There are    26 symmetry adapted basis functions of A   symmetry.
    26 basis functions,   156 primitive gaussians,    26 cartesian basis functions
    13 alpha electrons       13 beta electrons
       nuclear repulsion energy        93.2801383525 Hartrees.
 Integral buffers will be    131072 words long.
 Regular integral format.
 Two-electron integral symmetry is turned off.
 Do NDO integrals.
 One-electron integrals computed using PRISM.
 NBasis=    26 RedAO= F EigKep=  0.00D+00  NBF=    26
 NBsUse=    26 1.00D-04 EigRej=  0.00D+00 NBFU=    26
 Initial guess from the checkpoint file:  "meth_cyclobutadiene_sp.chk"
 B after Tr=     0.000000   -0.000000    0.000000
         Rot=    0.999999    0.000000   -0.000003   -0.001660 Ang=   0.19 deg.
 Keep J ints in memory in canonical form, NReq=860916.
 Overlap will be assumed to be unity.
 Requested convergence on RMS density matrix=1.00D-08 within 128 cycles.
 Requested convergence on MAX density matrix=1.00D-06.
 Requested convergence on             energy=1.00D-06.
 No special actions if energy rises.
 SCF Done:  E(RAM1) =  0.161180974045     A.U. after   11 cycles
            NFock= 10  Conv=0.95D-08     -V/T= 1.0040
 Calling FoFJK, ICntrl=      2127 FMM=F ISym2X=0 I1Cent= 0 IOpClX= 0 NMat=1 NMatS=1 NMatT=0.
 ***** Axes restored to original set *****
 -------------------------------------------------------------------
 Center     Atomic                   Forces (Hartrees/Bohr)
 Number     Number              X              Y              Z
 -------------------------------------------------------------------
      1        6           0.001878987   -0.000500119   -0.000005446
      2        6          -0.000132098    0.002213396    0.000004223
      3        6          -0.002345724    0.000660722   -0.000005103
      4        6          -0.002686818   -0.002104450    0.000004915
      5        1          -0.000767955   -0.000019550    0.000000867
      6        1          -0.000294985   -0.000665831    0.000000083
      7        1           0.000623753    0.000183282    0.000000519
      8        6           0.003235748    0.000129542   -0.000000698
      9        1           0.000130351   -0.000254687    0.000237891
     10        1           0.000229066    0.000611850    0.000000336
     11        1           0.000129675   -0.000254155   -0.000237587
 -------------------------------------------------------------------
 Cartesian Forces:  Max     0.003235748 RMS     0.001087354

 GradGradGradGradGradGradGradGradGradGradGradGradGradGradGradGradGradGrad
 Berny optimization.
 Using GEDIIS/GDIIS optimizer.
 FormGI is forming the generalized inverse of G from B-inverse, IUseBI=4.
 Internal  Forces:  Max     0.003660313 RMS     0.000710155
 Search for a local minimum.
 Step number   3 out of a maximum of   61
 All quantities printed in internal units (Hartrees-Bohrs-Radians)
 Mixed Optimization -- En-DIIS/RFO-DIIS
 Update second derivatives using D2CorX and points    1    2    3
 DE= -1.90D-04 DEPred=-1.83D-04 R= 1.04D+00
 TightC=F SS=  1.41D+00  RLast= 4.23D-02 DXNew= 8.4853D-01 1.2686D-01
 Trust test= 1.04D+00 RLast= 4.23D-02 DXMaxT set to 5.05D-01
 ITU=  1  1  0
 Use linear search instead of GDIIS.
     Eigenvalues ---    0.00963   0.01053   0.01329   0.01567   0.01894
     Eigenvalues ---    0.02412   0.07374   0.07498   0.10321   0.16000
     Eigenvalues ---    0.16000   0.16000   0.16002   0.16969   0.22475
     Eigenvalues ---    0.23435   0.23958   0.24836   0.35207   0.35351
     Eigenvalues ---    0.35862   0.37717   0.37725   0.37788   0.46831
     Eigenvalues ---    0.55582   0.61883
 RFO step:  Lambda=-9.09857290D-05 EMin= 9.63316284D-03
 Quartic linear search produced a step of  0.05153.
 Iteration  1 RMS(Cart)=  0.00578808 RMS(Int)=  0.00002513
 Iteration  2 RMS(Cart)=  0.00002686 RMS(Int)=  0.00000301
 Iteration  3 RMS(Cart)=  0.00000000 RMS(Int)=  0.00000301
 Variable       Old X    -DE/DX   Delta X   Delta X   Delta X     New X
                                 (Linear)    (Quad)   (Total)
    R1        2.56064  -0.00140  -0.00027  -0.00319  -0.00346   2.55718
    R2        2.92098   0.00044   0.00025   0.00255   0.00280   2.92378
    R3        2.03501  -0.00004  -0.00006  -0.00026  -0.00032   2.03469
    R4        2.90181   0.00075   0.00023   0.00378   0.00402   2.90583
    R5        2.03642  -0.00020  -0.00004  -0.00065  -0.00069   2.03573
    R6        2.56814  -0.00182   0.00006  -0.00272  -0.00267   2.56547
    R7        2.03550  -0.00020  -0.00006  -0.00072  -0.00078   2.03472
    R8        2.74405  -0.00366   0.00065  -0.00899  -0.00834   2.73571
    R9        2.11830  -0.00036   0.00005  -0.00062  -0.00057   2.11773
   R10        2.11535  -0.00065   0.00007  -0.00137  -0.00129   2.11406
   R11        2.11830  -0.00036   0.00005  -0.00062  -0.00057   2.11774
    A1        1.56810  -0.00011   0.00017   0.00036   0.00054   1.56864
    A2        2.41585   0.00084   0.00040   0.00711   0.00750   2.42335
    A3        2.29923  -0.00072  -0.00057  -0.00747  -0.00804   2.29119
    A4        1.57607  -0.00003  -0.00006  -0.00021  -0.00027   1.57580
    A5        2.40819   0.00073   0.00048   0.00681   0.00729   2.41548
    A6        2.29893  -0.00070  -0.00042  -0.00660  -0.00702   2.29191
    A7        1.57300  -0.00008   0.00007  -0.00027  -0.00020   1.57280
    A8        2.30309  -0.00059  -0.00049  -0.00605  -0.00654   2.29655
    A9        2.40709   0.00067   0.00042   0.00632   0.00674   2.41383
   A10        1.56602   0.00023  -0.00018   0.00011  -0.00007   1.56594
   A11        2.30138  -0.00120  -0.00029  -0.00630  -0.00659   2.29478
   A12        2.41579   0.00097   0.00047   0.00619   0.00667   2.42246
   A13        1.92532  -0.00006   0.00043   0.00131   0.00173   1.92705
   A14        1.93810   0.00014   0.00094   0.00460   0.00553   1.94363
   A15        1.92531  -0.00006   0.00043   0.00131   0.00173   1.92704
   A16        1.89537  -0.00005  -0.00063  -0.00302  -0.00367   1.89170
   A17        1.88309   0.00010  -0.00058  -0.00147  -0.00205   1.88104
   A18        1.89537  -0.00006  -0.00063  -0.00303  -0.00367   1.89170
    D1       -0.00003   0.00000  -0.00000   0.00012   0.00012   0.00008
    D2        3.14157   0.00000  -0.00001   0.00003   0.00002  -3.14159
    D3       -3.14158  -0.00000   0.00000   0.00003   0.00004  -3.14154
    D4        0.00003  -0.00000   0.00000  -0.00006  -0.00006  -0.00003
    D5        0.00004  -0.00000   0.00000  -0.00013  -0.00013  -0.00009
    D6       -3.14159  -0.00000   0.00000  -0.00007  -0.00007   3.14153
    D7        3.14159  -0.00000  -0.00000  -0.00006  -0.00006   3.14153
    D8       -0.00004   0.00000  -0.00000   0.00001   0.00000  -0.00004
    D9        0.00004  -0.00000   0.00000  -0.00013  -0.00013  -0.00009
   D10       -3.14159  -0.00000  -0.00000  -0.00005  -0.00006   3.14154
   D11       -3.14157  -0.00000   0.00001  -0.00005  -0.00005   3.14157
   D12       -0.00001   0.00000   0.00000   0.00002   0.00002   0.00001
   D13       -0.00003   0.00000  -0.00000   0.00012   0.00011   0.00008
   D14       -3.14159   0.00000  -0.00000   0.00005   0.00004  -3.14155
   D15       -3.14159   0.00000   0.00000   0.00003   0.00003  -3.14155
   D16        0.00004  -0.00000   0.00000  -0.00004  -0.00004   0.00000
   D17        1.03914   0.00002  -0.00009  -0.00012  -0.00021   1.03893
   D18        3.14138  -0.00000  -0.00000  -0.00004  -0.00004   3.14135
   D19       -1.03957  -0.00002   0.00009   0.00005   0.00014  -1.03943
   D20       -2.10250   0.00002  -0.00009  -0.00003  -0.00012  -2.10262
   D21       -0.00026   0.00000   0.00000   0.00006   0.00006  -0.00020
   D22        2.10197  -0.00002   0.00009   0.00014   0.00024   2.10221
         Item               Value     Threshold  Converged?
 Maximum Force            0.003660     0.000450     NO 
 RMS     Force            0.000710     0.000300     NO 
 Maximum Displacement     0.024384     0.001800     NO 
 RMS     Displacement     0.005789     0.001200     NO 
 Predicted change in Energy=-4.587606D-05
 GradGradGradGradGradGradGradGradGradGradGradGradGradGradGradGradGradGrad

                          Input orientation:                          
 ---------------------------------------------------------------------
 Center     Atomic      Atomic             Coordinates (Angstroms)
 Number     Number       Type             X           Y           Z
 ---------------------------------------------------------------------
      1          6           0        0.733165    0.960995    0.000002
      2          6           0        1.611104   -0.068751    0.000097
      3          6           0        0.445965   -1.072229   -0.000007
      4          6           0       -0.442038   -0.045342    0.000024
      5          1           0        0.746354    2.037626   -0.000043
      6          1           0        2.678020   -0.217685    0.000147
      7          1           0        0.430067   -2.148841   -0.000043
      8          6           0       -1.875818    0.154755    0.000030
      9          1           0       -2.189296    0.736302   -0.905178
     10          1           0       -2.423405   -0.820776   -0.000210
     11          1           0       -2.189341    0.735877    0.905499
 ---------------------------------------------------------------------
                    Distance matrix (angstroms):
                    1          2          3          4          5
     1  C    0.000000
     2  C    1.353202   0.000000
     3  C    2.053407   1.537698   0.000000
     4  C    1.547196   2.053276   1.357588   0.000000
     5  H    1.076712   2.276976   3.124329   2.398131   0.000000
     6  H    2.274148   1.077261   2.390045   3.124815   2.969472
     7  H    3.124571   2.391991   1.076729   2.277120   4.198397
     8  C    2.730717   3.494078   2.626056   1.447676   3.228156
     9  H    3.067673   3.988819   3.321855   2.117374   3.336279
    10  H    3.624727   4.103999   2.880367   2.127701   4.268236
    11  H    3.067840   3.988805   3.321750   2.117370   3.336594
                    6          7          8          9         10
     6  H    0.000000
     7  H    2.963554   0.000000
     8  C    4.569043   3.259396   0.000000
     9  H    5.041872   4.000548   1.120655   0.000000
    10  H    5.136950   3.147389   1.118711   1.816114   0.000000
    11  H    5.041840   4.000363   1.120657   1.810677   1.816113
                   11
    11  H    0.000000
 Stoichiometry    C5H6
 Framework group  C1[X(C5H6)]
 Deg. of freedom    27
 Full point group                 C1      NOp   1
 Largest Abelian subgroup         C1      NOp   1
 Largest concise Abelian subgroup C1      NOp   1
                         Standard orientation:                         
 ---------------------------------------------------------------------
 Center     Atomic      Atomic             Coordinates (Angstroms)
 Number     Number       Type             X           Y           Z
 ---------------------------------------------------------------------
      1          6           0       -0.686788   -0.999693   -0.000027
      2          6           0       -1.615524   -0.015517    0.000068
      3          6           0       -0.502456    1.045424   -0.000036
      4          6           0        0.436187    0.064610   -0.000005
      5          1           0       -0.645683   -2.075620   -0.000072
      6          1           0       -2.688592    0.079440    0.000118
      7          1           0       -0.540855    2.121468   -0.000072
      8          6           0        1.878232   -0.062950    0.000001
      9          1           0        2.220630   -0.627953   -0.905208
     10          1           0        2.375942    0.938948   -0.000239
     11          1           0        2.220653   -0.627527    0.905470
 ---------------------------------------------------------------------
 Rotational constants (GHZ):          13.5048989           4.6034918           3.5120309
 Standard basis: VSTO-6G (5D, 7F)
 There are    26 symmetry adapted cartesian basis functions of A   symmetry.
 There are    26 symmetry adapted basis functions of A   symmetry.
    26 basis functions,   156 primitive gaussians,    26 cartesian basis functions
    13 alpha electrons       13 beta electrons
       nuclear repulsion energy        93.3141626132 Hartrees.
 Integral buffers will be    131072 words long.
 Regular integral format.
 Two-electron integral symmetry is turned off.
 Do NDO integrals.
 One-electron integrals computed using PRISM.
 NBasis=    26 RedAO= F EigKep=  0.00D+00  NBF=    26
 NBsUse=    26 1.00D-04 EigRej=  0.00D+00 NBFU=    26
 Initial guess from the checkpoint file:  "meth_cyclobutadiene_sp.chk"
 B after Tr=    -0.000000    0.000000   -0.000000
         Rot=    0.999999    0.000001    0.000000   -0.001004 Ang=   0.12 deg.
 Keep J ints in memory in canonical form, NReq=860916.
 Overlap will be assumed to be unity.
 Requested convergence on RMS density matrix=1.00D-08 within 128 cycles.
 Requested convergence on MAX density matrix=1.00D-06.
 Requested convergence on             energy=1.00D-06.
 No special actions if energy rises.
 SCF Done:  E(RAM1) =  0.161130420179     A.U. after   11 cycles
            NFock= 10  Conv=0.54D-08     -V/T= 1.0040
 Calling FoFJK, ICntrl=      2127 FMM=F ISym2X=0 I1Cent= 0 IOpClX= 0 NMat=1 NMatS=1 NMatT=0.
 ***** Axes restored to original set *****
 -------------------------------------------------------------------
 Center     Atomic                   Forces (Hartrees/Bohr)
[...]
 --------------------------                            --------------------------
 ! Name  Definition              Value          Derivative Info.                !
 --------------------------------------------------------------------------------
 ! R1    R(1,2)                  1.3534         -DE/DX =    0.0                 !
 ! R2    R(1,4)                  1.5478         -DE/DX =    0.0                 !
 ! R3    R(1,5)                  1.0768         -DE/DX =    0.0                 !
 ! R4    R(2,3)                  1.5378         -DE/DX =    0.0                 !
 ! R5    R(2,6)                  1.0773         -DE/DX =    0.0                 !
 ! R6    R(3,4)                  1.357          -DE/DX =    0.0                 !
 ! R7    R(3,7)                  1.0769         -DE/DX =    0.0                 !
 ! R8    R(4,8)                  1.4481         -DE/DX =    0.0                 !
 ! R9    R(8,9)                  1.1207         -DE/DX =    0.0                 !
 ! R10   R(8,10)                 1.1187         -DE/DX =    0.0                 !
 ! R11   R(8,11)                 1.1207         -DE/DX =    0.0                 !
 ! A1    A(2,1,4)               89.8311         -DE/DX =    0.0                 !
 ! A2    A(2,1,5)              139.054          -DE/DX =    0.0                 !
 ! A3    A(4,1,5)              131.1148         -DE/DX =    0.0                 !
 ! A4    A(1,2,3)               90.305          -DE/DX =    0.0                 !
 ! A5    A(1,2,6)              138.5585         -DE/DX =    0.0                 !
 ! A6    A(3,2,6)              131.1365         -DE/DX =    0.0                 !
 ! A7    A(2,3,4)               90.1172         -DE/DX =    0.0                 !
 ! A8    A(2,3,7)              131.4354         -DE/DX =    0.0                 !
 ! A9    A(4,3,7)              138.4474         -DE/DX =    0.0                 !
 ! A10   A(1,4,3)               89.7466         -DE/DX =    0.0                 !
 ! A11   A(1,4,8)              131.1317         -DE/DX =    0.0                 !
 ! A12   A(3,4,8)              139.1216         -DE/DX =    0.0                 !
 ! A13   A(4,8,9)              110.2974         -DE/DX =    0.0                 !
 ! A14   A(4,8,10)             111.2462         -DE/DX =    0.0                 !
 ! A15   A(4,8,11)             110.2972         -DE/DX =    0.0                 !
 ! A16   A(9,8,10)             108.5034         -DE/DX =    0.0                 !
 ! A17   A(9,8,11)             107.9008         -DE/DX =    0.0                 !
 ! A18   A(10,8,11)            108.5032         -DE/DX =    0.0                 !
 ! D1    D(4,1,2,3)             -0.0037         -DE/DX =    0.0                 !
 ! D2    D(4,1,2,6)            179.9988         -DE/DX =    0.0                 !
 ! D3    D(5,1,2,3)            179.999          -DE/DX =    0.0                 !
 ! D4    D(5,1,2,6)              0.0015         -DE/DX =    0.0                 !
 ! D5    D(2,1,4,3)              0.0042         -DE/DX =    0.0                 !
 ! D6    D(2,1,4,8)            180.0024         -DE/DX =    0.0                 !
 ! D7    D(5,1,4,3)           -179.9982         -DE/DX =    0.0                 !
 ! D8    D(5,1,4,8)              0.0001         -DE/DX =    0.0                 !
 ! D9    D(1,2,3,4)              0.0042         -DE/DX =    0.0                 !
 ! D10   D(1,2,3,7)           -179.9987         -DE/DX =    0.0                 !
 ! D11   D(6,2,3,4)            180.002          -DE/DX =    0.0                 !
 ! D12   D(6,2,3,7)             -0.0009         -DE/DX =    0.0                 !
 ! D13   D(2,3,4,1)             -0.0037         -DE/DX =    0.0                 !
 ! D14   D(2,3,4,8)           -180.0017         -DE/DX =    0.0                 !
 ! D15   D(7,3,4,1)            179.9996         -DE/DX =    0.0                 !
 ! D16   D(7,3,4,8)              0.0016         -DE/DX =    0.0                 !
 ! D17   D(1,4,8,9)             59.5358         -DE/DX =    0.0                 !
 ! D18   D(1,4,8,10)           179.9901         -DE/DX =    0.0                 !
 ! D19   D(1,4,8,11)           -59.5561         -DE/DX =    0.0                 !
 ! D20   D(3,4,8,9)           -120.4669         -DE/DX =    0.0                 !
 ! D21   D(3,4,8,10)            -0.0126         -DE/DX =    0.0                 !
 ! D22   D(3,4,8,11)           120.4412         -DE/DX =    0.0                 !
 --------------------------------------------------------------------------------
 GradGradGradGradGradGradGradGradGradGradGradGradGradGradGradGradGradGrad


 ----------------------------------------------------------------------

 Electric dipole moment (input orientation):
 (Debye = 10**-18 statcoulomb cm , SI units = C m)
                  (au)            (Debye)         (10**-30 SI)
   Tot        0.136987D+00      0.348185D+00      0.116142D+01
   x         -0.125535D+00     -0.319077D+00     -0.106433D+01
   y          0.548306D-01      0.139365D+00      0.464873D+00
   z          0.000000D+00      0.000000D+00      0.000000D+00

 Dipole polarizability, Alpha (input orientation).
 (esu units = cm**3 , SI units = C**2 m**2 J**-1)
 Alpha(0;0):
               (au)            (10**-24 esu)      (10**-40 SI)
   iso        0.386460D+02      0.572674D+01      0.637186D+01
   aniso      0.393890D+02      0.583685D+01      0.649437D+01
   xx         0.507809D+02      0.752495D+01      0.837264D+01
   yx        -0.123576D+02     -0.183121D+01     -0.203749D+01
   yy         0.485162D+02      0.718936D+01      0.799924D+01
   zx        -0.256266D-03     -0.379747D-04     -0.422526D-04
   zy         0.533551D-03      0.790641D-04      0.879706D-04
   zz         0.166407D+02      0.246590D+01      0.274369D+01

 First dipole hyperpolarizability, Beta (input orientation).
 ||, _|_  parallel and perpendicular components, (z) with respect to z axis,
 vector components x,y,z.  Values do not include the 1/n! factor of 1/2.
 (esu units = statvolt**-1 cm**4 , SI units = C**3 m**3 J**-2)
 Beta(0;0,0):
               (au)            (10**-30 esu)      (10**-50 SI)
   || (z)     0.115146D-02      0.994775D-05      0.369201D-05
   _|_(z)     0.383821D-03      0.331592D-05      0.123067D-05
   x          0.193359D+03      0.167047D+01      0.619979D+00
   y         -0.525753D+02     -0.454210D+00     -0.168576D+00
   z          0.575732D-02      0.497387D-04      0.184600D-04
   ||         0.400759D+02      0.346224D+00      0.128498D+00
   xxx        0.803079D+02      0.693798D+00      0.257496D+00
   xxy       -0.246443D+02     -0.212908D+00     -0.790186D-01
   yxy       -0.462544D+01     -0.399602D-01     -0.148308D-01
   yyy       -0.883636D+01     -0.763393D-01     -0.283326D-01
   xxz       -0.895564D-03     -0.773698D-05     -0.287150D-05
   yxz       -0.165723D-02     -0.143172D-04     -0.531367D-05
   yyz       -0.490760D-02     -0.423979D-04     -0.157355D-04
   zxz       -0.112294D+02     -0.970136D-01     -0.360056D-01
   zyz        0.159556D+02      0.137844D+00      0.511594D-01
   zzz        0.772227D-02      0.667144D-04      0.247604D-04

 ----------------------------------------------------------------------

 Dipole orientation:
     6          0.88691272          2.03027557         -0.53915278
     6          0.44009304          1.00784229         -2.84037674
     6         -0.60911287         -1.39466913         -1.58641458
     6         -0.16807381         -0.38500556          0.72921791
     1          1.63566425          3.74431278          0.26199748
     1          0.65874195          1.50879126         -4.80146479
     1         -1.35890180         -3.11122796         -2.38160895
     6         -0.45949917         -1.05238961          3.36712313
     1         -1.71811970          0.34340324          4.34336906
     1         -1.30168197         -2.97955828          3.58124148
     1          1.41995197         -1.02799232          4.34308198

 Electric dipole moment (dipole orientation):
 (Debye = 10**-18 statcoulomb cm , SI units = C m)
                  (au)            (Debye)         (10**-30 SI)
   Tot        0.136987D+00      0.348185D+00      0.116142D+01
   x          0.000000D+00      0.000000D+00      0.000000D+00
   y          0.000000D+00      0.000000D+00      0.000000D+00
   z          0.136987D+00      0.348185D+00      0.116142D+01

 Dipole polarizability, Alpha (dipole orientation).
 (esu units = cm**3 , SI units = C**2 m**2 J**-1)
 Alpha(0;0):
               (au)            (10**-24 esu)      (10**-40 SI)
   iso        0.386460D+02      0.572674D+01      0.637186D+01
   aniso      0.393890D+02      0.583685D+01      0.649437D+01
   xx         0.203538D+02      0.301612D+01      0.335588D+01
   yx         0.850026D+01      0.125961D+01      0.140150D+01
   yy         0.361005D+02      0.534954D+01      0.595216D+01
   zx         0.303100D+01      0.449148D+00      0.499745D+00
   zy         0.693376D+01      0.102748D+01      0.114322D+01
   zz         0.594836D+02      0.881457D+01      0.980753D+01

 First dipole hyperpolarizability, Beta (dipole orientation).
 ||, _|_  parallel and perpendicular components, (z) with respect to z axis,
 vector components x,y,z.  Values do not include the 1/n! factor of 1/2.
 (esu units = statvolt**-1 cm**4 , SI units = C**3 m**3 J**-2)
 Beta(0;0,0):
               (au)            (10**-30 esu)      (10**-50 SI)
   || (z)    -0.396477D+02     -0.342525D+00     -0.127125D+00
   _|_(z)    -0.132159D+02     -0.114175D+00     -0.423749D-01
   x          0.116909D+02      0.101000D+00      0.374851D-01
   y          0.267731D+02      0.231299D+00      0.858443D-01
   z         -0.198238D+03     -0.171262D+01     -0.635624D+00
   ||         0.400759D+02      0.346224D+00      0.128498D+00
   xxx        0.911637D+01      0.787583D-01      0.292304D-01
   xxy        0.229261D+01      0.198063D-01      0.735093D-02
   yxy       -0.119311D+02     -0.103075D+00     -0.382553D-01
   yyy       -0.874810D+01     -0.755768D-01     -0.280496D-01
   xxz        0.143942D+02      0.124355D+00      0.461530D-01
   yxz       -0.522657D+01     -0.451535D-01     -0.167583D-01
   yyz        0.471098D+01      0.406992D-01      0.151051D-01
   zxz        0.671165D+01      0.579835D-01      0.215200D-01
   zyz        0.153799D+02      0.132870D+00      0.493134D-01
   zzz       -0.851846D+02     -0.735929D+00     -0.273133D+00

 ----------------------------------------------------------------------
 1\1\GINC-IISERK51\Freq\RAM1\ZDO\C5H6\GAUSSIAN\12-Jun-2025\0\\#N Geom=A
 llCheck Guess=TCheck SCRF=Check GenChk RAM1/ZDO Freq\\Optimisation\\0,
 1\C,0.7307295093,0.960204106,0.0000780826\C,1.6103430993,-0.0683134144
 ,0.0000117671\C,0.4469640776,-1.0740362282,0.0000584137\C,-0.442605473
 3,-0.049263707,0.0000259137\H,0.7383988333,2.0369443836,0.0001083993\H
 ,2.6771222335,-0.2186300483,-0.0000182646\H,0.435829108,-2.1508369544,
 0.0000589994\C,-1.8760745947,0.1563199201,0.0000010328\H,-2.1852361639
 ,0.7390684433,-0.9060169876\H,-2.4253769618,-0.8182269751,-0.000217453
 4\H,-2.1853156672,0.7387014745,0.9062290971\\Version=EM64L-G16RevB.01\
 State=1-A\HF=0.1611231\RMSD=7.613e-10\RMSF=2.584e-05\ZeroPoint=0.09183
 06\Thermal=0.0970597\Dipole=-0.1255346,0.0548306,-0.0000059\DipoleDeri
 v=-0.1290659,0.0829014,0.0000004,-0.0091243,-0.1390264,-0.0000232,0.00
 0009,-0.0000069,-0.2128291,-0.0682542,0.0171412,0.0000222,0.0870542,-0
 .1352195,-0.0000059,0.0000084,-0.0000141,-0.1716566,-0.1967491,0.08551
 17,-0.0000068,0.0948591,-0.1769369,0.0000252,-0.0000177,0.0000169,-0.2
 439058,0.1358651,-0.0435557,-0.0000159,0.025348,-0.0655886,-0.0000058,
 -0.0000159,0.0000224,-0.1070367,0.0352217,-0.0360636,-0.0000032,-0.033
 7231,0.2088982,0.0000039,-0.0000039,0.000009,0.1948071,0.200723,-0.065
 1043,-0.0000032,-0.0600837,0.0672444,0.0000024,-0.0000079,0.0000065,0.
 1931461,0.0385075,-0.0364213,0.0000026,-0.0704988,0.219205,-0.0000007,
 0.0000104,-0.0000138,0.2078193,-0.0789982,-0.0164634,0.0000071,-0.0236
 83,-0.1290062,0.000009,0.0000332,-0.0000262,-0.025236,0.0233673,0.0113
 15,0.0007222,-0.0141966,0.0555199,0.0060667,0.0160699,-0.0046243,0.056
 0934,0.0160314,-0.0105919,0.0000023,0.0182361,0.0393972,-0.0000016,-0.
 0000019,0.0000026,0.0527114,0.0233515,0.0113278,-0.0007277,-0.0141846,
 0.0555179,-0.00607,-0.0160836,0.0046279,0.0560896\Polar=50.7808993,-12
 .3576092,48.5162166,-0.0002563,0.0005336,16.6407419\HyperPolar=80.3079
 062,-24.6443337,-4.625444,-8.8363641,-0.0008956,-0.0016572,-0.0049076,
 -11.2294347,15.9555881,0.0077223\PG=C01 [X(C5H6)]\NImag=0\\0.49330939,
 -0.18829890,0.97458497,-0.00001334,0.00003356,0.11707411,-0.27594104,0
 .31706864,0.00001927,0.91630758,0.28468502,-0.36647331,-0.00001837,-0.
 24198340,0.56819250,0.00001550,-0.00002164,-0.06541556,-0.00003068,0.0
 0001859,0.11864653,-0.00575305,-0.03648625,-0.00000166,-0.14436310,-0.
 07749870,0.00000404,0.50298683,-0.03425815,-0.13914476,-0.00000158,-0.
 10455137,-0.12008861,0.00000359,-0.17112975,0.97187515,0.00000131,-0.0
 0000159,0.02695156,0.00000354,0.00000328,-0.05698962,0.00000393,-0.000
 01048,0.11598682,-0.13203536,-0.09393311,-0.00000391,-0.14913686,-0.01
 634099,0.00000128,-0.26149189,0.30756805,-0.00000902,0.99671580,-0.072
 66336,-0.11354223,-0.00000321,-0.01138272,0.00165583,0.00000135,0.2766
 1771,-0.35654730,0.00000726,-0.25235346,0.58234662,-0.00000379,-0.0000
 0337,-0.05828614,0.00000131,-0.00000143,0.02482547,-0.00000668,0.00001
 086,-0.06603907,0.00001680,-0.00000626,0.14697549,-0.04063955,-0.00275
 654,-0.00000002,0.00153961,0.02132223,0.00000054,-0.00112893,-0.000683
 11,0.00000019,-0.00095190,-0.01785046,-0.00000070,0.04004113,-0.000836
 45,-0.35319264,-0.00000952,0.00204434,-0.02202390,-0.00000077,0.000712
 09,-0.00304816,-0.00000030,-0.00285494,-0.01268209,-0.00000059,0.00034
 744,0.39101001,0.00000012,-0.00000810,-0.03794885,-0.00000012,-0.00000
 130,0.00633993,-0.00000007,-0.00000083,0.00579786,0.00000003,-0.000000
 97,0.00554006,-0.00000009,0.00001130,0.02068267,-0.01799887,0.00526894
 ,0.00000069,-0.34622288,0.04436839,0.00000925,-0.01605647,-0.00043651,
 0.00000070,-0.00296803,0.00058534,0.00000027,0.00023049,0.00041119,0.0
 0000011,0.38329621,0.02447543,-0.00268383,-0.00000066,0.04235982,-0.04
 686038,-0.00000133,-0.01586775,0.00223446,0.00000060,-0.00032170,-0.00
 153126,-0.00000025,0.00044801,0.00008893,-0.00000007,-0.05029664,0.047
 81424,0.00000126,-0.00000007,0.00636709,0.00000789,-0.00000126,-0.0388
 4520,0.00000088,-0.00000029,0.00526134,0.00000087,-0.00000005,0.006460
 61,0.00000005,-0.00000013,0.00066580,-0.00001099,0.00000173,0.02118285
 ,-0.00108593,-0.00061810,-0.00000009,-0.00068633,-0.01813487,0.0000003
 5,-0.04089562,-0.00403481,-0.00000002,0.00102659,0.02169571,0.00000010
 ,0.00066356,-0.00013556,-0.00000007,0.00000061,-0.00070951,-0.00000002
 ,0.04044426,0.00055018,-0.00302160,0.00000008,-0.00256876,-0.01294210,
 0.00000017,-0.00229735,-0.35287959,0.00000090,0.00311743,-0.02256959,-
 0.00000011,-0.00014408,-0.00022830,-0.00000002,-0.00001353,0.00008617,
 0.00000001,0.00160138,0.39115444,0.00000019,0.00000067,0.00578872,-0.0
 0000008,0.00000082,0.00514510,0.,-0.00000080,-0.03721985,-0.00000002,0
 .00000069,0.00602300,0.00000005,0.00000003,-0.00064196,0.,0.,-0.000242
 87,-0.00000021,-0.00000127,0.02037706,-0.01855176,-0.00081171,-0.00000
 056,-0.00128690,0.00311720,-0.00000019,-0.02987343,0.00810366,-0.00000
 070,-0.37257640,0.04290358,-0.00000574,0.00034855,0.00018107,0.0000000
 2,-0.00015340,-0.00003494,0.,0.00060158,-0.00001248,-0.00000002,0.6300
 2993,-0.01475301,0.00362956,0.00000027,-0.00178762,-0.00224080,-0.0000
 0009,0.02710696,-0.00374653,-0.00000003,0.03893593,-0.07481188,0.00000
 089,-0.00072544,0.00001456,-0.00000006,0.00013309,0.00088815,0.0000000
 4,0.00048204,0.00045723,-0.00000013,-0.01261768,0.51389711,-0.00000152
 ,0.00000059,0.00465595,-0.00000153,-0.00000069,0.00656647,0.00000045,-
 0.00000129,0.00726090,-0.00000732,0.00000240,-0.06725795,0.,-0.0000000
 5,-0.00044593,-0.00000003,-0.00000003,-0.00087088,-0.00000002,0.000000
 30,0.00077820,0.00000716,-0.00000071,0.48523258,0.00031389,-0.00034780
 ,0.00060841,0.00019791,0.00036881,0.00108307,-0.00192836,-0.00027334,0
 .00012622,-0.02291738,0.02066771,-0.02656201,0.00006181,0.00005022,-0.
 00013013,-0.00007710,-0.00011391,-0.00015802,-0.00010087,-0.00015597,0
 .00026765,-0.05597765,0.03229615,-0.05346657,0.07020953,0.00003308,-0.
 00016513,0.00004099,0.00039015,0.00034892,-0.00018780,-0.00066747,0.00
 060518,0.00018213,0.01249910,-0.00244451,0.00704445,-0.00003667,0.0000
 4705,-0.00000388,-0.00001288,-0.00000975,-0.00000066,-0.00002390,-0.00
 007099,0.00003299,0.03156299,-0.10510654,0.10185103,-0.04349302,0.1204
 4579,0.00004671,0.00001380,0.00005758,-0.00008705,-0.00020891,-0.00009
 538,0.00088262,-0.00040604,-0.00046810,-0.01177421,0.00558818,-0.00119
 388,0.00000292,-0.00001692,0.00002837,-0.00000310,0.00000372,0.0000296
 8,0.00002890,0.00004777,0.00000227,-0.05237551,0.10164224,-0.19719546,
 0.06651357,-0.12409739,0.23335186,-0.00193164,0.00126269,-0.00000002,-
 0.00060626,-0.00027247,0.00000014,0.00043147,-0.00003181,0.00000016,-0
 .03274344,-0.02887721,-0.00000711,-0.00022633,0.00003036,-0.00000003,0
 .00002659,0.00017510,0.,0.00013337,0.00007919,-0.00000002,-0.09657477,
 -0.10135464,-0.00002317,0.00506505,0.00125935,0.00058184,0.12136004,0.
 00103346,0.00017455,-0.00000022,0.00002044,0.00008260,0.00000004,0.000
 17779,0.00013520,0.00000003,-0.00881166,0.00256554,-0.00000058,0.00011
 541,-0.00003259,0.,0.00000536,-0.00001676,0.00000001,-0.00009863,0.000
 08523,-0.00000004,-0.10394236,-0.22795790,-0.00004152,-0.00748577,-0.0
 2145277,0.00887439,0.12646790,0.26785682,0.00000024,0.00000005,0.00069
 819,0.00000009,0.00000009,-0.00008243,-0.00000011,0.00000020,-0.000073
 60,-0.00000295,-0.00000209,0.00414839,0.,0.00000001,-0.00004656,0.,0.0
 0000001,-0.00003824,0.,0.,-0.00001215,-0.00002377,-0.00004136,-0.04145
 700,0.00789833,0.02368120,-0.00217120,0.00002885,0.00005084,0.04121973
 ,0.00031374,-0.00034793,-0.00060875,0.00019834,0.00036887,-0.00108330,
 -0.00192764,-0.00027304,-0.00012631,-0.02292157,0.02065725,0.02656755,
 0.00006175,0.00005023,0.00013020,-0.00007709,-0.00011386,0.00015807,-0
 .00010080,-0.00015611,-0.00026755,-0.05598590,0.03228420,0.05349255,0.
 00515329,-0.00151071,-0.00381681,0.00506588,-0.00748187,-0.00790068,0.
 07022013,0.00003314,-0.00016529,-0.00004136,0.00039010,0.00034884,0.00
 018787,-0.00066712,0.00060482,-0.00018179,0.01249534,-0.00243913,-0.00
 704361,-0.00003673,0.00004703,0.00000393,-0.00001287,-0.00000977,0.000
 00067,-0.00002386,-0.00007093,-0.00003297,0.03155048,-0.10502282,-0.10
 181002,-0.00151301,0.00780281,0.00855920,0.00126155,-0.02143989,-0.023
 68895,-0.04347698,0.12034438,-0.00004668,-0.00001391,0.00005746,0.0000
 8737,0.00020919,-0.00009539,-0.00088339,0.00040665,-0.00046830,0.01177
 843,-0.00558729,-0.00119536,-0.00000293,0.00001695,0.00002837,0.000003
 10,-0.00000373,0.00002970,-0.00002893,-0.00004784,0.00000225,0.0523992
 9,-0.10160105,-0.19726705,0.00381957,-0.00854308,-0.03234563,-0.000580
 64,-0.00888295,-0.00218520,-0.06654508,0.12404704,0.23343928\\0.000044
 24,-0.00003529,0.00000846,-0.00001740,0.00004219,-0.00000883,-0.000059
 57,-0.00000133,0.00000914,0.00005289,0.00006480,-0.00000798,-0.0000334
 7,-0.00000789,-0.00000040,-0.00000820,-0.00003205,0.00000035,0.0000277
 9,-0.00000320,-0.00000063,-0.00004233,-0.00000506,-0.00000012,0.000013
 00,0.00000092,0.00000272,0.00000989,-0.00002373,0.,0.00001317,0.000000
 63,-0.00000272\\\@


 WE HAVE LEFT UNDONE THOSE THINGS WHICH WE OUGHT TO HAVE DONE,
 AND WE HAVE DONE THOSE THINGS WHICH WE OUGHT NOT TO HAVE DONE.
                   BOOK OF COMMON PRAYER                      
 Job cpu time:       0 days  0 hours  0 minutes  0.5 seconds.
 Elapsed time:       0 days  0 hours  0 minutes  0.5 seconds.
 File lengths (MBytes):  RWF=      7 Int=      0 D2E=      0 Chk=      2 Scr=      1
 Normal termination of Gaussian 16 at Thu Jun 12 22:20:41 2025.
