 Entering Gaussian System, Link 0=g16
 Input=/home/gaussian/Documents/program files/Aromaticity/AM1 HF3-21G*/cyclobutadiene/opt freq/meth_cyclobutadiene_isomer_opt.com
 Output=/home/gaussian/Documents/program files/Aromaticity/AM1 HF3-21G*/cyclobutadiene/opt freq/meth_cyclobutadiene_isomer_opt.log
 Initial command:
 /usr/local/g16/l1.exe "/home/gaussian/tmp/Gau-142969.inp" -scrdir="/home/gaussian/tmp/"
 Entering Link 1 = /usr/local/g16/l1.exe PID=    142972.
  
 Copyright (c) 1988-2017, Gaussian, Inc.  All Rights Reserved.
  
 This is part of the Gaussian(R) 16 program.  It is based on
 the Gaussian(R) 09 system (copyright 2009, Gaussian, Inc.),
 the Gaussian(R) 03 system (copyright 2003, Gaussian, Inc.),
 the Gaussian(R) 98 system (copyright 1998, Gaussian, Inc.),
 the Gaussian(R) 94 system (copyright 1995, Gaussian, Inc.),
 the Gaussian 92(TM) system (copyright 1992, Gaussian, Inc.),
 the Gaussian 90(TM) system (copyright 1990, Gaussian, Inc.),
 the Gaussian 88(TM) system (copyright 1988, Gaussian, Inc.),
 the Gaussian 86(TM) system (copyright 1986, Carnegie Mellon
 University), and the Gaussian 82(TM) system (copyright 1983,
 Carnegie Mellon University). Gaussian is a federally registered
 trademark of Gaussian, Inc.
  
 This software contains proprietary and confidential information,
 including trade secrets, belonging to Gaussian, Inc.
  
 This software is provided under written license and may be
 used, copied, transmitted, or stored only in accord with that
 written license.
  
 The following legend is applicable only to US Government
 contracts under FAR:
  
                    RESTRICTED RIGHTS LEGEND
  
 Use, reproduction and disclosure by the US Government is
 subject to restrictions as set forth in subparagraphs (a)
 and (c) of the Commercial Computer Software - Restricted
 Rights clause in FAR 52.227-19.
  
 Gaussian, Inc.
 340 Quinnipiac St., Bldg. 40, Wallingford CT 06492
  
  
 ---------------------------------------------------------------
 Warning -- This program may not be used in any manner that
 competes with the business of Gaussian, Inc. or will provide
 assistance to any competitor of Gaussian, Inc.  The licensee
 of this program is prohibited from giving any competitor of
 Gaussian, Inc. access to this program.  By using this program,
 the user acknowledges that Gaussian, Inc. is engaged in the
 business of creating and licensing software in the field of
 computational chemistry and represents and warrants to the
 licensee that it is not a competitor of Gaussian, Inc. and that
 it will not use this program in any manner prohibited above.
 ---------------------------------------------------------------
  

 Cite this work as:
 Gaussian 16, Revision B.01,
 M. J. Frisch, G. W. Trucks, H. B. Schlegel, G. E. Scuseria, 
 M. A. Robb, J. R. Cheeseman, G. Scalmani, V. Barone, 
 G. A. Petersson, H. Nakatsuji, X. Li, M. Caricato, A. V. Marenich, 
 J. Bloino, B. G. Janesko, R. Gomperts, B. Mennucci, H. P. Hratchian, 
 J. V. Ortiz, A. F. Izmaylov, J. L. Sonnenberg, D. Williams-Young, 
 F. Ding, F. Lipparini, F. Egidi, J. Goings, B. Peng, A. Petrone, 
 T. Henderson, D. Ranasinghe, V. G. Zakrzewski, J. Gao, N. Rega, 
 G. Zheng, W. Liang, M. Hada, M. Ehara, K. Toyota, R. Fukuda, 
 J. Hasegawa, M. Ishida, T. Nakajima, Y. Honda, O. Kitao, H. Nakai, 
 T. Vreven, K. Throssell, J. A. Montgomery, Jr., J. E. Peralta, 
 F. Ogliaro, M. J. Bearpark, J. J. Heyd, E. N. Brothers, K. N. Kudin, 
 V. N. Staroverov, T. A. Keith, R. Kobayashi, J. Normand, 
 K. Raghavachari, A. P. Rendell, J. C. Burant, S. S. Iyengar, 
 J. Tomasi, M. Cossi, J. M. Millam, M. Klene, C. Adamo, R. Cammi, 
 J. W. Ochterski, R. L. Martin, K. Morokuma, O. Farkas, 
 J. B. Foresman, and D. J. Fox, Gaussian, Inc., Wallingford CT, 2016.
 
 ******************************************
 Gaussian 16:  EM64L-G16RevB.01 20-Dec-2017
                12-Jun-2025 
 ******************************************
 %chk=meth_cyclobutadiene_isomer_opt.chk
 -----------------------------------------
 # opt freq am1 pop=full geom=connectivity
 -----------------------------------------
 1/18=20,19=15,26=1,38=1,57=2/1,3;
 2/9=110,12=2,17=6,18=5,40=1/2;
 3/5=2,25=1,41=700000,71=1/1,2,3;
 4/35=1/1;
 5/5=2,35=1,38=5/2;
 6/7=3,28=1/1;
 7//1,2,3,16;
 1/18=20,19=15,26=1/3(2);
 2/9=110/2;
 99//99;
 2/9=110/2;
 3/5=2,25=1,41=700000,71=1,135=20/1,2,3;
 4/5=5,16=3,35=1/1;
 5/5=2,35=1,38=5/2;
 7//1,2,3,16;
 1/18=20,19=15,26=1/3(-5);
 2/9=110/2;
 6/7=3,19=2,28=1/1;
 99/9=1/99;
 ------------
 Optimisation
 ------------
 Symbolic Z-matrix:
 Charge =  0 Multiplicity = 1
 C                    -0.53203  -1.04391   0.00001 
 C                    -1.49951  -0.12636   0.0001 
 C                    -0.52881   1.07836  -0.00007 
 C                     0.56738  -0.03299  -0.00006 
 H                    -0.52789  -2.11133  -0.00035 
 H                    -2.565    -0.18258   0.00014 
 H                    -0.54654   1.68967   0.89136 
 C                     1.87761  -0.04119   0.00006 
 H                     2.44391   0.87067   0.00016 
 H                     2.43417  -0.95942  -0.00001 
 H                    -0.54647   1.68955  -0.89157 
 

 GradGradGradGradGradGradGradGradGradGradGradGradGradGradGradGradGradGrad
 Berny optimization.
 Initialization pass.
                           ----------------------------
                           !    Initial Parameters    !
                           ! (Angstroms and Degrees)  !
 --------------------------                            --------------------------
 ! Name  Definition              Value          Derivative Info.                !
 --------------------------------------------------------------------------------
 ! R1    R(1,2)                  1.3334         estimate D2E/DX2                !
 ! R2    R(1,4)                  1.4935         estimate D2E/DX2                !
 ! R3    R(1,5)                  1.0674         estimate D2E/DX2                !
 ! R4    R(2,3)                  1.5471         estimate D2E/DX2                !
 ! R5    R(2,6)                  1.067          estimate D2E/DX2                !
 ! R6    R(3,4)                  1.561          estimate D2E/DX2                !
 ! R7    R(3,7)                  1.081          estimate D2E/DX2                !
 ! R8    R(3,11)                 1.081          estimate D2E/DX2                !
 ! R9    R(4,8)                  1.3103         estimate D2E/DX2                !
 ! R10   R(8,9)                  1.0734         estimate D2E/DX2                !
 ! R11   R(8,10)                 1.0737         estimate D2E/DX2                !
 ! A1    A(2,1,4)               93.9184         estimate D2E/DX2                !
 ! A2    A(2,1,5)              133.7049         estimate D2E/DX2                !
 ! A3    A(4,1,5)              132.3768         estimate D2E/DX2                !
 ! A4    A(1,2,3)               94.6227         estimate D2E/DX2                !
 ! A5    A(1,2,6)              133.4969         estimate D2E/DX2                !
 ! A6    A(3,2,6)              131.8803         estimate D2E/DX2                !
 ! A7    A(2,3,4)               83.4663         estimate D2E/DX2                !
 ! A8    A(2,3,7)              115.464          estimate D2E/DX2                !
 ! A9    A(2,3,11)             115.4729         estimate D2E/DX2                !
 ! A10   A(4,3,7)              114.4629         estimate D2E/DX2                !
 ! A11   A(4,3,11)             114.4562         estimate D2E/DX2                !
 ! A12   A(7,3,11)             111.1034         estimate D2E/DX2                !
 ! A13   A(1,4,3)               87.9926         estimate D2E/DX2                !
 ! A14   A(1,4,8)              137.0425         estimate D2E/DX2                !
 ! A15   A(3,4,8)              134.9649         estimate D2E/DX2                !
 ! A16   A(4,8,9)              121.4836         estimate D2E/DX2                !
 ! A17   A(4,8,10)             121.58           estimate D2E/DX2                !
 ! A18   A(9,8,10)             116.9364         estimate D2E/DX2                !
 ! D1    D(4,1,2,3)              0.0042         estimate D2E/DX2                !
 ! D2    D(4,1,2,6)            179.9964         estimate D2E/DX2                !
 ! D3    D(5,1,2,3)           -179.9702         estimate D2E/DX2                !
 ! D4    D(5,1,2,6)              0.0221         estimate D2E/DX2                !
 ! D5    D(2,1,4,3)             -0.0041         estimate D2E/DX2                !
 ! D6    D(2,1,4,8)            179.9856         estimate D2E/DX2                !
 ! D7    D(5,1,4,3)            179.9707         estimate D2E/DX2                !
 ! D8    D(5,1,4,8)             -0.0396         estimate D2E/DX2                !
 ! D9    D(1,2,3,4)             -0.004          estimate D2E/DX2                !
 ! D10   D(1,2,3,7)           -114.0279         estimate D2E/DX2                !
 ! D11   D(1,2,3,11)           114.0133         estimate D2E/DX2                !
 ! D12   D(6,2,3,4)           -179.9965         estimate D2E/DX2                !
 ! D13   D(6,2,3,7)             65.9796         estimate D2E/DX2                !
 ! D14   D(6,2,3,11)           -65.9792         estimate D2E/DX2                !
 ! D15   D(2,3,4,1)              0.0036         estimate D2E/DX2                !
 ! D16   D(2,3,4,8)           -179.9865         estimate D2E/DX2                !
 ! D17   D(7,3,4,1)            115.0485         estimate D2E/DX2                !
 ! D18   D(7,3,4,8)            -64.9416         estimate D2E/DX2                !
 ! D19   D(11,3,4,1)          -115.0506         estimate D2E/DX2                !
 ! D20   D(11,3,4,8)            64.9593         estimate D2E/DX2                !
 ! D21   D(1,4,8,9)           -179.9875         estimate D2E/DX2                !
 ! D22   D(1,4,8,10)             0.0174         estimate D2E/DX2                !
 ! D23   D(3,4,8,9)             -0.002          estimate D2E/DX2                !
 ! D24   D(3,4,8,10)          -179.9972         estimate D2E/DX2                !
 --------------------------------------------------------------------------------
 Trust Radius=3.00D-01 FncErr=1.00D-07 GrdErr=1.00D-07 EigMax=2.50D+02 EigMin=1.00D-04
 Number of steps in this run=     63 maximum allowed number of steps=    100.
 GradGradGradGradGradGradGradGradGradGradGradGradGradGradGradGradGradGrad

                          Input orientation:                          
 ---------------------------------------------------------------------
 Center     Atomic      Atomic             Coordinates (Angstroms)
 Number     Number       Type             X           Y           Z
 ---------------------------------------------------------------------
      1          6           0       -0.532032   -1.043909    0.000012
      2          6           0       -1.499507   -0.126363    0.000102
      3          6           0       -0.528805    1.078361   -0.000069
      4          6           0        0.567376   -0.032991   -0.000060
      5          1           0       -0.527894   -2.111326   -0.000350
      6          1           0       -2.565003   -0.182582    0.000137
      7          1           0       -0.546537    1.689666    0.891361
      8          6           0        1.877605   -0.041192    0.000061
      9          1           0        2.443913    0.870667    0.000157
     10          1           0        2.434169   -0.959416   -0.000009
     11          1           0       -0.546471    1.689552   -0.891573
 ---------------------------------------------------------------------
                    Distance matrix (angstroms):
                    1          2          3          4          5
     1  C    0.000000
     2  C    1.333379   0.000000
     3  C    2.122272   1.547134   0.000000
     4  C    1.493537   2.068991   1.560998   0.000000
     5  H    1.067425   2.210002   3.189687   2.349275   0.000000
     6  H    2.207907   1.066978   2.395011   3.135949   2.805328
     7  H    2.875264   2.236170   1.081044   2.236734   3.904233
     8  C    2.609941   3.378186   2.654093   1.310255   3.173623
     9  H    3.538623   4.067509   2.979965   2.082784   4.209979
    10  H    2.967404   4.020918   3.596074   2.084030   3.178162
    11  H    2.875229   2.236271   1.081039   2.236650   3.904010
                    6          7          8          9         10
     6  H    0.000000
     7  H    2.893752   0.000000
     8  C    4.444857   3.109140   0.000000
     9  H    5.118454   3.226111   1.073402   0.000000
    10  H    5.059169   4.086170   1.073731   1.830109   0.000000
    11  H    2.893874   1.782934   3.109121   3.226167   4.086090
                   11
    11  H    0.000000
 Stoichiometry    C5H6
 Framework group  C1[X(C5H6)]
 Deg. of freedom    27
 Full point group                 C1      NOp   1
 Largest Abelian subgroup         C1      NOp   1
 Largest concise Abelian subgroup C1      NOp   1
                         Standard orientation:                         
 ---------------------------------------------------------------------
 Center     Atomic      Atomic             Coordinates (Angstroms)
 Number     Number       Type             X           Y           Z
 ---------------------------------------------------------------------
      1          6           0        0.532032   -1.043909   -0.000012
      2          6           0        1.499507   -0.126363   -0.000102
      3          6           0        0.528805    1.078361    0.000069
      4          6           0       -0.567376   -0.032991    0.000060
      5          1           0        0.527895   -2.111326    0.000350
      6          1           0        2.565003   -0.182581   -0.000137
      7          1           0        0.546537    1.689666   -0.891361
      8          6           0       -1.877605   -0.041192   -0.000061
      9          1           0       -2.443913    0.870666   -0.000157
     10          1           0       -2.434169   -0.959417    0.000009
     11          1           0        0.546471    1.689552    0.891573
 ---------------------------------------------------------------------
 Rotational constants (GHZ):          12.3830967           5.0034981           3.6459604
 Standard basis: VSTO-6G (5D, 7F)
 There are    26 symmetry adapted cartesian basis functions of A   symmetry.
 There are    26 symmetry adapted basis functions of A   symmetry.
    26 basis functions,   156 primitive gaussians,    26 cartesian basis functions
    13 alpha electrons       13 beta electrons
       nuclear repulsion energy        94.0573278163 Hartrees.
 Integral buffers will be    131072 words long.
 Regular integral format.
 Two-electron integral symmetry is turned off.
 Do NDO integrals.
 One-electron integrals computed using PRISM.
 NBasis=    26 RedAO= F EigKep=  0.00D+00  NBF=    26
 NBsUse=    26 1.00D-04 EigRej=  0.00D+00 NBFU=    26
 Simple Huckel Guess.
 Keep J ints in memory in canonical form, NReq=860916.
 Overlap will be assumed to be unity.
 Requested convergence on RMS density matrix=1.00D-08 within 128 cycles.
 Requested convergence on MAX density matrix=1.00D-06.
 Requested convergence on             energy=1.00D-06.
 No special actions if energy rises.
 SCF Done:  E(RAM1) =  0.119974049613     A.U. after   12 cycles
            NFock= 11  Conv=0.28D-08     -V/T= 1.0030

 **********************************************************************

            Population analysis using the SCF Density.

 **********************************************************************

 Orbital symmetries:
       Occupied  (A) (A) (A) (A) (A) (A) (A) (A) (A) (A) (A) (A)
                 (A)
       Virtual   (A) (A) (A) (A) (A) (A) (A) (A) (A) (A) (A) (A)
                 (A)
 The electronic state is 1-A.
 Alpha  occ. eigenvalues --   -1.43746  -1.15020  -0.97834  -0.81979  -0.67397
 Alpha  occ. eigenvalues --   -0.60031  -0.56856  -0.55142  -0.48457  -0.44989
 Alpha  occ. eigenvalues --   -0.42180  -0.40775  -0.34707
 Alpha virt. eigenvalues --    0.02272   0.07467   0.12549   0.12874   0.14636
 Alpha virt. eigenvalues --    0.17434   0.17656   0.17715   0.18194   0.18588
 Alpha virt. eigenvalues --    0.20119   0.20628   0.22899
     Molecular Orbital Coefficients:
                           1         2         3         4         5
                           O         O         O         O         O
     Eigenvalues --    -1.43746  -1.15020  -0.97834  -0.81979  -0.67397
   1 1   C  1S          0.45113  -0.18417  -0.48084  -0.20480   0.31081
   2        1PX         0.00786  -0.16055  -0.04810   0.29754   0.03852
   3        1PY         0.16764  -0.04928   0.06309   0.01367  -0.37686
   4        1PZ         0.00001   0.00000  -0.00001  -0.00004   0.00009
   5 2   C  1S          0.43803  -0.34784  -0.10289   0.49518  -0.21564
   6        1PX        -0.16684   0.04150   0.01005   0.23047  -0.06799
   7        1PY        -0.01119   0.03007   0.29238   0.01596  -0.08054
   8        1PZ         0.00002  -0.00001   0.00000  -0.00002   0.00004
   9 3   C  1S          0.41164  -0.11204   0.60674  -0.03372   0.22502
  10        1PX        -0.01291  -0.11910  -0.01335   0.20754   0.03469
  11        1PY        -0.14558   0.04042   0.09795   0.02539   0.32915
  12        1PZ        -0.00001   0.00001   0.00000  -0.00003   0.00006
  13 4   C  1S          0.47372   0.37610  -0.00009  -0.32712  -0.31133
  14        1PX         0.10186  -0.31736   0.04136  -0.21058   0.01191
  15        1PY        -0.00323   0.00656   0.25312   0.07505  -0.04420
  16        1PZ        -0.00001  -0.00002   0.00001  -0.00002   0.00004
  17 5   H  1S          0.11071  -0.05039  -0.23031  -0.10165   0.39282
  18 6   H  1S          0.10625  -0.12120  -0.04454   0.34701  -0.15245
  19 7   H  1S          0.12426  -0.03238   0.27707  -0.00170   0.23082
  20 8   C  1S          0.22084   0.63835  -0.07711   0.33822   0.13710
  21        1PX         0.10535   0.12192   0.00300  -0.19448  -0.28706
  22        1PY         0.00068   0.00254   0.06649   0.02565  -0.02524
  23        1PZ         0.00001   0.00002  -0.00000  -0.00001  -0.00000
  24 9   H  1S          0.06562   0.22661  -0.00430   0.21859   0.15615
  25 10  H  1S          0.06530   0.22501  -0.06062   0.19368   0.18092
  26 11  H  1S          0.12426  -0.03237   0.27707  -0.00173   0.23086
                           6         7         8         9        10
                           O         O         O         O         O
     Eigenvalues --    -0.60031  -0.56856  -0.55142  -0.48457  -0.44989
   1 1   C  1S          0.01756   0.03672  -0.00006   0.00630   0.01575
   2        1PX        -0.01773   0.31710  -0.00002  -0.42695   0.10486
   3        1PY        -0.33941  -0.04336   0.00007  -0.24741  -0.09226
   4        1PZ         0.00007   0.00001   0.25946   0.00015   0.00010
   5 2   C  1S          0.06391  -0.03304   0.00002  -0.00261   0.08069
   6        1PX         0.42271  -0.08069   0.00005   0.24253  -0.39000
   7        1PY        -0.03790  -0.28337   0.00003   0.43378   0.30218
   8        1PZ         0.00000   0.00004   0.30255   0.00004   0.00014
   9 3   C  1S          0.01682  -0.03136  -0.00001   0.00038   0.01766
  10        1PX        -0.03633  -0.29982   0.00002   0.10501   0.51972
  11        1PY         0.24839  -0.04167  -0.00011  -0.27431  -0.11097
  12        1PZ         0.00006   0.00010   0.63032  -0.00009   0.00001
  13 4   C  1S          0.15586   0.00907   0.00002   0.05283  -0.12896
  14        1PX        -0.32671  -0.02282   0.00006   0.24331  -0.37506
  15        1PY         0.01000   0.42756  -0.00003  -0.03749  -0.10994
  16        1PZ         0.00004   0.00003   0.32509   0.00003   0.00003
  17 5   H  1S          0.24038   0.04653  -0.00004   0.22383   0.09518
  18 6   H  1S          0.32819  -0.07132   0.00004   0.19368  -0.31475
  19 7   H  1S          0.11222  -0.03813  -0.39251  -0.12834  -0.03946
  20 8   C  1S         -0.12098  -0.00463   0.00001  -0.01562   0.04488
  21        1PX         0.44285   0.02388  -0.00008  -0.20334   0.28707
  22        1PY         0.00832   0.54590  -0.00009   0.30191   0.16177
  23        1PZ         0.00006  -0.00001   0.17343  -0.00003   0.00004
  24 9   H  1S         -0.22522   0.32141  -0.00003   0.29862   0.01020
  25 10  H  1S         -0.23088  -0.34676   0.00010  -0.13155  -0.23720
  26 11  H  1S          0.11227  -0.03799   0.39244  -0.12844  -0.03945
                          11        12        13        14        15
                           O         O         O         V         V
     Eigenvalues --    -0.42180  -0.40775  -0.34707   0.02272   0.07467
   1 1   C  1S         -0.10051   0.00005  -0.00004   0.00008   0.00006
   2        1PX         0.22605  -0.00011   0.00005  -0.00007   0.00001
   3        1PY        -0.35101   0.00042   0.00011  -0.00008  -0.00016
   4        1PZ         0.00044   0.45956   0.47362  -0.47514  -0.51309
   5 2   C  1S          0.01877  -0.00002  -0.00002  -0.00005  -0.00004
   6        1PX        -0.07214   0.00007   0.00006   0.00006   0.00005
   7        1PY         0.14460  -0.00022  -0.00007  -0.00001  -0.00005
   8        1PZ         0.00025   0.29230   0.56217   0.60155   0.35036
   9 3   C  1S          0.09843  -0.00011  -0.00001   0.00003   0.00005
  10        1PX        -0.16462   0.00007  -0.00003   0.00001   0.00007
  11        1PY        -0.42705   0.00043   0.00005  -0.00003  -0.00007
  12        1PZ        -0.00037  -0.33619  -0.04359   0.00293   0.09639
  13 4   C  1S         -0.00027   0.00004  -0.00000  -0.00003   0.00005
  14        1PX        -0.01548   0.00002   0.00004   0.00000  -0.00001
  15        1PY         0.45528  -0.00038  -0.00001   0.00004  -0.00001
  16        1PZ         0.00039   0.48375  -0.40016  -0.39384   0.56426
  17 5   H  1S          0.27157  -0.00027  -0.00001  -0.00007  -0.00012
  18 6   H  1S         -0.06443   0.00005   0.00002   0.00004   0.00001
  19 7   H  1S         -0.17188   0.29076   0.05313   0.02581   0.17108
  20 8   C  1S          0.00424  -0.00002   0.00002  -0.00001  -0.00000
  21        1PX         0.01595  -0.00006   0.00005  -0.00003   0.00001
  22        1PY        -0.30004   0.00025  -0.00005   0.00005  -0.00005
  23        1PZ         0.00037   0.43293  -0.54034   0.50589  -0.47725
  24 9   H  1S         -0.26459   0.00021  -0.00002  -0.00001   0.00002
  25 10  H  1S          0.25487  -0.00019   0.00001   0.00002  -0.00002
  26 11  H  1S         -0.17243  -0.29045  -0.05310  -0.02585  -0.17111
                          16        17        18        19        20
                           V         V         V         V         V
     Eigenvalues --     0.12549   0.12874   0.14636   0.17434   0.17656
   1 1   C  1S          0.13461  -0.19857   0.30226   0.11531  -0.30105
   2        1PX        -0.05058   0.35415  -0.19995   0.31431   0.01953
   3        1PY         0.11954  -0.19972  -0.05489   0.08637   0.38647
   4        1PZ         0.00002   0.00004   0.00015  -0.00005   0.00025
   5 2   C  1S         -0.11288  -0.22709  -0.34403  -0.19058  -0.20177
   6        1PX         0.08882   0.19612  -0.08930  -0.06630  -0.32475
   7        1PY        -0.02289  -0.39306  -0.22070   0.29536  -0.06381
   8        1PZ        -0.00005  -0.00009  -0.00009   0.00005  -0.00063
   9 3   C  1S         -0.17954   0.16225   0.29876   0.25344  -0.07431
  10        1PX         0.55172   0.43872   0.10924  -0.03383   0.06229
  11        1PY         0.25700  -0.27959  -0.25339   0.43685  -0.02040
  12        1PZ         0.00006   0.00001  -0.00001  -0.00022   0.00324
  13 4   C  1S          0.21193   0.28177  -0.32087   0.06665  -0.01167
  14        1PX         0.14355   0.20538  -0.11495   0.05289   0.05323
  15        1PY         0.52910  -0.24823   0.08394  -0.04304  -0.00807
  16        1PZ        -0.00000  -0.00010   0.00000   0.00006  -0.00072
  17 5   H  1S         -0.00579  -0.01500  -0.34753  -0.01254   0.57946
  18 6   H  1S          0.01299  -0.00358   0.40726   0.21815   0.43599
  19 7   H  1S         -0.00667   0.01544  -0.10589  -0.39374   0.06819
  20 8   C  1S         -0.06876  -0.08485   0.20256  -0.12660   0.13798
  21        1PX        -0.02416  -0.01686   0.07483   0.11855  -0.06560
  22        1PY         0.23774  -0.12588   0.05988  -0.15686  -0.03499
  23        1PZ        -0.00003   0.00008   0.00001  -0.00001   0.00037
  24 9   H  1S         -0.19610   0.20775  -0.18888   0.27161  -0.10709
  25 10  H  1S          0.30846  -0.05792  -0.08390   0.03459  -0.16095
  26 11  H  1S         -0.00674   0.01540  -0.10590  -0.39338   0.06369
                          21        22        23        24        25
                           V         V         V         V         V
     Eigenvalues --     0.17715   0.18194   0.18588   0.20119   0.20628
   1 1   C  1S          0.00138   0.06425   0.24956  -0.07540   0.09569
   2        1PX        -0.00007   0.03771   0.43880   0.26120   0.03712
   3        1PY        -0.00169  -0.06548  -0.04912   0.01862   0.29768
   4        1PZ         0.09029   0.00006   0.00003  -0.00005  -0.00008
   5 2   C  1S          0.00098  -0.13078  -0.21474  -0.07096  -0.08256
   6        1PX         0.00157  -0.25563   0.06732   0.06874   0.34498
   7        1PY         0.00034   0.11321   0.44757   0.07897   0.06351
   8        1PZ        -0.14958  -0.00004  -0.00004   0.00000   0.00001
   9 3   C  1S          0.00055  -0.22841  -0.28412   0.12908  -0.01394
  10        1PX        -0.00035  -0.06762  -0.03609  -0.14806   0.01020
  11        1PY         0.00028  -0.20675  -0.06354  -0.06033  -0.12767
  12        1PZ         0.69171   0.00021   0.00012  -0.00000  -0.00008
  13 4   C  1S         -0.00001  -0.01191   0.10888  -0.02667  -0.37602
  14        1PX        -0.00020  -0.12557   0.14930   0.07885   0.36313
  15        1PY         0.00001  -0.00080  -0.00741  -0.40834   0.08172
  16        1PZ        -0.16330  -0.00006  -0.00005   0.00002   0.00008
  17 5   H  1S         -0.00261  -0.10586  -0.21981   0.07142   0.15780
  18 6   H  1S         -0.00211   0.31793   0.11607  -0.00047  -0.19546
  19 7   H  1S          0.47771   0.25441   0.22265  -0.05279   0.06266
  20 8   C  1S         -0.00058  -0.38689   0.22666   0.03167   0.20118
  21        1PX         0.00036   0.25295  -0.17651   0.07630   0.57068
  22        1PY         0.00010   0.02411  -0.07341   0.60892  -0.09894
  23        1PZ         0.08267   0.00002   0.00003  -0.00004   0.00004
  24 9   H  1S          0.00053   0.38339  -0.19417  -0.37796   0.16203
  25 10  H  1S          0.00067   0.42033  -0.29163   0.40338   0.03603
  26 11  H  1S         -0.47884   0.25411   0.22249  -0.05279   0.06275
                          26
                           V
     Eigenvalues --     0.22899
   1 1   C  1S         -0.21602
   2        1PX        -0.07666
   3        1PY        -0.45121
   4        1PZ         0.00004
   5 2   C  1S          0.19501
   6        1PX        -0.39175
   7        1PY        -0.07855
   8        1PZ         0.00003
   9 3   C  1S         -0.13964
  10        1PX         0.00395
  11        1PY         0.24253
  12        1PZ         0.00002
  13 4   C  1S         -0.02154
  14        1PX         0.52685
  15        1PY        -0.02440
  16        1PZ         0.00001
  17 5   H  1S         -0.16783
  18 6   H  1S          0.13555
  19 7   H  1S         -0.00930
  20 8   C  1S          0.23898
  21        1PX         0.28573
  22        1PY         0.02297
  23        1PZ         0.00004
  24 9   H  1S         -0.05010
  25 10  H  1S         -0.02718
  26 11  H  1S         -0.00930
     Density Matrix:
                           1         2         3         4         5
   1 1   C  1S          1.23849
   2        1PX        -0.01029   0.92683
   3        1PY        -0.08171   0.00925   0.97348
   4        1PZ        -0.00003   0.00002   0.00001   1.00567
   5 2   C  1S          0.28397   0.41096   0.27695  -0.00007   1.25440
   6        1PX        -0.29795  -0.27267  -0.27856   0.00011   0.07292
   7        1PY        -0.39518  -0.45469  -0.23029   0.00003   0.02545
   8        1PZ        -0.00005   0.00011   0.00016   0.95817  -0.00001
   9 3   C  1S         -0.03807   0.00874  -0.02614   0.00001   0.19404
  10        1PX         0.00909  -0.07845   0.00362   0.00001   0.35718
  11        1PY         0.03832  -0.00158   0.00317  -0.00002  -0.29064
  12        1PZ         0.00001  -0.00000  -0.00000  -0.02321  -0.00003
  13 4   C  1S          0.23224  -0.40401   0.23872   0.00004  -0.03809
  14        1PX         0.24389  -0.32117   0.23934   0.00003  -0.01481
  15        1PY        -0.37067   0.50035  -0.25907  -0.00001   0.00648
  16        1PZ        -0.00002   0.00001   0.00002   0.23426  -0.00000
  17 5   H  1S          0.58886  -0.01756  -0.77201   0.00017  -0.03861
  18 6   H  1S         -0.04179  -0.07776  -0.04277   0.00002   0.58842
  19 7   H  1S          0.03468  -0.00213   0.02457   0.11374  -0.02218
  20 8   C  1S         -0.01926   0.04377  -0.01369  -0.00000   0.03340
  21        1PX        -0.03093   0.06487  -0.03150  -0.00001   0.04107
  22        1PY         0.01914  -0.00749   0.00650  -0.00000  -0.00032
  23        1PZ        -0.00000   0.00002  -0.00001  -0.02392   0.00003
  24 9   H  1S          0.06037  -0.08986   0.04852   0.00001  -0.01002
  25 10  H  1S         -0.02647   0.02989  -0.02226  -0.00000  -0.00768
  26 11  H  1S          0.03469  -0.00214   0.02453  -0.11376  -0.02219
                           6         7         8         9        10
   6        1PX         0.97745
   7        1PY        -0.00206   0.95077
   8        1PZ        -0.00001  -0.00003   0.98603
   9 3   C  1S         -0.18911   0.35749   0.00001   1.22635
  10        1PX        -0.22792   0.51662   0.00006   0.00508   0.91651
  11        1PY         0.25268  -0.41300  -0.00001   0.05915  -0.00052
  12        1PZ         0.00003  -0.00005   0.13586   0.00001   0.00001
  13 4   C  1S          0.02124   0.00253   0.00000   0.18769  -0.39882
  14        1PX        -0.01791   0.01182   0.00001   0.19906  -0.31097
  15        1PY        -0.01135  -0.05238  -0.00003   0.33731  -0.50930
  16        1PZ         0.00001  -0.00000   0.02959  -0.00000  -0.00000
  17 5   H  1S          0.04484   0.07895   0.00003   0.06876   0.01151
  18 6   H  1S          0.77199  -0.02537  -0.00005  -0.03957  -0.08557
  19 7   H  1S          0.02361  -0.05191  -0.00788   0.52055   0.01577
  20 8   C  1S         -0.02973   0.00366   0.00002  -0.01728   0.04774
  21        1PX        -0.02989   0.00135   0.00003  -0.02650   0.07146
  22        1PY        -0.00092   0.00681  -0.00002  -0.01949   0.00889
  23        1PZ        -0.00004   0.00001  -0.24950  -0.00001   0.00002
  24 9   H  1S          0.00915   0.01510  -0.00000  -0.02567   0.03008
  25 10  H  1S          0.00554  -0.01610  -0.00001   0.05381  -0.09411
  26 11  H  1S          0.02361  -0.05191   0.00789   0.52057   0.01579
                          11        12        13        14        15
  11        1PY         0.94955
  12        1PZ        -0.00001   1.02446
  13 4   C  1S         -0.25256  -0.00001   1.22719
  14        1PX        -0.24750  -0.00001   0.00833   0.92932
  15        1PY        -0.34878  -0.00003   0.01527   0.00754   0.95079
  16        1PZ         0.00000   0.11945   0.00003  -0.00000  -0.00001
  17 5   H  1S         -0.08832  -0.00001  -0.03632  -0.04242   0.08621
  18 6   H  1S          0.05541   0.00001   0.08009   0.06626  -0.01768
  19 7   H  1S          0.45259  -0.69477  -0.01828  -0.02416  -0.05040
  20 8   C  1S          0.01489   0.00000   0.33175  -0.46788  -0.00465
  21        1PX         0.03316   0.00000   0.54045  -0.58584  -0.00545
  22        1PY         0.01109  -0.00000   0.00432  -0.00286   0.17534
  23        1PZ         0.00001  -0.02534   0.00008  -0.00011  -0.00001
  24 9   H  1S          0.03349   0.00000  -0.04293   0.05918   0.02415
  25 10  H  1S         -0.06243  -0.00001  -0.03935   0.06091  -0.02213
  26 11  H  1S          0.45247   0.69483  -0.01828  -0.02416  -0.05038
                          16        17        18        19        20
  16        1PZ         0.99966
  17 5   H  1S          0.00001   0.85067
  18 6   H  1S          0.00000   0.00887   0.85029
  19 7   H  1S         -0.01652  -0.02320   0.01439   0.89917
  20 8   C  1S         -0.00006   0.00430  -0.02161   0.00515   1.22467
  21        1PX        -0.00012   0.01108  -0.02914   0.00975  -0.08366
  22        1PY         0.00006   0.00200   0.00047  -0.00155  -0.00080
  23        1PZ         0.96407  -0.00001  -0.00002   0.05809  -0.00002
  24 9   H  1S          0.00001  -0.01455   0.01316   0.00919   0.55050
  25 10  H  1S          0.00002   0.01359   0.00742  -0.00976   0.55014
  26 11  H  1S          0.01653  -0.02321   0.01439  -0.06607   0.00516
                          21        22        23        24        25
  21        1PX         0.93379
  22        1PY        -0.00035   1.02229
  23        1PZ        -0.00002   0.00001   1.01895
  24 9   H  1S         -0.41377   0.69356  -0.00006   0.88231
  25 10  H  1S         -0.40655  -0.69757   0.00003  -0.08494   0.88176
  26 11  H  1S          0.00976  -0.00156  -0.05809   0.00919  -0.00976
                          26
  26 11  H  1S          0.89916
    Full Mulliken population analysis:
                           1         2         3         4         5
   1 1   C  1S          1.23849
   2        1PX         0.00000   0.92683
   3        1PY         0.00000   0.00000   0.97348
   4        1PZ         0.00000   0.00000   0.00000   1.00567
   5 2   C  1S          0.00000   0.00000   0.00000   0.00000   1.25440
   6        1PX         0.00000   0.00000   0.00000   0.00000   0.00000
   7        1PY         0.00000   0.00000   0.00000   0.00000   0.00000
   8        1PZ         0.00000   0.00000   0.00000   0.00000   0.00000
   9 3   C  1S          0.00000   0.00000   0.00000   0.00000   0.00000
  10        1PX         0.00000   0.00000   0.00000   0.00000   0.00000
  11        1PY         0.00000   0.00000   0.00000   0.00000   0.00000
  12        1PZ         0.00000   0.00000   0.00000   0.00000   0.00000
  13 4   C  1S          0.00000   0.00000   0.00000   0.00000   0.00000
  14        1PX         0.00000   0.00000   0.00000   0.00000   0.00000
  15        1PY         0.00000   0.00000   0.00000   0.00000   0.00000
  16        1PZ         0.00000   0.00000   0.00000   0.00000   0.00000
  17 5   H  1S          0.00000   0.00000   0.00000   0.00000   0.00000
  18 6   H  1S          0.00000   0.00000   0.00000   0.00000   0.00000
  19 7   H  1S          0.00000   0.00000   0.00000   0.00000   0.00000
  20 8   C  1S          0.00000   0.00000   0.00000   0.00000   0.00000
  21        1PX         0.00000   0.00000   0.00000   0.00000   0.00000
  22        1PY         0.00000   0.00000   0.00000   0.00000   0.00000
  23        1PZ         0.00000   0.00000   0.00000   0.00000   0.00000
  24 9   H  1S          0.00000   0.00000   0.00000   0.00000   0.00000
  25 10  H  1S          0.00000   0.00000   0.00000   0.00000   0.00000
  26 11  H  1S          0.00000   0.00000   0.00000   0.00000   0.00000
                           6         7         8         9        10
   6        1PX         0.97745
   7        1PY         0.00000   0.95077
   8        1PZ         0.00000   0.00000   0.98603
   9 3   C  1S          0.00000   0.00000   0.00000   1.22635
  10        1PX         0.00000   0.00000   0.00000   0.00000   0.91651
  11        1PY         0.00000   0.00000   0.00000   0.00000   0.00000
  12        1PZ         0.00000   0.00000   0.00000   0.00000   0.00000
  13 4   C  1S          0.00000   0.00000   0.00000   0.00000   0.00000
  14        1PX         0.00000   0.00000   0.00000   0.00000   0.00000
  15        1PY         0.00000   0.00000   0.00000   0.00000   0.00000
  16        1PZ         0.00000   0.00000   0.00000   0.00000   0.00000
  17 5   H  1S          0.00000   0.00000   0.00000   0.00000   0.00000
  18 6   H  1S          0.00000   0.00000   0.00000   0.00000   0.00000
  19 7   H  1S          0.00000   0.00000   0.00000   0.00000   0.00000
  20 8   C  1S          0.00000   0.00000   0.00000   0.00000   0.00000
  21        1PX         0.00000   0.00000   0.00000   0.00000   0.00000
  22        1PY         0.00000   0.00000   0.00000   0.00000   0.00000
  23        1PZ         0.00000   0.00000   0.00000   0.00000   0.00000
  24 9   H  1S          0.00000   0.00000   0.00000   0.00000   0.00000
  25 10  H  1S          0.00000   0.00000   0.00000   0.00000   0.00000
  26 11  H  1S          0.00000   0.00000   0.00000   0.00000   0.00000
                          11        12        13        14        15
  11        1PY         0.94955
  12        1PZ         0.00000   1.02446
  13 4   C  1S          0.00000   0.00000   1.22719
  14        1PX         0.00000   0.00000   0.00000   0.92932
  15        1PY         0.00000   0.00000   0.00000   0.00000   0.95079
  16        1PZ         0.00000   0.00000   0.00000   0.00000   0.00000
  17 5   H  1S          0.00000   0.00000   0.00000   0.00000   0.00000
  18 6   H  1S          0.00000   0.00000   0.00000   0.00000   0.00000
  19 7   H  1S          0.00000   0.00000   0.00000   0.00000   0.00000
  20 8   C  1S          0.00000   0.00000   0.00000   0.00000   0.00000
  21        1PX         0.00000   0.00000   0.00000   0.00000   0.00000
  22        1PY         0.00000   0.00000   0.00000   0.00000   0.00000
  23        1PZ         0.00000   0.00000   0.00000   0.00000   0.00000
  24 9   H  1S          0.00000   0.00000   0.00000   0.00000   0.00000
  25 10  H  1S          0.00000   0.00000   0.00000   0.00000   0.00000
  26 11  H  1S          0.00000   0.00000   0.00000   0.00000   0.00000
                          16        17        18        19        20
  16        1PZ         0.99966
  17 5   H  1S          0.00000   0.85067
  18 6   H  1S          0.00000   0.00000   0.85029
  19 7   H  1S          0.00000   0.00000   0.00000   0.89917
  20 8   C  1S          0.00000   0.00000   0.00000   0.00000   1.22467
  21        1PX         0.00000   0.00000   0.00000   0.00000   0.00000
  22        1PY         0.00000   0.00000   0.00000   0.00000   0.00000
  23        1PZ         0.00000   0.00000   0.00000   0.00000   0.00000
  24 9   H  1S          0.00000   0.00000   0.00000   0.00000   0.00000
  25 10  H  1S          0.00000   0.00000   0.00000   0.00000   0.00000
  26 11  H  1S          0.00000   0.00000   0.00000   0.00000   0.00000
                          21        22        23        24        25
  21        1PX         0.93379
  22        1PY         0.00000   1.02229
  23        1PZ         0.00000   0.00000   1.01895
  24 9   H  1S          0.00000   0.00000   0.00000   0.88231
  25 10  H  1S          0.00000   0.00000   0.00000   0.00000   0.88176
  26 11  H  1S          0.00000   0.00000   0.00000   0.00000   0.00000
                          26
  26 11  H  1S          0.89916
     Gross orbital populations:
                           1
   1 1   C  1S          1.23849
   2        1PX         0.92683
   3        1PY         0.97348
   4        1PZ         1.00567
   5 2   C  1S          1.25440
   6        1PX         0.97745
   7        1PY         0.95077
   8        1PZ         0.98603
   9 3   C  1S          1.22635
  10        1PX         0.91651
  11        1PY         0.94955
  12        1PZ         1.02446
  13 4   C  1S          1.22719
  14        1PX         0.92932
  15        1PY         0.95079
  16        1PZ         0.99966
  17 5   H  1S          0.85067
  18 6   H  1S          0.85029
  19 7   H  1S          0.89917
  20 8   C  1S          1.22467
  21        1PX         0.93379
  22        1PY         1.02229
  23        1PZ         1.01895
  24 9   H  1S          0.88231
  25 10  H  1S          0.88176
  26 11  H  1S          0.89916
          Condensed to atoms (all electrons):
               1          2          3          4          5          6
     1  C    4.144463   0.000000   0.000000   0.000000   0.000000   0.000000
     2  C    0.000000   4.168646   0.000000   0.000000   0.000000   0.000000
     3  C    0.000000   0.000000   4.116874   0.000000   0.000000   0.000000
     4  C    0.000000   0.000000   0.000000   4.106955   0.000000   0.000000
     5  H    0.000000   0.000000   0.000000   0.000000   0.850672   0.000000
     6  H    0.000000   0.000000   0.000000   0.000000   0.000000   0.850291
     7  H    0.000000   0.000000   0.000000   0.000000   0.000000   0.000000
     8  C    0.000000   0.000000   0.000000   0.000000   0.000000   0.000000
     9  H    0.000000   0.000000   0.000000   0.000000   0.000000   0.000000
    10  H    0.000000   0.000000   0.000000   0.000000   0.000000   0.000000
    11  H    0.000000   0.000000   0.000000   0.000000   0.000000   0.000000
               7          8          9         10         11
     1  C    0.000000   0.000000   0.000000   0.000000   0.000000
     2  C    0.000000   0.000000   0.000000   0.000000   0.000000
     3  C    0.000000   0.000000   0.000000   0.000000   0.000000
     4  C    0.000000   0.000000   0.000000   0.000000   0.000000
     5  H    0.000000   0.000000   0.000000   0.000000   0.000000
     6  H    0.000000   0.000000   0.000000   0.000000   0.000000
     7  H    0.899170   0.000000   0.000000   0.000000   0.000000
     8  C    0.000000   4.199694   0.000000   0.000000   0.000000
     9  H    0.000000   0.000000   0.882313   0.000000   0.000000
    10  H    0.000000   0.000000   0.000000   0.881763   0.000000
    11  H    0.000000   0.000000   0.000000   0.000000   0.899158
 Mulliken charges:
               1
     1  C   -0.144463
     2  C   -0.168646
     3  C   -0.116874
     4  C   -0.106955
     5  H    0.149328
     6  H    0.149709
     7  H    0.100830
     8  C   -0.199694
     9  H    0.117687
    10  H    0.118237
    11  H    0.100842
 Sum of Mulliken charges =   0.00000
 Mulliken charges with hydrogens summed into heavy atoms:
               1
     1  C    0.004864
     2  C   -0.018937
     3  C    0.084798
     4  C   -0.106955
     8  C    0.036230
 Charge=              0.0000 electrons
 Dipole moment (field-independent basis, Debye):
    X=              0.2322    Y=              0.1435    Z=              0.0004  Tot=              0.2730
 N-N= 9.405732781631D+01 E-N=-1.295560509651D+02  KE=-4.053638330895D+01
 Orbital energies and kinetic energies (alpha):
                                 1                 2
   1         O                -1.437464         -2.443384
   2         O                -1.150195         -2.096423
   3         O                -0.978340         -1.847216
   4         O                -0.819791         -1.696886
   5         O                -0.673975         -1.411352
   6         O                -0.600313         -1.346727
   7         O                -0.568561         -1.393306
   8         O                -0.551418         -1.312577
   9         O                -0.484574         -1.309602
  10         O                -0.449888         -1.351408
  11         O                -0.421795         -1.222362
  12         O                -0.407751         -1.349123
  13         O                -0.347071         -1.487824
  14         V                 0.022718         -1.393702
  15         V                 0.074670         -1.299038
  16         V                 0.125489         -1.192779
  17         V                 0.128743         -1.292968
  18         V                 0.146362         -1.006953
  19         V                 0.174342         -0.854293
  20         V                 0.176560         -0.709953
  21         V                 0.177154         -0.812667
  22         V                 0.181944         -0.725211
  23         V                 0.185877         -1.015759
  24         V                 0.201189         -0.948334
  25         V                 0.206278         -1.181375
  26         V                 0.228993         -1.208679
 Total kinetic energy from orbitals=-4.053638330895D+01
 Calling FoFJK, ICntrl=      2127 FMM=F ISym2X=0 I1Cent= 0 IOpClX= 0 NMat=1 NMatS=1 NMatT=0.
 ***** Axes restored to original set *****
 -------------------------------------------------------------------
 Center     Atomic                   Forces (Hartrees/Bohr)
 Number     Number              X              Y              Z
 -------------------------------------------------------------------
      1        6           0.026601802   -0.009539016   -0.000027665
      2        6          -0.012287217    0.029192847   -0.000014858
      3        6           0.004913391   -0.038993839    0.000020402
      4        6          -0.026976803    0.006042565    0.000012776
      5        1           0.004532280   -0.011292099    0.000013252
      6        1          -0.010816317    0.004635523    0.000004478
      7        1          -0.000975614    0.010000227    0.016613132
      8        6          -0.006525274   -0.000048777   -0.000008071
      9        1           0.011391113    0.014802699    0.000000187
     10        1           0.011131784   -0.014794906    0.000003819
     11        1          -0.000989145    0.009994777   -0.016617451
 -------------------------------------------------------------------
 Cartesian Forces:  Max     0.038993839 RMS     0.013354757

 GradGradGradGradGradGradGradGradGradGradGradGradGradGradGradGradGradGrad
 Berny optimization.
 FormGI is forming the generalized inverse of G from B-inverse, IUseBI=4.
 Internal  Forces:  Max     0.032510893 RMS     0.008221080
 Search for a local minimum.
 Step number   1 out of a maximum of   63
 All quantities printed in internal units (Hartrees-Bohrs-Radians)
 Mixed Optimization -- RFO/linear search
 Second derivative matrix not updated -- first step.
 ITU=  0
     Eigenvalues ---    0.00648   0.01113   0.01634   0.02051   0.03276
     Eigenvalues ---    0.03276   0.05345   0.06140   0.06873   0.08224
     Eigenvalues ---    0.16000   0.16000   0.16000   0.16000   0.22439
     Eigenvalues ---    0.25000   0.26092   0.26962   0.31793   0.35869
     Eigenvalues ---    0.35869   0.36762   0.36803   0.37557   0.37615
     Eigenvalues ---    0.53978   0.64424
 RFO step:  Lambda=-8.95837160D-03 EMin= 6.48112941D-03
 Linear search not attempted -- first point.
 Iteration  1 RMS(Cart)=  0.02739837 RMS(Int)=  0.00037344
 Iteration  2 RMS(Cart)=  0.00044356 RMS(Int)=  0.00006524
 Iteration  3 RMS(Cart)=  0.00000022 RMS(Int)=  0.00006524
 Variable       Old X    -DE/DX   Delta X   Delta X   Delta X     New X
                                 (Linear)    (Quad)   (Total)
    R1        2.51972   0.03251   0.00000   0.05989   0.05978   2.57950
    R2        2.82238  -0.00543   0.00000  -0.01493  -0.01501   2.80737
    R3        2.01714   0.01131   0.00000   0.02941   0.02941   2.04655
    R4        2.92366  -0.01039   0.00000  -0.03569  -0.03562   2.88804
    R5        2.01630   0.01056   0.00000   0.02741   0.02741   2.04371
    R6        2.94986  -0.00774   0.00000  -0.03954  -0.03943   2.91043
    R7        2.04288   0.01937   0.00000   0.05269   0.05269   2.09556
    R8        2.04287   0.01937   0.00000   0.05269   0.05269   2.09556
    R9        2.47602   0.01600   0.00000   0.02449   0.02449   2.50051
   R10        2.02844   0.01858   0.00000   0.04930   0.04930   2.07773
   R11        2.02906   0.01842   0.00000   0.04892   0.04892   2.07798
    A1        1.63918  -0.00603   0.00000  -0.01273  -0.01292   1.62627
    A2        2.33359   0.00754   0.00000   0.03316   0.03325   2.36684
    A3        2.31041  -0.00151   0.00000  -0.02043  -0.02034   2.29007
    A4        1.65148  -0.00752   0.00000  -0.02028  -0.02033   1.63115
    A5        2.32996   0.00900   0.00000   0.04116   0.04119   2.37115
    A6        2.30175  -0.00148   0.00000  -0.02088  -0.02086   2.28089
    A7        1.45676   0.00890   0.00000   0.02606   0.02629   1.48305
    A8        2.01523  -0.00282   0.00000  -0.01198  -0.01212   2.00310
    A9        2.01538  -0.00283   0.00000  -0.01213  -0.01228   2.00310
   A10        1.99776  -0.00232   0.00000  -0.00192  -0.00187   1.99588
   A11        1.99764  -0.00231   0.00000  -0.00183  -0.00179   1.99585
   A12        1.93912   0.00214   0.00000   0.00488   0.00477   1.94389
   A13        1.53576   0.00465   0.00000   0.00695   0.00696   1.54272
   A14        2.39184  -0.00227   0.00000  -0.00325  -0.00326   2.38858
   A15        2.35558  -0.00238   0.00000  -0.00369  -0.00370   2.35188
   A16        2.12029   0.00127   0.00000   0.00754   0.00754   2.12782
   A17        2.12197   0.00124   0.00000   0.00734   0.00734   2.12932
   A18        2.04093  -0.00251   0.00000  -0.01488  -0.01488   2.02604
    D1        0.00007  -0.00000   0.00000  -0.00008  -0.00008  -0.00000
    D2        3.14153   0.00000   0.00000   0.00014   0.00015  -3.14151
    D3       -3.14107  -0.00001   0.00000  -0.00029  -0.00030  -3.14137
    D4        0.00039  -0.00000   0.00000  -0.00008  -0.00008   0.00031
    D5       -0.00007   0.00000   0.00000   0.00008   0.00008   0.00000
    D6        3.14134   0.00000   0.00000   0.00007   0.00007   3.14141
    D7        3.14108   0.00001   0.00000   0.00031   0.00031   3.14139
    D8       -0.00069   0.00001   0.00000   0.00031   0.00030  -0.00039
    D9       -0.00007   0.00000   0.00000   0.00007   0.00007   0.00000
   D10       -1.99016  -0.00137   0.00000  -0.00901  -0.00895  -1.99911
   D11        1.98991   0.00138   0.00000   0.00924   0.00918   1.99909
   D12       -3.14153  -0.00000   0.00000  -0.00014  -0.00014   3.14152
   D13        1.15156  -0.00137   0.00000  -0.00923  -0.00916   1.14240
   D14       -1.15155   0.00137   0.00000   0.00903   0.00897  -1.14259
   D15        0.00006  -0.00000   0.00000  -0.00006  -0.00007  -0.00000
   D16       -3.14136  -0.00000   0.00000  -0.00006  -0.00006  -3.14142
   D17        2.00797   0.00069   0.00000  -0.00174  -0.00170   2.00627
   D18       -1.13344   0.00069   0.00000  -0.00173  -0.00170  -1.13514
   D19       -2.00801  -0.00068   0.00000   0.00177   0.00173  -2.00628
   D20        1.13375  -0.00068   0.00000   0.00177   0.00174   1.13549
   D21       -3.14137  -0.00000   0.00000  -0.00003  -0.00003  -3.14140
   D22        0.00030  -0.00000   0.00000  -0.00010  -0.00010   0.00020
   D23       -0.00004  -0.00000   0.00000  -0.00003  -0.00003  -0.00007
   D24       -3.14154  -0.00000   0.00000  -0.00010  -0.00010   3.14154
         Item               Value     Threshold  Converged?
 Maximum Force            0.032511     0.000450     NO 
 RMS     Force            0.008221     0.000300     NO 
 Maximum Displacement     0.113825     0.001800     NO 
 RMS     Displacement     0.027463     0.001200     NO 
 Predicted change in Energy=-4.594133D-03
 GradGradGradGradGradGradGradGradGradGradGradGradGradGradGradGradGradGrad

                          Input orientation:                          
 ---------------------------------------------------------------------
 Center     Atomic      Atomic             Coordinates (Angstroms)
 Number     Number       Type             X           Y           Z
 ---------------------------------------------------------------------
      1          6           0       -0.529843   -1.055382   -0.000042
      2          6           0       -1.517461   -0.113113   -0.000011
      3          6           0       -0.531098    1.054250   -0.000046
      4          6           0        0.553681   -0.039033   -0.000085
      5          1           0       -0.492877   -2.137740   -0.000208
      6          1           0       -2.598906   -0.122349    0.000091
      7          1           0       -0.550656    1.679048    0.915901
      8          6           0        1.876896   -0.038491    0.000029
      9          1           0        2.457776    0.895026    0.000129
     10          1           0        2.460000   -0.970773    0.000015
     11          1           0       -0.550698    1.679025   -0.916003
 ---------------------------------------------------------------------
                    Distance matrix (angstroms):
                    1          2          3          4          5
     1  C    0.000000
     2  C    1.365012   0.000000
     3  C    2.109632   1.528282   0.000000
     4  C    1.485594   2.072466   1.540134   0.000000
     5  H    1.082989   2.269115   3.192218   2.345177   0.000000
     6  H    2.269707   1.081485   2.379120   3.153688   2.914988
     7  H    2.883832   2.232811   1.108925   2.238390   3.925615
     8  C    2.612750   3.395176   2.644337   1.323215   3.165860
     9  H    3.567907   4.101079   2.993113   2.120859   4.231314
    10  H    2.991040   4.068878   3.612117   2.121837   3.175105
    11  H    2.883817   2.232808   1.108921   2.238366   3.925521
                    6          7          8          9         10
     6  H    0.000000
     7  H    2.877336   0.000000
     8  C    4.476587   3.111554   0.000000
     9  H    5.158012   3.240986   1.099489   0.000000
    10  H    5.129556   4.113933   1.099618   1.865800   0.000000
    11  H    2.877383   1.831904   3.111621   3.241122   4.113979
                   11
    11  H    0.000000
 Stoichiometry    C5H6
 Framework group  C1[X(C5H6)]
 Deg. of freedom    27
 Full point group                 C1      NOp   1
 Largest Abelian subgroup         C1      NOp   1
 Largest concise Abelian subgroup C1      NOp   1
                         Standard orientation:                         
 ---------------------------------------------------------------------
 Center     Atomic      Atomic             Coordinates (Angstroms)
 Number     Number       Type             X           Y           Z
 ---------------------------------------------------------------------
      1          6           0        0.519094   -1.054909    0.000014
      2          6           0        1.512276   -0.118508   -0.000017
      3          6           0        0.532847    1.054678    0.000018
      4          6           0       -0.558390   -0.032159    0.000057
      5          1           0        0.475716   -2.137029    0.000180
      6          1           0        2.593648   -0.134150   -0.000119
      7          1           0        0.556106    1.679349   -0.915929
      8          6           0       -1.881578   -0.023778   -0.000057
      9          1           0       -2.456918    0.913163   -0.000157
     10          1           0       -2.470195   -0.952590   -0.000043
     11          1           0        0.556148    1.679326    0.915975
 ---------------------------------------------------------------------
 Rotational constants (GHZ):          12.4419576           4.9613591           3.6332112
 Standard basis: VSTO-6G (5D, 7F)
 There are    26 symmetry adapted cartesian basis functions of A   symmetry.
 There are    26 symmetry adapted basis functions of A   symmetry.
    26 basis functions,   156 primitive gaussians,    26 cartesian basis functions
    13 alpha electrons       13 beta electrons
       nuclear repulsion energy        93.7990543924 Hartrees.
 Integral buffers will be    131072 words long.
 Regular integral format.
 Two-electron integral symmetry is turned off.
 Do NDO integrals.
 One-electron integrals computed using PRISM.
 NBasis=    26 RedAO= F EigKep=  0.00D+00  NBF=    26
 NBsUse=    26 1.00D-04 EigRej=  0.00D+00 NBFU=    26
 Initial guess from the checkpoint file:  "meth_cyclobutadiene_isomer_opt.chk"
 B after Tr=     0.000000    0.000000    0.000000
         Rot=    0.999995    0.000009    0.000005    0.003040 Ang=   0.35 deg.
 Keep J ints in memory in canonical form, NReq=860916.
 Overlap will be assumed to be unity.
 Requested convergence on RMS density matrix=1.00D-08 within 128 cycles.
 Requested convergence on MAX density matrix=1.00D-06.
 Requested convergence on             energy=1.00D-06.
 No special actions if energy rises.
 SCF Done:  E(RAM1) =  0.115818763554     A.U. after   11 cycles
            NFock= 10  Conv=0.24D-08     -V/T= 1.0029
 Calling FoFJK, ICntrl=      2127 FMM=F ISym2X=0 I1Cent= 0 IOpClX= 0 NMat=1 NMatS=1 NMatT=0.
 ***** Axes restored to original set *****
 -------------------------------------------------------------------
 Center     Atomic                   Forces (Hartrees/Bohr)
 Number     Number              X              Y              Z
 -------------------------------------------------------------------
      1        6          -0.004653367    0.001457587   -0.000019120
      2        6           0.003466533   -0.004919090    0.000006662
      3        6           0.002197772   -0.003528608    0.000000462
      4        6           0.002463328    0.002550940    0.000013549
      5        1           0.000668466    0.001843143    0.000007308
      6        1           0.001870407    0.000827687   -0.000002192
      7        1          -0.000087802    0.001084893   -0.000207405
      8        6          -0.005218841   -0.000418591   -0.000003653
      9        1          -0.000324131   -0.001644484   -0.000002101
     10        1          -0.000292564    0.001659661    0.000001221
     11        1          -0.000089802    0.001086862    0.000205269
 -------------------------------------------------------------------
 Cartesian Forces:  Max     0.005218841 RMS     0.002010560

 GradGradGradGradGradGradGradGradGradGradGradGradGradGradGradGradGradGrad
 Berny optimization.
 Using GEDIIS/GDIIS optimizer.
 FormGI is forming the generalized inverse of G from B-inverse, IUseBI=4.
 Internal  Forces:  Max     0.005835700 RMS     0.001362548
 Search for a local minimum.
 Step number   2 out of a maximum of   63
 All quantities printed in internal units (Hartrees-Bohrs-Radians)
 Mixed Optimization -- RFO/linear search
 Update second derivatives using D2CorX and points    1    2
 DE= -4.16D-03 DEPred=-4.59D-03 R= 9.04D-01
 TightC=F SS=  1.41D+00  RLast= 1.59D-01 DXNew= 5.0454D-01 4.7632D-01
 Trust test= 9.04D-01 RLast= 1.59D-01 DXMaxT set to 4.76D-01
 ITU=  1  0
 Use linear search instead of GDIIS.
     Eigenvalues ---    0.00633   0.01169   0.01651   0.02104   0.03276
     Eigenvalues ---    0.03276   0.05544   0.06310   0.06764   0.08116
     Eigenvalues ---    0.15604   0.16000   0.16000   0.16007   0.22576
     Eigenvalues ---    0.24935   0.25190   0.27061   0.31714   0.35263
     Eigenvalues ---    0.35869   0.36782   0.37064   0.37585   0.38739
     Eigenvalues ---    0.57276   0.68198
 RFO step:  Lambda=-1.85185759D-04 EMin= 6.33122510D-03
 Quartic linear search produced a step of -0.05421.
 Iteration  1 RMS(Cart)=  0.00430222 RMS(Int)=  0.00000896
 Iteration  2 RMS(Cart)=  0.00000893 RMS(Int)=  0.00000384
 Iteration  3 RMS(Cart)=  0.00000000 RMS(Int)=  0.00000384
 Variable       Old X    -DE/DX   Delta X   Delta X   Delta X     New X
                                 (Linear)    (Quad)   (Total)
    R1        2.57950  -0.00548  -0.00324  -0.00503  -0.00826   2.57124
    R2        2.80737  -0.00037   0.00081  -0.00196  -0.00114   2.80623
    R3        2.04655  -0.00182  -0.00159  -0.00244  -0.00404   2.04251
    R4        2.88804   0.00006   0.00193  -0.00274  -0.00081   2.88723
    R5        2.04371  -0.00188  -0.00149  -0.00273  -0.00421   2.03950
    R6        2.91043  -0.00359   0.00214  -0.01426  -0.01213   2.89830
    R7        2.09556   0.00044  -0.00286   0.00499   0.00213   2.09769
    R8        2.09556   0.00044  -0.00286   0.00499   0.00214   2.09769
    R9        2.50051  -0.00584  -0.00133  -0.00677  -0.00810   2.49241
   R10        2.07773  -0.00157  -0.00267  -0.00045  -0.00312   2.07461
   R11        2.07798  -0.00156  -0.00265  -0.00047  -0.00312   2.07486
    A1        1.62627  -0.00032   0.00070  -0.00377  -0.00306   1.62321
    A2        2.36684   0.00091  -0.00180   0.00820   0.00639   2.37323
    A3        2.29007  -0.00059   0.00110  -0.00443  -0.00333   2.28674
    A4        1.63115   0.00097   0.00110   0.00057   0.00167   1.63282
    A5        2.37115   0.00035  -0.00223   0.00681   0.00458   2.37573
    A6        2.28089  -0.00131   0.00113  -0.00738  -0.00625   2.27464
    A7        1.48305  -0.00108  -0.00143  -0.00020  -0.00164   1.48141
    A8        2.00310   0.00051   0.00066   0.00194   0.00260   2.00571
    A9        2.00310   0.00051   0.00067   0.00192   0.00259   2.00570
   A10        1.99588   0.00056   0.00010   0.00339   0.00349   1.99937
   A11        1.99585   0.00056   0.00010   0.00342   0.00351   1.99936
   A12        1.94389  -0.00092  -0.00026  -0.00782  -0.00807   1.93582
   A13        1.54272   0.00043  -0.00038   0.00340   0.00302   1.54574
   A14        2.38858  -0.00067   0.00018  -0.00343  -0.00325   2.38533
   A15        2.35188   0.00025   0.00020   0.00003   0.00023   2.35211
   A16        2.12782   0.00038  -0.00041   0.00280   0.00240   2.13022
   A17        2.12932   0.00046  -0.00040   0.00326   0.00286   2.13218
   A18        2.02604  -0.00085   0.00081  -0.00607  -0.00526   2.02079
    D1       -0.00000   0.00000   0.00000   0.00009   0.00010   0.00009
    D2       -3.14151   0.00000  -0.00001   0.00005   0.00004  -3.14147
    D3       -3.14137  -0.00000   0.00002  -0.00011  -0.00009  -3.14147
    D4        0.00031  -0.00000   0.00000  -0.00015  -0.00015   0.00016
    D5        0.00000  -0.00000  -0.00000  -0.00009  -0.00010  -0.00009
    D6        3.14141   0.00000  -0.00000  -0.00001  -0.00001   3.14140
    D7        3.14139   0.00000  -0.00002   0.00010   0.00008   3.14147
    D8       -0.00039   0.00000  -0.00002   0.00019   0.00017  -0.00022
    D9        0.00000  -0.00000  -0.00000  -0.00009  -0.00010  -0.00009
   D10       -1.99911  -0.00017   0.00049  -0.00397  -0.00349  -2.00260
   D11        1.99909   0.00017  -0.00050   0.00382   0.00333   2.00241
   D12        3.14152  -0.00000   0.00001  -0.00005  -0.00004   3.14147
   D13        1.14240  -0.00017   0.00050  -0.00393  -0.00344   1.13896
   D14       -1.14259   0.00017  -0.00049   0.00386   0.00338  -1.13921
   D15       -0.00000   0.00000   0.00000   0.00008   0.00009   0.00008
   D16       -3.14142  -0.00000   0.00000   0.00000   0.00000  -3.14142
   D17        2.00627   0.00013   0.00009   0.00252   0.00261   2.00888
   D18       -1.13514   0.00013   0.00009   0.00243   0.00252  -1.13262
   D19       -2.00628  -0.00013  -0.00009  -0.00233  -0.00242  -2.00870
   D20        1.13549  -0.00013  -0.00009  -0.00241  -0.00251   1.13298
   D21       -3.14140  -0.00000   0.00000  -0.00011  -0.00011  -3.14151
   D22        0.00020  -0.00000   0.00001  -0.00009  -0.00009   0.00011
   D23       -0.00007  -0.00000   0.00000   0.00001   0.00001  -0.00006
   D24        3.14154   0.00000   0.00001   0.00003   0.00003   3.14157
         Item               Value     Threshold  Converged?
 Maximum Force            0.005836     0.000450     NO 
 RMS     Force            0.001363     0.000300     NO 
 Maximum Displacement     0.013504     0.001800     NO 
 RMS     Displacement     0.004304     0.001200     NO 
 Predicted change in Energy=-1.067761D-04
 GradGradGradGradGradGradGradGradGradGradGradGradGradGradGradGradGradGrad

                          Input orientation:                          
 ---------------------------------------------------------------------
 Center     Atomic      Atomic             Coordinates (Angstroms)
 Number     Number       Type             X           Y           Z
 ---------------------------------------------------------------------
      1          6           0       -0.529906   -1.056375   -0.000116
      2          6           0       -1.513665   -0.116398    0.000017
      3          6           0       -0.528669    1.051557   -0.000056
      4          6           0        0.550822   -0.037929   -0.000063
      5          1           0       -0.486909   -2.136371   -0.000247
      6          1           0       -2.592915   -0.119877    0.000157
      7          1           0       -0.549128    1.680681    0.914274
      8          6           0        1.869750   -0.038620    0.000054
      9          1           0        2.452857    0.891560    0.000140
     10          1           0        2.453775   -0.968377    0.000038
     11          1           0       -0.549199    1.680615   -0.914429
 ---------------------------------------------------------------------
                    Distance matrix (angstroms):
                    1          2          3          4          5
     1  C    0.000000
     2  C    1.360639   0.000000
     3  C    2.107932   1.527854   0.000000
     4  C    1.484993   2.065978   1.533715   0.000000
     5  H    1.080852   2.265948   3.188202   2.341013   0.000000
     6  H    2.265620   1.079255   2.373472   3.144804   2.915735
     7  H    2.885819   2.235105   1.110051   2.235961   3.925571
     8  C    2.606564   3.384309   2.634559   1.318928   3.155060
     9  H    3.562488   4.092588   2.985816   2.117000   4.220259
    10  H    2.984979   4.057888   3.602098   2.118246   3.164148
    11  H    2.885733   2.235098   1.110052   2.235958   3.925429
                    6          7          8          9         10
     6  H    0.000000
     7  H    2.873097   0.000000
     8  C    4.463404   3.105280   0.000000
     9  H    5.146146   3.235779   1.097838   0.000000
    10  H    5.117522   4.107403   1.097968   1.859937   0.000000
    11  H    2.873154   1.828704   3.105377   3.235953   4.107465
                   11
    11  H    0.000000
 Stoichiometry    C5H6
 Framework group  C1[X(C5H6)]
 Deg. of freedom    27
 Full point group                 C1      NOp   1
 Largest Abelian subgroup         C1      NOp   1
 Largest concise Abelian subgroup C1      NOp   1
                         Standard orientation:                         
 ---------------------------------------------------------------------
 Center     Atomic      Atomic             Coordinates (Angstroms)
 Number     Number       Type             X           Y           Z
 ---------------------------------------------------------------------
      1          6           0        0.519822   -1.054476    0.000087
      2          6           0        1.508070   -0.119220   -0.000046
      3          6           0        0.528675    1.053437    0.000026
      4          6           0       -0.556018   -0.030869    0.000034
      5          1           0        0.471655   -2.134255    0.000217
      6          1           0        2.587290   -0.127866   -0.000186
      7          1           0        0.552145    1.682456   -0.914303
      8          6           0       -1.874935   -0.025246   -0.000083
      9          1           0       -2.453582    0.907714   -0.000169
     10          1           0       -2.463404   -0.952197   -0.000067
     11          1           0        0.552217    1.682390    0.914400
 ---------------------------------------------------------------------
 Rotational constants (GHZ):          12.4574970           4.9922064           3.6507506
 Standard basis: VSTO-6G (5D, 7F)
 There are    26 symmetry adapted cartesian basis functions of A   symmetry.
 There are    26 symmetry adapted basis functions of A   symmetry.
    26 basis functions,   156 primitive gaussians,    26 cartesian basis functions
    13 alpha electrons       13 beta electrons
       nuclear repulsion energy        93.9037720524 Hartrees.
 Integral buffers will be    131072 words long.
 Regular integral format.
 Two-electron integral symmetry is turned off.
 Do NDO integrals.
 One-electron integrals computed using PRISM.
 NBasis=    26 RedAO= F EigKep=  0.00D+00  NBF=    26
 NBsUse=    26 1.00D-04 EigRej=  0.00D+00 NBFU=    26
 Initial guess from the checkpoint file:  "meth_cyclobutadiene_isomer_opt.chk"
 B after Tr=    -0.000000   -0.000000   -0.000000
         Rot=    1.000000    0.000006    0.000003   -0.000430 Ang=   0.05 deg.
 Keep J ints in memory in canonical form, NReq=860916.
 Overlap will be assumed to be unity.
 Requested convergence on RMS density matrix=1.00D-08 within 128 cycles.
 Requested convergence on MAX density matrix=1.00D-06.
 Requested convergence on             energy=1.00D-06.
 No special actions if energy rises.
 SCF Done:  E(RAM1) =  0.115709233860     A.U. after    9 cycles
            NFock=  8  Conv=0.42D-08     -V/T= 1.0029
 Calling FoFJK, ICntrl=      2127 FMM=F ISym2X=0 I1Cent= 0 IOpClX= 0 NMat=1 NMatS=1 NMatT=0.
 ***** Axes restored to original set *****
 -------------------------------------------------------------------
 Center     Atomic                   Forces (Hartrees/Bohr)
 Number     Number              X              Y              Z
 -------------------------------------------------------------------
      1        6          -0.001664299   -0.001253687    0.000001821
      2        6          -0.000563200   -0.001325907   -0.000004041
      3        6           0.000195600    0.000352555    0.000008143
      4        6           0.000671465    0.001019443   -0.000004043
      5        1           0.000428244    0.000205849    0.000002513
      6        1           0.000022193    0.000496409   -0.000002152
      7        1          -0.000160740    0.000436306   -0.000386186
      8        6           0.000661090   -0.000392977   -0.000003764
      9        1           0.000292123   -0.000317085    0.000000274
     10        1           0.000278334    0.000343736    0.000001435
     11        1          -0.000160808    0.000435357    0.000386000
 -------------------------------------------------------------------
 Cartesian Forces:  Max     0.001664299 RMS     0.000557186

 GradGradGradGradGradGradGradGradGradGradGradGradGradGradGradGradGradGrad
 Berny optimization.
 Using GEDIIS/GDIIS optimizer.
 FormGI is forming the generalized inverse of G from B-inverse, IUseBI=4.
 Internal  Forces:  Max     0.001548294 RMS     0.000392169
 Search for a local minimum.
 Step number   3 out of a maximum of   63
 All quantities printed in internal units (Hartrees-Bohrs-Radians)
 Mixed Optimization -- En-DIIS/RFO-DIIS
 Update second derivatives using D2CorX and points    1    2    3
 DE= -1.10D-04 DEPred=-1.07D-04 R= 1.03D+00
 TightC=F SS=  1.41D+00  RLast= 2.66D-02 DXNew= 8.0107D-01 7.9871D-02
 Trust test= 1.03D+00 RLast= 2.66D-02 DXMaxT set to 4.76D-01
 ITU=  1  1  0
 Use linear search instead of GDIIS.
     Eigenvalues ---    0.00632   0.01178   0.01652   0.02114   0.03276
     Eigenvalues ---    0.03276   0.05489   0.06301   0.06750   0.07208
     Eigenvalues ---    0.13571   0.16000   0.16000   0.16008   0.22401
     Eigenvalues ---    0.24580   0.26620   0.27389   0.33269   0.35869
     Eigenvalues ---    0.36001   0.36781   0.37048   0.37577   0.38622
     Eigenvalues ---    0.56259   0.79470
 RFO step:  Lambda=-3.54954954D-05 EMin= 6.31604330D-03
 Quartic linear search produced a step of  0.02439.
 Iteration  1 RMS(Cart)=  0.00271472 RMS(Int)=  0.00000539
 Iteration  2 RMS(Cart)=  0.00000536 RMS(Int)=  0.00000103
 Iteration  3 RMS(Cart)=  0.00000000 RMS(Int)=  0.00000103
 Variable       Old X    -DE/DX   Delta X   Delta X   Delta X     New X
                                 (Linear)    (Quad)   (Total)
    R1        2.57124   0.00003  -0.00020  -0.00082  -0.00102   2.57021
    R2        2.80623   0.00155  -0.00003   0.00488   0.00486   2.81109
    R3        2.04251  -0.00019  -0.00010  -0.00098  -0.00108   2.04143
    R4        2.88723   0.00106  -0.00002   0.00324   0.00322   2.89044
    R5        2.03950  -0.00002  -0.00010  -0.00057  -0.00067   2.03882
    R6        2.89830   0.00072  -0.00030   0.00060   0.00030   2.89860
    R7        2.09769  -0.00007   0.00005   0.00035   0.00040   2.09809
    R8        2.09769  -0.00007   0.00005   0.00035   0.00040   2.09809
    R9        2.49241   0.00123  -0.00020   0.00086   0.00067   2.49308
   R10        2.07461  -0.00011  -0.00008  -0.00056  -0.00064   2.07397
   R11        2.07486  -0.00014  -0.00008  -0.00065  -0.00072   2.07414
    A1        1.62321   0.00002  -0.00007  -0.00013  -0.00020   1.62301
    A2        2.37323   0.00044   0.00016   0.00374   0.00390   2.37713
    A3        2.28674  -0.00045  -0.00008  -0.00361  -0.00370   2.28305
    A4        1.63282   0.00018   0.00004   0.00048   0.00052   1.63334
    A5        2.37573   0.00042   0.00011   0.00393   0.00404   2.37977
    A6        2.27464  -0.00060  -0.00015  -0.00441  -0.00456   2.27008
    A7        1.48141   0.00001  -0.00004   0.00013   0.00009   1.48150
    A8        2.00571   0.00008   0.00006   0.00082   0.00088   2.00659
    A9        2.00570   0.00008   0.00006   0.00079   0.00085   2.00655
   A10        1.99937   0.00021   0.00009   0.00354   0.00362   2.00299
   A11        1.99936   0.00021   0.00009   0.00352   0.00360   2.00297
   A12        1.93582  -0.00044  -0.00020  -0.00654  -0.00674   1.92908
   A13        1.54574  -0.00020   0.00007  -0.00048  -0.00041   1.54534
   A14        2.38533  -0.00035  -0.00008  -0.00187  -0.00195   2.38338
   A15        2.35211   0.00055   0.00001   0.00235   0.00236   2.35447
   A16        2.13022   0.00029   0.00006   0.00221   0.00227   2.13249
   A17        2.13218   0.00029   0.00007   0.00232   0.00239   2.13457
   A18        2.02079  -0.00058  -0.00013  -0.00453  -0.00466   2.01613
    D1        0.00009  -0.00000   0.00000  -0.00026  -0.00026  -0.00016
    D2       -3.14147  -0.00000   0.00000  -0.00012  -0.00011  -3.14158
    D3       -3.14147  -0.00000  -0.00000  -0.00012  -0.00013  -3.14159
    D4        0.00016  -0.00000  -0.00000   0.00002   0.00002   0.00018
    D5       -0.00009   0.00000  -0.00000   0.00026   0.00026   0.00016
    D6        3.14140   0.00000  -0.00000   0.00024   0.00024  -3.14154
    D7        3.14147   0.00000   0.00000   0.00013   0.00014  -3.14158
    D8       -0.00022   0.00000   0.00000   0.00012   0.00012  -0.00010
    D9       -0.00009   0.00000  -0.00000   0.00025   0.00025   0.00016
   D10       -2.00260  -0.00025  -0.00009  -0.00383  -0.00391  -2.00652
   D11        2.00241   0.00025   0.00008   0.00431   0.00439   2.00680
   D12        3.14147   0.00000  -0.00000   0.00012   0.00012   3.14159
   D13        1.13896  -0.00025  -0.00008  -0.00396  -0.00404   1.13492
   D14       -1.13921   0.00025   0.00008   0.00418   0.00426  -1.13495
   D15        0.00008  -0.00000   0.00000  -0.00023  -0.00023  -0.00014
   D16       -3.14142  -0.00000   0.00000  -0.00021  -0.00021   3.14156
   D17        2.00888   0.00011   0.00006   0.00115   0.00121   2.01009
   D18       -1.13262   0.00011   0.00006   0.00116   0.00123  -1.13139
   D19       -2.00870  -0.00011  -0.00006  -0.00158  -0.00164  -2.01034
   D20        1.13298  -0.00011  -0.00006  -0.00156  -0.00162   1.13136
   D21       -3.14151   0.00000  -0.00000   0.00001   0.00001  -3.14151
   D22        0.00011  -0.00000  -0.00000  -0.00003  -0.00003   0.00008
   D23       -0.00006  -0.00000   0.00000  -0.00001  -0.00001  -0.00007
   D24        3.14157  -0.00000   0.00000  -0.00005  -0.00005   3.14152
         Item               Value     Threshold  Converged?
 Maximum Force            0.001548     0.000450     NO 
 RMS     Force            0.000392     0.000300     NO 
 Maximum Displacement     0.007627     0.001800     NO 
 RMS     Displacement     0.002715     0.001200     NO 
 Predicted change in Energy=-1.783830D-05
 GradGradGradGradGradGradGradGradGradGradGradGradGradGradGradGradGradGrad

                          Input orientation:                          
 ---------------------------------------------------------------------
 Center     Atomic      Atomic             Coordinates (Angstroms)
 Number     Number       Type             X           Y           Z
 ---------------------------------------------------------------------
      1          6           0       -0.530943   -1.057793    0.000024
      2          6           0       -1.514547   -0.118436   -0.000130
      3          6           0       -0.529351    1.051577    0.000021
      4          6           0        0.551190   -0.037092   -0.000050
      5          1           0       -0.483488   -2.137029    0.000032
      6          1           0       -2.593446   -0.117825   -0.000167
      7          1           0       -0.552568    1.683702    0.912471
      8          6           0        1.870469   -0.039754   -0.000039
      9          1           0        2.456893    0.887937   -0.000029
     10          1           0        2.455120   -0.968665   -0.000034
     11          1           0       -0.552515    1.683845   -0.912331
 ---------------------------------------------------------------------
                    Distance matrix (angstroms):
                    1          2          3          4          5
     1  C    0.000000
     2  C    1.360098   0.000000
     3  C    2.109371   1.529556   0.000000
     4  C    1.487563   2.067338   1.533874   0.000000
     5  H    1.080279   2.266672   3.188937   2.341003   0.000000
     6  H    2.266596   1.078899   2.372339   3.145672   2.920464
     7  H    2.889432   2.237397   1.110263   2.238774   3.928779
     8  C    2.608291   3.385930   2.636312   1.319281   3.152725
     9  H    3.565534   4.096965   2.990725   2.118344   4.218562
    10  H    2.987393   4.059697   3.603948   2.119617   3.162355
    11  H    2.889538   2.237372   1.110263   2.238759   3.928899
                    6          7          8          9         10
     6  H    0.000000
     7  H    2.871165   0.000000
     8  C    4.464598   3.110318   0.000000
     9  H    5.149513   3.243880   1.097499   0.000000
    10  H    5.119760   4.112651   1.097585   1.856603   0.000000
    11  H    2.871142   1.824802   3.110292   3.243810   4.112658
                   11
    11  H    0.000000
 Stoichiometry    C5H6
 Framework group  C1[X(C5H6)]
 Deg. of freedom    27
 Full point group                 C1      NOp   1
 Largest Abelian subgroup         C1      NOp   1
 Largest concise Abelian subgroup C1      NOp   1
                         Standard orientation:                         
 ---------------------------------------------------------------------
 Center     Atomic      Atomic             Coordinates (Angstroms)
 Number     Number       Type             X           Y           Z
 ---------------------------------------------------------------------
      1          6           0        0.520068   -1.055664   -0.000055
      2          6           0        1.508667   -0.121567    0.000099
      3          6           0        0.529725    1.053684   -0.000052
      4          6           0       -0.556607   -0.029207    0.000020
      5          1           0        0.466858   -2.134632   -0.000063
      6          1           0        2.587554   -0.126709    0.000136
      7          1           0        0.556313    1.685676   -0.912501
      8          6           0       -1.875881   -0.024833    0.000009
      9          1           0       -2.457349    0.905972   -0.000001
     10          1           0       -2.465477   -0.950613    0.000003
     11          1           0        0.556261    1.685819    0.912300
 ---------------------------------------------------------------------
 Rotational constants (GHZ):          12.4417576           4.9864528           3.6459442
 Standard basis: VSTO-6G (5D, 7F)
 There are    26 symmetry adapted cartesian basis functions of A   symmetry.
 There are    26 symmetry adapted basis functions of A   symmetry.
    26 basis functions,   156 primitive gaussians,    26 cartesian basis functions
    13 alpha electrons       13 beta electrons
       nuclear repulsion energy        93.8761754522 Hartrees.
 Integral buffers will be    131072 words long.
 Regular integral format.
 Two-electron integral symmetry is turned off.
 Do NDO integrals.
 One-electron integrals computed using PRISM.
 NBasis=    26 RedAO= F EigKep=  0.00D+00  NBF=    26
 NBsUse=    26 1.00D-04 EigRej=  0.00D+00 NBFU=    26
 Initial guess from the checkpoint file:  "meth_cyclobutadiene_isomer_opt.chk"
 B after Tr=    -0.000000    0.000000    0.000000
         Rot=    1.000000   -0.000004   -0.000003    0.000324 Ang=  -0.04 deg.
 Keep J ints in memory in canonical form, NReq=860916.
[...]
 --------------------------------------------------------------------------------
 ! R1    R(1,2)                  1.36           -DE/DX =    0.0                 !
 ! R2    R(1,4)                  1.4877         -DE/DX =    0.0                 !
 ! R3    R(1,5)                  1.0805         -DE/DX =    0.0                 !
 ! R4    R(2,3)                  1.5294         -DE/DX =    0.0                 !
 ! R5    R(2,6)                  1.0792         -DE/DX =    0.0                 !
 ! R6    R(3,4)                  1.5336         -DE/DX =    0.0                 !
 ! R7    R(3,7)                  1.11           -DE/DX =    0.0                 !
 ! R8    R(3,11)                 1.11           -DE/DX =    0.0                 !
 ! R9    R(4,8)                  1.3194         -DE/DX =    0.0                 !
 ! R10   R(8,9)                  1.0977         -DE/DX =    0.0                 !
 ! R11   R(8,10)                 1.0978         -DE/DX =    0.0                 !
 ! A1    A(2,1,4)               92.9998         -DE/DX =    0.0                 !
 ! A2    A(2,1,5)              136.3279         -DE/DX =    0.0                 !
 ! A3    A(4,1,5)              130.6723         -DE/DX =    0.0                 !
 ! A4    A(1,2,3)               93.5689         -DE/DX =    0.0                 !
 ! A5    A(1,2,6)              136.4905         -DE/DX =    0.0                 !
 ! A6    A(3,2,6)              129.9405         -DE/DX =    0.0                 !
 ! A7    A(2,3,4)               84.9086         -DE/DX =    0.0                 !
 ! A8    A(2,3,7)              114.9785         -DE/DX =    0.0                 !
 ! A9    A(2,3,11)             114.9785         -DE/DX =    0.0                 !
 ! A10   A(4,3,7)              114.769          -DE/DX =    0.0                 !
 ! A11   A(4,3,11)             114.769          -DE/DX =    0.0                 !
 ! A12   A(7,3,11)             110.4866         -DE/DX =    0.0                 !
 ! A13   A(1,4,3)               88.5227         -DE/DX =    0.0                 !
 ! A14   A(1,4,8)              136.3822         -DE/DX =   -0.0001              !
 ! A15   A(3,4,8)              135.0951         -DE/DX =    0.0001              !
 ! A16   A(4,8,9)              122.2402         -DE/DX =    0.0                 !
 ! A17   A(4,8,10)             122.2871         -DE/DX =    0.0                 !
 ! A18   A(9,8,10)             115.4727         -DE/DX =    0.0                 !
 ! D1    D(4,1,2,3)              0.0            -DE/DX =    0.0                 !
 ! D2    D(4,1,2,6)            180.0            -DE/DX =    0.0                 !
 ! D3    D(5,1,2,3)            180.0            -DE/DX =    0.0                 !
 ! D4    D(5,1,2,6)              0.0            -DE/DX =    0.0                 !
 ! D5    D(2,1,4,3)              0.0            -DE/DX =    0.0                 !
 ! D6    D(2,1,4,8)           -180.0            -DE/DX =    0.0                 !
 ! D7    D(5,1,4,3)           -180.0            -DE/DX =    0.0                 !
 ! D8    D(5,1,4,8)              0.0            -DE/DX =    0.0                 !
 ! D9    D(1,2,3,4)              0.0            -DE/DX =    0.0                 !
 ! D10   D(1,2,3,7)           -114.9936         -DE/DX =    0.0                 !
 ! D11   D(1,2,3,11)           114.9936         -DE/DX =    0.0                 !
 ! D12   D(6,2,3,4)           -180.0            -DE/DX =    0.0                 !
 ! D13   D(6,2,3,7)             65.0064         -DE/DX =    0.0                 !
 ! D14   D(6,2,3,11)           -65.0064         -DE/DX =    0.0                 !
 ! D15   D(2,3,4,1)              0.0            -DE/DX =    0.0                 !
 ! D16   D(2,3,4,8)            180.0            -DE/DX =    0.0                 !
 ! D17   D(7,3,4,1)            115.2009         -DE/DX =    0.0                 !
 ! D18   D(7,3,4,8)            -64.7991         -DE/DX =    0.0                 !
 ! D19   D(11,3,4,1)          -115.2009         -DE/DX =    0.0                 !
 ! D20   D(11,3,4,8)            64.7991         -DE/DX =    0.0                 !
 ! D21   D(1,4,8,9)            180.0            -DE/DX =    0.0                 !
 ! D22   D(1,4,8,10)             0.0            -DE/DX =    0.0                 !
 ! D23   D(3,4,8,9)              0.0            -DE/DX =    0.0                 !
 ! D24   D(3,4,8,10)           180.0            -DE/DX =    0.0                 !
 --------------------------------------------------------------------------------
 GradGradGradGradGradGradGradGradGradGradGradGradGradGradGradGradGradGrad


 ----------------------------------------------------------------------

 Electric dipole moment (input orientation):
 (Debye = 10**-18 statcoulomb cm , SI units = C m)
                  (au)            (Debye)         (10**-30 SI)
   Tot        0.102504D+00      0.260540D+00      0.869067D+00
   x         -0.831892D-01     -0.211446D+00     -0.705307D+00
   y          0.598889D-01      0.152222D+00      0.507759D+00
   z          0.699382D-04      0.177765D-03      0.592961D-03

 Dipole polarizability, Alpha (input orientation).
 (esu units = cm**3 , SI units = C**2 m**2 J**-1)
 Alpha(0;0):
               (au)            (10**-24 esu)      (10**-40 SI)
   iso        0.433375D+02      0.642195D+01      0.714538D+01
   aniso      0.506744D+02      0.750917D+01      0.835508D+01
   xx         0.714986D+02      0.105950D+02      0.117885D+02
   yx        -0.775817D+01     -0.114964D+01     -0.127915D+01
   yy         0.434339D+02      0.643624D+01      0.716128D+01
   zx         0.776270D-02      0.115031D-02      0.127990D-02
   zy        -0.680201D-02     -0.100795D-02     -0.112150D-02
   zz         0.150799D+02      0.223461D+01      0.248634D+01

 First dipole hyperpolarizability, Beta (input orientation).
 ||, _|_  parallel and perpendicular components, (z) with respect to z axis,
 vector components x,y,z.  Values do not include the 1/n! factor of 1/2.
 (esu units = statvolt**-1 cm**4 , SI units = C**3 m**3 J**-2)
 Beta(0;0,0):
               (au)            (10**-30 esu)      (10**-50 SI)
   || (z)    -0.755400D-02     -0.652607D-04     -0.242208D-04
   _|_(z)    -0.251800D-02     -0.217536D-04     -0.807362D-05
   x          0.527919D+02      0.456081D+00      0.169270D+00
   y          0.357544D+02      0.308890D+00      0.114642D+00
   z         -0.377700D-01     -0.326303D-03     -0.121104D-03
   ||         0.127520D+02      0.110168D+00      0.408877D-01
   xxx        0.968017D+00      0.836291D-02      0.310381D-02
   xxy        0.187204D+02      0.161729D+00      0.600243D-01
   yxy        0.188835D+02      0.163139D+00      0.605474D-01
   yyy       -0.293692D+02     -0.253727D+00     -0.941681D-01
   xxz       -0.289589D-01     -0.250182D-03     -0.928526D-04
   yxz       -0.224718D-02     -0.194138D-04     -0.720526D-05
   yyz        0.112515D-02      0.972046D-05      0.360765D-05
   zxz       -0.225423D+01     -0.194748D-01     -0.722787D-02
   zyz        0.225669D+02      0.194961D+00      0.723577D-01
   zzz        0.152437D-01      0.131694D-03      0.488769D-04

 ----------------------------------------------------------------------

 Dipole orientation:
     6         -1.28903978         -1.79173153         -0.35383017
     6         -1.08539933         -1.50405562          2.19200088
     6          0.59912511          0.83412857          1.97454298
     6          0.32376917          0.44883519         -0.88460764
     1         -2.22233324         -3.09018276         -1.62348547
     1         -1.78070010         -2.46702412          3.84977954
     1          2.54849758          0.59339901          2.71067202
     6          1.17171902          1.62472195         -2.91317799
     1          2.38150145          3.30558880         -2.79318418
     1          0.71621272          0.98968796         -4.83487380
     1         -0.24750554          2.60739488          2.70844513

 Electric dipole moment (dipole orientation):
 (Debye = 10**-18 statcoulomb cm , SI units = C m)
                  (au)            (Debye)         (10**-30 SI)
   Tot        0.102504D+00      0.260540D+00      0.869067D+00
   x          0.000000D+00      0.000000D+00      0.000000D+00
   y          0.000000D+00      0.000000D+00      0.000000D+00
   z          0.102504D+00      0.260540D+00      0.869067D+00

 Dipole polarizability, Alpha (dipole orientation).
 (esu units = cm**3 , SI units = C**2 m**2 J**-1)
 Alpha(0;0):
               (au)            (10**-24 esu)      (10**-40 SI)
   iso        0.433375D+02      0.642195D+01      0.714538D+01
   aniso      0.506744D+02      0.750917D+01      0.835508D+01
   xx         0.255236D+02      0.378221D+01      0.420827D+01
   yx         0.145005D+02      0.214875D+01      0.239080D+01
   yy         0.352130D+02      0.521803D+01      0.580584D+01
   zx        -0.637505D+01     -0.944685D+00     -0.105110D+01
   zy        -0.877445D+01     -0.130024D+01     -0.144671D+01
   zz         0.692758D+02      0.102656D+02      0.114220D+02

 First dipole hyperpolarizability, Beta (dipole orientation).
 ||, _|_  parallel and perpendicular components, (z) with respect to z axis,
 vector components x,y,z.  Values do not include the 1/n! factor of 1/2.
 (esu units = statvolt**-1 cm**4 , SI units = C**3 m**3 J**-2)
 Beta(0;0,0):
               (au)            (10**-30 esu)      (10**-50 SI)
   || (z)    -0.439089D+01     -0.379339D-01     -0.140788D-01
   _|_(z)    -0.146363D+01     -0.126446D-01     -0.469293D-02
   x          0.349559D+02      0.301992D+00      0.112081D+00
   y          0.485948D+02      0.419821D+00      0.155812D+00
   z         -0.219545D+02     -0.189670D+00     -0.703940D-01
   ||         0.127520D+02      0.110168D+00      0.408877D-01
   xxx        0.239759D+02      0.207133D+00      0.768755D-01
   xxy        0.573001D+01      0.495028D-01      0.183725D-01
   yxy       -0.128687D+01     -0.111175D-01     -0.412616D-02
   yyy        0.258067D+02      0.222950D+00      0.827456D-01
   xxz        0.245926D+01      0.212461D-01      0.788528D-02
   yxz       -0.174793D+02     -0.151007D+00     -0.560448D-01
   yyz       -0.932017D+01     -0.805190D-01     -0.298838D-01
   zxz       -0.110371D+02     -0.953519D-01     -0.353889D-01
   zyz       -0.153384D+02     -0.132512D+00     -0.491806D-01
   zzz       -0.457245D+00     -0.395024D-02     -0.146609D-02

 ----------------------------------------------------------------------
 1\1\GINC-IISERK51\Freq\RAM1\ZDO\C5H6\GAUSSIAN\12-Jun-2025\0\\#N Geom=A
 llCheck Guess=TCheck SCRF=Check GenChk RAM1/ZDO Freq\\Optimisation\\0,
 1\C,-0.5304690595,-1.0573263354,0.0002368174\C,-1.5148428679,-0.118853
 4234,-0.0003302947\C,-0.5304719375,1.051538093,0.0001228838\C,0.551012
 3228,-0.0358235172,-0.0000413505\H,-0.4795906974,-2.1366134089,0.00041
 26803\H,-2.5940218974,-0.1164031104,-0.000611449\H,-0.5543794527,1.683
 9955282,0.9120004165\C,1.8704317754,-0.0404009263,-0.000166044\H,2.459
 1903364,0.8861010966,-0.0002487492\H,2.4541071868,-0.9701713616,-0.000
 1460461\H,-0.5541517089,1.6844243655,-0.9114598645\\Version=EM64L-G16R
 evB.01\State=1-A\HF=0.1156872\RMSD=1.125e-09\RMSF=3.906e-05\ZeroPoint=
 0.0932692\Thermal=0.0978662\Dipole=-0.0831892,0.0598889,0.0000699\Dipo
 leDeriv=-0.11814,0.066249,-0.0000413,0.1191025,-0.1185025,-0.0000077,-
 0.0001726,0.0000567,-0.2016721,-0.1752888,-0.0087446,0.0000158,0.02372
 97,-0.0664284,0.0000197,-0.0000199,0.0001078,-0.2640654,-0.0540933,0.0
 35899,-0.0000467,-0.1050267,-0.0631819,-0.0000561,-0.0000406,-0.000080
 2,0.0656482,0.0497052,0.0098962,0.0000179,0.0875202,-0.0767825,0.00004
 96,-0.0000153,0.0000155,-0.0841692,0.0463101,-0.0266879,-0.0000036,-0.
 0363346,0.2022185,-0.0000055,0.0000351,-0.000084,0.1971784,0.2441003,-
 0.0450448,0.0000144,-0.0237053,0.0462976,-0.0000108,0.0001456,-0.00004
 19,0.1841136,0.0354813,-0.0121962,0.0029617,-0.0165712,0.0323477,0.009
 2799,-0.0118295,0.0326731,0.0551673,-0.2548462,-0.0030796,0.0000102,-0
 .0325521,-0.1177862,-0.0000324,0.0001041,-0.000012,-0.318677,0.0918878
 ,0.0268535,0.0000027,0.1049079,0.0593436,0.0000095,-0.0000237,0.000005
 5,0.1498418,0.0994102,-0.0309686,0.0000142,-0.1044803,0.0701479,0.0000
 028,0.000001,0.0000131,0.161533,0.0354693,-0.0121752,-0.0029454,-0.016
 5904,0.0323267,-0.009249,0.0118158,-0.0326536,0.0550983\Polar=71.49859
 05,-7.7581685,43.4338889,0.0077627,-0.006802,15.0798813\HyperPolar=0.9
 680166,18.7203649,18.8835175,-29.3691567,-0.0289589,-0.0022472,0.00112
 52,-2.2542288,22.5669346,0.0152437\PG=C01 [X(C5H6)]\NImag=0\\0.5838583
 1,-0.15756886,0.97942295,0.00012599,-0.00023650,0.12994596,-0.33707963
 ,0.29257202,-0.00016313,0.95858177,0.24843562,-0.31647305,0.00013846,-
 0.16365900,0.54792749,-0.00014581,0.00015556,-0.06237120,0.00029505,-0
 .00010706,0.14292696,0.01909802,0.00030234,-0.00000285,-0.12884087,-0.
 08170891,-0.00002338,0.37090742,0.00077754,-0.14074606,0.00001157,-0.1
 0698596,-0.15549832,-0.00004371,-0.00630647,0.67196190,-0.00000544,0.0
 0001177,0.02739898,-0.00002742,-0.00003871,-0.06781470,-0.00002431,-0.
 00000494,0.52336236,-0.15906847,-0.14451001,0.00004730,-0.14016412,0.0
 0335164,-0.00003068,-0.13179620,0.10411191,0.00001863,1.19603686,-0.10
 578730,-0.17378760,0.00002345,-0.00957395,0.02614328,0.00000046,0.0793
 1590,-0.13683258,-0.00001036,0.01859928,0.41847392,0.00003284,0.000022
 89,-0.06853462,-0.00002596,0.00000398,0.02459685,0.00001210,-0.0000109
 5,-0.07784215,-0.00010511,-0.00001973,0.15011718,-0.04227797,0.0138489
 2,-0.00000271,-0.00054390,0.02404112,-0.00000432,-0.00119303,-0.000233
 18,-0.00000223,-0.00057369,-0.02001799,0.00000369,0.04326016,0.0152368
 1,-0.34624625,0.00005423,0.00522242,-0.02074703,0.00000454,0.00003702,
 -0.00183306,0.00000364,-0.00397897,-0.01761857,0.00000407,-0.01745544,
 0.38651668,-0.00000207,0.00004427,-0.04103411,-0.00000172,0.00001383,0
 .00461522,-0.00000184,0.00000209,0.00876241,0.00000023,0.00000608,0.00
 469765,0.00000590,-0.00006677,0.02268451,-0.02144086,0.00381625,-0.000
 00699,-0.34949113,0.00226938,-0.00008490,-0.01451544,-0.00376996,-0.00
 000589,-0.00258121,-0.00012245,-0.00000430,0.00012502,0.00031862,-0.00
 000075,0.38831468,0.02293919,0.00089459,0.00000610,-0.00095540,-0.0409
 0654,0.00000028,-0.01880176,-0.00054357,-0.00000599,-0.00002416,-0.001
 77964,0.00000133,0.00031969,0.00015618,0.00000031,-0.00268955,0.041595
 11,-0.00001248,0.00000061,0.00543623,-0.00007536,0.00000143,-0.0408224
 0,-0.00000842,-0.00000156,0.00525184,-0.00000564,0.00000075,0.00848613
 ,-0.00000040,0.00000065,0.00054002,0.00010229,-0.00000183,0.02222982,-
 0.00062105,-0.00036266,-0.00011764,-0.00068632,-0.01488571,-0.01609506
 ,-0.04216947,0.00297671,0.00411622,-0.00344058,0.01597929,0.01751975,0
 .00035052,0.00008249,0.00042801,-0.00004458,-0.00039452,0.00035571,0.0
 4121550,-0.00028781,-0.00212238,0.00008486,-0.00791100,-0.01922441,-0.
 01693637,0.00301774,-0.11844401,-0.12130575,0.00961229,-0.01661952,-0.
 01575086,0.00000974,-0.00016767,0.00125841,0.00002957,-0.00015656,-0.0
 0001308,-0.00404525,0.14888563,-0.00004148,0.00050623,-0.00014549,-0.0
 0300020,-0.00760922,-0.00065337,0.00469800,-0.12117262,-0.21420931,0.0
 0364627,-0.00724536,-0.00072725,-0.00000905,0.00000587,-0.00016436,0.0
 0004253,0.00025660,-0.00007347,-0.00535807,0.14371514,0.24752334,-0.04
 058933,-0.00832386,0.00000142,-0.00062611,-0.00291895,0.00000178,-0.02
 818820,0.00716551,0.00000190,-0.68986936,0.00550136,0.00007001,0.00059
 552,0.00046556,0.00000009,-0.00014955,-0.00001317,0.00000032,0.0000392
 2,-0.00042922,-0.00024883,0.98970980,-0.02434243,0.00066343,0.00000456
 ,-0.00077308,-0.00219394,-0.00000054,0.02198519,-0.00003515,-0.0000036
 7,0.00296648,-0.07926557,0.00000248,-0.00066230,0.00008346,-0.00000025
 ,0.00012817,0.00092362,-0.00000024,0.00078386,-0.00017026,0.00041189,-
 0.00022085,0.55975324,0.00000676,0.00000112,0.00420186,0.00000131,0.00
 000002,0.00037846,0.00000379,-0.00000089,0.00389512,0.00006666,0.00000
 203,-0.05237934,-0.00000002,-0.00000011,-0.00001649,-0.00000012,-0.000
 00008,-0.00005930,-0.00014948,-0.00009482,-0.00000603,-0.00008431,-0.0
 0002434,0.12758797,-0.00183673,0.00082818,0.00000107,-0.00029311,-0.00
 030521,-0.00000014,0.00045147,0.00021953,-0.00000019,-0.03253411,-0.03
 130130,0.00000636,-0.00019859,0.00000714,-0.00000005,-0.00005904,0.000
 15542,-0.00000028,0.00008995,0.00002180,0.00003134,-0.11618394,-0.1226
 3239,0.00000977,0.14328082,0.00074222,-0.00010400,0.00000029,0.0001862
 1,0.00015867,-0.00000006,-0.00017994,0.00049288,-0.00000019,-0.0099994
 8,-0.00088498,0.00000121,0.00009290,-0.00006577,0.00000002,-0.00009248
 ,-0.00002399,-0.00000016,0.00000188,0.00005957,0.00001004,-0.12682166,
 -0.23913973,0.00001885,0.14463796,0.26866266,-0.00000018,0.00000080,0.
 00947948,0.00000115,-0.00000138,-0.00029671,-0.00000010,-0.00000025,-0
 .00405083,0.00000253,0.00000490,0.00658037,-0.00000014,-0.00000008,-0.
 00022699,0.00000043,-0.00000025,-0.00066882,0.00039075,-0.00029185,0.0
 0004733,0.00001151,0.00001847,-0.04180931,-0.00001597,-0.00002322,0.02
 236428,0.00057543,-0.00023890,-0.00000029,-0.00016492,0.00027326,0.000
 00011,-0.00158092,-0.00090375,0.00000108,-0.03257452,0.03142125,0.0000
 0239,0.00010438,-0.00001775,0.00000002,-0.00011362,-0.00014178,-0.0000
 0021,-0.00014810,0.00004269,-0.00007168,-0.11477713,0.12198466,-0.0000
 0381,0.00719331,-0.00856929,0.00000047,0.14163385,0.00014296,0.0006225
 4,-0.00000048,-0.00020331,0.00005053,0.00000008,-0.00065088,0.00003862
 ,0.00000083,0.01025938,-0.00119850,-0.00000054,0.00004636,0.00009090,-
 0.00000003,0.00008283,-0.00000292,0.00000013,-0.00007810,-0.00005375,-
 0.00002852,0.12602458,-0.24044932,0.00000331,0.00834703,-0.02921492,0.
 00000108,-0.14389297,0.27017062,0.00000086,-0.00000015,-0.00423199,0.0
 0000044,0.00000173,0.00007770,0.00000003,0.00000037,0.00934234,0.00000
 152,-0.00000477,0.00572684,0.00000008,0.00000008,0.00030733,0.00000017
 ,0.00000020,-0.00024678,-0.00078842,0.00046452,-0.00004396,-0.00000235
 ,0.00000349,-0.04178653,-0.00000057,0.00000320,0.00853356,0.00000029,-
 0.00000432,0.02236545,-0.00061752,-0.00036342,0.00011784,-0.00069166,-
 0.01489321,0.01608735,-0.04217256,0.00294816,-0.00407236,-0.00343484,0
 .01598569,-0.01751177,0.00035145,0.00008215,-0.00042782,-0.00004433,-0
 .00039403,-0.00035553,0.00541487,-0.00006053,0.00031115,0.00003928,0.0
 0078285,0.00014945,0.00008995,0.00000173,-0.00039045,-0.00014782,-0.00
 007793,0.00078795,0.04121313,-0.00028787,-0.00212419,-0.00008655,-0.00
 791900,-0.01923673,0.01692682,0.00298972,-0.11856035,0.12135338,0.0096
 1166,-0.01663034,0.01574610,0.00001021,-0.00016890,-0.00125796,0.00002
 962,-0.00015628,0.00001330,-0.00005798,0.00801328,-0.00885005,-0.00042
 933,-0.00016969,0.00009492,0.00002189,0.00005960,0.00029178,0.00004254
 ,-0.00005386,-0.00046435,-0.00401144,0.14902739,0.00004102,-0.00050659
 ,-0.00014514,0.00299584,0.00759691,-0.00063686,-0.00465302,0.12122088,
 -0.21409605,-0.00364171,0.00724254,-0.00072166,0.00000920,-0.00000612,
 -0.00016506,-0.00004247,-0.00025666,-0.00007351,-0.00030185,0.00886976
 ,-0.03154740,0.00024845,-0.00041183,-0.00000597,-0.00003132,-0.0000099
 9,0.00004735,0.00007163,0.00002846,-0.00004396,0.00530424,-0.14376735,
 0.24738829\\-0.00001853,0.00003117,0.00006575,0.00001458,0.00001079,-0
 .00006404,0.00005203,-0.00008604,0.00005888,-0.00006235,-0.00009165,-0
 .00006573,0.00000735,0.00000982,-0.00000386,-0.00001091,0.00001169,0.0
 0000339,-0.00001127,0.00003633,-0.00004092,-0.00002017,0.00003316,-0.0
 0000201,0.00002518,-0.00000329,0.00000394,0.00003657,0.00002446,0.0000
 0315,-0.00001248,0.00002356,0.00004146\\\@


 Just remember, when you're over the hill, you begin to pick up speed.
 -- Charles Schulz
 Job cpu time:       0 days  0 hours  0 minutes  0.5 seconds.
 Elapsed time:       0 days  0 hours  0 minutes  0.5 seconds.
 File lengths (MBytes):  RWF=      7 Int=      0 D2E=      0 Chk=      2 Scr=      1
 Normal termination of Gaussian 16 at Thu Jun 12 22:28:03 2025.
