 Entering Gaussian System, Link 0=g16
 Input=/home/gaussian/Documents/Summer_Internship/Acid_Base_adduct/Base/tri_methyl_ammine/TMA_ion_sp.com
 Output=/home/gaussian/Documents/Summer_Internship/Acid_Base_adduct/Base/tri_methyl_ammine/TMA_ion_sp.log
 Initial command:
 /usr/local/g16/l1.exe "/home/gaussian/tmp/Gau-73011.inp" -scrdir="/home/gaussian/tmp/"
 Entering Link 1 = /usr/local/g16/l1.exe PID=     73014.
  
 Copyright (c) 1988-2017, Gaussian, Inc.  All Rights Reserved.
  
 This is part of the Gaussian(R) 16 program.  It is based on
 the Gaussian(R) 09 system (copyright 2009, Gaussian, Inc.),
 the Gaussian(R) 03 system (copyright 2003, Gaussian, Inc.),
 the Gaussian(R) 98 system (copyright 1998, Gaussian, Inc.),
 the Gaussian(R) 94 system (copyright 1995, Gaussian, Inc.),
 the Gaussian 92(TM) system (copyright 1992, Gaussian, Inc.),
 the Gaussian 90(TM) system (copyright 1990, Gaussian, Inc.),
 the Gaussian 88(TM) system (copyright 1988, Gaussian, Inc.),
 the Gaussian 86(TM) system (copyright 1986, Carnegie Mellon
 University), and the Gaussian 82(TM) system (copyright 1983,
 Carnegie Mellon University). Gaussian is a federally registered
 trademark of Gaussian, Inc.
  
 This software contains proprietary and confidential information,
 including trade secrets, belonging to Gaussian, Inc.
  
 This software is provided under written license and may be
 used, copied, transmitted, or stored only in accord with that
 written license.
  
 The following legend is applicable only to US Government
 contracts under FAR:
  
                    RESTRICTED RIGHTS LEGEND
  
 Use, reproduction and disclosure by the US Government is
 subject to restrictions as set forth in subparagraphs (a)
 and (c) of the Commercial Computer Software - Restricted
 Rights clause in FAR 52.227-19.
  
 Gaussian, Inc.
 340 Quinnipiac St., Bldg. 40, Wallingford CT 06492
  
  
 ---------------------------------------------------------------
 Warning -- This program may not be used in any manner that
 competes with the business of Gaussian, Inc. or will provide
 assistance to any competitor of Gaussian, Inc.  The licensee
 of this program is prohibited from giving any competitor of
 Gaussian, Inc. access to this program.  By using this program,
 the user acknowledges that Gaussian, Inc. is engaged in the
 business of creating and licensing software in the field of
 computational chemistry and represents and warrants to the
 licensee that it is not a competitor of Gaussian, Inc. and that
 it will not use this program in any manner prohibited above.
 ---------------------------------------------------------------
  

 Cite this work as:
 Gaussian 16, Revision B.01,
 M. J. Frisch, G. W. Trucks, H. B. Schlegel, G. E. Scuseria, 
 M. A. Robb, J. R. Cheeseman, G. Scalmani, V. Barone, 
 G. A. Petersson, H. Nakatsuji, X. Li, M. Caricato, A. V. Marenich, 
 J. Bloino, B. G. Janesko, R. Gomperts, B. Mennucci, H. P. Hratchian, 
 J. V. Ortiz, A. F. Izmaylov, J. L. Sonnenberg, D. Williams-Young, 
 F. Ding, F. Lipparini, F. Egidi, J. Goings, B. Peng, A. Petrone, 
 T. Henderson, D. Ranasinghe, V. G. Zakrzewski, J. Gao, N. Rega, 
 G. Zheng, W. Liang, M. Hada, M. Ehara, K. Toyota, R. Fukuda, 
 J. Hasegawa, M. Ishida, T. Nakajima, Y. Honda, O. Kitao, H. Nakai, 
 T. Vreven, K. Throssell, J. A. Montgomery, Jr., J. E. Peralta, 
 F. Ogliaro, M. J. Bearpark, J. J. Heyd, E. N. Brothers, K. N. Kudin, 
 V. N. Staroverov, T. A. Keith, R. Kobayashi, J. Normand, 
 K. Raghavachari, A. P. Rendell, J. C. Burant, S. S. Iyengar, 
 J. Tomasi, M. Cossi, J. M. Millam, M. Klene, C. Adamo, R. Cammi, 
 J. W. Ochterski, R. L. Martin, K. Morokuma, O. Farkas, 
 J. B. Foresman, and D. J. Fox, Gaussian, Inc., Wallingford CT, 2016.
 
 ******************************************
 Gaussian 16:  EM64L-G16RevB.01 20-Dec-2017
                16-Jun-2025 
 ******************************************
 %chk=TMA_ion_sp.chk
 -------------------------------------
 # hf/3-21g pop=full geom=connectivity
 -------------------------------------
 1/38=1,57=2,172=1/1;
 2/12=2,17=6,18=5,40=1/2;
 3/5=5,11=9,25=1,30=1/1,2,3;
 4//1;
 5/5=2,38=5/2;
 6/7=3,28=1/1;
 99/5=1,9=1/99;
 -------
 TMA+ sp
 -------
 Symbolic Z-matrix:
 Charge =  1 Multiplicity = 1
 N                     0.        0.        0.35839 
 C                     0.        1.44799  -0.10781 
 H                    -0.88628   1.93353   0.26959 
 H                     0.88628   1.93353   0.26959 
 H                     0.        1.45004  -1.18639 
 C                    -1.254    -0.724    -0.10781 
 H                    -1.23134  -1.7343    0.26959 
 H                    -2.11762  -0.19923   0.26959 
 H                    -1.25577  -0.72502  -1.18639 
 C                     1.254    -0.724    -0.10781 
 H                     2.11762  -0.19923   0.26959 
 H                     1.23134  -1.7343    0.26959 
 H                     1.25577  -0.72502  -1.18639 
 H                     0.        0.        1.37346 
 
                          Input orientation:                          
 ---------------------------------------------------------------------
 Center     Atomic      Atomic             Coordinates (Angstroms)
 Number     Number       Type             X           Y           Z
 ---------------------------------------------------------------------
      1          7           0        0.000000    0.000000    0.358390
      2          6           0        0.000000    1.447994   -0.107809
      3          1           0       -0.886275    1.933525    0.269590
      4          1           0        0.886275    1.933525    0.269590
      5          1           0        0.000000    1.450042   -1.186392
      6          6           0       -1.254000   -0.723997   -0.107809
      7          1           0       -1.231344   -1.734299    0.269590
      8          1           0       -2.117619   -0.199225    0.269590
      9          1           0       -1.255773   -0.725021   -1.186392
     10          6           0        1.254000   -0.723997   -0.107809
     11          1           0        2.117619   -0.199225    0.269590
     12          1           0        1.231344   -1.734299    0.269590
     13          1           0        1.255773   -0.725021   -1.186392
     14          1           0        0.000000    0.000000    1.373463
 ---------------------------------------------------------------------
                    Distance matrix (angstroms):
                    1          2          3          4          5
     1  N    0.000000
     2  C    1.521193   0.000000
     3  H    2.128823   1.078728   0.000000
     4  H    2.128823   1.078728   1.772550   0.000000
     5  H    2.118720   1.078585   1.771757   1.771757   0.000000
     6  C    1.521193   2.507999   2.709257   3.433021   2.731722
     7  H    2.128823   3.433020   3.684020   4.235238   3.711619
     8  H    2.128823   2.709256   2.462688   3.684020   3.053568
     9  H    2.118720   2.731721   3.053568   3.711620   2.511546
    10  C    1.521193   2.507999   3.433021   2.709257   2.731722
    11  H    2.128823   2.709256   3.684020   2.462688   3.053568
    12  H    2.128823   3.433020   4.235238   3.684020   3.711619
    13  H    2.118720   2.731721   3.711620   3.053568   2.511546
    14  H    1.015073   2.071438   2.396359   2.396359   2.942020
                    6          7          8          9         10
     6  C    0.000000
     7  H    1.078728   0.000000
     8  H    1.078728   1.772551   0.000000
     9  H    1.078585   1.771757   1.771757   0.000000
    10  C    2.508000   2.709257   3.433021   2.731722   0.000000
    11  H    3.433021   3.684020   4.235238   3.711619   1.078728
    12  H    2.709257   2.462688   3.684020   3.053568   1.078728
    13  H    2.731722   3.053568   3.711619   2.511546   1.078585
    14  H    2.071438   2.396359   2.396359   2.942020   2.071438
                   11         12         13         14
    11  H    0.000000
    12  H    1.772551   0.000000
    13  H    1.771757   1.771757   0.000000
    14  H    2.396359   2.396359   2.942020   0.000000
 Stoichiometry    C3H10N(1+)
 Framework group  C3V[C3(NH),3SGV(CH),X(H6)]
 Deg. of freedom     8
 Full point group                 C3V     NOp   6
 Largest Abelian subgroup         CS      NOp   2
 Largest concise Abelian subgroup CS      NOp   2
                         Standard orientation:                         
 ---------------------------------------------------------------------
 Center     Atomic      Atomic             Coordinates (Angstroms)
 Number     Number       Type             X           Y           Z
 ---------------------------------------------------------------------
      1          7           0        0.000000   -0.000000    0.358390
      2          6           0        0.000000    1.447994   -0.107809
      3          1           0       -0.886275    1.933525    0.269590
      4          1           0        0.886275    1.933525    0.269590
      5          1           0        0.000000    1.450042   -1.186392
      6          6           0       -1.254000   -0.723997   -0.107809
      7          1           0       -1.231344   -1.734299    0.269590
      8          1           0       -2.117619   -0.199226    0.269590
      9          1           0       -1.255773   -0.725021   -1.186392
     10          6           0        1.254000   -0.723997   -0.107809
     11          1           0        2.117619   -0.199226    0.269590
     12          1           0        1.231344   -1.734299    0.269590
     13          1           0        1.255773   -0.725021   -1.186392
     14          1           0        0.000000   -0.000000    1.373463
 ---------------------------------------------------------------------
 Rotational constants (GHZ):           7.9706297           7.9706297           4.6282523
 Standard basis: 3-21G (6D, 7F)
 There are    35 symmetry adapted cartesian basis functions of A'  symmetry.
 There are    21 symmetry adapted cartesian basis functions of A"  symmetry.
 There are    35 symmetry adapted basis functions of A'  symmetry.
 There are    21 symmetry adapted basis functions of A"  symmetry.
    56 basis functions,    90 primitive gaussians,    56 cartesian basis functions
    17 alpha electrons       17 beta electrons
       nuclear repulsion energy       145.5586060040 Hartrees.
 NAtoms=   14 NActive=   14 NUniq=    5 SFac= 4.00D+00 NAtFMM=   60 NAOKFM=F Big=F
 Integral buffers will be    131072 words long.
 Raffenetti 1 integral format.
 Two-electron integral symmetry is turned on.
 One-electron integrals computed using PRISM.
 NBasis=    56 RedAO= T EigKep=  2.58D-02  NBF=    35    21
 NBsUse=    56 1.00D-06 EigRej= -1.00D+00 NBFU=    35    21
 ExpMin= 1.83D-01 ExpMax= 2.43D+02 ExpMxC= 2.43D+02 IAcc=3 IRadAn=         5 AccDes= 0.00D+00
 Harris functional with IExCor=  205 and IRadAn=       5 diagonalized for initial guess.
 HarFok:  IExCor=  205 AccDes= 0.00D+00 IRadAn=         5 IDoV= 1 UseB2=F ITyADJ=14
 ICtDFT=  3500011 ScaDFX=  1.000000  1.000000  1.000000  1.000000
 FoFCou: FMM=F IPFlag=           0 FMFlag=      100000 FMFlg1=           0
         NFxFlg=           0 DoJE=T BraDBF=F KetDBF=T FulRan=T
         wScrn=  0.000000 ICntrl=       500 IOpCl=  0 I1Cent=   200000004 NGrid=           0
         NMat0=    1 NMatS0=      1 NMatT0=    0 NMatD0=    1 NMtDS0=    0 NMtDT0=    0
 Petite list used in FoFCou.
 Initial guess orbital symmetries:
       Occupied  (A1) (E) (E) (A1) (A1) (E) (E) (A1) (A1) (E) (E)
                 (E) (E) (A2) (E) (E) (A1)
       Virtual   (A1) (A1) (E) (E) (A1) (E) (E) (A1) (E) (E) (E)
                 (E) (A2) (E) (E) (A1) (E) (E) (A1) (E) (E) (A1)
                 (A1) (E) (E) (A2) (E) (E) (A2) (E) (E) (A1) (A1)
                 (E) (E) (A1) (E) (E) (A1)
 The electronic state of the initial guess is 1-A1.
 Keep R1 ints in memory in symmetry-blocked form, NReq=2106395.
 Requested convergence on RMS density matrix=1.00D-08 within 128 cycles.
 Requested convergence on MAX density matrix=1.00D-06.
 Requested convergence on             energy=1.00D-06.
 No special actions if energy rises.
 SCF Done:  E(RHF) =  -172.705533781     A.U. after   10 cycles
            NFock= 10  Conv=0.22D-08     -V/T= 2.0030

 **********************************************************************

            Population analysis using the SCF Density.

 **********************************************************************

 Orbital symmetries:
       Occupied  (A1) (E) (E) (A1) (A1) (E) (E) (A1) (A1) (E) (E)
                 (E) (E) (A2) (A1) (E) (E)
       Virtual   (A1) (A1) (A1) (E) (E) (E) (E) (A1) (E) (E) (E)
                 (E) (A2) (A1) (E) (E) (E) (E) (A1) (E) (E) (A1)
                 (A1) (E) (E) (A2) (A2) (E) (E) (A1) (E) (E) (A1)
                 (E) (E) (A1) (E) (E) (A1)
 The electronic state is 1-A1.
 Alpha  occ. eigenvalues --  -15.81340 -11.41047 -11.41047 -11.40983  -1.51149
 Alpha  occ. eigenvalues --   -1.18451  -1.18451  -1.09586  -0.93733  -0.86341
 Alpha  occ. eigenvalues --   -0.86341  -0.77720  -0.77720  -0.74812  -0.74428
 Alpha  occ. eigenvalues --   -0.73442  -0.73442
 Alpha virt. eigenvalues --    0.02269   0.09502   0.11115   0.12137   0.12137
 Alpha virt. eigenvalues --    0.14701   0.14701   0.14704   0.17898   0.17898
 Alpha virt. eigenvalues --    0.19393   0.19393   0.21772   0.65429   0.65532
 Alpha virt. eigenvalues --    0.65532   0.74811   0.74811   0.78860   0.88497
 Alpha virt. eigenvalues --    0.88497   1.01302   1.07749   1.09712   1.09712
 Alpha virt. eigenvalues --    1.10921   1.15459   1.18750   1.18750   1.21472
 Alpha virt. eigenvalues --    1.26424   1.26424   1.46225   1.54639   1.54639
 Alpha virt. eigenvalues --    1.63435   1.99403   1.99403   2.87052
     Molecular Orbital Coefficients:
                           1         2         3         4         5
                        (A1)--O   (E)--O    (E)--O    (A1)--O   (A1)--O
     Eigenvalues --   -15.81340 -11.41047 -11.41047 -11.40983  -1.51149
   1 1   N  1S          0.98635   0.00000  -0.00000  -0.00013  -0.20629
   2        2S          0.10425   0.00000   0.00000   0.00096   0.17441
   3        2PX         0.00000  -0.00069   0.00000   0.00000   0.00000
   4        2PY         0.00000   0.00000   0.00069  -0.00000   0.00000
   5        2PZ        -0.00044   0.00000  -0.00000  -0.00060   0.00619
   6        3S         -0.06763   0.00000   0.00000   0.00861   0.65781
   7        3PX         0.00000  -0.00670   0.00000   0.00000   0.00000
   8        3PY        -0.00000   0.00000   0.00670  -0.00000   0.00000
   9        3PZ         0.00285   0.00000   0.00000   0.00005  -0.01103
  10 2   C  1S         -0.00054   0.00000   0.80640   0.56974  -0.06193
  11        2S         -0.00176   0.00000   0.08387   0.05565   0.06885
  12        2PX         0.00000   0.00122   0.00000   0.00000   0.00000
  13        2PY        -0.00218   0.00000  -0.00145   0.00004  -0.05223
  14        2PZ         0.00052   0.00000  -0.00033   0.00040   0.01547
  15        3S          0.01565   0.00000  -0.06425  -0.03565   0.09472
  16        3PX         0.00000  -0.00580   0.00000   0.00000   0.00000
  17        3PY        -0.00616   0.00000   0.00425  -0.00258   0.00808
  18        3PZ         0.00228   0.00000   0.00256  -0.00178   0.00416
  19 3   H  1S         -0.00113  -0.00055  -0.00002  -0.00043   0.02271
  20        2S         -0.00168  -0.00290   0.01128   0.00838  -0.00324
  21 4   H  1S         -0.00113   0.00055  -0.00002  -0.00043   0.02271
  22        2S         -0.00168   0.00290   0.01128   0.00838  -0.00324
  23 5   H  1S         -0.00117   0.00000   0.00065  -0.00091   0.02465
  24        2S         -0.00120   0.00000   0.01426   0.00642   0.00134
  25 6   C  1S         -0.00054   0.69836  -0.40320   0.56974  -0.06193
  26        2S         -0.00176   0.07264  -0.04194   0.05565   0.06885
  27        2PX         0.00189   0.00139  -0.00010  -0.00003   0.04523
  28        2PY         0.00109   0.00010  -0.00128  -0.00002   0.02612
  29        2PZ         0.00052  -0.00029   0.00017   0.00040   0.01547
  30        3S          0.01565  -0.05564   0.03212  -0.03565   0.09472
  31        3PX         0.00533  -0.00464  -0.00067   0.00223  -0.00700
  32        3PY         0.00308   0.00067   0.00541   0.00129  -0.00404
  33        3PZ         0.00228   0.00222  -0.00128  -0.00178   0.00416
  34 7   H  1S         -0.00113   0.00026   0.00048  -0.00043   0.02271
  35        2S         -0.00168   0.01122  -0.00313   0.00838  -0.00324
  36 8   H  1S         -0.00113  -0.00029  -0.00046  -0.00043   0.02271
  37        2S         -0.00168   0.00832  -0.00815   0.00838  -0.00324
  38 9   H  1S         -0.00117   0.00056  -0.00032  -0.00091   0.02465
  39        2S         -0.00120   0.01235  -0.00713   0.00642   0.00134
  40 10  C  1S         -0.00054  -0.69836  -0.40320   0.56974  -0.06193
  41        2S         -0.00176  -0.07264  -0.04194   0.05565   0.06885
  42        2PX        -0.00189   0.00139   0.00010   0.00003  -0.04523
  43        2PY         0.00109  -0.00010  -0.00128  -0.00002   0.02612
  44        2PZ         0.00052   0.00029   0.00017   0.00040   0.01547
  45        3S          0.01565   0.05564   0.03212  -0.03565   0.09472
  46        3PX        -0.00533  -0.00464   0.00067  -0.00223   0.00700
  47        3PY         0.00308  -0.00067   0.00541   0.00129  -0.00404
  48        3PZ         0.00228  -0.00222  -0.00128  -0.00178   0.00416
  49 11  H  1S         -0.00113   0.00029  -0.00046  -0.00043   0.02271
  50        2S         -0.00168  -0.00832  -0.00815   0.00838  -0.00324
  51 12  H  1S         -0.00113  -0.00026   0.00048  -0.00043   0.02271
  52        2S         -0.00168  -0.01122  -0.00313   0.00838  -0.00324
  53 13  H  1S         -0.00117  -0.00056  -0.00032  -0.00091   0.02465
  54        2S         -0.00120  -0.01235  -0.00713   0.00642   0.00134
  55 14  H  1S          0.00349   0.00000  -0.00000  -0.00126   0.09132
  56        2S          0.00589   0.00000   0.00000   0.00332  -0.00282
                           6         7         8         9        10
                        (E)--O    (E)--O    (A1)--O   (A1)--O   (E)--O
     Eigenvalues --    -1.18451  -1.18451  -1.09586  -0.93733  -0.86341
   1 1   N  1S          0.00000   0.00000  -0.08714   0.05257   0.00000
   2        2S          0.00000  -0.00000   0.06921  -0.03351  -0.00000
   3        2PX        -0.17490   0.00000   0.00000   0.00000   0.00000
   4        2PY         0.00000   0.17490   0.00000  -0.00000   0.26173
   5        2PZ         0.00000  -0.00000   0.18719   0.29229  -0.00000
   6        3S          0.00000  -0.00000   0.39104  -0.26409   0.00000
   7        3PX        -0.13328   0.00000   0.00000   0.00000   0.00000
   8        3PY         0.00000   0.13328   0.00000  -0.00000   0.33313
   9        3PZ         0.00000  -0.00000   0.15971   0.31997  -0.00000
  10 2   C  1S          0.00000  -0.17076   0.09271  -0.03496   0.03919
  11        2S          0.00000   0.16167  -0.09176   0.03164  -0.03234
  12        2PX        -0.03405   0.00000   0.00000   0.00000   0.00000
  13        2PY         0.00000  -0.00016  -0.04285   0.13536  -0.16242
  14        2PZ         0.00000   0.01021   0.05344   0.07590   0.08993
  15        3S          0.00000   0.50153  -0.30219   0.15359  -0.21703
  16        3PX         0.00246   0.00000   0.00000   0.00000   0.00000
  17        3PY         0.00000  -0.01051  -0.01420   0.06484  -0.07083
  18        3PZ         0.00000  -0.00336   0.02189   0.05770   0.04873
  19 3   H  1S          0.01366   0.09890  -0.06058   0.07813  -0.05419
  20        2S          0.01479   0.00773  -0.00816   0.04050  -0.02292
  21 4   H  1S         -0.01366   0.09890  -0.06058   0.07813  -0.05419
  22        2S         -0.01479   0.00773  -0.00816   0.04050  -0.02292
  23 5   H  1S          0.00000   0.09221  -0.08774  -0.01870  -0.08592
  24        2S          0.00000  -0.00335  -0.02505  -0.01905  -0.04639
  25 6   C  1S         -0.14788   0.08538   0.09271  -0.03496  -0.01959
  26        2S          0.14001  -0.08083  -0.09176   0.03164   0.01617
  27        2PX        -0.00840  -0.01481   0.03711  -0.11723  -0.16022
  28        2PY         0.01481   0.02550   0.02143  -0.06768   0.11508
  29        2PZ         0.00884  -0.00510   0.05344   0.07590  -0.04497
  30        3S          0.43434  -0.25077  -0.30219   0.15359   0.10851
  31        3PX         0.00850  -0.00349   0.01230  -0.05615  -0.09632
  32        3PY         0.00349  -0.00447   0.00710  -0.03242   0.09600
  33        3PZ        -0.00291   0.00168   0.02189   0.05770  -0.02436
  34 7   H  1S          0.07882  -0.06128  -0.06058   0.07813  -0.06620
  35        2S         -0.00070  -0.01667  -0.00816   0.04050  -0.05063
  36 8   H  1S          0.09248  -0.03762  -0.06058   0.07813   0.12039
  37        2S          0.01408   0.00894  -0.00816   0.04050   0.07355
  38 9   H  1S          0.07986  -0.04611  -0.08774  -0.01870   0.04296
  39        2S         -0.00290   0.00167  -0.02505  -0.01905   0.02319
  40 10  C  1S          0.14788   0.08538   0.09271  -0.03496  -0.01959
  41        2S         -0.14001  -0.08083  -0.09176   0.03164   0.01617
  42        2PX        -0.00840   0.01481  -0.03711   0.11723   0.16022
  43        2PY        -0.01481   0.02550   0.02143  -0.06768   0.11508
  44        2PZ        -0.00884  -0.00510   0.05344   0.07590  -0.04497
  45        3S         -0.43434  -0.25077  -0.30219   0.15359   0.10851
  46        3PX         0.00850   0.00349  -0.01230   0.05615   0.09632
  47        3PY        -0.00349  -0.00447   0.00710  -0.03242   0.09600
  48        3PZ         0.00291   0.00168   0.02189   0.05770  -0.02436
  49 11  H  1S         -0.09248  -0.03762  -0.06058   0.07813   0.12039
  50        2S         -0.01408   0.00894  -0.00816   0.04050   0.07355
  51 12  H  1S         -0.07882  -0.06128  -0.06058   0.07813  -0.06620
  52        2S          0.00070  -0.01667  -0.00816   0.04050  -0.05063
  53 13  H  1S         -0.07986  -0.04611  -0.08774  -0.01870   0.04296
  54        2S          0.00290   0.00167  -0.02505  -0.01905   0.02319
  55 14  H  1S          0.00000  -0.00000   0.14846   0.14827   0.00000
  56        2S          0.00000   0.00000   0.06304   0.07021  -0.00000
                          11        12        13        14        15
                        (E)--O    (E)--O    (E)--O    (A2)--O   (A1)--O
     Eigenvalues --    -0.86341  -0.77720  -0.77720  -0.74812  -0.74428
   1 1   N  1S          0.00000   0.00000  -0.00000   0.00000   0.01402
   2        2S          0.00000   0.00000  -0.00000   0.00000  -0.00635
   3        2PX         0.26173  -0.07911   0.00000   0.00000   0.00000
   4        2PY         0.00000   0.00000   0.07911   0.00000  -0.00000
   5        2PZ         0.00000   0.00000  -0.00000   0.00000   0.23017
   6        3S          0.00000   0.00000   0.00000   0.00000  -0.07802
   7        3PX         0.33313  -0.10074   0.00000   0.00000   0.00000
   8        3PY         0.00000   0.00000   0.10074   0.00000  -0.00000
   9        3PZ         0.00000   0.00000  -0.00000   0.00000   0.25805
  10 2   C  1S          0.00000   0.00000   0.00093   0.00000   0.00499
  11        2S          0.00000   0.00000  -0.00116   0.00000  -0.00340
  12        2PX         0.20758   0.12548   0.00000   0.23735   0.00000
  13        2PY         0.00000   0.00000   0.03958   0.00000   0.00505
  14        2PZ         0.00000   0.00000   0.30007   0.00000  -0.19847
  15        3S          0.00000   0.00000  -0.01866   0.00000  -0.01464
  16        3PX         0.15161   0.11526   0.00000   0.22260   0.00000
  17        3PY         0.00000   0.00000   0.05214   0.00000  -0.01099
  18        3PZ         0.00000   0.00000   0.26134   0.00000  -0.17295
  19 3   H  1S         -0.10772  -0.07025   0.08058  -0.13600  -0.05201
  20        2S         -0.07169  -0.04712   0.05313  -0.09421  -0.03996
  21 4   H  1S          0.10772   0.07025   0.08058   0.13600  -0.05201
  22        2S          0.07169   0.04712   0.05313   0.09421  -0.03996
  23 5   H  1S          0.00000   0.00000  -0.20483   0.00000   0.14752
  24        2S          0.00000   0.00000  -0.14071   0.00000   0.12904
  25 6   C  1S         -0.03394   0.00081  -0.00047   0.00000   0.00499
  26        2S          0.02801  -0.00101   0.00058   0.00000  -0.00340
  27        2PX        -0.06992   0.00169   0.07147  -0.11867  -0.00438
  28        2PY        -0.16022  -0.07147  -0.08422   0.20555  -0.00253
  29        2PZ        -0.07789   0.25986  -0.15003   0.00000  -0.19847
  30        3S          0.18795  -0.01616   0.00933  -0.00000  -0.01464
  31        3PX        -0.01522  -0.01029   0.07249  -0.11130   0.00951
  32        3PY        -0.09632  -0.07249  -0.07341   0.19278   0.00549
  33        3PZ        -0.04220   0.22633  -0.13067   0.00000  -0.17295
  34 7   H  1S          0.10079   0.10491   0.02055  -0.13600  -0.05201
  35        2S          0.05570   0.06957   0.01424  -0.09421  -0.03996
  36 8   H  1S         -0.00693   0.03465  -0.10113   0.13600  -0.05201
  37        2S         -0.01599   0.02245  -0.06737   0.09421  -0.03996
  38 9   H  1S          0.07441  -0.17739   0.10242  -0.00000   0.14752
  39        2S          0.04017  -0.12186   0.07036  -0.00000   0.12904
  40 10  C  1S          0.03394  -0.00081  -0.00047  -0.00000   0.00499
  41        2S         -0.02801   0.00101   0.00058  -0.00000  -0.00340
  42        2PX        -0.06992   0.00169  -0.07147  -0.11867   0.00438
  43        2PY         0.16022   0.07147  -0.08422  -0.20555  -0.00253
  44        2PZ         0.07789  -0.25986  -0.15003  -0.00000  -0.19847
  45        3S         -0.18795   0.01616   0.00933   0.00000  -0.01464
  46        3PX        -0.01522  -0.01029  -0.07249  -0.11130  -0.00951
  47        3PY         0.09632   0.07249  -0.07341  -0.19278   0.00549
  48        3PZ         0.04220  -0.22633  -0.13067  -0.00000  -0.17295
  49 11  H  1S          0.00693  -0.03465  -0.10113  -0.13600  -0.05201
  50        2S          0.01599  -0.02245  -0.06737  -0.09421  -0.03996
  51 12  H  1S         -0.10079  -0.10491   0.02055   0.13600  -0.05201
  52        2S         -0.05570  -0.06957   0.01424   0.09421  -0.03996
  53 13  H  1S         -0.07441   0.17739   0.10242   0.00000   0.14752
  54        2S         -0.04017   0.12186   0.07036   0.00000   0.12904
  55 14  H  1S          0.00000   0.00000  -0.00000   0.00000   0.16658
  56        2S          0.00000   0.00000  -0.00000   0.00000   0.15134
                          16        17        18        19        20
                        (E)--O    (E)--O    (A1)--V   (A1)--V   (A1)--V
     Eigenvalues --    -0.73442  -0.73442   0.02269   0.09502   0.11115
   1 1   N  1S          0.00000   0.00000  -0.10884  -0.00771  -0.12601
   2        2S          0.00000  -0.00000   0.04139   0.00396   0.05349
   3        2PX         0.25010   0.00000   0.00000   0.00000   0.00000
   4        2PY         0.00000   0.25010  -0.00000  -0.00000   0.00000
   5        2PZ         0.00000   0.00000   0.08652  -0.16440   0.00944
   6        3S          0.00000   0.00000   1.12862   0.04835   1.28446
   7        3PX         0.30973   0.00000   0.00000   0.00000   0.00000
   8        3PY         0.00000   0.30973  -0.00000  -0.00000   0.00000
   9        3PZ         0.00000   0.00000   0.25989  -0.46293   0.08253
  10 2   C  1S          0.00000  -0.00952  -0.04155  -0.00313   0.09462
  11        2S          0.00000   0.00302   0.01386  -0.00220  -0.04325
  12        2PX        -0.20549   0.00000   0.00000   0.00000   0.00000
  13        2PY         0.00000  -0.21904   0.10948   0.04261   0.04912
  14        2PZ         0.00000  -0.07444  -0.03220  -0.15755  -0.04562
  15        3S          0.00000   0.00537   0.63214   0.15044  -1.11981
  16        3PX        -0.20333   0.00000   0.00000   0.00000   0.00000
  17        3PY         0.00000  -0.16296   0.42503   0.16337   0.06529
  18        3PZ         0.00000  -0.08806  -0.12781  -0.60348  -0.26416
  19 3   H  1S          0.12627  -0.08993  -0.00722   0.00359   0.01223
  20        2S          0.09864  -0.07407  -0.37308   0.15728   0.58572
  21 4   H  1S         -0.12627  -0.08993  -0.00722   0.00359   0.01223
  22        2S         -0.09864  -0.07407  -0.37308   0.15728   0.58572
  23 5   H  1S          0.00000   0.05492   0.00566  -0.02725  -0.03301
  24        2S          0.00000   0.03369  -0.31991  -0.82489   0.17689
  25 6   C  1S          0.00825   0.00476  -0.04155  -0.00313   0.09462
  26        2S         -0.00261  -0.00151   0.01386  -0.00220  -0.04325
  27        2PX        -0.21565  -0.00587  -0.09481  -0.03690  -0.04254
  28        2PY        -0.00587  -0.20888  -0.05474  -0.02131  -0.02456
  29        2PZ         0.06447   0.03722  -0.03220  -0.15755  -0.04562
  30        3S         -0.00465  -0.00269   0.63214   0.15044  -1.11981
  31        3PX        -0.17305   0.01748  -0.36808  -0.14148  -0.05654
  32        3PY         0.01748  -0.19324  -0.21251  -0.08168  -0.03264
  33        3PZ         0.07627   0.04403  -0.12781  -0.60348  -0.26416
  34 7   H  1S          0.01474   0.15432  -0.00722   0.00359   0.01223
  35        2S          0.01483   0.12246  -0.37308   0.15728   0.58572
  36 8   H  1S          0.14101  -0.06439  -0.00722   0.00359   0.01223
  37        2S          0.11347  -0.04839  -0.37308   0.15728   0.58572
  38 9   H  1S         -0.04756  -0.02746   0.00566  -0.02725  -0.03301
  39        2S         -0.02918  -0.01684  -0.31991  -0.82489   0.17689
  40 10  C  1S         -0.00825   0.00476  -0.04155  -0.00313   0.09462
  41        2S          0.00261  -0.00151   0.01386  -0.00220  -0.04325
  42        2PX        -0.21565   0.00587   0.09481   0.03690   0.04254
  43        2PY         0.00587  -0.20888  -0.05474  -0.02131  -0.02456
  44        2PZ        -0.06447   0.03722  -0.03220  -0.15755  -0.04562
  45        3S          0.00465  -0.00269   0.63214   0.15044  -1.11981
  46        3PX        -0.17305  -0.01748   0.36808   0.14148   0.05654
  47        3PY        -0.01748  -0.19324  -0.21251  -0.08168  -0.03264
  48        3PZ        -0.07627   0.04403  -0.12781  -0.60348  -0.26416
  49 11  H  1S         -0.14101  -0.06439  -0.00722   0.00359   0.01223
  50        2S         -0.11347  -0.04839  -0.37308   0.15728   0.58572
  51 12  H  1S         -0.01474   0.15432  -0.00722   0.00359   0.01223
  52        2S         -0.01483   0.12246  -0.37308   0.15728   0.58572
  53 13  H  1S          0.04756  -0.02746   0.00566  -0.02725  -0.03301
  54        2S          0.02918  -0.01684  -0.31991  -0.82489   0.17689
  55 14  H  1S          0.00000   0.00000  -0.04444   0.11484  -0.02693
  56        2S          0.00000   0.00000  -0.81300   0.97624  -0.57765
                          21        22        23        24        25
                        (E)--V    (E)--V    (E)--V    (E)--V    (A1)--V
     Eigenvalues --     0.12137   0.12137   0.14701   0.14701   0.14704
   1 1   N  1S         -0.00000   0.00000   0.00000   0.00000   0.06255
   2        2S          0.00000   0.00000  -0.00000   0.00000  -0.02209
   3        2PX         0.00000   0.13439   0.00000   0.13898   0.00000
   4        2PY        -0.13439   0.00000  -0.13898   0.00000   0.00000
   5        2PZ        -0.00000   0.00000   0.00000   0.00000   0.24948
   6        3S          0.00000   0.00000  -0.00000   0.00000  -0.63072
   7        3PX         0.00000   0.35625   0.00000   0.54042   0.00000
   8        3PY        -0.35625   0.00000  -0.54042   0.00000   0.00000
   9        3PZ         0.00000   0.00000   0.00000   0.00000   0.91785
  10 2   C  1S         -0.05384   0.00000  -0.14300   0.00000  -0.03434
  11        2S          0.03308   0.00000   0.05118   0.00000   0.00825
  12        2PX         0.00000   0.19792   0.00000  -0.09847   0.00000
  13        2PY        -0.14539   0.00000   0.00266   0.00000  -0.12370
  14        2PZ         0.01196   0.00000  -0.01624   0.00000  -0.07034
  15        3S          0.47677   0.00000   1.98222   0.00000   0.39515
  16        3PX         0.00000   0.95814   0.00000  -0.30701   0.00000
  17        3PY        -0.48534   0.00000  -0.07034   0.00000  -0.59516
  18        3PZ         0.08651   0.00000  -0.23405   0.00000  -0.41050
  19 3   H  1S          0.00089   0.06635   0.02209   0.02778   0.01530
  20        2S         -0.01034   1.03023  -0.69260  -0.29525   0.27108
  21 4   H  1S          0.00089  -0.06635   0.02209  -0.02778   0.01530
  22        2S         -0.01034  -1.03023  -0.69260   0.29525   0.27108
  23 5   H  1S          0.03294   0.00000  -0.05269   0.00000   0.00286
  24        2S         -0.12191   0.00000  -1.13124   0.00000  -0.66166
  25 6   C  1S          0.02692  -0.04663   0.07150  -0.12384  -0.03434
  26        2S         -0.01654   0.02865  -0.02559   0.04433   0.00825
  27        2PX         0.02275   0.15852  -0.04149  -0.02661   0.10712
  28        2PY        -0.18479  -0.02275   0.07452   0.04149   0.06185
  29        2PZ        -0.00598   0.01036   0.00812  -0.01406  -0.07034
  30        3S         -0.23838   0.41289  -0.99111   1.71665   0.39515
  31        3PX         0.20473   0.60354  -0.16340  -0.02400   0.51542
  32        3PY        -0.83994  -0.20473   0.21267   0.16340   0.29758
  33        3PZ        -0.04326   0.07492   0.11702  -0.20269  -0.41050
  34 7   H  1S         -0.05791  -0.03240  -0.03510   0.00524   0.01530
  35        2S         -0.88704  -0.52407   0.60199  -0.45219   0.27108
  36 8   H  1S          0.05702   0.03395   0.01301   0.03302   0.01530
  37        2S          0.89738   0.50616   0.09061  -0.74743   0.27108
  38 9   H  1S         -0.01647   0.02853   0.02635  -0.04563   0.00286
  39        2S          0.06095  -0.10558   0.56562  -0.97968  -0.66166
  40 10  C  1S          0.02692   0.04663   0.07150   0.12384  -0.03434
  41        2S         -0.01654  -0.02865  -0.02559  -0.04433   0.00825
  42        2PX        -0.02275   0.15852   0.04149  -0.02661  -0.10712
  43        2PY        -0.18479   0.02275   0.07452  -0.04149   0.06185
  44        2PZ        -0.00598  -0.01036   0.00812   0.01406  -0.07034
  45        3S         -0.23838  -0.41289  -0.99111  -1.71665   0.39515
  46        3PX        -0.20473   0.60354   0.16340  -0.02400  -0.51542
  47        3PY        -0.83994   0.20473   0.21267  -0.16340   0.29758
  48        3PZ        -0.04326  -0.07492   0.11702   0.20269  -0.41050
  49 11  H  1S          0.05702  -0.03395   0.01301  -0.03302   0.01530
  50        2S          0.89738  -0.50616   0.09061   0.74743   0.27108
  51 12  H  1S         -0.05791   0.03240  -0.03510  -0.00524   0.01530
  52        2S         -0.88704   0.52407   0.60199   0.45219   0.27108
  53 13  H  1S         -0.01647  -0.02853   0.02635   0.04563   0.00286
  54        2S          0.06095   0.10558   0.56562   0.97968  -0.66166
  55 14  H  1S         -0.00000   0.00000  -0.00000   0.00000  -0.04174
  56        2S         -0.00000   0.00000  -0.00000   0.00000  -0.86034
                          26        27        28        29        30
                        (E)--V    (E)--V    (E)--V    (E)--V    (A2)--V
     Eigenvalues --     0.17898   0.17898   0.19393   0.19393   0.21772
   1 1   N  1S          0.00000   0.00000   0.00000   0.00000   0.00000
   2        2S          0.00000  -0.00000  -0.00000   0.00000   0.00000
   3        2PX         0.10223   0.00000   0.00000   0.26165  -0.00000
   4        2PY         0.00000  -0.10223  -0.26165   0.00000   0.00000
   5        2PZ         0.00000   0.00000  -0.00000   0.00000   0.00000
   6        3S          0.00000  -0.00000  -0.00000   0.00000   0.00000
   7        3PX         0.38090   0.00000   0.00000   0.95831  -0.00000
   8        3PY         0.00000  -0.38090  -0.95831   0.00000   0.00000
   9        3PZ         0.00000   0.00000   0.00000   0.00000   0.00000
  10 2   C  1S          0.00000   0.02149  -0.01685   0.00000   0.00000
  11        2S          0.00000  -0.00682  -0.00344   0.00000   0.00000
  12        2PX         0.00367   0.00000   0.00000  -0.07114   0.20675
  13        2PY         0.00000  -0.19862  -0.14679   0.00000   0.00000
  14        2PZ         0.00000  -0.13903   0.19089   0.00000   0.00000
  15        3S          0.00000  -0.44209   0.09748   0.00000   0.00000
  16        3PX        -0.26697   0.00000   0.00000  -0.49207   0.91368
  17        3PY         0.00000  -0.86940  -0.71194   0.00000   0.00000
  18        3PZ         0.00000  -0.75635   0.94949   0.00000   0.00000
  19 3   H  1S         -0.05629   0.06024   0.01440  -0.00874   0.03564
  20        2S         -0.25889   0.98069  -0.12408  -0.43873   0.95141
  21 4   H  1S          0.05629   0.06024   0.01440   0.00874  -0.03564
  22        2S          0.25889   0.98069  -0.12408   0.43873  -0.95141
  23 5   H  1S          0.00000  -0.06306   0.06589   0.00000   0.00000
  24        2S          0.00000  -0.82626   1.06375   0.00000   0.00000
  25 6   C  1S          0.01861  -0.01075   0.00842  -0.01459   0.00000
  26        2S         -0.00591   0.00341   0.00172  -0.00298   0.00000
  27        2PX         0.14989  -0.08442  -0.09437   0.09231  -0.10338
  28        2PY         0.08442  -0.05241   0.01666   0.09437   0.17905
  29        2PZ        -0.12041   0.06952  -0.09545   0.16532  -0.00000
  30        3S         -0.38286   0.22105  -0.04874   0.08442  -0.00000
  31        3PX         0.58531  -0.49206  -0.52135   0.41094  -0.45684
  32        3PY         0.49206  -0.01712   0.19107   0.52135   0.79127
  33        3PZ        -0.65502   0.37818  -0.47475   0.82229  -0.00000
  34 7   H  1S          0.08032   0.01862   0.00036   0.01684   0.03564
  35        2S          0.97875  -0.26614   0.44200   0.11191   0.95141
  36 8   H  1S          0.02403  -0.07887  -0.01477   0.00811  -0.03564
  37        2S          0.71986  -0.71455  -0.31791  -0.32683  -0.95141
  38 9   H  1S         -0.05461   0.03153  -0.03294   0.05706   0.00000
  39        2S         -0.71556   0.41313  -0.53187   0.92123   0.00000
  40 10  C  1S         -0.01861  -0.01075   0.00842   0.01459  -0.00000
  41        2S          0.00591   0.00341   0.00172   0.00298  -0.00000
  42        2PX         0.14989   0.08442   0.09437   0.09231  -0.10338
  43        2PY        -0.08442  -0.05241   0.01666  -0.09437  -0.17905
  44        2PZ         0.12041   0.06952  -0.09545  -0.16532   0.00000
  45        3S          0.38286   0.22105  -0.04874  -0.08442   0.00000
  46        3PX         0.58531   0.49206   0.52135   0.41094  -0.45684
  47        3PY        -0.49206  -0.01712   0.19107  -0.52135  -0.79127
  48        3PZ         0.65502   0.37818  -0.47475  -0.82229   0.00000
  49 11  H  1S         -0.02403  -0.07887  -0.01477  -0.00811   0.03564
  50        2S         -0.71986  -0.71455  -0.31791   0.32683   0.95141
  51 12  H  1S         -0.08032   0.01862   0.00036  -0.01684  -0.03564
  52        2S         -0.97875  -0.26614   0.44200  -0.11191  -0.95141
  53 13  H  1S          0.05461   0.03153  -0.03294  -0.05706  -0.00000
  54        2S          0.71556   0.41313  -0.53187  -0.92123  -0.00000
  55 14  H  1S          0.00000  -0.00000   0.00000   0.00000   0.00000
  56        2S          0.00000  -0.00000   0.00000   0.00000   0.00000
                          31        32        33        34        35
                        (A1)--V   (E)--V    (E)--V    (E)--V    (E)--V
     Eigenvalues --     0.65429   0.65532   0.65532   0.74811   0.74811
   1 1   N  1S         -0.01125   0.00000   0.00000   0.00000   0.00000
   2        2S         -0.05805   0.00000   0.00000  -0.00000   0.00000
   3        2PX         0.00000   0.06697   0.00000   0.00000  -0.10581
   4        2PY        -0.00000   0.00000  -0.06697   0.10581   0.00000
   5        2PZ         0.02988   0.00000  -0.00000  -0.00000   0.00000
   6        3S          0.46345   0.00000  -0.00000   0.00000   0.00000
   7        3PX         0.00000  -0.32372   0.00000   0.00000   0.25531
   8        3PY         0.00000   0.00000   0.32372  -0.25531   0.00000
   9        3PZ        -0.15001   0.00000   0.00000   0.00000   0.00000
  10 2   C  1S         -0.00417   0.00000  -0.00081   0.01979   0.00000
  11        2S          0.06559   0.00000   0.08254  -0.07725   0.00000
  12        2PX         0.00000  -0.50813   0.00000   0.00000  -0.10111
  13        2PY        -0.33133   0.00000  -0.40909   0.41638   0.00000
  14        2PZ        -0.23451   0.00000  -0.08390  -0.61982   0.00000
  15        3S         -0.17024   0.00000  -0.33021   0.02310   0.00000
  16        3PX         0.00000   0.76554   0.00000   0.00000   0.09642
  17        3PY         0.41453   0.00000   0.41663  -0.54685   0.00000
  18        3PZ         0.46783   0.00000   0.08042   1.01125   0.00000
  19 3   H  1S         -0.17594   0.36670  -0.07024  -0.04756  -0.00073
  20        2S          0.04194  -0.05777   0.14604   0.04010  -0.00689
  21 4   H  1S         -0.17594  -0.36670  -0.07024  -0.04756   0.00073
  22        2S          0.04194   0.05777   0.14604   0.04010   0.00689
  23 5   H  1S          0.31519   0.00000   0.12071   0.45054   0.00000
  24        2S          0.06636   0.00000  -0.01536   0.06412   0.00000
  25 6   C  1S         -0.00417  -0.00070   0.00041  -0.00989   0.01714
  26        2S          0.06559   0.07148  -0.04127   0.03862  -0.06690
  27        2PX         0.28694   0.17978  -0.39716   0.13651  -0.33756
  28        2PY         0.16566   0.39716   0.27882   0.17993  -0.13651
  29        2PZ        -0.23451  -0.07266   0.04195   0.30991  -0.53678
  30        3S         -0.17024  -0.28597   0.16511  -0.01155   0.02000
  31        3PX        -0.35899  -0.12109   0.51189  -0.19504   0.43424
  32        3PY        -0.20727  -0.51189  -0.47000  -0.20903   0.19504
  33        3PZ         0.46783   0.06965  -0.04021  -0.50563   0.87577
  34 7   H  1S         -0.17594  -0.24418  -0.28245   0.02441  -0.04082
  35        2S          0.04194   0.15536  -0.02299  -0.01408   0.03817
  36 8   H  1S         -0.17594   0.12252   0.35269   0.02315  -0.04155
  37        2S          0.04194   0.09759  -0.12305  -0.02601   0.03128
  38 9   H  1S          0.31519   0.10454  -0.06036  -0.22527   0.39018
  39        2S          0.06636  -0.01330   0.00768  -0.03206   0.05553
  40 10  C  1S         -0.00417   0.00070   0.00041  -0.00989  -0.01714
  41        2S          0.06559  -0.07148  -0.04127   0.03862   0.06690
  42        2PX        -0.28694   0.17978   0.39716  -0.13651  -0.33756
  43        2PY         0.16566  -0.39716   0.27882   0.17993   0.13651
  44        2PZ        -0.23451   0.07266   0.04195   0.30991   0.53678
  45        3S         -0.17024   0.28597   0.16511  -0.01155  -0.02000
  46        3PX         0.35899  -0.12109  -0.51189   0.19504   0.43424
  47        3PY        -0.20727   0.51189  -0.47000  -0.20903  -0.19504
  48        3PZ         0.46783  -0.06965  -0.04021  -0.50563  -0.87577
  49 11  H  1S         -0.17594  -0.12252   0.35269   0.02315   0.04155
  50        2S          0.04194  -0.09759  -0.12305  -0.02601  -0.03128
  51 12  H  1S         -0.17594   0.24418  -0.28245   0.02441   0.04082
  52        2S          0.04194  -0.15536  -0.02299  -0.01408  -0.03817
  53 13  H  1S          0.31519  -0.10454  -0.06036  -0.22527  -0.39018
  54        2S          0.06636   0.01330   0.00768  -0.03206  -0.05553
  55 14  H  1S         -0.38457   0.00000   0.00000   0.00000   0.00000
  56        2S          0.12311   0.00000  -0.00000  -0.00000   0.00000
                          36        37        38        39        40
                        (A1)--V   (E)--V    (E)--V    (A1)--V   (A1)--V
     Eigenvalues --     0.78860   0.88497   0.88497   1.01302   1.07749
   1 1   N  1S          0.05063   0.00000   0.00000   0.00967   0.00778
   2        2S         -0.23554  -0.00000   0.00000   0.01505  -0.03804
   3        2PX         0.00000   0.00000  -0.36925   0.00000   0.00000
   4        2PY         0.00000  -0.36925   0.00000  -0.00000   0.00000
   5        2PZ         0.14395  -0.00000   0.00000  -0.06986   0.35391
   6        3S          0.64762   0.00000   0.00000   0.15249  -0.07753
   7        3PX         0.00000   0.00000   0.17001   0.00000   0.00000
   8        3PY        -0.00000   0.17001   0.00000   0.00000  -0.00000
   9        3PZ        -0.14572   0.00000   0.00000  -0.44509  -0.50273
  10 2   C  1S         -0.02893  -0.04950   0.00000   0.03599  -0.02926
  11        2S          0.08008  -0.01197   0.00000   0.09129   0.04011
  12        2PX         0.00000   0.00000  -0.23784   0.00000   0.00000
  13        2PY        -0.46419  -0.39678   0.00000  -0.22635  -0.02520
  14        2PZ         0.31014  -0.28618   0.00000  -0.20652  -0.47680
  15        3S          0.04417   0.36199   0.00000  -0.35495  -0.02179
  16        3PX         0.00000   0.00000   0.60588   0.00000   0.00000
  17        3PY         0.49874   0.93873   0.00000   0.12769   0.15485
  18        3PZ        -0.51543   0.62723   0.00000   0.48171   0.63477
  19 3   H  1S         -0.04469  -0.45324   0.18499   0.38120  -0.00623
  20        2S          0.01007  -0.19224   0.13230  -0.23076  -0.21326
  21 4   H  1S         -0.04469  -0.45324  -0.18499   0.38120  -0.00623
  22        2S          0.01007  -0.19224  -0.13230  -0.23076  -0.21326
  23 5   H  1S         -0.23867  -0.03209   0.00000   0.17836  -0.54932
  24        2S         -0.09573   0.08688   0.00000   0.31566   0.72416
  25 6   C  1S         -0.02893   0.02475   0.04287   0.03599  -0.02926
  26        2S          0.08008   0.00598   0.01036   0.09129   0.04011
  27        2PX         0.40200  -0.06882  -0.35705   0.19602   0.02182
  28        2PY         0.23209  -0.27758  -0.06882   0.11317   0.01260
  29        2PZ         0.31014   0.14309   0.24784  -0.20652  -0.47680
  30        3S          0.04417  -0.18100  -0.31350  -0.35495  -0.02179
  31        3PX        -0.43192   0.14413   0.85552  -0.11059  -0.13411
  32        3PY        -0.24937   0.68909   0.14413  -0.06385  -0.07743
  33        3PZ        -0.51543  -0.31362  -0.54320   0.48171   0.63477
  34 7   H  1S         -0.04469   0.38682   0.30002   0.38120  -0.00623
  35        2S          0.01007   0.21069   0.10034  -0.23076  -0.21326
  36 8   H  1S         -0.04469   0.06641   0.48501   0.38120  -0.00623
  37        2S          0.01007  -0.01845   0.23263  -0.23076  -0.21326
  38 9   H  1S         -0.23867   0.01604   0.02779   0.17836  -0.54932
  39        2S         -0.09573  -0.04344  -0.07524   0.31566   0.72416
  40 10  C  1S         -0.02893   0.02475  -0.04287   0.03599  -0.02926
  41        2S          0.08008   0.00598  -0.01036   0.09129   0.04011
  42        2PX        -0.40200   0.06882  -0.35705  -0.19602  -0.02182
  43        2PY         0.23209  -0.27758   0.06882   0.11317   0.01260
  44        2PZ         0.31014   0.14309  -0.24784  -0.20652  -0.47680
  45        3S          0.04417  -0.18100   0.31350  -0.35495  -0.02179
  46        3PX         0.43192  -0.14413   0.85552   0.11059   0.13411
  47        3PY        -0.24937   0.68909  -0.14413  -0.06385  -0.07743
  48        3PZ        -0.51543  -0.31362   0.54320   0.48171   0.63477
  49 11  H  1S         -0.04469   0.06641  -0.48501   0.38120  -0.00623
  50        2S          0.01007  -0.01845  -0.23263  -0.23076  -0.21326
  51 12  H  1S         -0.04469   0.38682  -0.30002   0.38120  -0.00623
  52        2S          0.01007   0.21069  -0.10034  -0.23076  -0.21326
  53 13  H  1S         -0.23867   0.01604  -0.02779   0.17836  -0.54932
  54        2S         -0.09573  -0.04344   0.07524   0.31566   0.72416
  55 14  H  1S          0.19489  -0.00000   0.00000   0.71759  -0.01474
  56        2S          0.19969   0.00000   0.00000  -0.41558   0.03132
                          41        42        43        44        45
                        (E)--V    (E)--V    (A2)--V   (A2)--V   (E)--V
     Eigenvalues --     1.09712   1.09712   1.10921   1.15459   1.18750
   1 1   N  1S          0.00000   0.00000   0.00000   0.00000  -0.00000
   2        2S         -0.00000   0.00000   0.00000   0.00000   0.00000
   3        2PX         0.00000   0.27640   0.00000   0.00000   0.00000
   4        2PY         0.27640   0.00000   0.00000   0.00000  -0.08371
   5        2PZ        -0.00000   0.00000   0.00000   0.00000  -0.00000
   6        3S          0.00000   0.00000   0.00000   0.00000  -0.00000
   7        3PX         0.00000  -0.51020  -0.00000  -0.00000   0.00000
   8        3PY        -0.51020   0.00000   0.00000   0.00000   0.14777
   9        3PZ         0.00000   0.00000   0.00000   0.00000   0.00000
  10 2   C  1S          0.00974   0.00000   0.00000   0.00000  -0.00479
  11        2S         -0.11319   0.00000   0.00000   0.00000   0.04891
  12        2PX         0.00000  -0.63034  -0.55906  -0.40964   0.00000
  13        2PY        -0.18199   0.00000   0.00000   0.00000  -0.12552
  14        2PZ        -0.32903   0.00000   0.00000   0.00000  -0.53919
  15        3S          0.34134   0.00000   0.00000   0.00000  -0.14228
  16        3PX         0.00000   0.85700   1.47712   0.51574   0.00000
  17        3PY         0.18253   0.00000   0.00000   0.00000   0.17844
  18        3PZ         0.56291   0.00000   0.00000   0.00000   0.64366
  19 3   H  1S          0.14915  -0.48645   0.28142  -0.49541   0.33104
  20        2S         -0.35086   0.80658   0.41339   0.75763  -0.51100
  21 4   H  1S          0.14915   0.48645  -0.28142   0.49541   0.33104
  22        2S         -0.35086  -0.80658  -0.41339  -0.75763  -0.51100
  23 5   H  1S         -0.26216   0.00000   0.00000   0.00000  -0.73708
  24        2S          0.49144   0.00000   0.00000   0.00000   1.17120
  25 6   C  1S         -0.00487  -0.00844  -0.00000   0.00000   0.00239
  26        2S          0.05660   0.09803   0.00000  -0.00000  -0.02446
  27        2PX         0.19414  -0.29408   0.27953   0.20482  -0.19396
  28        2PY        -0.51825   0.19414  -0.48416  -0.35476   0.21043
  29        2PZ         0.16452   0.28495   0.00000  -0.00000   0.26959
  30        3S         -0.17067  -0.29561  -0.00000   0.00000   0.07114
  31        3PX        -0.29206   0.35115  -0.73856  -0.25787   0.26785
  32        3PY         0.68839  -0.29206   1.27922   0.44665  -0.28549
  33        3PZ        -0.28145  -0.48749  -0.00000   0.00000  -0.32183
  34 7   H  1S         -0.49585   0.11406   0.28142  -0.49541   0.06006
  35        2S          0.87395  -0.09944   0.41339   0.75763  -0.15739
  36 8   H  1S          0.34671  -0.37239  -0.28142   0.49541  -0.39110
  37        2S         -0.52309   0.70715  -0.41339  -0.75763   0.66838
  38 9   H  1S          0.13108   0.22704   0.00000  -0.00000   0.36854
  39        2S         -0.24572  -0.42560  -0.00000   0.00000  -0.58560
  40 10  C  1S         -0.00487   0.00844   0.00000  -0.00000   0.00239
  41        2S          0.05660  -0.09803  -0.00000   0.00000  -0.02446
  42        2PX        -0.19414  -0.29408   0.27953   0.20482   0.19396
  43        2PY        -0.51825  -0.19414   0.48416   0.35476   0.21043
  44        2PZ         0.16452  -0.28495  -0.00000   0.00000   0.26959
  45        3S         -0.17067   0.29561   0.00000  -0.00000   0.07114
  46        3PX         0.29206   0.35115  -0.73856  -0.25787  -0.26785
  47        3PY         0.68839   0.29206  -1.27922  -0.44665  -0.28549
  48        3PZ        -0.28145   0.48749   0.00000  -0.00000  -0.32183
  49 11  H  1S          0.34671   0.37239   0.28142  -0.49541  -0.39110
  50        2S         -0.52309  -0.70715   0.41339   0.75763   0.66838
  51 12  H  1S         -0.49585  -0.11406  -0.28142   0.49541   0.06006
  52        2S          0.87395   0.09944  -0.41339  -0.75763  -0.15739
  53 13  H  1S          0.13108  -0.22704  -0.00000   0.00000   0.36854
  54        2S         -0.24572   0.42560   0.00000  -0.00000  -0.58560
  55 14  H  1S          0.00000   0.00000   0.00000   0.00000  -0.00000
  56        2S         -0.00000   0.00000   0.00000   0.00000   0.00000
                          46        47        48        49        50
                        (E)--V    (A1)--V   (E)--V    (E)--V    (A1)--V
     Eigenvalues --     1.18750   1.21472   1.26424   1.26424   1.46225
   1 1   N  1S          0.00000  -0.05708   0.00000   0.00000   0.01106
   2        2S          0.00000   0.22379  -0.00000   0.00000  -0.09485
   3        2PX         0.08371   0.00000   0.00000   0.03922   0.00000
   4        2PY         0.00000   0.00000   0.03922   0.00000   0.00000
   5        2PZ         0.00000   0.50092  -0.00000   0.00000  -0.88336
   6        3S          0.00000  -0.03300  -0.00000   0.00000  -0.06911
   7        3PX        -0.14777   0.00000   0.00000   0.05749   0.00000
   8        3PY         0.00000   0.00000   0.05749   0.00000  -0.00000
   9        3PZ         0.00000  -0.25773   0.00000   0.00000   1.78844
  10 2   C  1S          0.00000   0.03719   0.07016   0.00000  -0.00113
  11        2S          0.00000  -0.13780  -0.38322   0.00000  -0.41775
  12        2PX        -0.32241   0.00000   0.00000  -0.08019   0.00000
  13        2PY         0.00000  -0.09427  -0.54950   0.00000  -0.17391
  14        2PZ         0.00000   0.10049  -0.00865   0.00000  -0.08607
  15        3S          0.00000   0.10296   0.78349   0.00000   1.04499
  16        3PX         0.44013   0.00000   0.00000   0.41158   0.00000
  17        3PY         0.00000   0.13039   0.95497   0.00000  -0.04818
  18        3PZ         0.00000  -0.38987   0.23010   0.00000  -0.30634
  19 3   H  1S         -0.26048   0.29979   0.43274   0.23432   0.11273
  20        2S          0.47676  -0.18987  -0.77232  -0.05697  -0.26412
  21 4   H  1S          0.26048   0.29979   0.43274  -0.23432   0.11273
  22        2S         -0.47676  -0.18987  -0.77232   0.05697  -0.26412
  23 5   H  1S          0.00000   0.03210   0.59778   0.00000  -0.27290
  24        2S          0.00000  -0.22922  -0.49512   0.00000  -0.14123
  25 6   C  1S         -0.00415   0.03719  -0.03508  -0.06076  -0.00113
  26        2S          0.04236  -0.13780   0.19161   0.33188  -0.41775
  27        2PX         0.01354   0.08164  -0.20322  -0.43217   0.15061
  28        2PY         0.19396   0.04713  -0.19752  -0.20322   0.08696
  29        2PZ        -0.46695   0.10049   0.00432   0.00749  -0.08607
  30        3S         -0.12322   0.10296  -0.39174  -0.67852   1.04499
  31        3PX        -0.02379  -0.11292   0.23529   0.81912   0.04173
  32        3PY        -0.26785  -0.06519   0.54743   0.23529   0.02409
  33        3PZ         0.55742  -0.38987  -0.11505  -0.19927  -0.30634
  34 7   H  1S          0.41693   0.29979  -0.01344  -0.49193   0.11273
  35        2S         -0.68092  -0.18987   0.33683   0.69734  -0.26412
  36 8   H  1S          0.15645   0.29979  -0.41930  -0.25760   0.11273
  37        2S         -0.20416  -0.18987   0.43550   0.64037  -0.26412
  38 9   H  1S         -0.63833   0.03210  -0.29889  -0.51769  -0.27290
  39        2S          1.01429  -0.22922   0.24756   0.42879  -0.14123
  40 10  C  1S          0.00415   0.03719  -0.03508   0.06076  -0.00113
  41        2S         -0.04236  -0.13780   0.19161  -0.33188  -0.41775
  42        2PX         0.01354  -0.08164   0.20322  -0.43217  -0.15061
  43        2PY        -0.19396   0.04713  -0.19752   0.20322   0.08696
  44        2PZ         0.46695   0.10049   0.00432  -0.00749  -0.08607
  45        3S          0.12322   0.10296  -0.39174   0.67852   1.04499
  46        3PX        -0.02379   0.11292  -0.23529   0.81912  -0.04173
  47        3PY         0.26785  -0.06519   0.54743  -0.23529   0.02409
  48        3PZ        -0.55742  -0.38987  -0.11505   0.19927  -0.30634
  49 11  H  1S         -0.15645   0.29979  -0.41930   0.25760   0.11273
  50        2S          0.20416  -0.18987   0.43550  -0.64037  -0.26412
  51 12  H  1S         -0.41693   0.29979  -0.01344   0.49193   0.11273
  52        2S          0.68092  -0.18987   0.33683  -0.69734  -0.26412
  53 13  H  1S          0.63833   0.03210  -0.29889   0.51769  -0.27290
  54        2S         -1.01429  -0.22922   0.24756  -0.42879  -0.14123
  55 14  H  1S          0.00000  -0.97934   0.00000   0.00000  -0.48459
  56        2S          0.00000   1.20212  -0.00000   0.00000  -0.45450
                          51        52        53        54        55
                        (E)--V    (E)--V    (A1)--V   (E)--V    (E)--V
     Eigenvalues --     1.54639   1.54639   1.63435   1.99403   1.99403
   1 1   N  1S          0.00000   0.00000   0.05190  -0.00000   0.00000
   2        2S          0.00000   0.00000  -0.15450  -0.00000   0.00000
   3        2PX        -1.04476   0.00000   0.00000   0.00000   0.01153
   4        2PY         0.00000  -1.04476  -0.00000  -0.01153   0.00000
   5        2PZ         0.00000  -0.00000   0.34681   0.00000   0.00000
   6        3S          0.00000   0.00000  -0.55795   0.00000   0.00000
   7        3PX         2.05303   0.00000   0.00000   0.00000   0.72480
   8        3PY         0.00000   2.05303   0.00000  -0.72480   0.00000
   9        3PZ         0.00000   0.00000  -0.65496  -0.00000   0.00000
  10 2   C  1S          0.00000   0.04571  -0.00077  -0.05500   0.00000
  11        2S          0.00000  -0.02277  -1.00460  -1.70365   0.00000
  12        2PX        -0.15185   0.00000   0.00000   0.00000  -0.17669
  13        2PY         0.00000   0.25246  -0.02237   0.13721   0.00000
  14        2PZ         0.00000  -0.01532  -0.02805   0.06572   0.00000
  15        3S          0.00000  -1.06045   1.73888   3.47209   0.00000
  16        3PX        -0.32907   0.00000   0.00000   0.00000   0.48740
  17        3PY         0.00000   0.25487   0.22784  -0.52906   0.00000
  18        3PZ         0.00000  -0.50448   0.34743  -0.19410   0.00000
  19 3   H  1S         -0.23477   0.24640  -0.11007  -0.21864   0.04616
  20        2S          0.08257   0.05644  -0.44442  -0.45863   0.23075
  21 4   H  1S          0.23477   0.24640  -0.11007  -0.21864  -0.04616
  22        2S         -0.08257   0.05644  -0.44442  -0.45863  -0.23075
  23 5   H  1S          0.00000   0.06904   0.08411  -0.30132   0.00000
  24        2S          0.00000  -0.11373  -0.27263  -0.70237   0.00000
  25 6   C  1S         -0.03958  -0.02285  -0.00077   0.02750  -0.04763
  26        2S          0.01972   0.01139  -1.00460   0.85182  -1.47540
  27        2PX         0.15138   0.17507   0.01937  -0.01709  -0.14708
  28        2PY         0.17507  -0.05077   0.01118   0.16682   0.01709
  29        2PZ         0.01327   0.00766  -0.02805  -0.03286   0.05692
  30        3S          0.91837   0.53022   1.73888  -1.73604   3.00692
  31        3PX         0.10888   0.25285  -0.19731  -0.01804   0.51865
  32        3PY         0.25285  -0.18308  -0.11392  -0.49781   0.01804
  33        3PZ         0.43690   0.25224   0.34743   0.09705  -0.16809
  34 7   H  1S         -0.09600  -0.32652  -0.11007   0.06935  -0.21242
  35        2S         -0.09016   0.04329  -0.44442   0.02948  -0.51256
  36 8   H  1S         -0.33077   0.08012  -0.11007   0.14929  -0.16627
  37        2S         -0.00759  -0.09972  -0.44442   0.42915  -0.28181
  38 9   H  1S         -0.05979  -0.03452   0.08411   0.15066  -0.26095
  39        2S          0.09850   0.05687  -0.27263   0.35119  -0.60827
  40 10  C  1S          0.03958  -0.02285  -0.00077   0.02750   0.04763
  41        2S         -0.01972   0.01139  -1.00460   0.85182   1.47540
  42        2PX         0.15138  -0.17507  -0.01937   0.01709  -0.14708
  43        2PY        -0.17507  -0.05077   0.01118   0.16682  -0.01709
  44        2PZ        -0.01327   0.00766  -0.02805  -0.03286  -0.05692
  45        3S         -0.91837   0.53022   1.73888  -1.73604  -3.00692
  46        3PX         0.10888  -0.25285   0.19731   0.01804   0.51865
  47        3PY        -0.25285  -0.18308  -0.11392  -0.49781  -0.01804
  48        3PZ        -0.43690   0.25224   0.34743   0.09705   0.16809
  49 11  H  1S          0.33077   0.08012  -0.11007   0.14929   0.16627
  50        2S          0.00759  -0.09972  -0.44442   0.42915   0.28181
  51 12  H  1S          0.09600  -0.32652  -0.11007   0.06935   0.21242
  52        2S          0.09016   0.04329  -0.44442   0.02948   0.51256
  53 13  H  1S          0.05979  -0.03452   0.08411   0.15066   0.26095
  54        2S         -0.09850   0.05687  -0.27263   0.35119   0.60827
  55 14  H  1S          0.00000  -0.00000   0.47786  -0.00000   0.00000
  56        2S          0.00000  -0.00000  -0.25359   0.00000   0.00000
                          56
                        (A1)--V
     Eigenvalues --     2.87052
   1 1   N  1S         -0.02969
   2        2S         -1.98116
   3        2PX         0.00000
   4        2PY        -0.00000
   5        2PZ         0.08145
   6        3S          3.50244
   7        3PX         0.00000
   8        3PY         0.00000
   9        3PZ        -0.18588
  10 2   C  1S          0.05298
  11        2S          0.24019
  12        2PX         0.00000
  13        2PY         0.19628
  14        2PZ        -0.03092
  15        3S         -1.22008
  16        3PX         0.00000
  17        3PY         0.28569
  18        3PZ        -0.18908
  19 3   H  1S          0.12476
  20        2S          0.16546
  21 4   H  1S          0.12476
  22        2S          0.16546
  23 5   H  1S          0.10903
  24        2S          0.08763
  25 6   C  1S          0.05298
  26        2S          0.24019
  27        2PX        -0.16998
  28        2PY        -0.09814
  29        2PZ        -0.03092
  30        3S         -1.22008
  31        3PX        -0.24741
  32        3PY        -0.14284
  33        3PZ        -0.18908
  34 7   H  1S          0.12476
  35        2S          0.16546
  36 8   H  1S          0.12476
  37        2S          0.16546
  38 9   H  1S          0.10903
  39        2S          0.08763
  40 10  C  1S          0.05298
  41        2S          0.24019
  42        2PX         0.16998
  43        2PY        -0.09814
  44        2PZ        -0.03092
  45        3S         -1.22008
  46        3PX         0.24741
  47        3PY        -0.14284
  48        3PZ        -0.18908
  49 11  H  1S          0.12476
  50        2S          0.16546
  51 12  H  1S          0.12476
  52        2S          0.16546
  53 13  H  1S          0.10903
  54        2S          0.08763
  55 14  H  1S         -0.42665
  56        2S         -0.10025
     Density Matrix:
                           1         2         3         4         5
   1 1   N  1S          2.05197
   2        2S          0.11793   0.09448
   3        2PX        -0.00000   0.00000   0.33580
   4        2PY         0.00000  -0.00000  -0.00000   0.33580
   5        2PZ         0.00115   0.00547  -0.00000   0.00000   0.34699
   6        3S         -0.50290   0.28820   0.00000   0.00000  -0.03571
   7        3PX         0.00000  -0.00000   0.39188   0.00000  -0.00000
   8        3PY        -0.00000   0.00000   0.00000   0.39188   0.00000
   9        3PZ         0.02321  -0.00587   0.00000  -0.00000   0.36550
  10 2   C  1S          0.00464  -0.00551  -0.00000  -0.04272   0.01512
  11        2S         -0.01267   0.00898   0.00000   0.04106  -0.01663
  12        2PX         0.00000  -0.00000  -0.00207  -0.00000   0.00000
  13        2PY         0.03909  -0.03374  -0.00000  -0.18838   0.06477
  14        2PZ        -0.01226   0.01034   0.00000   0.06089  -0.02679
  15        3S          0.06022  -0.01570   0.00000   0.06147  -0.02889
  16        3PX        -0.00000  -0.00000  -0.04143  -0.00000   0.00000
  17        3PY        -0.00649  -0.00464  -0.00000  -0.11401   0.02764
  18        3PZ         0.00019   0.00328   0.00000   0.02164  -0.03763
  19 3   H  1S          0.00572  -0.00527   0.01311  -0.02600  -0.00066
  20        2S          0.00258  -0.00480   0.01410  -0.03793   0.00218
  21 4   H  1S          0.00572  -0.00527  -0.01311  -0.02600  -0.00066
  22        2S          0.00258  -0.00480  -0.01410  -0.03793   0.00218
  23 5   H  1S          0.00499  -0.00441  -0.00000  -0.01766   0.02444
  24        2S          0.00307  -0.00360  -0.00000  -0.03085   0.03890
  25 6   C  1S          0.00464  -0.00551   0.03699   0.02136   0.01512
  26        2S         -0.01267   0.00898  -0.03556  -0.02053  -0.01663
  27        2PX        -0.03386   0.02922  -0.14180  -0.08068  -0.05609
  28        2PY        -0.01955   0.01687  -0.08068  -0.04865  -0.03238
  29        2PZ        -0.01226   0.01034  -0.05273  -0.03044  -0.02679
  30        3S          0.06022  -0.01570  -0.05324  -0.03074  -0.02889
  31        3PX         0.00562   0.00402  -0.09586  -0.03143  -0.02393
  32        3PY         0.00325   0.00232  -0.03143  -0.05957  -0.01382
  33        3PZ         0.00019   0.00328  -0.01874  -0.01082  -0.03763
  34 7   H  1S          0.00572  -0.00527   0.01596   0.02435  -0.00066
  35        2S          0.00258  -0.00480   0.02580   0.03117   0.00218
  36 8   H  1S          0.00572  -0.00527   0.02907   0.00165  -0.00066
  37        2S          0.00258  -0.00480   0.03989   0.00675   0.00218
  38 9   H  1S          0.00499  -0.00441   0.01529   0.00883   0.02444
  39        2S          0.00307  -0.00360   0.02671   0.01542   0.03890
  40 10  C  1S          0.00464  -0.00551  -0.03699   0.02136   0.01512
  41        2S         -0.01267   0.00898   0.03556  -0.02053  -0.01663
  42        2PX         0.03386  -0.02922  -0.14180   0.08068   0.05609
  43        2PY        -0.01955   0.01687   0.08068  -0.04865  -0.03238
  44        2PZ        -0.01226   0.01034   0.05273  -0.03044  -0.02679
  45        3S          0.06022  -0.01570   0.05324  -0.03074  -0.02889
  46        3PX        -0.00562  -0.00402  -0.09586   0.03143   0.02393
  47        3PY         0.00325   0.00232   0.03143  -0.05957  -0.01382
  48        3PZ         0.00019   0.00328   0.01874  -0.01082  -0.03763
  49 11  H  1S          0.00572  -0.00527  -0.02907   0.00165  -0.00066
  50        2S          0.00258  -0.00480  -0.03989   0.00675   0.00218
  51 12  H  1S          0.00572  -0.00527  -0.01596   0.02435  -0.00066
  52        2S          0.00258  -0.00480  -0.02580   0.03117   0.00218
  53 13  H  1S          0.00499  -0.00441  -0.01529   0.00883   0.02444
  54        2S          0.00307  -0.00360  -0.02671   0.01542   0.03890
  55 14  H  1S         -0.03641   0.04108   0.00000  -0.00000   0.22007
  56        2S          0.01342   0.00235  -0.00000   0.00000   0.13427
                           6         7         8         9        10
   6        3S          1.33220
   7        3PX        -0.00000   0.46973
   8        3PY         0.00000   0.00000   0.46973
   9        3PZ        -0.09926   0.00000  -0.00000   0.38922
  10 2   C  1S          0.01860  -0.00000  -0.01431   0.01124   2.03870
  11        2S          0.00384   0.00000   0.02430  -0.01234   0.11310
  12        2PX        -0.00000  -0.00521  -0.00000   0.00000  -0.00000
  13        2PY        -0.17422  -0.00000  -0.23599   0.07668  -0.02162
  14        2PZ         0.05297   0.00000   0.07698  -0.03713   0.00617
  15        3S         -0.19330  -0.00000  -0.01221  -0.00780  -0.41133
  16        3PX        -0.00000  -0.04874  -0.00000   0.00000  -0.00000
  17        3PY        -0.03222  -0.00000  -0.14038   0.03107  -0.00312
  18        3PZ         0.01877   0.00000   0.02971  -0.04542   0.00700
  19 3   H  1S         -0.05050   0.01697  -0.04921   0.00330  -0.05671
  20        2S         -0.02543   0.01893  -0.04824   0.00275   0.02048
  21 4   H  1S         -0.05050  -0.01697  -0.04921   0.00330  -0.05671
  22        2S         -0.02543  -0.01893  -0.04824   0.00275   0.02048
  23 5   H  1S         -0.04919  -0.00000  -0.03990   0.03559  -0.05618
  24        2S         -0.02764  -0.00000  -0.03909   0.04637   0.02473
  25 6   C  1S          0.01860   0.01239   0.00716   0.01124  -0.00450
  26        2S          0.00384  -0.02105  -0.01215  -0.01234  -0.00310
  27        2PX         0.15088  -0.17830  -0.09993  -0.06641   0.00198
  28        2PY         0.08711  -0.09993  -0.06291  -0.03834   0.00749
  29        2PZ         0.05297  -0.06666  -0.03849  -0.03713  -0.00134
  30        3S         -0.19330   0.01057   0.00610  -0.00780   0.02674
  31        3PX         0.02791  -0.11747  -0.03968  -0.02691   0.00206
  32        3PY         0.01611  -0.03968  -0.07165  -0.01554   0.02692
  33        3PZ         0.01877  -0.02573  -0.01485  -0.04542  -0.00988
  34 7   H  1S         -0.05050   0.03414   0.03930   0.00330  -0.00690
  35        2S         -0.02543   0.03232   0.04052   0.00275  -0.00042
  36 8   H  1S         -0.05050   0.05110   0.00991   0.00330   0.00206
  37        2S         -0.02543   0.05125   0.00773   0.00275  -0.00442
  38 9   H  1S         -0.04919   0.03456   0.01995   0.03559   0.00173
  39        2S         -0.02764   0.03385   0.01954   0.04637  -0.00468
  40 10  C  1S          0.01860  -0.01239   0.00716   0.01124  -0.00450
  41        2S          0.00384   0.02105  -0.01215  -0.01234  -0.00310
  42        2PX        -0.15088  -0.17830   0.09993   0.06641  -0.00198
  43        2PY         0.08711   0.09993  -0.06291  -0.03834   0.00749
  44        2PZ         0.05297   0.06666  -0.03849  -0.03713  -0.00134
  45        3S         -0.19330  -0.01057   0.00610  -0.00780   0.02674
  46        3PX        -0.02791  -0.11747   0.03968   0.02691  -0.00206
  47        3PY         0.01611   0.03968  -0.07165  -0.01554   0.02692
  48        3PZ         0.01877   0.02573  -0.01485  -0.04542  -0.00988
  49 11  H  1S         -0.05050  -0.05110   0.00991   0.00330   0.00206
  50        2S         -0.02543  -0.05125   0.00773   0.00275  -0.00442
  51 12  H  1S         -0.05050  -0.03414   0.03930   0.00330  -0.00690
  52        2S         -0.02543  -0.03232   0.04052   0.00275  -0.00042
  53 13  H  1S         -0.04919  -0.03456   0.01995   0.03559   0.00173
  54        2S         -0.02764  -0.03385   0.01954   0.04637  -0.00468
  55 14  H  1S          0.13145  -0.00000   0.00000   0.22628   0.00607
  56        2S         -0.01585  -0.00000   0.00000   0.14327   0.01241
                          11        12        13        14        15
  11        2S          0.10300
  12        2PX         0.00000   0.31712
  13        2PY         0.01801  -0.00000   0.19769
  14        2PZ        -0.00520   0.00000   0.03949   0.30404
  15        3S          0.23979   0.00000   0.12407  -0.04101   0.85751
  16        3PX         0.00000   0.28092  -0.00000   0.00000   0.00000
  17        3PY         0.00842  -0.00000   0.11636   0.05552   0.04631
  18        3PZ        -0.00377   0.00000   0.05498   0.25853  -0.02500
  19 3   H  1S          0.05425  -0.17974   0.08679   0.08075   0.18519
  20        2S          0.01013  -0.12787   0.05567   0.05998   0.03075
  21 4   H  1S          0.05425   0.17974   0.08679   0.08075   0.18519
  22        2S          0.01013   0.12787   0.05567   0.05998   0.03075
  23 5   H  1S          0.05350  -0.00000  -0.01102  -0.21469   0.18560
  24        2S          0.00826  -0.00000  -0.01271  -0.15463   0.02583
  25 6   C  1S         -0.00310  -0.00550  -0.00546  -0.00134   0.02674
  26        2S          0.00032   0.00309   0.00482   0.00038  -0.00845
  27        2PX        -0.00263   0.00427   0.02058   0.00396   0.00228
  28        2PY        -0.00509   0.01453   0.02453  -0.00439  -0.05200
  29        2PZ         0.00038   0.00578  -0.00123  -0.00728   0.02012
  30        3S         -0.00845   0.04617   0.02402   0.02012  -0.05191
  31        3PX        -0.00168   0.00879   0.01392   0.01231   0.00960
  32        3PY        -0.01156   0.02591   0.03872  -0.00457  -0.06136
  33        3PZ         0.00365   0.00814  -0.01016  -0.00944   0.02832
  34 7   H  1S          0.00493  -0.00781  -0.02100   0.00293   0.03453
  35        2S          0.00289  -0.01016  -0.02446   0.00191   0.02372
  36 8   H  1S         -0.00068   0.00612   0.00456  -0.00349  -0.02042
  37        2S          0.00146  -0.00385   0.00360   0.00123  -0.00263
  38 9   H  1S         -0.00093   0.00048   0.00758   0.00233  -0.02131
  39        2S          0.00100  -0.00169   0.00360  -0.00780  -0.00501
  40 10  C  1S         -0.00310   0.00550  -0.00546  -0.00134   0.02674
  41        2S          0.00032  -0.00309   0.00482   0.00038  -0.00845
  42        2PX         0.00263   0.00427  -0.02058  -0.00396  -0.00228
  43        2PY        -0.00509  -0.01453   0.02453  -0.00439  -0.05200
  44        2PZ         0.00038  -0.00578  -0.00123  -0.00728   0.02012
  45        3S         -0.00845  -0.04617   0.02402   0.02012  -0.05191
  46        3PX         0.00168   0.00879  -0.01392  -0.01231  -0.00960
  47        3PY        -0.01156  -0.02591   0.03872  -0.00457  -0.06136
  48        3PZ         0.00365  -0.00814  -0.01016  -0.00944   0.02832
  49 11  H  1S         -0.00068  -0.00612   0.00456  -0.00349  -0.02042
  50        2S          0.00146   0.00385   0.00360   0.00123  -0.00263
  51 12  H  1S          0.00493   0.00781  -0.02100   0.00293   0.03453
  52        2S          0.00289   0.01016  -0.02446   0.00191   0.02372
  53 13  H  1S         -0.00093  -0.00048   0.00758   0.00233  -0.02131
  54        2S          0.00100   0.00169   0.00360  -0.00780  -0.00501
  55 14  H  1S         -0.00657   0.00000   0.01955  -0.02492  -0.03156
  56        2S         -0.00819   0.00000   0.01540  -0.04275  -0.02155
                          16        17        18        19        20
  16        3PX         0.25441
  17        3PY        -0.00000   0.07811
  18        3PZ         0.00000   0.05985   0.22439
  19 3   H  1S         -0.16068   0.05669   0.07655   0.18292
  20        2S         -0.11455   0.03915   0.05666   0.11023   0.07721
  21 4   H  1S          0.16068   0.05669   0.07655  -0.02175  -0.03579
  22        2S          0.11455   0.03915   0.05666  -0.03579  -0.02757
  23 5   H  1S         -0.00000  -0.03178  -0.18255  -0.02185  -0.03657
  24        2S         -0.00000  -0.02348  -0.13186  -0.03768  -0.02889
  25 6   C  1S         -0.02228  -0.01525  -0.00988   0.00206  -0.00442
  26        2S          0.00917   0.00724   0.00365  -0.00068   0.00146
  27        2PX         0.01399   0.01692   0.01287  -0.00089  -0.00505
  28        2PY         0.02891   0.03352  -0.00197  -0.00758   0.00154
  29        2PZ         0.01012  -0.00837  -0.00944  -0.00349   0.00123
  30        3S          0.05794   0.02236   0.02832  -0.02042  -0.00263
  31        3PX         0.01393   0.00754   0.01617  -0.00177  -0.00572
  32        3PY         0.03281   0.03723  -0.00027  -0.01204   0.00120
  33        3PZ         0.00832  -0.01386  -0.01095  -0.00500  -0.00155
  34 7   H  1S         -0.01141  -0.02410   0.00207   0.00301  -0.00073
  35        2S         -0.01518  -0.02464  -0.00089   0.00135  -0.00181
  36 8   H  1S          0.00955   0.00755  -0.00500  -0.00144   0.00666
  37        2S         -0.00390   0.00435  -0.00155   0.00666   0.00855
  38 9   H  1S          0.00140   0.01175   0.00604   0.00022  -0.00076
  39        2S         -0.00420   0.00486  -0.00600  -0.00011  -0.00276
  40 10  C  1S          0.02228  -0.01525  -0.00988  -0.00690  -0.00042
  41        2S         -0.00917   0.00724   0.00365   0.00493   0.00289
  42        2PX         0.01399  -0.01692  -0.01287  -0.01428  -0.01610
  43        2PY        -0.02891   0.03352  -0.00197   0.01727   0.02103
  44        2PZ        -0.01012  -0.00837  -0.00944   0.00293   0.00191
  45        3S         -0.05794   0.02236   0.02832   0.03453   0.02372
  46        3PX         0.01393  -0.00754  -0.01617  -0.01517  -0.01375
  47        3PY        -0.03281   0.03723  -0.00027   0.02194   0.02547
  48        3PZ        -0.00832  -0.01386  -0.01095   0.00207  -0.00089
  49 11  H  1S         -0.00955   0.00755  -0.00500   0.00301   0.00135
  50        2S          0.00390   0.00435  -0.00155  -0.00073  -0.00181
  51 12  H  1S          0.01141  -0.02410   0.00207  -0.00981  -0.01378
  52        2S          0.01518  -0.02464  -0.00089  -0.01378  -0.01391
  53 13  H  1S         -0.00140   0.01175   0.00604   0.00209   0.00120
  54        2S          0.00420   0.00486  -0.00600  -0.00213  -0.00238
  55 14  H  1S          0.00000   0.01279  -0.03323  -0.00800  -0.00435
  56        2S          0.00000   0.00385  -0.04149  -0.01255  -0.00738
                          21        22        23        24        25
  21 4   H  1S          0.18292
  22        2S          0.11023   0.07721
  23 5   H  1S         -0.02185  -0.03657   0.18256
  24        2S         -0.03768  -0.02889   0.11196   0.08198
  25 6   C  1S         -0.00690  -0.00042   0.00173  -0.00468   2.03870
  26        2S          0.00493   0.00289  -0.00093   0.00100   0.11310
  27        2PX         0.01428   0.01610  -0.00632  -0.00396   0.01872
  28        2PY         0.01727   0.02103  -0.00421  -0.00034   0.01081
  29        2PZ         0.00293   0.00191   0.00233  -0.00780   0.00617
  30        3S          0.03453   0.02372  -0.02131  -0.00501  -0.41133
  31        3PX         0.01517   0.01375  -0.00948  -0.00631   0.00270
  32        3PY         0.02194   0.02547  -0.00709   0.00121   0.00156
  33        3PZ         0.00207  -0.00089   0.00604  -0.00600   0.00700
  34 7   H  1S         -0.00981  -0.01378   0.00209  -0.00213  -0.05671
  35        2S         -0.01378  -0.01391   0.00120  -0.00238   0.02048
  36 8   H  1S          0.00301   0.00135   0.00022  -0.00011  -0.05671
  37        2S         -0.00073  -0.00181  -0.00076  -0.00276   0.02048
  38 9   H  1S          0.00209   0.00120  -0.00002   0.00888  -0.05618
  39        2S         -0.00213  -0.00238   0.00888   0.01207   0.02473
  40 10  C  1S          0.00206  -0.00442   0.00173  -0.00468  -0.00450
  41        2S         -0.00068   0.00146  -0.00093   0.00100  -0.00310
  42        2PX         0.00089   0.00505   0.00632   0.00396  -0.00748
  43        2PY        -0.00758   0.00154  -0.00421  -0.00034  -0.00203
  44        2PZ        -0.00349   0.00123   0.00233  -0.00780  -0.00134
  45        3S         -0.02042  -0.00263  -0.02131  -0.00501   0.02674
  46        3PX         0.00177   0.00572   0.00948   0.00631  -0.02435
  47        3PY        -0.01204   0.00120  -0.00709   0.00121  -0.01167
  48        3PZ        -0.00500  -0.00155   0.00604  -0.00600  -0.00988
  49 11  H  1S         -0.00144   0.00666   0.00022  -0.00011  -0.00690
  50        2S          0.00666   0.00855  -0.00076  -0.00276  -0.00042
  51 12  H  1S          0.00301  -0.00073   0.00209  -0.00213   0.00206
  52        2S          0.00135  -0.00181   0.00120  -0.00238  -0.00442
  53 13  H  1S          0.00022  -0.00076  -0.00002   0.00888   0.00173
  54        2S         -0.00011  -0.00276   0.00888   0.01207  -0.00468
  55 14  H  1S         -0.00800  -0.00435   0.02205   0.03012   0.00607
  56        2S         -0.01255  -0.00738   0.03080   0.03325   0.01241
                          26        27        28        29        30
  26        2S          0.10300
  27        2PX        -0.01560   0.22755
  28        2PY        -0.00901  -0.05171   0.28726
  29        2PZ        -0.00520  -0.03420  -0.01974   0.30404
  30        3S          0.23979  -0.10745  -0.06203  -0.04101   0.85751
  31        3PX        -0.00730   0.15750  -0.07126  -0.04809  -0.04010
  32        3PY        -0.00421  -0.07126   0.23978  -0.02776  -0.02315
  33        3PZ        -0.00377  -0.04762  -0.02749   0.25853  -0.02500
  34 7   H  1S          0.05425   0.01470  -0.19905   0.08075   0.18519
  35        2S          0.01013   0.01572  -0.13857   0.05998   0.03075
  36 8   H  1S          0.05425  -0.16504   0.11226   0.08075   0.18519
  37        2S          0.01013  -0.11215   0.08290   0.05998   0.03075
  38 9   H  1S          0.05350   0.00954   0.00551  -0.21469   0.18560
  39        2S          0.00826   0.01100   0.00635  -0.15463   0.02583
  40 10  C  1S         -0.00310   0.00748  -0.00203  -0.00134   0.02674
  41        2S          0.00032  -0.00572   0.00027   0.00038  -0.00845
  42        2PX         0.00572   0.03467   0.00303   0.00183   0.04389
[...]
  48        3PZ        -0.00003  -0.00004  -0.00008   0.00042   0.00000
  49 11  H  1S         -0.00000   0.00016   0.00000  -0.00000  -0.00000
  50        2S          0.00016   0.00118  -0.00000  -0.00013  -0.00000
  51 12  H  1S          0.00000  -0.00000   0.00000  -0.00000   0.00000
  52        2S          0.00000  -0.00002   0.00000  -0.00003  -0.00001
  53 13  H  1S          0.00000  -0.00000  -0.00000   0.00019   0.00000
  54        2S         -0.00000  -0.00013   0.00019   0.00153  -0.00001
  55 14  H  1S         -0.00000  -0.00013   0.00000   0.00018   0.00000
  56        2S         -0.00037  -0.00113   0.00019   0.00196   0.00014
                          26        27        28        29        30
  26        2S          0.10300
  27        2PX         0.00000   0.22755
  28        2PY         0.00000  -0.00000   0.28726
  29        2PZ         0.00000   0.00000   0.00000   0.30404
  30        3S          0.18257   0.00000   0.00000   0.00000   0.85751
  31        3PX         0.00000   0.08331  -0.00000   0.00000   0.00000
  32        3PY         0.00000   0.00000   0.12683   0.00000   0.00000
  33        3PZ         0.00000   0.00000   0.00000   0.13675   0.00000
  34 7   H  1S          0.01092   0.00009   0.05618   0.00851   0.06359
  35        2S          0.00412   0.00008   0.03056   0.00494   0.02074
  36 8   H  1S          0.01092   0.03982   0.01646   0.00851   0.06359
  37        2S          0.00412   0.02114   0.00950   0.00494   0.02074
  38 9   H  1S          0.01077  -0.00000  -0.00000   0.06472   0.06375
  39        2S          0.00336  -0.00000  -0.00000   0.03641   0.01742
  40 10  C  1S         -0.00000   0.00000  -0.00000   0.00000   0.00007
  41        2S          0.00000  -0.00000   0.00000   0.00000  -0.00021
  42        2PX        -0.00000  -0.00007   0.00000   0.00000  -0.00142
  43        2PY         0.00000   0.00000  -0.00000   0.00000   0.00000
  44        2PZ         0.00000   0.00000   0.00000  -0.00000   0.00000
  45        3S         -0.00021  -0.00142   0.00000   0.00000  -0.00575
  46        3PX        -0.00088  -0.00452   0.00000   0.00000  -0.01124
  47        3PY        -0.00000  -0.00000  -0.00001   0.00000   0.00000
  48        3PZ         0.00000   0.00000   0.00000  -0.00015   0.00000
  49 11  H  1S          0.00000   0.00000   0.00000   0.00000   0.00003
  50        2S          0.00000   0.00007   0.00000   0.00000   0.00044
  51 12  H  1S         -0.00000  -0.00000  -0.00000  -0.00000  -0.00021
  52        2S          0.00002  -0.00002   0.00004   0.00000  -0.00022
  53 13  H  1S         -0.00000  -0.00000   0.00000  -0.00000  -0.00020
  54        2S          0.00002  -0.00004   0.00000   0.00006  -0.00040
  55 14  H  1S         -0.00002  -0.00006  -0.00002  -0.00011  -0.00183
  56        2S         -0.00066  -0.00069  -0.00023  -0.00261  -0.00505
                          31        32        33        34        35
  31        3PX         0.12219
  32        3PY         0.00000   0.21034
  33        3PZ         0.00000   0.00000   0.22439
  34 7   H  1S          0.00033   0.07925   0.01353   0.18292
  35        2S          0.00029   0.06541   0.01166   0.07120   0.07721
  36 8   H  1S          0.05235   0.02723   0.01353  -0.00018  -0.00424
  37        2S          0.04292   0.02278   0.01166  -0.00424  -0.00986
  38 9   H  1S         -0.00002  -0.00001   0.09222  -0.00018  -0.00434
  39        2S         -0.00002  -0.00001   0.07752  -0.00447  -0.01035
  40 10  C  1S          0.00025  -0.00000   0.00000   0.00000  -0.00001
  41        2S         -0.00088  -0.00000   0.00000  -0.00000   0.00002
  42        2PX        -0.00452  -0.00000   0.00000  -0.00000  -0.00002
  43        2PY         0.00000  -0.00001   0.00000  -0.00000   0.00004
  44        2PZ         0.00000   0.00000  -0.00015  -0.00000   0.00000
  45        3S         -0.01124   0.00000   0.00000  -0.00021  -0.00022
  46        3PX        -0.01842   0.00000   0.00000  -0.00039  -0.00031
  47        3PY         0.00000   0.00025   0.00000  -0.00006   0.00038
  48        3PZ         0.00000   0.00000  -0.00121  -0.00003  -0.00004
  49 11  H  1S          0.00010   0.00000   0.00000   0.00000  -0.00000
  50        2S          0.00147  -0.00001  -0.00001   0.00000  -0.00002
  51 12  H  1S         -0.00039  -0.00006  -0.00003  -0.00000   0.00016
  52        2S         -0.00031   0.00038  -0.00004   0.00016   0.00118
  53 13  H  1S         -0.00035   0.00000  -0.00008   0.00000  -0.00000
  54        2S         -0.00034   0.00000   0.00042  -0.00000  -0.00013
  55 14  H  1S         -0.00109  -0.00036  -0.00387  -0.00000  -0.00013
  56        2S         -0.00079  -0.00026  -0.01164  -0.00037  -0.00113
                          36        37        38        39        40
  36 8   H  1S          0.18292
  37        2S          0.07120   0.07721
  38 9   H  1S         -0.00018  -0.00434   0.18256
  39        2S         -0.00447  -0.01035   0.07231   0.08198
  40 10  C  1S         -0.00000  -0.00000   0.00000  -0.00001   2.03870
  41        2S          0.00000   0.00000  -0.00000   0.00002   0.02165
  42        2PX         0.00000   0.00007  -0.00000  -0.00004   0.00000
  43        2PY         0.00000   0.00000   0.00000   0.00000   0.00000
  44        2PZ         0.00000   0.00000  -0.00000   0.00006   0.00000
  45        3S          0.00003   0.00044  -0.00020  -0.00040  -0.07417
  46        3PX         0.00010   0.00147  -0.00035  -0.00034   0.00000
  47        3PY         0.00000  -0.00001   0.00000   0.00000   0.00000
  48        3PZ         0.00000  -0.00001  -0.00008   0.00042   0.00000
  49 11  H  1S         -0.00000  -0.00000   0.00000  -0.00000  -0.00114
  50        2S         -0.00000  -0.00004   0.00000  -0.00003   0.00168
  51 12  H  1S          0.00000   0.00000   0.00000  -0.00000  -0.00114
  52        2S         -0.00000  -0.00002  -0.00000  -0.00013   0.00168
  53 13  H  1S          0.00000   0.00000  -0.00000   0.00019  -0.00113
  54        2S         -0.00000  -0.00003   0.00019   0.00153   0.00203
  55 14  H  1S         -0.00000  -0.00013   0.00000   0.00018   0.00000
  56        2S         -0.00037  -0.00113   0.00019   0.00196   0.00014
                          41        42        43        44        45
  41        2S          0.10300
  42        2PX         0.00000   0.22755
  43        2PY         0.00000   0.00000   0.28726
  44        2PZ         0.00000   0.00000   0.00000   0.30404
  45        3S          0.18257   0.00000   0.00000   0.00000   0.85751
  46        3PX         0.00000   0.08331  -0.00000   0.00000   0.00000
  47        3PY         0.00000   0.00000   0.12683   0.00000   0.00000
  48        3PZ         0.00000   0.00000   0.00000   0.13675   0.00000
  49 11  H  1S          0.01092   0.03982   0.01646   0.00851   0.06359
  50        2S          0.00412   0.02114   0.00950   0.00494   0.02074
  51 12  H  1S          0.01092   0.00009   0.05618   0.00851   0.06359
  52        2S          0.00412   0.00008   0.03056   0.00494   0.02074
  53 13  H  1S          0.01077  -0.00000  -0.00000   0.06472   0.06375
  54        2S          0.00336  -0.00000  -0.00000   0.03641   0.01742
  55 14  H  1S         -0.00002  -0.00006  -0.00002  -0.00011  -0.00183
  56        2S         -0.00066  -0.00069  -0.00023  -0.00261  -0.00505
                          46        47        48        49        50
  46        3PX         0.12219
  47        3PY         0.00000   0.21034
  48        3PZ         0.00000   0.00000   0.22439
  49 11  H  1S          0.05235   0.02723   0.01353   0.18292
  50        2S          0.04292   0.02278   0.01166   0.07120   0.07721
  51 12  H  1S          0.00033   0.07925   0.01353  -0.00018  -0.00424
  52        2S          0.00029   0.06541   0.01166  -0.00424  -0.00986
  53 13  H  1S         -0.00002  -0.00001   0.09222  -0.00018  -0.00434
  54        2S         -0.00002  -0.00001   0.07752  -0.00447  -0.01035
  55 14  H  1S         -0.00109  -0.00036  -0.00387  -0.00000  -0.00013
  56        2S         -0.00079  -0.00026  -0.01164  -0.00037  -0.00113
                          51        52        53        54        55
  51 12  H  1S          0.18292
  52        2S          0.07120   0.07721
  53 13  H  1S         -0.00018  -0.00434   0.18256
  54        2S         -0.00447  -0.01035   0.07231   0.08198
  55 14  H  1S         -0.00000  -0.00013   0.00000   0.00018   0.16026
  56        2S         -0.00037  -0.00113   0.00019   0.00196   0.05779
                          56
  56        2S          0.06372
     Gross orbital populations:
                           1
   1 1   N  1S          1.98871
   2        2S          0.34601
   3        2PX         0.59575
   4        2PY         0.59575
   5        2PZ         0.61587
   6        3S          1.39197
   7        3PX         0.74977
   8        3PY         0.74977
   9        3PZ         0.74490
  10 2   C  1S          1.98808
  11        2S          0.36176
  12        2PX         0.59955
  13        2PY         0.40830
  14        2PZ         0.57754
  15        3S          1.10118
  16        3PX         0.59580
  17        3PY         0.22685
  18        3PZ         0.55856
  19 3   H  1S          0.47011
  20        2S          0.24067
  21 4   H  1S          0.47011
  22        2S          0.24067
  23 5   H  1S          0.46973
  24        2S          0.24258
  25 6   C  1S          1.98808
  26        2S          0.36176
  27        2PX         0.45611
  28        2PY         0.55174
  29        2PZ         0.57754
  30        3S          1.10118
  31        3PX         0.31908
  32        3PY         0.50356
  33        3PZ         0.55856
  34 7   H  1S          0.47011
  35        2S          0.24067
  36 8   H  1S          0.47011
  37        2S          0.24067
  38 9   H  1S          0.46973
  39        2S          0.24258
  40 10  C  1S          1.98808
  41        2S          0.36176
  42        2PX         0.45611
  43        2PY         0.55174
  44        2PZ         0.57754
  45        3S          1.10118
  46        3PX         0.31908
  47        3PY         0.50356
  48        3PZ         0.55856
  49 11  H  1S          0.47011
  50        2S          0.24067
  51 12  H  1S          0.47011
  52        2S          0.24067
  53 13  H  1S          0.46973
  54        2S          0.24258
  55 14  H  1S          0.42637
  56        2S          0.14070
          Condensed to atoms (all electrons):
               1          2          3          4          5          6
     1  N    7.306199   0.131666  -0.025508  -0.025508  -0.029136   0.131666
     2  C    0.131666   5.328853   0.370730   0.370730   0.366995  -0.061427
     3  H   -0.025508   0.370730   0.402524  -0.018525  -0.019339  -0.000837
     4  H   -0.025508   0.370730  -0.018525   0.402524  -0.019339   0.002101
     5  H   -0.029136   0.366995  -0.019339  -0.019339   0.409157  -0.000937
     6  C    0.131666  -0.061427  -0.000837   0.002101  -0.000937   5.328853
     7  H   -0.025508   0.002101  -0.000021  -0.000041  -0.000027   0.370730
     8  H   -0.025508  -0.000837   0.001503  -0.000021  -0.000134   0.370730
     9  H   -0.029136  -0.000937  -0.000134  -0.000027   0.001916   0.366995
    10  C    0.131666  -0.061427   0.002101  -0.000837  -0.000937  -0.061427
    11  H   -0.025508  -0.000837  -0.000021   0.001503  -0.000134   0.002101
    12  H   -0.025508   0.002101  -0.000041  -0.000021  -0.000027  -0.000837
    13  H   -0.029136  -0.000937  -0.000027  -0.000134   0.001916  -0.000937
    14  H    0.317759  -0.029169  -0.001624  -0.001624   0.002331  -0.029169
               7          8          9         10         11         12
     1  N   -0.025508  -0.025508  -0.029136   0.131666  -0.025508  -0.025508
     2  C    0.002101  -0.000837  -0.000937  -0.061427  -0.000837   0.002101
     3  H   -0.000021   0.001503  -0.000134   0.002101  -0.000021  -0.000041
     4  H   -0.000041  -0.000021  -0.000027  -0.000837   0.001503  -0.000021
     5  H   -0.000027  -0.000134   0.001916  -0.000937  -0.000134  -0.000027
     6  C    0.370730   0.370730   0.366995  -0.061427   0.002101  -0.000837
     7  H    0.402524  -0.018525  -0.019339  -0.000837  -0.000021   0.001503
     8  H   -0.018525   0.402524  -0.019339   0.002101  -0.000041  -0.000021
     9  H   -0.019339  -0.019339   0.409157  -0.000937  -0.000027  -0.000134
    10  C   -0.000837   0.002101  -0.000937   5.328853   0.370730   0.370730
    11  H   -0.000021  -0.000041  -0.000027   0.370730   0.402524  -0.018525
    12  H    0.001503  -0.000021  -0.000134   0.370730  -0.018525   0.402524
    13  H   -0.000134  -0.000027   0.001916   0.366995  -0.019339  -0.019339
    14  H   -0.001624  -0.001624   0.002331  -0.029169  -0.001624  -0.001624
              13         14
     1  N   -0.029136   0.317759
     2  C   -0.000937  -0.029169
     3  H   -0.000027  -0.001624
     4  H   -0.000134  -0.001624
     5  H    0.001916   0.002331
     6  C   -0.000937  -0.029169
     7  H   -0.000134  -0.001624
     8  H   -0.000027  -0.001624
     9  H    0.001916   0.002331
    10  C    0.366995  -0.029169
    11  H   -0.019339  -0.001624
    12  H   -0.019339  -0.001624
    13  H    0.409157   0.002331
    14  H    0.002331   0.339563
 Mulliken charges:
               1
     1  N   -0.778503
     2  C   -0.417607
     3  H    0.289218
     4  H    0.289218
     5  H    0.287694
     6  C   -0.417607
     7  H    0.289218
     8  H    0.289218
     9  H    0.287694
    10  C   -0.417607
    11  H    0.289218
    12  H    0.289218
    13  H    0.287694
    14  H    0.432933
 Sum of Mulliken charges =   1.00000
 Mulliken charges with hydrogens summed into heavy atoms:
               1
     1  N   -0.345570
     2  C    0.448523
     6  C    0.448523
    10  C    0.448523
 Electronic spatial extent (au):  <R**2>=            327.6100
 Charge=              1.0000 electrons
 Dipole moment (field-independent basis, Debye):
    X=             -0.0000    Y=              0.0000    Z=              0.8096  Tot=              0.8096
 Quadrupole moment (field-independent basis, Debye-Ang):
   XX=            -19.7740   YY=            -19.7740   ZZ=            -22.3872
   XY=             -0.0000   XZ=             -0.0000   YZ=              0.0000
 Traceless Quadrupole moment (field-independent basis, Debye-Ang):
   XX=              0.8711   YY=              0.8711   ZZ=             -1.7421
   XY=             -0.0000   XZ=             -0.0000   YZ=              0.0000
 Octapole moment (field-independent basis, Debye-Ang**2):
  XXX=              0.0000  YYY=              2.1338  ZZZ=              1.7007  XYY=              0.0000
  XXY=             -2.1338  XXZ=              1.1287  XZZ=              0.0000  YZZ=              0.0000
  YYZ=              1.1287  XYZ=             -0.0000
 Hexadecapole moment (field-independent basis, Debye-Ang**3):
 XXXX=           -160.1627 YYYY=           -160.1627 ZZZZ=            -40.4201 XXXY=             -0.0000
 XXXZ=             -0.0000 YYYX=              0.0000 YYYZ=             -2.7833 ZZZX=             -0.0000
 ZZZY=             -0.0000 XXYY=            -53.3876 XXZZ=            -38.1013 YYZZ=            -38.1013
 XXYZ=              2.7833 YYXZ=             -0.0000 ZZXY=              0.0000
 N-N= 1.455586060040D+02 E-N=-6.843137112886D+02  KE= 1.721860850929D+02
 Symmetry A'   KE= 1.284193070477D+02
 Symmetry A"   KE= 4.376677804515D+01
 Orbital energies and kinetic energies (alpha):
                                 1                 2
   1         (A1)--O         -15.813398         21.922003
   2         (E)--O          -11.410474         15.876571
   3         (E)--O          -11.410474         15.876571
   4         (A1)--O         -11.409832         15.871317
   5         (A1)--O          -1.511490          1.788870
   6         (E)--O           -1.184508          1.397195
   7         (E)--O           -1.184508          1.397195
   8         (A1)--O          -1.095858          1.409952
   9         (A1)--O          -0.937334          1.229441
  10         (E)--O           -0.863411          1.183097
  11         (E)--O           -0.863411          1.183097
  12         (E)--O           -0.777203          1.044040
  13         (E)--O           -0.777203          1.044040
  14         (A2)--O          -0.748115          1.096946
  15         (A1)--O          -0.744276          1.201627
  16         (E)--O           -0.734416          1.285539
  17         (E)--O           -0.734416          1.285539
  18         (A1)--V           0.022692          1.064095
  19         (A1)--V           0.095015          0.945482
  20         (A1)--V           0.111148          1.563966
  21         (E)--V            0.121373          1.062688
  22         (E)--V            0.121373          1.062688
  23         (E)--V            0.147013          1.270367
  24         (E)--V            0.147013          1.270367
  25         (A1)--V           0.147044          1.294673
  26         (E)--V            0.178976          0.995895
  27         (E)--V            0.178976          0.995895
  28         (E)--V            0.193925          1.331893
  29         (E)--V            0.193925          1.331893
  30         (A2)--V           0.217718          1.004962
  31         (A1)--V           0.654286          1.987050
  32         (E)--V            0.655315          2.047057
  33         (E)--V            0.655315          2.047057
  34         (E)--V            0.748113          2.315446
  35         (E)--V            0.748113          2.315446
  36         (A1)--V           0.788599          2.808723
  37         (E)--V            0.884971          2.460810
  38         (E)--V            0.884971          2.460810
  39         (A1)--V           1.013019          2.560927
  40         (A1)--V           1.077490          3.127491
  41         (E)--V            1.097122          3.101217
  42         (E)--V            1.097122          3.101217
  43         (A2)--V           1.109206          2.458448
  44         (A2)--V           1.154586          2.850158
  45         (E)--V            1.187498          2.963724
  46         (E)--V            1.187498          2.963724
  47         (A1)--V           1.214719          3.273179
  48         (E)--V            1.264244          3.060343
  49         (E)--V            1.264244          3.060343
  50         (A1)--V           1.462249          3.611433
  51         (E)--V            1.546386          4.051060
  52         (E)--V            1.546386          4.051060
  53         (A1)--V           1.634347          3.247190
  54         (E)--V            1.994027          3.278933
  55         (E)--V            1.994027          3.278933
  56         (A1)--V           2.870517          5.125644
 Total kinetic energy from orbitals= 1.721860850929D+02
 1\1\GINC-IISERK51\SP\RHF\3-21G\C3H10N1(1+)\GAUSSIAN\16-Jun-2025\0\\# h
 f/3-21g pop=full geom=connectivity\\TMA+ sp\\1,1\N,0,0.,0.,0.35839\C,0
 ,0.,1.447994,-0.107809\H,0,-0.886275,1.933525,0.26959\H,0,0.886275,1.9
 33525,0.26959\H,0,0.,1.450042,-1.186392\C,0,-1.254,-0.723997,-0.107809
 \H,0,-1.231344,-1.734299,0.26959\H,0,-2.117619,-0.199225,0.26959\H,0,-
 1.255773,-0.725021,-1.186392\C,0,1.254,-0.723997,-0.107809\H,0,2.11761
 9,-0.199225,0.26959\H,0,1.231344,-1.734299,0.26959\H,0,1.255773,-0.725
 021,-1.186392\H,0,0.,0.,1.373463\\Version=EM64L-G16RevB.01\State=1-A1\
 HF=-172.7055338\RMSD=2.214e-09\Dipole=0.,0.,0.3185296\Quadrupole=0.647
 6086,0.6476086,-1.2952173,0.,0.,0.\PG=C03V [C3(N1H1),3SGV(C1H1),X(H6)]
 \\@


 THERE ONCE WAS A GIRL NAMED IRENE,
 WHO LIVED ON DISTILLED KEROSENE,
      BUT SHE STARTED ABSORBIN'
      A NEW HYDROCARBON,
 AND SINCE THEN HAS NEVER BENZENE.
 Job cpu time:       0 days  0 hours  0 minutes  0.6 seconds.
 Elapsed time:       0 days  0 hours  0 minutes  0.5 seconds.
 File lengths (MBytes):  RWF=      6 Int=      0 D2E=      0 Chk=      1 Scr=      1
 Normal termination of Gaussian 16 at Mon Jun 16 16:09:45 2025.
