 Entering Gaussian System, Link 0=g16
 Input=/home/gaussian/Documents/Summer_Internship/Acid_Base_adduct/Base/tri_methyl_ammine/TMA_opt.com
 Output=/home/gaussian/Documents/Summer_Internship/Acid_Base_adduct/Base/tri_methyl_ammine/TMA_opt.log
 Initial command:
 /usr/local/g16/l1.exe "/home/gaussian/tmp/Gau-72917.inp" -scrdir="/home/gaussian/tmp/"
 Entering Link 1 = /usr/local/g16/l1.exe PID=     72920.
  
 Copyright (c) 1988-2017, Gaussian, Inc.  All Rights Reserved.
  
 This is part of the Gaussian(R) 16 program.  It is based on
 the Gaussian(R) 09 system (copyright 2009, Gaussian, Inc.),
 the Gaussian(R) 03 system (copyright 2003, Gaussian, Inc.),
 the Gaussian(R) 98 system (copyright 1998, Gaussian, Inc.),
 the Gaussian(R) 94 system (copyright 1995, Gaussian, Inc.),
 the Gaussian 92(TM) system (copyright 1992, Gaussian, Inc.),
 the Gaussian 90(TM) system (copyright 1990, Gaussian, Inc.),
 the Gaussian 88(TM) system (copyright 1988, Gaussian, Inc.),
 the Gaussian 86(TM) system (copyright 1986, Carnegie Mellon
 University), and the Gaussian 82(TM) system (copyright 1983,
 Carnegie Mellon University). Gaussian is a federally registered
 trademark of Gaussian, Inc.
  
 This software contains proprietary and confidential information,
 including trade secrets, belonging to Gaussian, Inc.
  
 This software is provided under written license and may be
 used, copied, transmitted, or stored only in accord with that
 written license.
  
 The following legend is applicable only to US Government
 contracts under FAR:
  
                    RESTRICTED RIGHTS LEGEND
  
 Use, reproduction and disclosure by the US Government is
 subject to restrictions as set forth in subparagraphs (a)
 and (c) of the Commercial Computer Software - Restricted
 Rights clause in FAR 52.227-19.
  
 Gaussian, Inc.
 340 Quinnipiac St., Bldg. 40, Wallingford CT 06492
  
  
 ---------------------------------------------------------------
 Warning -- This program may not be used in any manner that
 competes with the business of Gaussian, Inc. or will provide
 assistance to any competitor of Gaussian, Inc.  The licensee
 of this program is prohibited from giving any competitor of
 Gaussian, Inc. access to this program.  By using this program,
 the user acknowledges that Gaussian, Inc. is engaged in the
 business of creating and licensing software in the field of
 computational chemistry and represents and warrants to the
 licensee that it is not a competitor of Gaussian, Inc. and that
 it will not use this program in any manner prohibited above.
 ---------------------------------------------------------------
  

 Cite this work as:
 Gaussian 16, Revision B.01,
 M. J. Frisch, G. W. Trucks, H. B. Schlegel, G. E. Scuseria, 
 M. A. Robb, J. R. Cheeseman, G. Scalmani, V. Barone, 
 G. A. Petersson, H. Nakatsuji, X. Li, M. Caricato, A. V. Marenich, 
 J. Bloino, B. G. Janesko, R. Gomperts, B. Mennucci, H. P. Hratchian, 
 J. V. Ortiz, A. F. Izmaylov, J. L. Sonnenberg, D. Williams-Young, 
 F. Ding, F. Lipparini, F. Egidi, J. Goings, B. Peng, A. Petrone, 
 T. Henderson, D. Ranasinghe, V. G. Zakrzewski, J. Gao, N. Rega, 
 G. Zheng, W. Liang, M. Hada, M. Ehara, K. Toyota, R. Fukuda, 
 J. Hasegawa, M. Ishida, T. Nakajima, Y. Honda, O. Kitao, H. Nakai, 
 T. Vreven, K. Throssell, J. A. Montgomery, Jr., J. E. Peralta, 
 F. Ogliaro, M. J. Bearpark, J. J. Heyd, E. N. Brothers, K. N. Kudin, 
 V. N. Staroverov, T. A. Keith, R. Kobayashi, J. Normand, 
 K. Raghavachari, A. P. Rendell, J. C. Burant, S. S. Iyengar, 
 J. Tomasi, M. Cossi, J. M. Millam, M. Klene, C. Adamo, R. Cammi, 
 J. W. Ochterski, R. L. Martin, K. Morokuma, O. Farkas, 
 J. B. Foresman, and D. J. Fox, Gaussian, Inc., Wallingford CT, 2016.
 
 ******************************************
 Gaussian 16:  EM64L-G16RevB.01 20-Dec-2017
                16-Jun-2025 
 ******************************************
 %chk=TMA_opt.chk
 ----------------------------------------------
 # opt freq hf/3-21g pop=full geom=connectivity
 ----------------------------------------------
 1/18=20,19=15,38=1,57=2/1,3;
 2/9=110,12=2,17=6,18=5,40=1/2;
 3/5=5,11=9,25=1,30=1,71=1/1,2,3;
 4//1;
 5/5=2,38=5/2;
 6/7=3,28=1/1;
 7//1,2,3,16;
 1/18=20,19=15/3(2);
 2/9=110/2;
 99//99;
 2/9=110/2;
 3/5=5,11=9,25=1,30=1,71=1/1,2,3;
 4/5=5,16=3,69=1/1;
 5/5=2,38=5/2;
 7//1,2,3,16;
 1/18=20,19=15/3(-5);
 2/9=110/2;
 6/7=3,19=2,28=1/1;
 99/9=1/99;
 -------
 TMA opt
 -------
 Symbolic Z-matrix:
 Charge =  0 Multiplicity = 1
 N                     0.30055   1.71038  0. 
 C                     0.79053   0.32445   0. 
 H                     0.43226  -0.18052   0.87267 
 H                     0.43545  -0.17939  -0.87463 
 H                     1.86053   0.32443   0.00196 
 C                     0.78836   2.40256   1.20159 
 H                     0.43171   3.41137   1.20159 
 H                     0.43009   1.8976    2.07426 
 H                     1.85836   2.40255   1.20355 
 C                     0.79275   2.40412  -1.1989 
 H                     0.43767   1.90028  -2.07353 
 H                     0.43609   3.41293  -1.1989 
 H                     1.86275   2.4041   -1.19695 
 

 GradGradGradGradGradGradGradGradGradGradGradGradGradGradGradGradGradGrad
 Berny optimization.
 Initialization pass.
                           ----------------------------
                           !    Initial Parameters    !
                           ! (Angstroms and Degrees)  !
 --------------------------                            --------------------------
 ! Name  Definition              Value          Derivative Info.                !
 --------------------------------------------------------------------------------
 ! R1    R(1,2)                  1.47           estimate D2E/DX2                !
 ! R2    R(1,6)                  1.47           estimate D2E/DX2                !
 ! R3    R(1,10)                 1.47           estimate D2E/DX2                !
 ! R4    R(2,3)                  1.07           estimate D2E/DX2                !
 ! R5    R(2,4)                  1.07           estimate D2E/DX2                !
 ! R6    R(2,5)                  1.07           estimate D2E/DX2                !
 ! R7    R(6,7)                  1.07           estimate D2E/DX2                !
 ! R8    R(6,8)                  1.07           estimate D2E/DX2                !
 ! R9    R(6,9)                  1.07           estimate D2E/DX2                !
 ! R10   R(10,11)                1.07           estimate D2E/DX2                !
 ! R11   R(10,12)                1.07           estimate D2E/DX2                !
 ! R12   R(10,13)                1.07           estimate D2E/DX2                !
 ! A1    A(2,1,6)              109.4712         estimate D2E/DX2                !
 ! A2    A(2,1,10)             109.4712         estimate D2E/DX2                !
 ! A3    A(6,1,10)             109.4712         estimate D2E/DX2                !
 ! A4    A(1,2,3)              109.4712         estimate D2E/DX2                !
 ! A5    A(1,2,4)              109.4712         estimate D2E/DX2                !
 ! A6    A(1,2,5)              109.4712         estimate D2E/DX2                !
 ! A7    A(3,2,4)              109.4712         estimate D2E/DX2                !
 ! A8    A(3,2,5)              109.4712         estimate D2E/DX2                !
 ! A9    A(4,2,5)              109.4712         estimate D2E/DX2                !
 ! A10   A(1,6,7)              109.4712         estimate D2E/DX2                !
 ! A11   A(1,6,8)              109.4712         estimate D2E/DX2                !
 ! A12   A(1,6,9)              109.4712         estimate D2E/DX2                !
 ! A13   A(7,6,8)              109.4712         estimate D2E/DX2                !
 ! A14   A(7,6,9)              109.4712         estimate D2E/DX2                !
 ! A15   A(8,6,9)              109.4712         estimate D2E/DX2                !
 ! A16   A(1,10,11)            109.4712         estimate D2E/DX2                !
 ! A17   A(1,10,12)            109.4712         estimate D2E/DX2                !
 ! A18   A(1,10,13)            109.4712         estimate D2E/DX2                !
 ! A19   A(11,10,12)           109.4712         estimate D2E/DX2                !
 ! A20   A(11,10,13)           109.4712         estimate D2E/DX2                !
 ! A21   A(12,10,13)           109.4712         estimate D2E/DX2                !
 ! D1    D(6,1,2,3)             60.0            estimate D2E/DX2                !
 ! D2    D(6,1,2,4)            180.0            estimate D2E/DX2                !
 ! D3    D(6,1,2,5)            -60.0            estimate D2E/DX2                !
 ! D4    D(10,1,2,3)           180.0            estimate D2E/DX2                !
 ! D5    D(10,1,2,4)           -60.0            estimate D2E/DX2                !
 ! D6    D(10,1,2,5)            60.0            estimate D2E/DX2                !
 ! D7    D(2,1,6,7)            180.0            estimate D2E/DX2                !
 ! D8    D(2,1,6,8)            -60.0            estimate D2E/DX2                !
 ! D9    D(2,1,6,9)             60.0            estimate D2E/DX2                !
 ! D10   D(10,1,6,7)            60.0            estimate D2E/DX2                !
 ! D11   D(10,1,6,8)          -180.0            estimate D2E/DX2                !
 ! D12   D(10,1,6,9)           -60.0            estimate D2E/DX2                !
 ! D13   D(2,1,10,11)           60.0            estimate D2E/DX2                !
 ! D14   D(2,1,10,12)          180.0            estimate D2E/DX2                !
 ! D15   D(2,1,10,13)          -60.0            estimate D2E/DX2                !
 ! D16   D(6,1,10,11)          180.0            estimate D2E/DX2                !
 ! D17   D(6,1,10,12)          -60.0            estimate D2E/DX2                !
 ! D18   D(6,1,10,13)           60.0            estimate D2E/DX2                !
 --------------------------------------------------------------------------------
 Trust Radius=3.00D-01 FncErr=1.00D-07 GrdErr=1.00D-07 EigMax=2.50D+02 EigMin=1.00D-04
 Number of steps in this run=     61 maximum allowed number of steps=    100.
 GradGradGradGradGradGradGradGradGradGradGradGradGradGradGradGradGradGrad

                          Input orientation:                          
 ---------------------------------------------------------------------
 Center     Atomic      Atomic             Coordinates (Angstroms)
 Number     Number       Type             X           Y           Z
 ---------------------------------------------------------------------
      1          7           0        0.300546    1.710382   -0.000000
      2          6           0        0.790529    0.324447    0.000000
      3          1           0        0.432260   -0.180516    0.872672
      4          1           0        0.435455   -0.179387   -0.874628
      5          1           0        1.860528    0.324433    0.001956
      6          6           0        0.788360    2.402565    1.201591
      7          1           0        0.431705    3.411375    1.201591
      8          1           0        0.430090    1.897602    2.074263
      9          1           0        1.858358    2.402551    1.203548
     10          6           0        0.792748    2.404116   -1.198904
     11          1           0        0.437673    1.900283   -2.073532
     12          1           0        0.436094    3.412926   -1.198904
     13          1           0        1.862746    2.404102   -1.196948
 ---------------------------------------------------------------------
                    Distance matrix (angstroms):
                    1          2          3          4          5
     1  N    0.000000
     2  C    1.470000   0.000000
     3  H    2.086720   1.070000   0.000000
     4  H    2.086720   1.070000   1.747303   0.000000
     5  H    2.086720   1.070000   1.747303   1.747303   0.000000
     6  C    1.470000   2.400500   2.628174   3.331921   2.628174
     7  H    2.086720   3.331921   3.606919   4.147803   3.606919
     8  H    2.086720   2.628174   2.400500   3.606919   2.969085
     9  H    2.086720   2.628174   2.969085   3.606919   2.400500
    10  C    1.470000   2.400500   3.331921   2.628174   2.628174
    11  H    2.086720   2.628174   3.606919   2.400500   2.969085
    12  H    2.086720   3.331921   4.147803   3.606919   3.606919
    13  H    2.086720   2.628174   3.606919   2.969085   2.400500
                    6          7          8          9         10
     6  C    0.000000
     7  H    1.070000   0.000000
     8  H    1.070000   1.747303   0.000000
     9  H    1.070000   1.747303   1.747303   0.000000
    10  C    2.400500   2.628174   3.331921   2.628174   0.000000
    11  H    3.331921   3.606919   4.147803   3.606919   1.070000
    12  H    2.628174   2.400500   3.606919   2.969085   1.070000
    13  H    2.628174   2.969085   3.606919   2.400500   1.070000
                   11         12         13
    11  H    0.000000
    12  H    1.747303   0.000000
    13  H    1.747303   1.747303   0.000000
 Stoichiometry    C3H9N
 Framework group  C3V[C3(N),3SGV(CH),X(H6)]
 Deg. of freedom     7
 Full point group                 C3V     NOp   6
 Largest Abelian subgroup         CS      NOp   2
 Largest concise Abelian subgroup CS      NOp   2
                         Standard orientation:                         
 ---------------------------------------------------------------------
 Center     Atomic      Atomic             Coordinates (Angstroms)
 Number     Number       Type             X           Y           Z
 ---------------------------------------------------------------------
      1          7           0        0.000000   -0.000000    0.420588
      2          6           0        0.000000    1.385929   -0.069412
      3          1           0       -0.873651    1.890332    0.287255
      4          1           0        0.873651    1.890332    0.287255
      5          1           0       -0.000000    1.385929   -1.139412
      6          6           0       -1.200250   -0.692965   -0.069412
      7          1           0       -1.200250   -1.701770    0.287255
      8          1           0       -2.073901   -0.188562    0.287255
      9          1           0       -1.200250   -0.692965   -1.139412
     10          6           0        1.200250   -0.692965   -0.069412
     11          1           0        2.073901   -0.188562    0.287255
     12          1           0        1.200250   -1.701770    0.287255
     13          1           0        1.200250   -0.692965   -1.139412
 ---------------------------------------------------------------------
 Rotational constants (GHZ):           8.7714108           8.7714108           4.9948691
 Standard basis: 3-21G (6D, 7F)
 There are    33 symmetry adapted cartesian basis functions of A'  symmetry.
 There are    21 symmetry adapted cartesian basis functions of A"  symmetry.
 There are    33 symmetry adapted basis functions of A'  symmetry.
 There are    21 symmetry adapted basis functions of A"  symmetry.
    54 basis functions,    87 primitive gaussians,    54 cartesian basis functions
    17 alpha electrons       17 beta electrons
       nuclear repulsion energy       139.3241361364 Hartrees.
 NAtoms=   13 NActive=   13 NUniq=    4 SFac= 4.00D+00 NAtFMM=   60 NAOKFM=F Big=F
 Integral buffers will be    131072 words long.
 Raffenetti 1 integral format.
 Two-electron integral symmetry is turned on.
 One-electron integrals computed using PRISM.
 NBasis=    54 RedAO= T EigKep=  2.41D-02  NBF=    33    21
 NBsUse=    54 1.00D-06 EigRej= -1.00D+00 NBFU=    33    21
 ExpMin= 1.83D-01 ExpMax= 2.43D+02 ExpMxC= 2.43D+02 IAcc=3 IRadAn=         5 AccDes= 0.00D+00
 Harris functional with IExCor=  205 and IRadAn=       5 diagonalized for initial guess.
 HarFok:  IExCor=  205 AccDes= 0.00D+00 IRadAn=         5 IDoV= 1 UseB2=F ITyADJ=14
 ICtDFT=  3500011 ScaDFX=  1.000000  1.000000  1.000000  1.000000
 FoFCou: FMM=F IPFlag=           0 FMFlag=      100000 FMFlg1=           0
         NFxFlg=           0 DoJE=T BraDBF=F KetDBF=T FulRan=T
         wScrn=  0.000000 ICntrl=       500 IOpCl=  0 I1Cent=   200000004 NGrid=           0
         NMat0=    1 NMatS0=      1 NMatT0=    0 NMatD0=    1 NMtDS0=    0 NMtDT0=    0
 Petite list used in FoFCou.
 Initial guess orbital symmetries:
       Occupied  (A1) (E) (E) (A1) (A1) (E) (E) (A1) (E) (E) (A1)
                 (E) (E) (A2) (E) (E) (A1)
       Virtual   (A1) (E) (E) (A1) (A1) (E) (E) (E) (E) (E) (E)
                 (A2) (E) (E) (A1) (E) (E) (A1) (E) (E) (A1) (A1)
                 (E) (E) (A2) (E) (E) (A2) (E) (E) (A1) (E) (E)
                 (A1) (E) (E) (A1)
 The electronic state of the initial guess is 1-A1.
 Keep R1 ints in memory in symmetry-blocked form, NReq=1932186.
 Requested convergence on RMS density matrix=1.00D-08 within 128 cycles.
 Requested convergence on MAX density matrix=1.00D-06.
 Requested convergence on             energy=1.00D-06.
 No special actions if energy rises.
 SCF Done:  E(RHF) =  -172.305956353     A.U. after   10 cycles
            NFock= 10  Conv=0.51D-08     -V/T= 2.0008

 **********************************************************************

            Population analysis using the SCF Density.

 **********************************************************************

 Orbital symmetries:
       Occupied  (A1) (E) (E) (A1) (A1) (E) (E) (A1) (A1) (E) (E)
                 (E) (E) (A2) (E) (E) (A1)
       Virtual   (A1) (E) (E) (A1) (E) (E) (A1) (E) (E) (A2) (E)
                 (E) (E) (E) (A1) (E) (E) (A1) (E) (E) (A1) (A1)
                 (E) (E) (A2) (A2) (E) (E) (E) (E) (A1) (A1) (E)
                 (E) (E) (E) (A1)
 The electronic state is 1-A1.
 Alpha  occ. eigenvalues --  -15.46374 -11.17267 -11.17267 -11.17201  -1.22069
 Alpha  occ. eigenvalues --   -0.95305  -0.95305  -0.81126  -0.64776  -0.62622
 Alpha  occ. eigenvalues --   -0.62622  -0.54953  -0.54953  -0.52381  -0.49078
 Alpha  occ. eigenvalues --   -0.49078  -0.34302
 Alpha virt. eigenvalues --    0.25309   0.32791   0.32791   0.33224   0.35266
 Alpha virt. eigenvalues --    0.35266   0.37415   0.38772   0.38772   0.42147
 Alpha virt. eigenvalues --    0.47161   0.47161   0.88548   0.88548   0.92744
 Alpha virt. eigenvalues --    0.97628   0.97628   1.01822   1.13089   1.13089
 Alpha virt. eigenvalues --    1.29272   1.31489   1.32269   1.32269   1.34628
 Alpha virt. eigenvalues --    1.36654   1.40822   1.40822   1.49556   1.49556
 Alpha virt. eigenvalues --    1.60756   1.83706   1.85149   1.85149   2.27863
 Alpha virt. eigenvalues --    2.27863   3.09304
     Molecular Orbital Coefficients:
                           1         2         3         4         5
                        (A1)--O   (E)--O    (E)--O    (A1)--O   (A1)--O
     Eigenvalues --   -15.46374 -11.17267 -11.17267 -11.17201  -1.22069
   1 1   N  1S          0.98629   0.00000  -0.00000   0.00004  -0.18498
   2        2S          0.10360   0.00000  -0.00000   0.00148   0.15280
   3        2PX         0.00000  -0.00040   0.00000   0.00000   0.00000
   4        2PY        -0.00000   0.00000   0.00040   0.00000  -0.00000
   5        2PZ        -0.00421   0.00000   0.00000  -0.00095  -0.06547
   6        3S         -0.06742   0.00000  -0.00000   0.00717   0.56783
   7        3PX         0.00000  -0.00679   0.00000   0.00000   0.00000
   8        3PY        -0.00000   0.00000   0.00679   0.00000   0.00000
   9        3PZ         0.01211   0.00000  -0.00000   0.00218  -0.09798
  10 2   C  1S         -0.00045   0.00000   0.80648   0.56965  -0.08026
  11        2S         -0.00130   0.00000   0.08473   0.05553   0.08624
  12        2PX         0.00000   0.00124   0.00000   0.00000   0.00000
  13        2PY        -0.00240   0.00000  -0.00100   0.00015  -0.06149
  14        2PZ         0.00041   0.00000  -0.00065   0.00011   0.01228
  15        3S          0.01719   0.00000  -0.06728  -0.03458   0.13618
  16        3PX         0.00000  -0.00691   0.00000   0.00000   0.00000
  17        3PY        -0.00736   0.00000   0.00504  -0.00357   0.00940
  18        3PZ         0.00175   0.00000   0.00330  -0.00128   0.00448
  19 3   H  1S         -0.00110  -0.00070   0.00003  -0.00059   0.03035
  20        2S         -0.00143  -0.00335   0.01133   0.00844  -0.00326
  21 4   H  1S         -0.00110   0.00070   0.00003  -0.00059   0.03035
  22        2S         -0.00143   0.00335   0.01133   0.00844  -0.00326
  23 5   H  1S         -0.00146   0.00000   0.00088  -0.00107   0.03656
  24        2S         -0.00151   0.00000   0.01505   0.00650   0.00399
  25 6   C  1S         -0.00045   0.69843  -0.40324   0.56965  -0.08026
  26        2S         -0.00130   0.07338  -0.04237   0.05553   0.08624
  27        2PX         0.00208   0.00106   0.00010  -0.00013   0.05325
  28        2PY         0.00120  -0.00010  -0.00118  -0.00007   0.03075
  29        2PZ         0.00041  -0.00056   0.00033   0.00011   0.01228
  30        3S          0.01719  -0.05827   0.03364  -0.03458   0.13618
  31        3PX         0.00637  -0.00551  -0.00081   0.00309  -0.00814
  32        3PY         0.00368   0.00081   0.00644   0.00179  -0.00470
  33        3PZ         0.00175   0.00286  -0.00165  -0.00128   0.00448
  34 7   H  1S         -0.00110   0.00037   0.00059  -0.00059   0.03035
  35        2S         -0.00143   0.01148  -0.00276   0.00844  -0.00326
  36 8   H  1S         -0.00110  -0.00032  -0.00062  -0.00059   0.03035
  37        2S         -0.00143   0.00813  -0.00857   0.00844  -0.00326
  38 9   H  1S         -0.00146   0.00076  -0.00044  -0.00107   0.03656
  39        2S         -0.00151   0.01304  -0.00753   0.00650   0.00399
  40 10  C  1S         -0.00045  -0.69843  -0.40324   0.56965  -0.08026
  41        2S         -0.00130  -0.07338  -0.04237   0.05553   0.08624
  42        2PX        -0.00208   0.00106  -0.00010   0.00013  -0.05325
  43        2PY         0.00120   0.00010  -0.00118  -0.00007   0.03075
  44        2PZ         0.00041   0.00056   0.00033   0.00011   0.01228
  45        3S          0.01719   0.05827   0.03364  -0.03458   0.13618
  46        3PX        -0.00637  -0.00551   0.00081  -0.00309   0.00814
  47        3PY         0.00368  -0.00081   0.00644   0.00179  -0.00470
  48        3PZ         0.00175  -0.00286  -0.00165  -0.00128   0.00448
  49 11  H  1S         -0.00110   0.00032  -0.00062  -0.00059   0.03035
  50        2S         -0.00143  -0.00813  -0.00857   0.00844  -0.00326
  51 12  H  1S         -0.00110  -0.00037   0.00059  -0.00059   0.03035
  52        2S         -0.00143  -0.01148  -0.00276   0.00844  -0.00326
  53 13  H  1S         -0.00146  -0.00076  -0.00044  -0.00107   0.03656
  54        2S         -0.00151  -0.01304  -0.00753   0.00650   0.00399
                           6         7         8         9        10
                        (E)--O    (E)--O    (A1)--O   (A1)--O   (E)--O
     Eigenvalues --    -0.95305  -0.95305  -0.81126  -0.64776  -0.62622
   1 1   N  1S          0.00000  -0.00000  -0.12547  -0.02262   0.00000
   2        2S          0.00000   0.00000   0.09951   0.03010  -0.00000
   3        2PX        -0.14177   0.00000   0.00000   0.00000   0.00000
   4        2PY         0.00000   0.14177  -0.00000   0.00000   0.19863
   5        2PZ         0.00000  -0.00000   0.00198   0.19494  -0.00000
   6        3S          0.00000  -0.00000   0.51614   0.06334   0.00000
   7        3PX        -0.08466   0.00000   0.00000   0.00000   0.00000
   8        3PY         0.00000   0.08466  -0.00000   0.00000   0.20442
   9        3PZ         0.00000   0.00000  -0.03303   0.18793  -0.00000
  10 2   C  1S          0.00000  -0.17342   0.08029  -0.00802   0.02336
  11        2S          0.00000   0.16347  -0.07887   0.00589  -0.01797
  12        2PX        -0.03465   0.00000   0.00000   0.00000   0.00000
  13        2PY         0.00000   0.01016  -0.11745   0.09124  -0.15187
  14        2PZ         0.00000   0.00423   0.05296   0.17144   0.07564
  15        3S          0.00000   0.51479  -0.28231   0.04502  -0.12014
  16        3PX        -0.00243   0.00000   0.00000   0.00000   0.00000
  17        3PY         0.00000  -0.00354  -0.05442   0.06314  -0.09338
  18        3PZ         0.00000  -0.02308   0.03763   0.13316   0.03578
  19 3   H  1S          0.01407   0.10495  -0.07884   0.07111  -0.04522
  20        2S          0.01372   0.01910  -0.03092   0.05397  -0.02481
  21 4   H  1S         -0.01407   0.10495  -0.07884   0.07111  -0.04522
  22        2S         -0.01372   0.01910  -0.03092   0.05397  -0.02481
  23 5   H  1S          0.00000   0.09799  -0.08644  -0.10941  -0.06677
  24        2S          0.00000  -0.00348  -0.03458  -0.09222  -0.05462
  25 6   C  1S         -0.15019   0.08671   0.08029  -0.00802  -0.01168
  26        2S          0.14157  -0.08173  -0.07887   0.00589   0.00898
  27        2PX        -0.01628  -0.01060   0.10171  -0.07902  -0.17221
  28        2PY         0.01060   0.02852   0.05872  -0.04562   0.14641
  29        2PZ         0.00367  -0.00212   0.05296   0.17144  -0.03782
  30        3S          0.44582  -0.25739  -0.28231   0.04502   0.06007
  31        3PX         0.00205  -0.00259   0.04713  -0.05468  -0.12263
  32        3PY         0.00259   0.00094   0.02721  -0.03157   0.11902
  33        3PZ        -0.01999   0.01154   0.03763   0.13316  -0.01789
  34 7   H  1S          0.08385  -0.06466  -0.07884   0.07111  -0.09375
  35        2S          0.00968  -0.02144  -0.03092   0.05397  -0.07601
  36 8   H  1S          0.09792  -0.04029  -0.07884   0.07111   0.13897
  37        2S          0.02340   0.00233  -0.03092   0.05397   0.10082
  38 9   H  1S          0.08487  -0.04900  -0.08644  -0.10941   0.03338
  39        2S         -0.00302   0.00174  -0.03458  -0.09222   0.02731
  40 10  C  1S          0.15019   0.08671   0.08029  -0.00802  -0.01168
  41        2S         -0.14157  -0.08173  -0.07887   0.00589   0.00898
  42        2PX        -0.01628   0.01060  -0.10171   0.07902   0.17221
  43        2PY        -0.01060   0.02852   0.05872  -0.04562   0.14641
  44        2PZ        -0.00367  -0.00212   0.05296   0.17144  -0.03782
  45        3S         -0.44582  -0.25739  -0.28231   0.04502   0.06007
  46        3PX         0.00205   0.00259  -0.04713   0.05468   0.12263
  47        3PY        -0.00259   0.00094   0.02721  -0.03157   0.11902
  48        3PZ         0.01999   0.01154   0.03763   0.13316  -0.01789
  49 11  H  1S         -0.09792  -0.04029  -0.07884   0.07111   0.13897
  50        2S         -0.02340   0.00233  -0.03092   0.05397   0.10082
  51 12  H  1S         -0.08385  -0.06466  -0.07884   0.07111  -0.09375
  52        2S         -0.00968  -0.02144  -0.03092   0.05397  -0.07601
  53 13  H  1S         -0.08487  -0.04900  -0.08644  -0.10941   0.03338
  54        2S          0.00302   0.00174  -0.03458  -0.09222   0.02731
                          11        12        13        14        15
                        (E)--O    (E)--O    (E)--O    (A2)--O   (E)--O
     Eigenvalues --    -0.62622  -0.54953  -0.54953  -0.52381  -0.49078
   1 1   N  1S          0.00000   0.00000   0.00000   0.00000   0.00000
   2        2S          0.00000  -0.00000   0.00000   0.00000   0.00000
   3        2PX         0.19863   0.00000  -0.07266   0.00000   0.00000
   4        2PY         0.00000   0.07266   0.00000   0.00000   0.27417
   5        2PZ         0.00000  -0.00000   0.00000   0.00000   0.00000
   6        3S          0.00000  -0.00000   0.00000   0.00000  -0.00000
   7        3PX         0.20442   0.00000  -0.07492   0.00000   0.00000
   8        3PY         0.00000   0.07492   0.00000   0.00000   0.29645
   9        3PZ         0.00000  -0.00000   0.00000   0.00000   0.00000
  10 2   C  1S          0.00000  -0.00092   0.00000   0.00000  -0.02549
  11        2S          0.00000   0.00413   0.00000   0.00000   0.01799
  12        2PX         0.24583   0.00000   0.07297   0.22986   0.00000
  13        2PY         0.00000   0.04746   0.00000   0.00000  -0.26410
  14        2PZ         0.00000   0.30820   0.00000   0.00000  -0.00293
  15        3S          0.00000  -0.00848   0.00000   0.00000   0.09278
  16        3PX         0.18982   0.00000   0.06160   0.21224   0.00000
  17        3PY         0.00000   0.05409   0.00000   0.00000  -0.22199
  18        3PZ         0.00000   0.24076   0.00000   0.00000  -0.03154
  19 3   H  1S         -0.13436   0.09155  -0.04217  -0.13811  -0.08216
  20        2S         -0.10209   0.07871  -0.03557  -0.11545  -0.08519
  21 4   H  1S          0.13436   0.09155   0.04217   0.13811  -0.08216
  22        2S          0.10209   0.07871   0.03557   0.11545  -0.08519
  23 5   H  1S          0.00000  -0.22001   0.00000   0.00000   0.02189
  24        2S          0.00000  -0.20246   0.00000   0.00000   0.00068
  25 6   C  1S         -0.02023   0.00046  -0.00080  -0.00000   0.01274
  26        2S          0.01556  -0.00206   0.00358   0.00000  -0.00900
  27        2PX        -0.05245   0.05215  -0.01735  -0.11493  -0.04091
  28        2PY        -0.17221  -0.04286  -0.05215   0.19906  -0.19324
  29        2PZ        -0.06551  -0.15410   0.26691   0.00000   0.00147
  30        3S          0.10404   0.00424  -0.00734  -0.00000  -0.04639
  31        3PX        -0.02258   0.05010  -0.02517  -0.10612  -0.02611
  32        3PY        -0.12263  -0.03268  -0.05010   0.18380  -0.17677
  33        3PZ        -0.03099  -0.12038   0.20850   0.00000   0.01577
  34 7   H  1S          0.10634  -0.00925   0.10037  -0.13811   0.14096
  35        2S          0.07253  -0.00855   0.08595  -0.11545   0.14328
  36 8   H  1S         -0.02802  -0.08230   0.05820   0.13811  -0.05880
  37        2S         -0.02956  -0.07016   0.05038   0.11545  -0.05809
  38 9   H  1S          0.05782   0.11000  -0.19053  -0.00000  -0.01095
  39        2S          0.04730   0.10123  -0.17533  -0.00000  -0.00034
  40 10  C  1S          0.02023   0.00046   0.00080   0.00000   0.01274
  41        2S         -0.01556  -0.00206  -0.00358  -0.00000  -0.00900
  42        2PX        -0.05245  -0.05215  -0.01735  -0.11493   0.04091
  43        2PY         0.17221  -0.04286   0.05215  -0.19906  -0.19324
  44        2PZ         0.06551  -0.15410  -0.26691  -0.00000   0.00147
  45        3S         -0.10404   0.00424   0.00734   0.00000  -0.04639
  46        3PX        -0.02258  -0.05010  -0.02517  -0.10612   0.02611
  47        3PY         0.12263  -0.03268   0.05010  -0.18380  -0.17677
  48        3PZ         0.03099  -0.12038  -0.20850  -0.00000   0.01577
  49 11  H  1S          0.02802  -0.08230  -0.05820  -0.13811  -0.05880
  50        2S          0.02956  -0.07016  -0.05038  -0.11545  -0.05809
  51 12  H  1S         -0.10634  -0.00925  -0.10037   0.13811   0.14096
  52        2S         -0.07253  -0.00855  -0.08595   0.11545   0.14328
  53 13  H  1S         -0.05782   0.11000   0.19053   0.00000  -0.01095
  54        2S         -0.04730   0.10123   0.17533   0.00000  -0.00034
                          16        17        18        19        20
                        (E)--O    (A1)--O   (A1)--V   (E)--V    (E)--V
     Eigenvalues --    -0.49078  -0.34302   0.25309   0.32791   0.32791
   1 1   N  1S          0.00000  -0.05394  -0.04435  -0.00000   0.00000
   2        2S          0.00000   0.05887   0.01289   0.00000   0.00000
   3        2PX         0.27417   0.00000   0.00000   0.00000   0.03675
   4        2PY         0.00000  -0.00000   0.00000   0.03675   0.00000
   5        2PZ         0.00000   0.42799   0.00488   0.00000   0.00000
   6        3S          0.00000   0.22127   0.46895   0.00000   0.00000
   7        3PX         0.29645   0.00000   0.00000   0.00000   0.02696
   8        3PY         0.00000   0.00000   0.00000   0.02696   0.00000
   9        3PZ         0.00000   0.56769  -0.04291   0.00000   0.00000
  10 2   C  1S          0.00000   0.01469  -0.07459   0.01365   0.00000
  11        2S          0.00000  -0.01948   0.01605  -0.01807   0.00000
  12        2PX        -0.16962   0.00000   0.00000   0.00000   0.22894
  13        2PY         0.00000   0.03389   0.09338   0.09431   0.00000
  14        2PZ         0.00000  -0.10198  -0.05666   0.00064   0.00000
  15        3S          0.00000  -0.03521   1.07072   0.04735   0.00000
  16        3PX        -0.16169   0.00000   0.00000   0.00000   1.10783
  17        3PY         0.00000   0.01471   0.44195   0.32808   0.00000
  18        3PZ         0.00000  -0.02745  -0.18947  -0.03732   0.00000
  19 3   H  1S          0.11533  -0.04497  -0.01113   0.00757   0.04304
  20        2S          0.11626  -0.05821  -0.54715  -0.15076   1.16702
  21 4   H  1S         -0.11533  -0.04497  -0.01113   0.00757  -0.04304
  22        2S         -0.11626  -0.05821  -0.54715  -0.15076  -1.16702
  23 5   H  1S          0.00000   0.10869   0.01212  -0.04039   0.00000
  24        2S          0.00000   0.20147  -0.57761  -0.08021   0.00000
  25 6   C  1S          0.02207   0.01469  -0.07459  -0.00683  -0.01182
  26        2S         -0.01558  -0.01948   0.01605   0.00903   0.01565
  27        2PX        -0.24048  -0.02935  -0.08087  -0.05830   0.12797
  28        2PY        -0.04091  -0.01694  -0.04669   0.19528  -0.05830
  29        2PZ         0.00254  -0.10198  -0.05666  -0.00032  -0.00056
  30        3S         -0.08035  -0.03521   1.07072  -0.02368  -0.04101
  31        3PX        -0.20691  -0.01274  -0.38274  -0.33764   0.52302
  32        3PY        -0.02611  -0.00736  -0.22098   0.91289  -0.33764
  33        3PZ         0.02732  -0.02745  -0.18947   0.01866   0.03232
  34 7   H  1S          0.01348  -0.04497  -0.01113   0.03349  -0.02807
  35        2S          0.01565  -0.05821  -0.54715   1.08605  -0.45295
  36 8   H  1S          0.12881  -0.04497  -0.01113  -0.04105   0.01497
  37        2S          0.13191  -0.05821  -0.54715  -0.93529   0.71407
  38 9   H  1S         -0.01896   0.10869   0.01212   0.02020   0.03498
  39        2S         -0.00059   0.20147  -0.57761   0.04011   0.06946
  40 10  C  1S         -0.02207   0.01469  -0.07459  -0.00683   0.01182
  41        2S          0.01558  -0.01948   0.01605   0.00903  -0.01565
  42        2PX        -0.24048   0.02935   0.08087   0.05830   0.12797
  43        2PY         0.04091  -0.01694  -0.04669   0.19528   0.05830
  44        2PZ        -0.00254  -0.10198  -0.05666  -0.00032   0.00056
  45        3S          0.08035  -0.03521   1.07072  -0.02368   0.04101
  46        3PX        -0.20691   0.01274   0.38274   0.33764   0.52302
  47        3PY         0.02611  -0.00736  -0.22098   0.91289   0.33764
  48        3PZ        -0.02732  -0.02745  -0.18947   0.01866  -0.03232
  49 11  H  1S         -0.12881  -0.04497  -0.01113  -0.04105  -0.01497
  50        2S         -0.13191  -0.05821  -0.54715  -0.93529  -0.71407
  51 12  H  1S         -0.01348  -0.04497  -0.01113   0.03349   0.02807
  52        2S         -0.01565  -0.05821  -0.54715   1.08605   0.45295
  53 13  H  1S          0.01896   0.10869   0.01212   0.02020  -0.03498
  54        2S          0.00059   0.20147  -0.57761   0.04011  -0.06946
                          21        22        23        24        25
                        (A1)--V   (E)--V    (E)--V    (A1)--V   (E)--V
     Eigenvalues --     0.33224   0.35266   0.35266   0.37415   0.38772
   1 1   N  1S          0.04796   0.00000   0.00000  -0.16352   0.00000
   2        2S         -0.02247   0.00000   0.00000   0.02388  -0.00000
   3        2PX         0.00000   0.06711   0.00000   0.00000   0.00000
   4        2PY         0.00000   0.00000  -0.06711  -0.00000   0.04062
   5        2PZ        -0.06970   0.00000   0.00000  -0.16316   0.00000
   6        3S         -0.44533   0.00000  -0.00000   1.88555  -0.00000
   7        3PX         0.00000   0.24233   0.00000   0.00000   0.00000
   8        3PY        -0.00000   0.00000  -0.24233   0.00000   0.10601
   9        3PZ        -0.27555   0.00000   0.00000  -0.58828   0.00000
  10 2   C  1S         -0.02825   0.00000  -0.14073   0.07317  -0.00004
  11        2S          0.02283   0.00000   0.03475  -0.02233  -0.00207
  12        2PX         0.00000  -0.02354   0.00000   0.00000   0.00000
  13        2PY         0.01784   0.00000   0.09102   0.10383   0.13193
  14        2PZ         0.18569   0.00000  -0.04343   0.01144   0.20908
  15        3S          0.24314   0.00000   2.08249  -0.91199   0.09673
  16        3PX         0.00000   0.10337   0.00000   0.00000   0.00000
  17        3PY         0.15233   0.00000   0.25729   0.63838   0.63931
  18        3PZ         0.78043   0.00000  -0.23129   0.00683   1.07596
  19 3   H  1S          0.00713   0.05105   0.01347  -0.01784  -0.04080
  20        2S         -0.53521   0.13260  -0.88934   0.11760  -0.86895
  21 4   H  1S          0.00713  -0.05105   0.01347  -0.01784  -0.04080
  22        2S         -0.53521  -0.13260  -0.88934   0.11760  -0.86895
  23 5   H  1S          0.00716   0.00000  -0.02298  -0.03856   0.06116
  24        2S          0.84347   0.00000  -1.13761   0.45125   1.36595
  25 6   C  1S         -0.02825  -0.12187   0.07036   0.07317   0.00002
  26        2S          0.02283   0.03009  -0.01737  -0.02233   0.00103
  27        2PX        -0.01545  -0.07415   0.02922  -0.08992   0.05060
  28        2PY        -0.00892  -0.02922   0.04041  -0.05192   0.04429
  29        2PZ         0.18569  -0.03761   0.02172   0.01144  -0.10454
  30        3S          0.24314   1.80349  -1.04125  -0.91199  -0.04836
  31        3PX        -0.13192  -0.16712   0.15617  -0.55286   0.29749
  32        3PY        -0.07616  -0.15617  -0.01321  -0.31919   0.12404
  33        3PZ         0.78043  -0.20030   0.11565   0.00683  -0.53798
  34 7   H  1S          0.00713  -0.01386  -0.05094  -0.01784  -0.01277
  35        2S         -0.53521  -0.83649   0.32983   0.11760   0.36629
  36 8   H  1S          0.00713   0.03719   0.03747  -0.01784   0.05356
  37        2S         -0.53521  -0.70389   0.55951   0.11760   0.50266
  38 9   H  1S          0.00716  -0.01990   0.01149  -0.03856  -0.03058
  39        2S          0.84347  -0.98520   0.56880   0.45125  -0.68297
  40 10  C  1S         -0.02825   0.12187   0.07036   0.07317   0.00002
  41        2S          0.02283  -0.03009  -0.01737  -0.02233   0.00103
  42        2PX         0.01545  -0.07415  -0.02922   0.08992  -0.05060
  43        2PY        -0.00892   0.02922   0.04041  -0.05192   0.04429
  44        2PZ         0.18569   0.03761   0.02172   0.01144  -0.10454
  45        3S          0.24314  -1.80349  -1.04125  -0.91199  -0.04836
  46        3PX         0.13192  -0.16712  -0.15617   0.55286  -0.29749
  47        3PY        -0.07616   0.15617  -0.01321  -0.31919   0.12404
  48        3PZ         0.78043   0.20030   0.11565   0.00683  -0.53798
  49 11  H  1S          0.00713  -0.03719   0.03747  -0.01784   0.05356
  50        2S         -0.53521   0.70389   0.55951   0.11760   0.50266
  51 12  H  1S          0.00713   0.01386  -0.05094  -0.01784  -0.01277
  52        2S         -0.53521   0.83649   0.32983   0.11760   0.36629
  53 13  H  1S          0.00716   0.01990   0.01149  -0.03856  -0.03058
  54        2S          0.84347   0.98520   0.56880   0.45125  -0.68297
                          26        27        28        29        30
                        (E)--V    (A2)--V   (E)--V    (E)--V    (E)--V
     Eigenvalues --     0.38772   0.42147   0.47161   0.47161   0.88548
   1 1   N  1S          0.00000   0.00000   0.00000   0.00000  -0.00000
   2        2S          0.00000   0.00000   0.00000  -0.00000   0.00000
   3        2PX        -0.04062  -0.00000   0.32326   0.00000   0.00000
   4        2PY         0.00000   0.00000   0.00000   0.32326   0.08976
   5        2PZ         0.00000   0.00000   0.00000   0.00000  -0.00000
   6        3S          0.00000   0.00000   0.00000  -0.00000   0.00000
   7        3PX        -0.10601  -0.00000   1.35742   0.00000   0.00000
   8        3PY         0.00000   0.00000   0.00000   1.35742  -0.21517
   9        3PZ         0.00000   0.00000   0.00000   0.00000   0.00000
  10 2   C  1S          0.00000   0.00000   0.00000   0.05702   0.00698
  11        2S          0.00000   0.00000   0.00000  -0.01239  -0.08899
  12        2PX        -0.01508   0.20256  -0.02002   0.00000   0.00000
  13        2PY         0.00000   0.00000   0.00000   0.13860   0.39505
  14        2PZ         0.00000   0.00000   0.00000  -0.10041   0.08517
  15        3S          0.00000   0.00000   0.00000  -0.71897   0.26175
  16        3PX         0.04772   0.97534  -0.37825   0.00000   0.00000
  17        3PY         0.00000   0.00000   0.00000   1.14716  -0.32644
  18        3PZ         0.00000   0.00000   0.00000  -0.69844  -0.14343
  19 3   H  1S          0.03829   0.02029  -0.00348  -0.06714   0.07013
  20        2S          0.07873   0.99758  -0.28745   0.02052  -0.14008
  21 4   H  1S         -0.03829  -0.02029   0.00348  -0.06714   0.07013
  22        2S         -0.07873  -0.99758   0.28745   0.02052  -0.14008
  23 5   H  1S          0.00000   0.00000   0.00000  -0.05230  -0.15867
  24        2S          0.00000   0.00000   0.00000  -0.42103   0.02160
  25 6   C  1S         -0.00003   0.00000  -0.04938  -0.02851  -0.00349
  26        2S         -0.00179   0.00000   0.01073   0.00620   0.04449
  27        2PX        -0.10272  -0.10128   0.09895   0.06869   0.37797
  28        2PY        -0.05060   0.17542   0.06869   0.01964  -0.25962
  29        2PZ         0.18107  -0.00000   0.08696   0.05021  -0.04258
  30        3S          0.08377  -0.00000   0.62265   0.35949  -0.13088
  31        3PX        -0.46755  -0.48767   0.76581   0.66052  -0.45463
  32        3PY        -0.29749   0.84467   0.66052   0.00310   0.46100
  33        3PZ         0.93181  -0.00000   0.60487   0.34922   0.07172
  34 7   H  1S         -0.05448   0.02029   0.05988   0.03055   0.31017
  35        2S         -0.79190   0.99758   0.12596  -0.25920  -0.01285
  36 8   H  1S         -0.01618  -0.02029   0.05640   0.03659  -0.38030
  37        2S         -0.71316  -0.99758  -0.16149   0.23868   0.15293
  38 9   H  1S          0.05297  -0.00000   0.04529   0.02615   0.07933
  39        2S          1.18295  -0.00000   0.36462   0.21051  -0.01080
  40 10  C  1S          0.00003  -0.00000   0.04938  -0.02851  -0.00349
  41        2S          0.00179  -0.00000  -0.01073   0.00620   0.04449
  42        2PX        -0.10272  -0.10128   0.09895  -0.06869  -0.37797
  43        2PY         0.05060  -0.17542  -0.06869   0.01964  -0.25962
  44        2PZ        -0.18107   0.00000  -0.08696   0.05021  -0.04258
  45        3S         -0.08377   0.00000  -0.62265   0.35949  -0.13088
  46        3PX        -0.46755  -0.48767   0.76581  -0.66052   0.45463
  47        3PY         0.29749  -0.84467  -0.66052   0.00310   0.46100
  48        3PZ        -0.93181   0.00000  -0.60487   0.34922   0.07172
  49 11  H  1S          0.01618   0.02029  -0.05640   0.03659  -0.38030
  50        2S          0.71316   0.99758   0.16149   0.23868   0.15293
  51 12  H  1S          0.05448  -0.02029  -0.05988   0.03055   0.31017
  52        2S          0.79190  -0.99758  -0.12596  -0.25920  -0.01285
  53 13  H  1S         -0.05297   0.00000  -0.04529   0.02615   0.07933
  54        2S         -1.18295   0.00000  -0.36462   0.21051  -0.01080
                          31        32        33        34        35
                        (E)--V    (A1)--V   (E)--V    (E)--V    (A1)--V
     Eigenvalues --     0.88548   0.92744   0.97628   0.97628   1.01822
   1 1   N  1S          0.00000   0.02645  -0.00000   0.00000   0.05129
   2        2S          0.00000  -0.09505   0.00000   0.00000  -0.18839
   3        2PX         0.08976   0.00000   0.00000  -0.13317   0.00000
   4        2PY         0.00000   0.00000   0.13317   0.00000   0.00000
   5        2PZ         0.00000  -0.11048  -0.00000   0.00000   0.31232
   6        3S          0.00000   0.19362  -0.00000   0.00000   0.62114
   7        3PX        -0.21517   0.00000   0.00000   0.12781   0.00000
   8        3PY         0.00000  -0.00000  -0.12781   0.00000  -0.00000
   9        3PZ         0.00000  -0.34998  -0.00000   0.00000   0.03179
  10 2   C  1S          0.00000  -0.01020   0.02656   0.00000  -0.03477
  11        2S          0.00000   0.07218  -0.08479   0.00000   0.07565
  12        2PX        -0.47784   0.00000   0.00000  -0.09779   0.00000
  13        2PY         0.00000  -0.30899   0.44870   0.00000  -0.48404
  14        2PZ         0.00000  -0.27767  -0.59023   0.00000   0.32425
  15        3S          0.00000  -0.13659  -0.07913   0.00000   0.13890
  16        3PX         0.72348   0.00000   0.00000   0.12419   0.00000
  17        3PY         0.00000   0.38012  -0.52146   0.00000   0.43830
  18        3PZ         0.00000   0.66962   0.96216   0.00000  -0.51583
  19 3   H  1S          0.39864  -0.17192  -0.06387  -0.02277  -0.06181
  20        2S         -0.09571  -0.00698   0.09064   0.02475   0.01736
  21 4   H  1S         -0.39864  -0.17192  -0.06387   0.02277  -0.06181
  22        2S          0.09571  -0.00698   0.09064  -0.02475   0.01736
  23 5   H  1S          0.00000   0.35524   0.46803   0.00000  -0.16590
  24        2S          0.00000   0.15870   0.05561   0.00000  -0.17265
  25 6   C  1S         -0.00605  -0.01020  -0.01328   0.02300  -0.03477
  26        2S          0.07707   0.07218   0.04240  -0.07343   0.07565
  27        2PX         0.17683   0.26760   0.15195  -0.36097   0.41919
  28        2PY         0.37797   0.15450   0.18551  -0.15195   0.24202
  29        2PZ        -0.07376  -0.27767   0.29511  -0.51115   0.32425
  30        3S         -0.22669  -0.13659   0.03956  -0.06853   0.13890
  31        3PX        -0.06396  -0.32919  -0.17202   0.42214  -0.37958
  32        3PY        -0.45463  -0.19006  -0.22350   0.17202  -0.21915
  33        3PZ         0.12421   0.66962  -0.48108   0.83326  -0.51583
  34 7   H  1S         -0.26006  -0.17192   0.05165  -0.04393  -0.06181
  35        2S          0.16916  -0.00698  -0.06675   0.06612   0.01736
  36 8   H  1S          0.13858  -0.17192   0.01222  -0.06670  -0.06181
  37        2S          0.07345  -0.00698  -0.02388   0.09087   0.01736
  38 9   H  1S          0.13741   0.35524  -0.23402   0.40533  -0.16590
  39        2S         -0.01871   0.15870  -0.02781   0.04816  -0.17265
  40 10  C  1S          0.00605  -0.01020  -0.01328  -0.02300  -0.03477
  41        2S         -0.07707   0.07218   0.04240   0.07343   0.07565
  42        2PX         0.17683  -0.26760  -0.15195  -0.36097  -0.41919
  43        2PY        -0.37797   0.15450   0.18551   0.15195   0.24202
  44        2PZ         0.07376  -0.27767   0.29511   0.51115   0.32425
  45        3S          0.22669  -0.13659   0.03956   0.06853   0.13890
  46        3PX        -0.06396   0.32919   0.17202   0.42214   0.37958
  47        3PY         0.45463  -0.19006  -0.22350  -0.17202  -0.21915
  48        3PZ        -0.12421   0.66962  -0.48108  -0.83326  -0.51583
  49 11  H  1S         -0.13858  -0.17192   0.01222   0.06670  -0.06181
  50        2S         -0.07345  -0.00698  -0.02388  -0.09087   0.01736
  51 12  H  1S          0.26006  -0.17192   0.05165   0.04393  -0.06181
  52        2S         -0.16916  -0.00698  -0.06675  -0.06612   0.01736
  53 13  H  1S         -0.13741   0.35524  -0.23402  -0.40533  -0.16590
  54        2S          0.01871   0.15870  -0.02781  -0.04816  -0.17265
                          36        37        38        39        40
                        (E)--V    (E)--V    (A1)--V   (A1)--V   (E)--V
     Eigenvalues --     1.13089   1.13089   1.29272   1.31489   1.32269
   1 1   N  1S          0.00000   0.00000  -0.04347   0.00774  -0.00000
   2        2S         -0.00000   0.00000   0.15386  -0.06496  -0.00000
   3        2PX         0.00000  -0.29406   0.00000   0.00000   0.00000
   4        2PY        -0.29406   0.00000   0.00000  -0.00000   0.30311
   5        2PZ         0.00000   0.00000   0.20709   0.25613   0.00000
   6        3S         -0.00000   0.00000   0.30594   0.03995   0.00000
   7        3PX         0.00000  -0.10084   0.00000   0.00000   0.00000
   8        3PY        -0.10084   0.00000  -0.00000   0.00000  -0.44047
   9        3PZ        -0.00000   0.00000  -0.27081  -0.38681  -0.00000
  10 2   C  1S         -0.05275   0.00000   0.05787  -0.01910   0.02441
  11        2S         -0.02094   0.00000   0.04559   0.04156  -0.09783
  12        2PX         0.00000  -0.29159   0.00000   0.00000   0.00000
  13        2PY        -0.43650   0.00000  -0.18863  -0.12915  -0.13576
  14        2PZ        -0.29788   0.00000  -0.01002  -0.49900  -0.35633
  15        3S          0.54287   0.00000  -0.39377  -0.03957   0.20577
  16        3PX         0.00000   0.75866   0.00000   0.00000   0.00000
  17        3PY         0.98164   0.00000   0.06066   0.20788   0.14875
  18        3PZ         0.74895   0.00000   0.05152   0.60182   0.55702
  19 3   H  1S         -0.45534   0.14885   0.46773   0.12174   0.22978
  20        2S         -0.27896   0.23015  -0.16862  -0.28353  -0.36373
  21 4   H  1S         -0.45534  -0.14885   0.46773   0.12174   0.22978
  22        2S         -0.27896  -0.23015  -0.16862  -0.28353  -0.36373
  23 5   H  1S         -0.02758   0.00000   0.31030  -0.52969  -0.25696
  24        2S          0.10415   0.00000   0.00289   0.72487   0.53501
  25 6   C  1S          0.02638   0.04568   0.05787  -0.01910  -0.01221
  26        2S          0.01047   0.01813   0.04559   0.04156   0.04891
  27        2PX        -0.06275  -0.40027   0.16336   0.11185   0.20758
  28        2PY        -0.32782  -0.06275   0.09432   0.06458  -0.49529
  29        2PZ         0.14894   0.25797  -0.01002  -0.49900   0.17817
  30        3S         -0.27144  -0.47014  -0.39377  -0.03957  -0.10288
  31        3PX         0.09655   0.92589  -0.05253  -0.18003  -0.27777
  32        3PY         0.81440   0.09655  -0.03033  -0.10394   0.62987
  33        3PZ        -0.37447  -0.64861   0.05152   0.60182  -0.27851
  34 7   H  1S          0.35657   0.31991   0.46773   0.12174  -0.52293
  35        2S          0.33879   0.12652  -0.16862  -0.28353   0.83414
  36 8   H  1S          0.09877   0.46876   0.46773   0.12174   0.29315
  37        2S         -0.05983   0.35666  -0.16862  -0.28353  -0.47041
  38 9   H  1S          0.01379   0.02389   0.31030  -0.52969   0.12848
  39        2S         -0.05207  -0.09019   0.00289   0.72487  -0.26750
  40 10  C  1S          0.02638  -0.04568   0.05787  -0.01910  -0.01221
  41        2S          0.01047  -0.01813   0.04559   0.04156   0.04891
  42        2PX         0.06275  -0.40027  -0.16336  -0.11185  -0.20758
  43        2PY        -0.32782   0.06275   0.09432   0.06458  -0.49529
  44        2PZ         0.14894  -0.25797  -0.01002  -0.49900   0.17817
  45        3S         -0.27144   0.47014  -0.39377  -0.03957  -0.10288
  46        3PX        -0.09655   0.92589   0.05253   0.18003   0.27777
  47        3PY         0.81440  -0.09655  -0.03033  -0.10394   0.62987
  48        3PZ        -0.37447   0.64861   0.05152   0.60182  -0.27851
  49 11  H  1S          0.09877  -0.46876   0.46773   0.12174   0.29315
  50        2S         -0.05983  -0.35666  -0.16862  -0.28353  -0.47041
  51 12  H  1S          0.35657  -0.31991   0.46773   0.12174  -0.52293
  52        2S          0.33879  -0.12652  -0.16862  -0.28353   0.83414
  53 13  H  1S          0.01379  -0.02389   0.31030  -0.52969   0.12848
  54        2S         -0.05207   0.09019   0.00289   0.72487  -0.26750
                          41        42        43        44        45
                        (E)--V    (A2)--V   (A2)--V   (E)--V    (E)--V
     Eigenvalues --     1.32269   1.34628   1.36654   1.40822   1.40822
   1 1   N  1S          0.00000   0.00000   0.00000   0.00000  -0.00000
   2        2S          0.00000   0.00000   0.00000   0.00000   0.00000
   3        2PX         0.30311  -0.00000   0.00000   0.08072   0.00000
   4        2PY         0.00000   0.00000   0.00000   0.00000  -0.08072
   5        2PZ         0.00000   0.00000   0.00000   0.00000   0.00000
   6        3S          0.00000   0.00000   0.00000   0.00000  -0.00000
   7        3PX        -0.44047   0.00000  -0.00000  -0.13427   0.00000
   8        3PY         0.00000   0.00000   0.00000   0.00000   0.13427
   9        3PZ         0.00000   0.00000   0.00000   0.00000  -0.00000
  10 2   C  1S          0.00000   0.00000   0.00000   0.00000  -0.00612
  11        2S          0.00000   0.00000   0.00000   0.00000   0.04535
  12        2PX        -0.61513  -0.68470   0.15310  -0.37613   0.00000
  13        2PY         0.00000   0.00000   0.00000   0.00000  -0.16223
  14        2PZ         0.00000   0.00000   0.00000   0.00000  -0.55289
  15        3S          0.00000   0.00000   0.00000   0.00000  -0.12075
  16        3PX         0.79024   1.65829   0.19247   0.48354   0.00000
  17        3PY         0.00000   0.00000   0.00000   0.00000   0.21291
  18        3PZ         0.00000   0.00000   0.00000   0.00000   0.66869
  19 3   H  1S         -0.47116   0.06339   0.57123  -0.28710   0.31272
  20        2S          0.75318   0.72251  -0.49068   0.51866  -0.50733
  21 4   H  1S          0.47116  -0.06339  -0.57123   0.28710   0.31272
  22        2S         -0.75318  -0.72251   0.49068  -0.51866  -0.50733
  23 5   H  1S          0.00000   0.00000   0.00000   0.00000  -0.69624
  24        2S          0.00000   0.00000   0.00000   0.00000   1.14727
  25 6   C  1S         -0.02114   0.00000   0.00000  -0.00530   0.00306
  26        2S          0.08472  -0.00000  -0.00000   0.03927  -0.02267
  27        2PX        -0.25560   0.34235  -0.07655   0.02764  -0.23312
  28        2PY         0.20758  -0.59297   0.13259   0.23312   0.24154
  29        2PZ         0.30859  -0.00000  -0.00000  -0.47881   0.27644
  30        3S         -0.17820   0.00000   0.00000  -0.10457   0.06037
  31        3PX         0.30912  -0.82914  -0.09624  -0.03879   0.30157
  32        3PY        -0.27777   1.43612   0.16668  -0.30157  -0.30943
  33        3PZ        -0.48239   0.00000   0.00000   0.57910  -0.33434
  34 7   H  1S          0.03659   0.06339   0.57123   0.41438   0.09228
  35        2S         -0.06159   0.72251  -0.49068  -0.69869  -0.19551
  36 8   H  1S         -0.43457  -0.06339  -0.57123   0.12727  -0.40500
  37        2S          0.69160  -0.72251   0.49068  -0.18003   0.70284
  38 9   H  1S          0.22253  -0.00000  -0.00000  -0.60297   0.34812
  39        2S         -0.46333   0.00000   0.00000   0.99356  -0.57363
  40 10  C  1S          0.02114  -0.00000  -0.00000   0.00530   0.00306
  41        2S         -0.08472   0.00000   0.00000  -0.03927  -0.02267
  42        2PX        -0.25560   0.34235  -0.07655   0.02764   0.23312
  43        2PY        -0.20758   0.59297  -0.13259  -0.23312   0.24154
  44        2PZ        -0.30859   0.00000   0.00000   0.47881   0.27644
  45        3S          0.17820  -0.00000  -0.00000   0.10457   0.06037
  46        3PX         0.30912  -0.82914  -0.09624  -0.03879  -0.30157
  47        3PY         0.27777  -1.43612  -0.16668   0.30157  -0.30943
  48        3PZ         0.48239  -0.00000  -0.00000  -0.57910  -0.33434
  49 11  H  1S          0.43457   0.06339   0.57123  -0.12727  -0.40500
  50        2S         -0.69160   0.72251  -0.49068   0.18003   0.70284
  51 12  H  1S         -0.03659  -0.06339  -0.57123  -0.41438   0.09228
  52        2S          0.06159  -0.72251   0.49068   0.69869  -0.19551
  53 13  H  1S         -0.22253   0.00000   0.00000   0.60297   0.34812
  54        2S          0.46333  -0.00000  -0.00000  -0.99356  -0.57363
                          46        47        48        49        50
                        (E)--V    (E)--V    (A1)--V   (A1)--V   (E)--V
     Eigenvalues --     1.49556   1.49556   1.60756   1.83706   1.85149
   1 1   N  1S          0.00000  -0.00000   0.04711   0.02008   0.00000
   2        2S          0.00000  -0.00000  -0.16114   0.01119   0.00000
   3        2PX         0.04487   0.00000   0.00000   0.00000  -1.07284
   4        2PY         0.00000   0.04487  -0.00000  -0.00000   0.00000
   5        2PZ         0.00000   0.00000  -0.88313   0.44319   0.00000
   6        3S          0.00000   0.00000  -0.23137  -0.69639   0.00000
   7        3PX         0.02052   0.00000   0.00000   0.00000   2.14706
   8        3PY         0.00000   0.02052   0.00000   0.00000   0.00000
   9        3PZ         0.00000  -0.00000   1.25922  -0.54643   0.00000
  10 2   C  1S          0.00000   0.07501   0.00733   0.00200   0.00000
  11        2S          0.00000  -0.43182  -0.40298  -1.02202   0.00000
  12        2PX        -0.05452   0.00000   0.00000   0.00000  -0.17229
  13        2PY         0.00000  -0.54071  -0.23489  -0.02021   0.00000
  14        2PZ         0.00000   0.02397  -0.00347  -0.01769   0.00000
  15        3S          0.00000   0.84297   1.01788   1.78663   0.00000
  16        3PX         0.41464   0.00000   0.00000   0.00000  -0.29907
  17        3PY         0.00000   0.99031   0.07828   0.22694   0.00000
  18        3PZ         0.00000   0.19979  -0.34195   0.26310   0.00000
  19 3   H  1S          0.24269   0.41469   0.13798  -0.08796  -0.20164
  20        2S         -0.06324  -0.77666  -0.29208  -0.46209   0.06985
  21 4   H  1S         -0.24269   0.41469   0.13798  -0.08796   0.20164
  22        2S          0.06324  -0.77666  -0.29208  -0.46209  -0.06985
  23 5   H  1S          0.00000   0.62791  -0.17226   0.05019   0.00000
  24        2S          0.00000  -0.56177  -0.23566  -0.29225   0.00000
  25 6   C  1S         -0.06496  -0.03751   0.00733   0.00200  -0.03070
  26        2S          0.37397   0.21591  -0.40298  -1.02202   0.04130
  27        2PX        -0.41916  -0.21052   0.20342   0.01750   0.11963
  28        2PY        -0.21052  -0.17607   0.11745   0.01011   0.16854
  29        2PZ        -0.02076  -0.01199  -0.00347  -0.01769   0.03122
  30        3S         -0.73003  -0.42149   1.01788   1.78663   0.96132
  31        3PX         0.84639   0.24927  -0.06779  -0.19654   0.15682
  32        3PY         0.24927   0.55856  -0.03914  -0.11347   0.26321
  33        3PZ        -0.17303  -0.09990  -0.34195   0.26310   0.45483
  34 7   H  1S         -0.48048   0.00283   0.13798  -0.08796  -0.09746
  35        2S          0.70423   0.33357  -0.29208  -0.46209  -0.07838
  36 8   H  1S         -0.23779  -0.41752   0.13798  -0.08796  -0.29910
  37        2S          0.64099   0.44310  -0.29208  -0.46209  -0.00853
  38 9   H  1S         -0.54379  -0.31396  -0.17226   0.05019  -0.04465
  39        2S          0.48651   0.28089  -0.23566  -0.29225   0.09422
  40 10  C  1S          0.06496  -0.03751   0.00733   0.00200   0.03070
  41        2S         -0.37397   0.21591  -0.40298  -1.02202  -0.04130
  42        2PX        -0.41916   0.21052  -0.20342  -0.01750   0.11963
  43        2PY         0.21052  -0.17607   0.11745   0.01011  -0.16854
  44        2PZ         0.02076  -0.01199  -0.00347  -0.01769  -0.03122
  45        3S          0.73003  -0.42149   1.01788   1.78663  -0.96132
  46        3PX         0.84639  -0.24927   0.06779   0.19654   0.15682
  47        3PY        -0.24927   0.55856  -0.03914  -0.11347  -0.26321
  48        3PZ         0.17303  -0.09990  -0.34195   0.26310  -0.45483
  49 11  H  1S          0.23779  -0.41752   0.13798  -0.08796   0.29910
  50        2S         -0.64099   0.44310  -0.29208  -0.46209   0.00853
  51 12  H  1S          0.48048   0.00283   0.13798  -0.08796   0.09746
  52        2S         -0.70423   0.33357  -0.29208  -0.46209   0.07838
  53 13  H  1S          0.54379  -0.31396  -0.17226   0.05019   0.04465
  54        2S         -0.48651   0.28089  -0.23566  -0.29225  -0.09422
                          51        52        53        54
                        (E)--V    (E)--V    (E)--V    (A1)--V
     Eigenvalues --     1.85149   2.27863   2.27863   3.09304
   1 1   N  1S         -0.00000   0.00000   0.00000  -0.01625
   2        2S         -0.00000   0.00000   0.00000  -1.96452
   3        2PX         0.00000   0.00912   0.00000   0.00000
   4        2PY        -1.07284   0.00000  -0.00912   0.00000
   5        2PZ        -0.00000   0.00000   0.00000   0.18959
   6        3S          0.00000   0.00000  -0.00000   3.43835
   7        3PX         0.00000   0.74269   0.00000   0.00000
   8        3PY         2.14706   0.00000  -0.74269  -0.00000
   9        3PZ         0.00000   0.00000   0.00000  -0.74026
  10 2   C  1S          0.03545   0.00000  -0.06607   0.04665
  11        2S         -0.04769   0.00000  -1.72441   0.14611
  12        2PX         0.00000  -0.18196   0.00000   0.00000
  13        2PY         0.21694   0.00000   0.14571   0.22593
  14        2PZ        -0.03605   0.00000   0.07138  -0.03098
  15        3S         -1.11003   0.00000   3.63205  -1.19432
  16        3PX         0.00000   0.59117   0.00000   0.00000
  17        3PY         0.30878   0.00000  -0.64934   0.33614
  18        3PZ        -0.52520   0.00000  -0.22455  -0.08254
  19 3   H  1S          0.22895   0.07408  -0.23954   0.10246
  20        2S          0.05017   0.25809  -0.42193   0.13555
  21 4   H  1S          0.22895  -0.07408  -0.23954   0.10246
  22        2S          0.05017  -0.25809  -0.42193   0.13555
  23 5   H  1S          0.05156   0.00000  -0.35004   0.14335
  24        2S         -0.10879   0.00000  -0.70296   0.10810
  25 6   C  1S         -0.01772  -0.05721   0.03303   0.04665
  26        2S          0.02385  -1.49338   0.86220   0.14611
  27        2PX         0.16854  -0.15477  -0.01570  -0.19566
  28        2PY        -0.07498   0.01570   0.17290  -0.11297
  29        2PZ         0.01803   0.06181  -0.03569  -0.03098
  30        3S          0.55502   3.14545  -1.81602  -1.19432
  31        3PX         0.26321   0.63480  -0.02519  -0.29110
  32        3PY        -0.14711   0.02519  -0.60571  -0.16807
  33        3PZ         0.26260  -0.19447   0.11228  -0.08254
  34 7   H  1S         -0.28910  -0.24448   0.05561   0.10246
  35        2S          0.03541  -0.49444  -0.01255   0.13555
  36 8   H  1S          0.06014  -0.17041   0.18392   0.10246
  37        2S         -0.08558  -0.23636   0.43447   0.13555
  38 9   H  1S         -0.02578  -0.30314   0.17502   0.14335
  39        2S          0.05440  -0.60878   0.35148   0.10810
  40 10  C  1S         -0.01772   0.05721   0.03303   0.04665
  41        2S          0.02385   1.49338   0.86220   0.14611
  42        2PX        -0.16854  -0.15477   0.01570   0.19566
  43        2PY        -0.07498  -0.01570   0.17290  -0.11297
  44        2PZ         0.01803  -0.06181  -0.03569  -0.03098
  45        3S          0.55502  -3.14545  -1.81602  -1.19432
  46        3PX        -0.26321   0.63480   0.02519   0.29110
  47        3PY        -0.14711  -0.02519  -0.60571  -0.16807
  48        3PZ         0.26260   0.19447   0.11228  -0.08254
  49 11  H  1S          0.06014   0.17041   0.18392   0.10246
  50        2S         -0.08558   0.23636   0.43447   0.13555
  51 12  H  1S         -0.28910   0.24448   0.05561   0.10246
  52        2S          0.03541   0.49444  -0.01255   0.13555
  53 13  H  1S         -0.02578   0.30314   0.17502   0.14335
  54        2S          0.05440   0.60878   0.35148   0.10810
     Density Matrix:
                           1         2         3         4         5
   1 1   N  1S          2.05228
   2        2S          0.11514   0.09671
   3        2PX        -0.00000   0.00000   0.28001
   4        2PY         0.00000  -0.00000   0.00000   0.28001
   5        2PZ        -0.03958   0.04163   0.00000  -0.00000   0.45097
   6        3S         -0.49931   0.29216   0.00000  -0.00000   0.14234
   7        3PX        -0.00000   0.00000   0.27866   0.00000   0.00000
   8        3PY         0.00000  -0.00000   0.00000   0.27866  -0.00000
   9        3PZ        -0.00132   0.04415   0.00000  -0.00000   0.57179
  10 2   C  1S          0.00749  -0.00570  -0.00000  -0.05336   0.01919
  11        2S         -0.01284   0.00861   0.00000   0.04975  -0.02608
  12        2PX         0.00000  -0.00000   0.00387  -0.00000   0.00000
  13        2PY         0.03969  -0.03318  -0.00000  -0.19538   0.07219
  14        2PZ        -0.01378   0.01269   0.00000   0.07443  -0.02185
  15        3S          0.05613  -0.01255   0.00000   0.14782  -0.03161
  16        3PX        -0.00000  -0.00000  -0.02151  -0.00000   0.00000
  17        3PY        -0.00878  -0.00396  -0.00000  -0.15196   0.03583
  18        3PZ        -0.01071   0.01400   0.00000   0.02537   0.02797
  19 3   H  1S          0.00803  -0.00766   0.01201  -0.01995  -0.01504
  20        2S          0.00999  -0.01103   0.02447  -0.03970  -0.02848
  21 4   H  1S          0.00803  -0.00766  -0.01201  -0.01995  -0.01504
  22        2S          0.00999  -0.01103  -0.02447  -0.03970  -0.02848
  23 5   H  1S         -0.00148  -0.00013  -0.00000  -0.01871   0.04527
  24        2S         -0.01333   0.01221  -0.00000  -0.05173   0.13584
  25 6   C  1S          0.00749  -0.00570   0.04621   0.02668   0.01919
  26        2S         -0.01284   0.00861  -0.04308  -0.02487  -0.02608
  27        2PX        -0.03438   0.02874  -0.14556  -0.08628  -0.06252
  28        2PY        -0.01985   0.01659  -0.08628  -0.04594  -0.03609
  29        2PZ        -0.01378   0.01269  -0.06446  -0.03721  -0.02185
  30        3S          0.05613  -0.01255  -0.12802  -0.07391  -0.03161
  31        3PX         0.00760   0.00343  -0.11935  -0.05649  -0.03103
  32        3PY         0.00439   0.00198  -0.05649  -0.05413  -0.01792
  33        3PZ        -0.01071   0.01400  -0.02197  -0.01268   0.02797
  34 7   H  1S          0.00803  -0.00766   0.01128   0.02037  -0.01504
  35        2S          0.00999  -0.01103   0.02215   0.04105  -0.02848
  36 8   H  1S          0.00803  -0.00766   0.02328  -0.00042  -0.01504
  37        2S          0.00999  -0.01103   0.04662  -0.00134  -0.02848
  38 9   H  1S         -0.00148  -0.00013   0.01620   0.00935   0.04527
  39        2S         -0.01333   0.01221   0.04480   0.02586   0.13584
  40 10  C  1S          0.00749  -0.00570  -0.04621   0.02668   0.01919
  41        2S         -0.01284   0.00861   0.04308  -0.02487  -0.02608
  42        2PX         0.03438  -0.02874  -0.14556   0.08628   0.06252
  43        2PY        -0.01985   0.01659   0.08628  -0.04594  -0.03609
  44        2PZ        -0.01378   0.01269   0.06446  -0.03721  -0.02185
  45        3S          0.05613  -0.01255   0.12802  -0.07391  -0.03161
  46        3PX        -0.00760  -0.00343  -0.11935   0.05649   0.03103
  47        3PY         0.00439   0.00198   0.05649  -0.05413  -0.01792
  48        3PZ        -0.01071   0.01400   0.02197  -0.01268   0.02797
  49 11  H  1S          0.00803  -0.00766  -0.02328  -0.00042  -0.01504
  50        2S          0.00999  -0.01103  -0.04662  -0.00134  -0.02848
  51 12  H  1S          0.00803  -0.00766  -0.01128   0.02037  -0.01504
  52        2S          0.00999  -0.01103  -0.02215   0.04105  -0.02848
  53 13  H  1S         -0.00148  -0.00013  -0.01620   0.00935   0.04527
  54        2S         -0.01333   0.01221  -0.04480   0.02586   0.13584
                           6         7         8         9        10
   6        3S          1.29278
   7        3PX         0.00000   0.28499
   8        3PY        -0.00000   0.00000   0.28499
   9        3PZ         0.12807   0.00000  -0.00000   0.73686
  10 2   C  1S          0.00544  -0.00000  -0.02412   0.02656   2.03872
  11        2S          0.00961   0.00000   0.03277  -0.03138   0.11429
  12        2PX        -0.00000  -0.00514  -0.00000   0.00000  -0.00000
  13        2PY        -0.16419  -0.00000  -0.20986   0.09252  -0.00815
  14        2PZ         0.04515   0.00000   0.07607  -0.05724   0.00151
  15        3S         -0.14945   0.00000   0.09087  -0.03082  -0.40577
  16        3PX        -0.00000  -0.02699  -0.00000   0.00000   0.00000
  17        3PY        -0.03005  -0.00000  -0.16222   0.04199   0.00132
  18        3PZ         0.04841   0.00000   0.02814   0.01555   0.01709
  19 3   H  1S         -0.05767   0.01740  -0.03571  -0.02509  -0.05511
  20        2S         -0.05423   0.03024  -0.04547  -0.04312   0.01729
  21 4   H  1S         -0.05767  -0.01740  -0.03571  -0.02509  -0.05511
  22        2S         -0.05423  -0.03024  -0.04547  -0.04312   0.01729
  23 5   H  1S         -0.01329  -0.00000  -0.03068   0.08079  -0.05243
  24        2S          0.04661  -0.00000  -0.05265   0.19558   0.03189
  25 6   C  1S          0.00544   0.02089   0.01206   0.02656  -0.00634
  26        2S          0.00961  -0.02838  -0.01639  -0.03138  -0.00301
  27        2PX         0.14219  -0.15868  -0.08865  -0.08013   0.00583
  28        2PY         0.08209  -0.08865  -0.05632  -0.04626   0.00961
  29        2PZ         0.04515  -0.06588  -0.03804  -0.05724   0.00061
  30        3S         -0.14945  -0.07870  -0.04544  -0.03082   0.04033
  31        3PX         0.02602  -0.12841  -0.05856  -0.03637   0.00800
  32        3PY         0.01503  -0.05856  -0.06080  -0.02100   0.03214
  33        3PZ         0.04841  -0.02437  -0.01407   0.01555  -0.00715
  34 7   H  1S         -0.05767   0.02223   0.03292  -0.02509  -0.00884
  35        2S         -0.05423   0.02426   0.04892  -0.04312  -0.00525
  36 8   H  1S         -0.05767   0.03962   0.00279  -0.02509   0.00195
  37        2S         -0.05423   0.05450  -0.00345  -0.04312  -0.00422
  38 9   H  1S         -0.01329   0.02657   0.01534   0.08079   0.00218
  39        2S          0.04661   0.04560   0.02632   0.19558  -0.00302
  40 10  C  1S          0.00544  -0.02089   0.01206   0.02656  -0.00634
  41        2S          0.00961   0.02838  -0.01639  -0.03138  -0.00301
  42        2PX        -0.14219  -0.15868   0.08865   0.08013  -0.00583
  43        2PY         0.08209   0.08865  -0.05632  -0.04626   0.00961
  44        2PZ         0.04515   0.06588  -0.03804  -0.05724   0.00061
  45        3S         -0.14945   0.07870  -0.04544  -0.03082   0.04033
  46        3PX        -0.02602  -0.12841   0.05856   0.03637  -0.00800
  47        3PY         0.01503   0.05856  -0.06080  -0.02100   0.03214
  48        3PZ         0.04841   0.02437  -0.01407   0.01555  -0.00715
  49 11  H  1S         -0.05767  -0.03962   0.00279  -0.02509   0.00195
  50        2S         -0.05423  -0.05450  -0.00345  -0.04312  -0.00422
  51 12  H  1S         -0.05767  -0.02223   0.03292  -0.02509  -0.00884
  52        2S         -0.05423  -0.02426   0.04892  -0.04312  -0.00525
  53 13  H  1S         -0.01329  -0.02657   0.01534   0.08079   0.00218
  54        2S          0.04661  -0.04560   0.02632   0.19558  -0.00302
                          11        12        13        14        15
  11        2S          0.10344
  12        2PX         0.00000   0.29713
  13        2PY         0.00719   0.00000   0.24445
  14        2PZ         0.00076   0.00000   0.01834   0.28696
  15        3S          0.23053   0.00000   0.05258  -0.02343   0.79130
  16        3PX         0.00000   0.25489  -0.00000   0.00000   0.00000
  17        3PY         0.00551  -0.00000   0.17485   0.03359   0.01394
  18        3PZ        -0.01009   0.00000   0.04121   0.20915  -0.04869
  19 3   H  1S          0.05394  -0.17581   0.09267   0.07691   0.16447
  20        2S          0.01480  -0.14886   0.07395   0.07243   0.03186
  21 4   H  1S          0.05394   0.17581   0.09267   0.07691   0.16447
  22        2S          0.01480   0.14886   0.07395   0.07243   0.03186
  23 5   H  1S          0.04786  -0.00000  -0.00696  -0.21295   0.16590
  24        2S         -0.00034   0.00000   0.00138  -0.20938   0.00869
  25 6   C  1S         -0.00301  -0.00541  -0.00986   0.00061   0.04033
  26        2S         -0.00025   0.00383   0.00795  -0.00073  -0.01620
  27        2PX        -0.00497   0.00156   0.03179  -0.00278  -0.02592
  28        2PY        -0.00729   0.01238   0.02706  -0.00810  -0.06843
  29        2PZ        -0.00073   0.00563   0.00646  -0.01524   0.00582
  30        3S         -0.01620   0.04630   0.05666   0.00582  -0.08664
  31        3PX        -0.00576   0.00648   0.03480   0.00111  -0.01163
  32        3PY        -0.01451   0.02557   0.04203  -0.00766  -0.07971
  33        3PZ         0.00104   0.00732  -0.00105  -0.02155   0.01541
  34 7   H  1S          0.00752  -0.00695  -0.02345   0.00468   0.04454
  35        2S          0.00850  -0.01082  -0.04026   0.00924   0.04819
  36 8   H  1S         -0.00087   0.00773   0.00494  -0.00375  -0.02195
  37        2S          0.00118  -0.00046   0.00704  -0.00060  -0.00536
  38 9   H  1S         -0.00247   0.00118   0.00831   0.00456  -0.02102
  39        2S         -0.00293  -0.00189   0.00601  -0.00972  -0.00791
  40 10  C  1S         -0.00301   0.00541  -0.00986   0.00061   0.04033
  41        2S         -0.00025  -0.00383   0.00795  -0.00073  -0.01620
  42        2PX         0.00497   0.00156  -0.03179   0.00278   0.02592
  43        2PY        -0.00729  -0.01238   0.02706  -0.00810  -0.06843
  44        2PZ        -0.00073  -0.00563   0.00646  -0.01524   0.00582
  45        3S         -0.01620  -0.04630   0.05666   0.00582  -0.08664
  46        3PX         0.00576   0.00648  -0.03480  -0.00111   0.01163
  47        3PY        -0.01451  -0.02557   0.04203  -0.00766  -0.07971
  48        3PZ         0.00104  -0.00732  -0.00105  -0.02155   0.01541
  49 11  H  1S         -0.00087  -0.00773   0.00494  -0.00375  -0.02195
  50        2S          0.00118   0.00046   0.00704  -0.00060  -0.00536
  51 12  H  1S          0.00752   0.00695  -0.02345   0.00468   0.04454
  52        2S          0.00850   0.01082  -0.04026   0.00924   0.04819
  53 13  H  1S         -0.00247  -0.00118   0.00831   0.00456  -0.02102
  54        2S         -0.00293   0.00189   0.00601  -0.00972  -0.00791
                          16        17        18        19        20
  16        3PX         0.22214
  17        3PY        -0.00000   0.13657
  18        3PZ         0.00000   0.04554   0.16142
  19 3   H  1S         -0.15218   0.07091   0.05693   0.18963
  20        2S         -0.12976   0.05932   0.05588   0.14178   0.12127
  21 4   H  1S          0.15218   0.07091   0.05693  -0.02000  -0.03729
  22        2S          0.12976   0.05932   0.05588  -0.03729  -0.03366
  23 5   H  1S         -0.00000  -0.02223  -0.15790  -0.02676  -0.05066
  24        2S         -0.00000  -0.01373  -0.13939  -0.05852  -0.06025
  25 6   C  1S         -0.02384  -0.02300  -0.00715   0.00195  -0.00422
  26        2S          0.00968   0.01224   0.00104  -0.00087   0.00118
  27        2PX         0.00700   0.03511   0.00456  -0.00041  -0.00633
  28        2PY         0.02588   0.04151  -0.00581  -0.00916  -0.00313
  29        2PZ         0.00718   0.00287  -0.02155  -0.00375  -0.00060
  30        3S          0.06321   0.04993   0.01541  -0.02195  -0.00536
  31        3PX         0.01026   0.02725   0.00673  -0.00072  -0.00606
  32        3PY         0.03371   0.04546  -0.00206  -0.01546  -0.00478
  33        3PZ         0.00515  -0.00480  -0.02093  -0.00838  -0.00788
  34 7   H  1S         -0.01066  -0.02878  -0.00133   0.00506   0.00277
  35        2S         -0.01615  -0.04185  -0.00244   0.00387   0.00138
  36 8   H  1S          0.01303   0.00836  -0.00838  -0.00106   0.00853
  37        2S          0.00111   0.00763  -0.00788   0.00853   0.01548
  38 9   H  1S          0.00418   0.01037   0.01702  -0.00230  -0.00406
  39        2S         -0.00362   0.00401   0.01238  -0.00722  -0.01414
  40 10  C  1S          0.02384  -0.02300  -0.00715  -0.00884  -0.00525
  41        2S         -0.00968   0.01224   0.00104   0.00752   0.00850
  42        2PX         0.00700  -0.03511  -0.00456  -0.01684  -0.02945
  43        2PY        -0.02588   0.04151  -0.00581   0.01774   0.02950
  44        2PZ        -0.00718   0.00287  -0.02155   0.00468   0.00924
  45        3S         -0.06321   0.04993   0.01541   0.04454   0.04819
  46        3PX         0.01026  -0.02725  -0.00673  -0.01959  -0.02817
  47        3PY        -0.03371   0.04546  -0.00206   0.02363   0.03491
  48        3PZ        -0.00515  -0.00480  -0.02093  -0.00133  -0.00244
  49 11  H  1S         -0.01303   0.00836  -0.00838   0.00506   0.00387
  50        2S         -0.00111   0.00763  -0.00788   0.00277   0.00138
  51 12  H  1S          0.01066  -0.02878  -0.00133  -0.00810  -0.01417
  52        2S          0.01615  -0.04185  -0.00244  -0.01417  -0.01775
  53 13  H  1S         -0.00418   0.01037   0.01702   0.00061  -0.00339
  54        2S          0.00362   0.00401   0.01238  -0.01090  -0.01916
                          21        22        23        24        25
  21 4   H  1S          0.18963
  22        2S          0.14178   0.12127
  23 5   H  1S         -0.02676  -0.05066   0.19108
  24        2S         -0.05852  -0.06025   0.16599   0.18912
  25 6   C  1S         -0.00884  -0.00525   0.00218  -0.00302   2.03872
  26        2S          0.00752   0.00850  -0.00247  -0.00293   0.11429
  27        2PX         0.01684   0.02945  -0.00660  -0.00615   0.00706
  28        2PY         0.01774   0.02950  -0.00517  -0.00137   0.00407
  29        2PZ         0.00468   0.00924   0.00456  -0.00972   0.00151
  30        3S          0.04454   0.04819  -0.02102  -0.00791  -0.40577
  31        3PX         0.01959   0.02817  -0.00689  -0.00528  -0.00114
  32        3PY         0.02363   0.03491  -0.00881   0.00113  -0.00066
  33        3PZ        -0.00133  -0.00244   0.01702   0.01238   0.01709
  34 7   H  1S         -0.00810  -0.01417   0.00061  -0.01090  -0.05511
  35        2S         -0.01417  -0.01775  -0.00339  -0.01916   0.01729
  36 8   H  1S          0.00506   0.00387  -0.00230  -0.00722  -0.05511
  37        2S          0.00277   0.00138  -0.00406  -0.01414   0.01729
  38 9   H  1S          0.00061  -0.00339   0.00225   0.02236  -0.05243
  39        2S         -0.01090  -0.01916   0.02236   0.05649   0.03189
  40 10  C  1S          0.00195  -0.00422   0.00218  -0.00302  -0.00634
  41        2S         -0.00087   0.00118  -0.00247  -0.00293  -0.00301
  42        2PX         0.00041   0.00633   0.00660   0.00615  -0.01124
  43        2PY        -0.00916  -0.00313  -0.00517  -0.00137   0.00025
  44        2PZ        -0.00375  -0.00060   0.00456  -0.00972   0.00061
  45        3S         -0.02195  -0.00536  -0.02102  -0.00791   0.04033
  46        3PX         0.00072   0.00606   0.00689   0.00528  -0.03184
  47        3PY        -0.01546  -0.00478  -0.00881   0.00113  -0.00915
  48        3PZ        -0.00838  -0.00788   0.01702   0.01238  -0.00715
  49 11  H  1S         -0.00106   0.00853  -0.00230  -0.00722  -0.00884
  50        2S          0.00853   0.01548  -0.00406  -0.01414  -0.00525
  51 12  H  1S          0.00506   0.00277   0.00061  -0.01090   0.00195
  52        2S          0.00387   0.00138  -0.00339  -0.01916  -0.00422
  53 13  H  1S         -0.00230  -0.00406   0.00225   0.02236   0.00218
  54        2S         -0.00722  -0.01414   0.02236   0.05649  -0.00302
                          26        27        28        29        30
  26        2S          0.10344
  27        2PX        -0.00623   0.25762
  28        2PY        -0.00360  -0.02281   0.28396
  29        2PZ         0.00076  -0.01588  -0.00917   0.28696
  30        3S          0.23053  -0.04553  -0.02629  -0.02343   0.79130
  31        3PX        -0.00477   0.19486  -0.03466  -0.02909  -0.01207
  32        3PY        -0.00275  -0.03466   0.23488  -0.01679  -0.00697
  33        3PZ        -0.01009  -0.03569  -0.02060   0.20915  -0.04869
  34 7   H  1S          0.05394   0.00765  -0.19859   0.07691   0.16447
  35        2S          0.01480   0.01039  -0.16589   0.07243   0.03186
  36 8   H  1S          0.05394  -0.16816   0.10592   0.07691   0.16447
  37        2S          0.01480  -0.13847   0.09194   0.07243   0.03186
  38 9   H  1S          0.04786   0.00603   0.00348  -0.21295   0.16590
  39        2S         -0.00034  -0.00120  -0.00069  -0.20938   0.00869
  40 10  C  1S         -0.00301   0.01124   0.00025   0.00061   0.04033
  41        2S         -0.00025  -0.00880  -0.00066  -0.00073  -0.01620
[...]
   zz         0.382501D+02      0.566808D+01      0.630658D+01

 First dipole hyperpolarizability, Beta (input orientation).
 ||, _|_  parallel and perpendicular components, (z) with respect to z axis,
 vector components x,y,z.  Values do not include the 1/n! factor of 1/2.
 (esu units = statvolt**-1 cm**4 , SI units = C**3 m**3 J**-2)
 Beta(0;0,0):
               (au)            (10**-30 esu)      (10**-50 SI)
   || (z)     0.547489D-01      0.472988D-03      0.175545D-03
   _|_(z)     0.182496D-01      0.157663D-03      0.585149D-04
   x          0.149736D+03      0.129360D+01      0.480107D+00
   y         -0.193818D-02     -0.167443D-04     -0.621449D-05
   z          0.273744D+00      0.236494D-02      0.877723D-03
   ||         0.299472D+02      0.258720D+00      0.960215D-01
   xxx        0.788791D+02      0.681454D+00      0.252915D+00
   xxy       -0.143238D-02     -0.123746D-04     -0.459272D-05
   yxy       -0.144837D+02     -0.125128D+00     -0.464400D-01
   yyy        0.108948D+02      0.941229D-01      0.349328D-01
   xxz        0.197164D+00      0.170334D-02      0.632179D-03
   yxz        0.199141D-01      0.172042D-03      0.638516D-04
   yyz       -0.535706D-02     -0.462808D-04     -0.171767D-04
   zxz       -0.144835D+02     -0.125126D+00     -0.464393D-01
   zyz       -0.108940D+02     -0.941161D-01     -0.349303D-01
   zzz       -0.100559D+00     -0.868751D-03     -0.322428D-03

 ----------------------------------------------------------------------

 Dipole orientation:
     7          0.00108009          3.23216128          0.77054496
     6          0.00276725          0.56827956          1.51635182
     1         -1.65531793         -0.35458413          0.75005763
     1          1.66202009         -0.35248311          0.75005763
     1          0.00293027          0.31088395          3.56548361
     6         -2.30675272          4.56264102          1.51635182
     1         -2.27693353          6.46001675          0.75005763
     1         -3.93378300          3.58606724          0.75005763
     1         -2.52974537          4.69119764          3.56548361
     6          2.30722576          4.56556326          1.51635182
     1          3.93549175          3.59105121          0.75005763
     1          2.27500320          6.46289970          0.75005763
     1          2.53005538          4.69440224          3.56548361

 Electric dipole moment (dipole orientation):
 (Debye = 10**-18 statcoulomb cm , SI units = C m)
                  (au)            (Debye)         (10**-30 SI)
   Tot        0.349364D+00      0.887994D+00      0.296203D+01
   x          0.000000D+00      0.000000D+00      0.000000D+00
   y          0.000000D+00      0.000000D+00      0.000000D+00
   z          0.349364D+00      0.887994D+00      0.296203D+01

 Dipole polarizability, Alpha (dipole orientation).
 (esu units = cm**3 , SI units = C**2 m**2 J**-1)
 Alpha(0;0):
               (au)            (10**-24 esu)      (10**-40 SI)
   iso        0.361601D+02      0.535837D+01      0.596199D+01
   aniso      0.627004D+01      0.929125D+00      0.103379D+01
   xx         0.382501D+02      0.566808D+01      0.630659D+01
   yx         0.000000D+00      0.000000D+00      0.000000D+00
   yy         0.382501D+02      0.566808D+01      0.630659D+01
   zx         0.000000D+00      0.000000D+00      0.000000D+00
   zy         0.000000D+00      0.000000D+00      0.000000D+00
   zz         0.319800D+02      0.473895D+01      0.527280D+01

 First dipole hyperpolarizability, Beta (dipole orientation).
 ||, _|_  parallel and perpendicular components, (z) with respect to z axis,
 vector components x,y,z.  Values do not include the 1/n! factor of 1/2.
 (esu units = statvolt**-1 cm**4 , SI units = C**3 m**3 J**-2)
 Beta(0;0,0):
               (au)            (10**-30 esu)      (10**-50 SI)
   || (z)     0.299472D+02      0.258720D+00      0.960215D-01
   _|_(z)     0.998239D+01      0.862401D-01      0.320072D-01
   x          0.000000D+00      0.000000D+00      0.000000D+00
   y          0.000000D+00      0.000000D+00      0.000000D+00
   z          0.149736D+03      0.129360D+01      0.480107D+00
   ||         0.299472D+02      0.258720D+00      0.960215D-01
   xxx        0.206995D-01      0.178828D-03      0.663701D-04
   xxy       -0.108943D+02     -0.941180D-01     -0.349310D-01
   yxy       -0.206995D-01     -0.178828D-03     -0.663701D-04
   yyy        0.108943D+02      0.941180D-01      0.349310D-01
   xxz       -0.144838D+02     -0.125129D+00     -0.464404D-01
   yxz        0.000000D+00      0.000000D+00      0.000000D+00
   yyz       -0.144838D+02     -0.125129D+00     -0.464404D-01
   zxz        0.000000D+00      0.000000D+00      0.000000D+00
   zyz        0.000000D+00      0.000000D+00      0.000000D+00
   zzz        0.788796D+02      0.681458D+00      0.252917D+00

 ----------------------------------------------------------------------
 1\1\GINC-IISERK51\Freq\RHF\3-21G\C3H9N1\GAUSSIAN\16-Jun-2025\0\\#N Geo
 m=AllCheck Guess=TCheck SCRF=Check GenChk RHF/3-21G Freq\\TMA opt\\0,1
 \N,0.4077772926,1.710380819,0.0001960284\C,0.8024240481,0.3007102243,0
 .0000064963\H,0.3953089118,-0.1876542958,0.8766782649\H,0.3985182255,-
 0.1865198034,-0.8787784688\H,1.8867744793,0.1644883003,0.0019008625\C,
 0.8002170543,2.4144194891,1.2221771525\H,0.3947541333,3.4184729417,1.2
 056691996\H,0.3931315944,1.8976330284,2.0824150328\H,1.8843542364,2.48
 24331643,1.3421628572\C,0.8046807851,2.4159974181,-1.2194310112\H,0.40
 07446174,1.9003242322,-2.0818188394\H,0.3991578427,3.4200296531,-1.203
 1079389\H,1.889249272,2.4841635595,-1.3353638951\\Version=EM64L-G16Rev
 B.01\State=1-A1\HF=-172.3102695\RMSD=7.273e-10\RMSF=1.651e-05\ZeroPoin
 t=0.1290784\Thermal=0.1343923\Dipole=0.3493631,-0.0000045,0.0006387\Di
 poleDeriv=-0.7334492,0.0000016,-0.0002175,0.0000015,-0.6145044,0.,-0.0
 002174,0.,-0.6145049,0.4280221,-0.0133333,0.0005436,-0.0615438,0.50082
 13,0.0001298,0.0005124,0.0002179,0.1259806,0.0271393,-0.0225363,0.0749
 975,-0.0194227,-0.0059795,0.0793076,0.0829916,0.1232954,-0.0847491,0.0
 277156,-0.0219888,-0.0746145,-0.0190258,-0.0057177,-0.0792754,-0.08260
 47,-0.1232743,-0.0855872,-0.2383955,0.1037659,-0.0004339,-0.0198621,-0
 .0707722,-0.0001051,-0.0005139,0.0001209,0.0356751,0.4279058,0.0063602
 ,0.0115915,0.0304385,0.2194796,0.1622454,0.0533586,0.1622008,0.4074387
 ,0.0275086,0.0759138,-0.0181379,0.0814003,-0.1530389,-0.0382852,-0.024
 7609,0.0056984,0.0619409,0.0272167,-0.0538046,0.056906,-0.0623259,0.02
 22722,0.106961,0.0582645,0.062983,-0.1130783,-0.2382644,-0.0517363,-0.
 0902509,0.0100085,0.0091243,-0.0460391,0.0168542,-0.0461534,-0.0443525
 ,0.4281429,0.0069686,-0.0115064,0.0311009,0.2198992,-0.1623752,-0.0532
 424,-0.1624188,0.406782,0.0276362,-0.053501,-0.0564604,-0.0618597,0.02
 24919,-0.1070125,-0.0578298,-0.0630037,-0.1137175,0.0273519,0.0759112,
 0.0181094,0.0812282,-0.153081,0.0383045,0.0247394,-0.0056989,0.0621398
 ,-0.2385301,-0.052021,0.0894736,0.0098622,0.0090051,0.0461442,-0.01755
 16,0.0460325,-0.0439676\Polar=31.9800656,0.0000812,38.2500891,-0.01146
 28,0.0000001,38.2500682\PolarDeriv=-0.7252975,-0.0000856,-4.2368621,0.
 0103517,0.0068689,-4.2369061,-0.0000585,-2.1505309,3.7573508,0.006869,
 0.0033532,-3.7571728,0.0065369,0.0068683,-0.0004614,-2.1505761,-3.7572
 002,-0.0228939,-4.1872603,2.4591104,2.5930405,-0.0163965,-0.0033293,2.
 9185177,1.3910842,0.6778721,-2.6802704,-0.0019352,-0.0042983,1.7233687
 ,-0.0167461,-0.0044466,-0.0023751,2.7321633,4.1651473,0.0218231,-1.467
 1309,-1.8414923,-1.0692615,2.0079474,0.3266053,-1.0223073,-0.3458747,-
 1.6572733,-3.3901124,0.5056869,2.9618879,-1.1206589,0.6759531,0.385358
 2,1.6300425,-1.7901656,-2.7702903,4.8165531,-1.4499984,-1.8363081,-1.0
 624594,-2.00539,-0.3232532,-1.0201639,-0.3413188,-1.6452862,-3.3803412
 ,-0.5026611,-2.9672672,-1.1257674,-0.6686636,-0.3817733,-1.6311509,-1.
 7834508,-2.7725783,-4.8419699,7.3460671,-2.4869514,1.6701201,0.0088668
 ,-0.0007398,-0.1829483,-0.7401979,3.0996692,-1.7933355,-0.0003266,0.00
 54958,-0.1021747,0.00637,-0.0010982,0.0037385,1.8000527,-1.4268636,0.0
 043369,-4.1773938,-1.2261113,2.8350572,-2.1450694,-0.1479538,2.6673144
 ,-0.6913477,2.2213019,-3.434958,-0.8972382,-0.852583,3.909432,-1.21710
 84,-0.895971,1.2639838,1.1850418,2.6912984,-0.420622,-1.4605256,2.6575
 955,-1.3143808,0.5920218,-0.1811658,-0.7717586,0.7543797,-2.1392938,7.
 6945885,-0.1023768,1.2310716,0.1533557,-0.0360415,-0.2231262,0.4708831
 ,-1.3002928,2.1318864,0.2001726,-1.4691943,-0.8209565,-0.7512903,2.598
 8831,0.1453428,-1.3393648,-0.4116818,-1.3728112,-1.8532447,0.2227318,2
 .1466072,-1.4906543,0.6383369,0.3431991,0.0535476,-2.0762236,-1.823067
 8,7.0673126,7.3371323,1.2395064,0.2795467,2.1606889,0.8035361,1.212433
 6,0.3675781,2.1224248,1.3313764,0.5636812,0.9887591,-0.3827471,0.64454
 07,0.5640706,-0.1622283,2.7772969,0.2792609,1.8171755,-4.1973716,-1.23
 26313,2.8393165,2.1140338,0.1338236,2.6816578,-0.6994095,2.2158941,-3.
 4355216,0.8817138,0.8477162,3.9175709,1.1921855,0.8829581,-1.2650106,1
 .1979387,2.6939667,0.4511331,-1.4478944,-0.8158314,-0.7507237,-2.59282
 14,-0.1409213,-1.3328281,-0.4092517,-1.3642313,-1.8476221,-0.2178797,-
 2.1497239,-1.4886665,-0.6290662,-0.3386277,-0.0539784,-2.0628679,-1.81
 85318,-7.0939644,-1.4563582,2.656875,-1.3131284,-0.5863364,0.182389,-0
 .7748533,0.7535771,-2.135213,7.6983808,0.1034956,-1.2318903,0.151188,0
 .0411953,0.2239667,-0.4712493,-1.3011399,2.1314308,-0.2068047,7.355225
 9,1.2472809,0.2810251,-2.1467798,-0.8012023,1.2012072,0.3725218,2.1274
 771,1.3337091,-0.5617606,-0.9791283,-0.3870732,-0.637493,-0.5613783,0.
 1642581,2.7722222,0.2755415,-1.7922519\HyperPolar=78.8790812,-0.001432
 4,-14.483705,10.8948339,0.1971641,0.0199141,-0.0053571,-14.483501,-10.
 8940476,-0.1005589\Quadrupole=-2.0087537,1.0043819,1.0043718,0.000039,
 -0.0055086,0.\PG=C03V [C3(N1),3SGV(C1H1),X(H6)]\NImag=0\\0.23866529,0.
 00000476,0.60603700,-0.00067162,0.,0.60603576,-0.08027848,0.06452321,0
 .00010229,0.59664322,0.00559510,-0.21969060,-0.00005845,0.04787626,0.5
 4660314,0.00006421,0.00004928,-0.11342248,-0.00013929,-0.00000499,0.68
 975441,0.00497901,0.00764555,-0.01226202,-0.10372579,-0.04944449,0.090
 77122,0.10680210,-0.01054467,-0.02483477,0.03616113,-0.04533034,-0.107
 65820,0.09135613,0.04822433,0.12739943,-0.00266109,-0.00085180,-0.0004
 6647,0.08797784,0.10004089,-0.24673868,-0.09860694,-0.11051630,0.26685
 383,0.00492438,0.00762658,0.01229169,-0.10307391,-0.04896167,-0.090309
 06,0.00657046,0.00784110,0.01310444,0.10608293,-0.01041577,-0.02478909
 ,-0.03623092,-0.04488293,-0.10741082,-0.09134054,0.00780745,0.00894204
 ,0.01385178,0.04769314,0.12711375,0.00266734,0.00084825,-0.00045752,-0
 .08751039,-0.10004029,-0.24763794,-0.01297961,-0.01377956,-0.02480322,
 0.09808056,0.11051057,0.26785868,-0.00917824,0.01264543,-0.00001204,-0
 .30523625,0.01678030,-0.00042583,-0.01561560,0.00006595,-0.00009332,-0
 .01549280,0.00005561,0.00003304,0.34199510,0.04750708,-0.02224433,0.00
 007126,0.01659916,-0.06422155,0.00003174,-0.01700587,0.00251760,-0.001
 18526,-0.01696660,0.00251248,0.00112517,-0.03109802,0.07413105,0.00001
 049,0.00000753,0.00187925,-0.00042595,0.00003207,-0.06637985,0.0336070
 0,-0.00280399,0.00101066,-0.03368931,0.00280623,0.00089298,0.00049568,
 -0.00004764,0.05987060,-0.08016896,-0.03214303,-0.05569511,-0.00359876
 ,0.01412317,0.00947606,-0.00001025,-0.00179814,0.00008247,0.00029271,0
 .00159920,0.00029963,0.00114412,0.00331443,0.00257801,0.59679278,-0.00
 271197,-0.13992950,-0.04598494,-0.01517880,-0.03039806,-0.04162401,-0.
 00017836,0.00070745,-0.00121848,0.00222145,-0.00668117,0.00055456,-0.0
 0092817,0.00369829,0.00103048,-0.02379760,0.65404779,-0.00464276,-0.04
 603941,-0.19329310,-0.00750265,-0.00716472,-0.00231147,0.00035918,0.00
 265399,0.00070198,0.00010467,0.00322899,0.00162594,-0.00106547,0.00448
 618,0.00106615,-0.04145234,-0.06198268,0.58216021,0.00493342,-0.014381
 40,-0.00046871,0.00029905,-0.00119918,-0.00186089,-0.00007565,0.000286
 23,-0.00021223,0.00044181,-0.00052397,-0.00015648,0.00039588,-0.000632
 62,-0.00027586,-0.10338209,0.10297954,-0.00267233,0.10641022,0.0029271
 7,-0.02182950,-0.00086386,-0.00105529,0.00119079,-0.00398269,0.0000135
 3,0.00053896,-0.00002987,0.00039971,-0.00107005,-0.00036481,0.00033566
 ,-0.00014317,-0.00002526,0.09852707,-0.29516943,0.00830537,-0.10913925
 ,0.32805059,0.01042467,-0.03794171,-0.00342616,-0.00122853,-0.00130739
 ,-0.00625236,-0.00036950,0.00002572,0.00044022,0.00037918,-0.00187685,
 0.00022059,0.00023962,-0.00012211,-0.00002418,-0.00482467,0.01700579,-
 0.05957114,0.00764068,-0.00543773,0.06659455,0.00496094,0.00679175,-0.
 01267659,-0.00001294,-0.00022649,0.00033614,0.00026646,0.00026383,0.00
 006390,-0.00007571,0.00031257,-0.00019662,-0.00024599,-0.00014063,0.00
 018908,-0.10371222,-0.05405551,0.08806965,0.00659504,0.00738927,-0.013
 28073,0.10677445,0.00757918,0.00875772,-0.02018875,0.00082492,0.001324
 95,-0.00157212,-0.00018664,0.00003933,-0.00000537,0.00004029,0.0004635
 5,0.00001358,-0.00009420,-0.00031991,0.00011966,-0.05369491,-0.1295390
 0,0.11262844,-0.01525878,-0.01638573,0.02838953,0.06145953,0.13677141,
 0.00782012,0.01685562,-0.03404089,0.00159585,0.00230138,0.00008717,-0.
 00019525,-0.00125989,0.00076749,-0.00035459,0.00006917,0.00051568,0.00
 008517,-0.00050292,-0.00000438,0.08312407,0.10393559,-0.22487146,-0.00
 025384,0.00079903,0.00049997,-0.09094293,-0.11588718,0.25750950,-0.009
 08413,-0.00629657,-0.01094257,0.00114920,0.00137797,0.00027208,-0.0002
 4610,-0.00002631,0.00012384,0.00039538,-0.00037421,-0.00017090,0.00046
 478,-0.00206677,-0.00049372,-0.30518400,-0.00837781,-0.01497444,-0.015
 54966,-0.00008617,-0.00005011,-0.01561173,0.00002366,-0.00011952,0.341
 89777,-0.02370787,-0.00413759,-0.01048089,-0.00389315,0.00410253,0.000
 79243,-0.00009378,-0.00024881,0.00007873,0.00055552,-0.00011723,-0.000
 03979,0.00145861,0.00041386,0.00048523,-0.00828734,-0.06584059,0.00091
 877,0.03763051,0.00305465,0.00256200,-0.02066510,-0.00037137,-0.001178
 45,0.01551498,0.06342647,-0.04114496,-0.01044867,-0.01632161,-0.001592
 62,0.00424998,0.00065679,0.00021691,-0.00054364,-0.00007537,0.00041127
 ,-0.00013658,-0.00004962,0.00154556,-0.00034433,0.00033403,-0.01481751
 ,0.00091861,-0.06481306,-0.00211826,0.00084356,0.00040767,0.03148599,0
 .00050847,0.00389576,0.02743486,0.00619840,0.07067250,-0.08039100,-0.0
 3238352,0.05606600,-0.00359153,0.01410919,-0.00946261,0.00029420,0.001
 61141,-0.00030242,-0.00000863,-0.00178831,-0.00008738,0.00114960,0.003
 33415,-0.00257340,-0.00359524,0.00112249,-0.01688487,-0.00001212,0.000
 96631,0.00150866,0.00029981,-0.00053518,-0.00153527,0.00115205,0.00056
 844,-0.00417422,0.59648957,-0.00288648,-0.14004845,0.04604339,-0.01534
 050,-0.03046107,0.04153183,0.00222362,-0.00667628,-0.00055716,-0.00018
 235,0.00070931,0.00121783,-0.00092578,0.00370540,-0.00103045,0.0011634
 7,0.01178940,-0.01716402,0.00040665,0.00007956,-0.00229407,-0.00100783
 ,-0.00208666,-0.00588050,-0.00045618,-0.00066478,-0.00196185,-0.024077
 83,0.65388755,0.00505173,0.04599011,-0.19295209,0.00747813,0.00717996,
 -0.00225570,-0.00010666,-0.00323385,0.00161956,-0.00036201,-0.00266054
 ,0.00069849,0.00106458,-0.00447060,0.00105351,0.01703592,0.01724096,-0
 .04450245,-0.00002626,0.00158241,0.00133173,-0.00197238,-0.00320406,-0
 .00297567,0.00132726,0.00148785,0.00542129,0.04147350,0.06198767,0.582
 62365,0.00494263,0.00683675,0.01282792,-0.00000588,-0.00021764,-0.0003
 3677,-0.00007771,0.00031257,0.00019486,0.00026599,0.00025931,-0.000065
 40,-0.00024498,-0.00014222,-0.00019015,0.00028694,-0.00103189,0.001982
 97,-0.00007678,-0.00032624,-0.00014335,0.00044222,0.00012921,0.0005391
 2,0.00039531,0.00007696,0.00068742,-0.10308764,-0.05356176,-0.08769340
 ,0.10611114,0.00751522,0.00875330,0.02027164,0.00082122,0.00132589,0.0
 0157674,0.00003988,0.00046366,-0.00001350,-0.00018691,0.00003770,0.000
 00374,-0.00009365,-0.00032041,-0.00012041,-0.00054889,-0.00209840,0.00
 320320,-0.00032593,0.00046775,0.00001533,0.00012714,0.00086819,0.00075
 707,0.00003898,0.00000969,0.00003275,-0.05317577,-0.12925898,-0.112699
 83,0.06091844,0.13647175,-0.00766783,-0.01677539,-0.03401817,-0.001595
 12,-0.00230058,0.00007917,0.00035247,-0.00006810,0.00051758,0.00019318
 ,0.00125990,0.00076960,-0.00008616,0.00050199,-0.00000490,0.00154648,0
 .00587789,-0.00295106,0.00017153,0.00007042,0.00051256,-0.00053106,-0.
 00075326,-0.00171805,-0.00040904,-0.00006224,-0.00017648,-0.08274734,-
 0.10400835,-0.22577604,0.09046790,0.11595404,0.25847247,0.00496974,-0.
 01452060,0.00048064,0.00028767,-0.00120639,0.00188324,0.00044262,-0.00
 053103,0.00015661,-0.00007777,0.00028604,0.00021071,0.00039575,-0.0006
 3342,0.00027658,-0.00000668,0.00039823,0.00002188,0.00026622,-0.000073
 47,-0.00025781,-0.00007667,-0.00032565,-0.00017411,-0.00024560,0.00023
 555,0.00002812,-0.10340939,0.10303815,0.00264524,0.00654549,-0.0151551
 7,0.00025635,0.10646608,0.00293749,-0.02187960,0.00085074,-0.00107147,
 0.00118395,0.00398841,0.00039887,-0.00107294,0.00036460,0.00001295,0.0
 0053895,0.00003005,0.00033588,-0.00014336,0.00002633,0.00097405,0.0000
 7863,-0.00158048,-0.00007610,0.00113357,0.00062848,-0.00032616,0.00046
 787,-0.00007167,0.00012064,0.00008212,0.00027076,0.09855113,-0.2951368
 0,-0.00824957,0.00737500,-0.01634796,-0.00079384,-0.10914914,0.3280366
 1,-0.01039027,0.03786504,-0.00341238,0.00125106,0.00131260,-0.00623414
 ,-0.00037786,0.00187325,0.00022267,0.00036762,-0.00002455,0.00044235,-
 0.00023766,0.00011964,-0.00002386,-0.00151231,0.00229393,0.00132722,0.
 00025988,-0.00062687,-0.00032650,0.00014077,-0.00001658,0.00051233,0.0
 0003887,-0.00035152,-0.00040681,0.00479181,-0.01693364,-0.05957648,0.0
 1331244,-0.02846695,0.00051174,-0.00763599,0.00537662,0.06655267,-0.00
 927460,-0.00634891,0.01096012,0.00114441,0.00139386,-0.00026849,0.0003
 9625,-0.00037492,0.00017205,-0.00024486,-0.00002815,-0.00012450,0.0004
 6862,-0.00206866,0.00049154,0.00114165,-0.00046160,-0.00134349,-0.0002
 4536,0.00012167,-0.00003813,0.00039632,0.00003857,0.00041119,0.0004667
 2,0.00060666,0.00203743,-0.30528967,-0.00839318,0.01408433,-0.01549673
 ,0.00002542,0.00004865,-0.01555746,-0.00008312,-0.00000837,0.34209470,
 -0.02379924,-0.00416459,0.01040963,-0.00389228,0.00410905,-0.00080220,
 0.00055591,-0.00011746,0.00004174,-0.00009321,-0.00024941,-0.00007930,
 0.00146237,0.00041404,-0.00047978,0.00056850,-0.00066538,-0.00149364,0
 .00023430,0.00008201,0.00035301,0.00007762,0.00000966,0.00006277,0.000
 60779,0.00029103,0.00041252,-0.00830250,-0.06583817,-0.00095050,-0.020
 62850,-0.00037218,0.00109751,0.03763689,0.00305896,-0.00242097,0.01557
 236,0.06344244,0.04113997,0.01044114,-0.01610414,0.00158937,-0.0042404
 6,0.00065510,-0.00040892,0.00013512,-0.00005027,-0.00021765,0.00054332
 ,-0.00007601,-0.00154318,0.00033688,0.00033000,0.00415931,0.00195229,0
 .00543224,-0.00002723,-0.00026969,-0.00040694,-0.00068522,-0.00003237,
 -0.00017745,-0.00203661,-0.00041051,0.00045491,0.01392751,-0.00095066,
 -0.06470980,-0.03158358,-0.00051382,0.00378158,0.00210854,-0.00084045,
 0.00041116,-0.02642231,-0.00615078,0.07045962\\0.00000192,0.,0.,0.0000
 0080,0.00004190,0.00000003,0.00001134,0.00000574,-0.00001607,0.0000112
 8,0.00000572,0.00001612,-0.00002406,0.00001914,-0.00000003,0.00000087,
 -0.00002093,-0.00003630,0.00001131,-0.00001680,0.00000310,0.00001133,0
 .00001108,-0.00001298,-0.00002403,-0.00000956,-0.00001663,0.00000073,-
 0.00002097,0.00003628,0.00001129,0.00001106,0.00001303,0.00001132,-0.0
 0001680,-0.00000308,-0.00002409,-0.00000958,0.00001653\\\@


 THE WHOLE OF SCIENCE IS NOTHING MORE THAN A REFINEMENT OF EVERYDAY THINKING.
                                                              -- A. EINSTEIN
 Job cpu time:       0 days  0 hours  0 minutes  1.3 seconds.
 Elapsed time:       0 days  0 hours  0 minutes  1.3 seconds.
 File lengths (MBytes):  RWF=      6 Int=      0 D2E=      0 Chk=      2 Scr=      1
 Normal termination of Gaussian 16 at Mon Jun 16 16:06:03 2025.
