 Entering Gaussian System, Link 0=g16
 Input=/home/gaussian/Documents/Summer_Internship/Acid_Base_adduct/Base/tri_methyl_ammine/TMA_ion_opt.com
 Output=/home/gaussian/Documents/Summer_Internship/Acid_Base_adduct/Base/tri_methyl_ammine/TMA_ion_opt.log
 Initial command:
 /usr/local/g16/l1.exe "/home/gaussian/tmp/Gau-72997.inp" -scrdir="/home/gaussian/tmp/"
 Entering Link 1 = /usr/local/g16/l1.exe PID=     73000.
  
 Copyright (c) 1988-2017, Gaussian, Inc.  All Rights Reserved.
  
 This is part of the Gaussian(R) 16 program.  It is based on
 the Gaussian(R) 09 system (copyright 2009, Gaussian, Inc.),
 the Gaussian(R) 03 system (copyright 2003, Gaussian, Inc.),
 the Gaussian(R) 98 system (copyright 1998, Gaussian, Inc.),
 the Gaussian(R) 94 system (copyright 1995, Gaussian, Inc.),
 the Gaussian 92(TM) system (copyright 1992, Gaussian, Inc.),
 the Gaussian 90(TM) system (copyright 1990, Gaussian, Inc.),
 the Gaussian 88(TM) system (copyright 1988, Gaussian, Inc.),
 the Gaussian 86(TM) system (copyright 1986, Carnegie Mellon
 University), and the Gaussian 82(TM) system (copyright 1983,
 Carnegie Mellon University). Gaussian is a federally registered
 trademark of Gaussian, Inc.
  
 This software contains proprietary and confidential information,
 including trade secrets, belonging to Gaussian, Inc.
  
 This software is provided under written license and may be
 used, copied, transmitted, or stored only in accord with that
 written license.
  
 The following legend is applicable only to US Government
 contracts under FAR:
  
                    RESTRICTED RIGHTS LEGEND
  
 Use, reproduction and disclosure by the US Government is
 subject to restrictions as set forth in subparagraphs (a)
 and (c) of the Commercial Computer Software - Restricted
 Rights clause in FAR 52.227-19.
  
 Gaussian, Inc.
 340 Quinnipiac St., Bldg. 40, Wallingford CT 06492
  
  
 ---------------------------------------------------------------
 Warning -- This program may not be used in any manner that
 competes with the business of Gaussian, Inc. or will provide
 assistance to any competitor of Gaussian, Inc.  The licensee
 of this program is prohibited from giving any competitor of
 Gaussian, Inc. access to this program.  By using this program,
 the user acknowledges that Gaussian, Inc. is engaged in the
 business of creating and licensing software in the field of
 computational chemistry and represents and warrants to the
 licensee that it is not a competitor of Gaussian, Inc. and that
 it will not use this program in any manner prohibited above.
 ---------------------------------------------------------------
  

 Cite this work as:
 Gaussian 16, Revision B.01,
 M. J. Frisch, G. W. Trucks, H. B. Schlegel, G. E. Scuseria, 
 M. A. Robb, J. R. Cheeseman, G. Scalmani, V. Barone, 
 G. A. Petersson, H. Nakatsuji, X. Li, M. Caricato, A. V. Marenich, 
 J. Bloino, B. G. Janesko, R. Gomperts, B. Mennucci, H. P. Hratchian, 
 J. V. Ortiz, A. F. Izmaylov, J. L. Sonnenberg, D. Williams-Young, 
 F. Ding, F. Lipparini, F. Egidi, J. Goings, B. Peng, A. Petrone, 
 T. Henderson, D. Ranasinghe, V. G. Zakrzewski, J. Gao, N. Rega, 
 G. Zheng, W. Liang, M. Hada, M. Ehara, K. Toyota, R. Fukuda, 
 J. Hasegawa, M. Ishida, T. Nakajima, Y. Honda, O. Kitao, H. Nakai, 
 T. Vreven, K. Throssell, J. A. Montgomery, Jr., J. E. Peralta, 
 F. Ogliaro, M. J. Bearpark, J. J. Heyd, E. N. Brothers, K. N. Kudin, 
 V. N. Staroverov, T. A. Keith, R. Kobayashi, J. Normand, 
 K. Raghavachari, A. P. Rendell, J. C. Burant, S. S. Iyengar, 
 J. Tomasi, M. Cossi, J. M. Millam, M. Klene, C. Adamo, R. Cammi, 
 J. W. Ochterski, R. L. Martin, K. Morokuma, O. Farkas, 
 J. B. Foresman, and D. J. Fox, Gaussian, Inc., Wallingford CT, 2016.
 
 ******************************************
 Gaussian 16:  EM64L-G16RevB.01 20-Dec-2017
                16-Jun-2025 
 ******************************************
 %chk=TMA_ion_opt.chk
 ----------------------------------------------
 # opt freq hf/3-21g pop=full geom=connectivity
 ----------------------------------------------
 1/18=20,19=15,38=1,57=2/1,3;
 2/9=110,12=2,17=6,18=5,40=1/2;
 3/5=5,11=9,25=1,30=1,71=1/1,2,3;
 4//1;
 5/5=2,38=5/2;
 6/7=3,28=1/1;
 7//1,2,3,16;
 1/18=20,19=15/3(2);
 2/9=110/2;
 99//99;
 2/9=110/2;
 3/5=5,11=9,25=1,30=1,71=1/1,2,3;
 4/5=5,16=3,69=1/1;
 5/5=2,38=5/2;
 7//1,2,3,16;
 1/18=20,19=15/3(-5);
 2/9=110/2;
 6/7=3,19=2,28=1/1;
 99/9=1/99;
 --------
 TMA+ opt
 --------
 Symbolic Z-matrix:
 Charge =  1 Multiplicity = 1
 N                     0.00018   0.00055   0.4371 
 C                    -0.00024   1.38584  -0.0547 
 H                    -0.87382   1.89058   0.30168 
 H                     0.87349   1.89084   0.30095 
 H                    -0.00068   1.38446  -1.1247 
 C                    -1.20017  -0.69323  -0.0515 
 H                    -1.19987  -1.70157   0.30647 
 H                    -2.07375  -0.1885    0.30487 
 H                    -1.20062  -0.69462  -1.1215 
 C                     1.20033  -0.69287  -0.0525 
 H                     2.07405  -0.18787   0.30315 
 H                     1.20063  -1.70121   0.30548 
 H                     1.19988  -0.69426  -1.1225 
 H                     0.00059   0.00185   1.4371 
 

 GradGradGradGradGradGradGradGradGradGradGradGradGradGradGradGradGradGrad
 Berny optimization.
 Initialization pass.
                           ----------------------------
                           !    Initial Parameters    !
                           ! (Angstroms and Degrees)  !
 --------------------------                            --------------------------
 ! Name  Definition              Value          Derivative Info.                !
 --------------------------------------------------------------------------------
 ! R1    R(1,2)                  1.47           estimate D2E/DX2                !
 ! R2    R(1,6)                  1.47           estimate D2E/DX2                !
 ! R3    R(1,10)                 1.47           estimate D2E/DX2                !
 ! R4    R(1,14)                 1.0            estimate D2E/DX2                !
 ! R5    R(2,3)                  1.07           estimate D2E/DX2                !
 ! R6    R(2,4)                  1.07           estimate D2E/DX2                !
 ! R7    R(2,5)                  1.07           estimate D2E/DX2                !
 ! R8    R(6,7)                  1.07           estimate D2E/DX2                !
 ! R9    R(6,8)                  1.07           estimate D2E/DX2                !
 ! R10   R(6,9)                  1.07           estimate D2E/DX2                !
 ! R11   R(10,11)                1.07           estimate D2E/DX2                !
 ! R12   R(10,12)                1.07           estimate D2E/DX2                !
 ! R13   R(10,13)                1.07           estimate D2E/DX2                !
 ! A1    A(2,1,6)              109.4712         estimate D2E/DX2                !
 ! A2    A(2,1,10)             109.4712         estimate D2E/DX2                !
 ! A3    A(2,1,14)             109.4712         estimate D2E/DX2                !
 ! A4    A(6,1,10)             109.4712         estimate D2E/DX2                !
 ! A5    A(6,1,14)             109.4712         estimate D2E/DX2                !
 ! A6    A(10,1,14)            109.4712         estimate D2E/DX2                !
 ! A7    A(1,2,3)              109.4712         estimate D2E/DX2                !
 ! A8    A(1,2,4)              109.4712         estimate D2E/DX2                !
 ! A9    A(1,2,5)              109.4712         estimate D2E/DX2                !
 ! A10   A(3,2,4)              109.4712         estimate D2E/DX2                !
 ! A11   A(3,2,5)              109.4712         estimate D2E/DX2                !
 ! A12   A(4,2,5)              109.4712         estimate D2E/DX2                !
 ! A13   A(1,6,7)              109.4712         estimate D2E/DX2                !
 ! A14   A(1,6,8)              109.4712         estimate D2E/DX2                !
 ! A15   A(1,6,9)              109.4712         estimate D2E/DX2                !
 ! A16   A(7,6,8)              109.4712         estimate D2E/DX2                !
 ! A17   A(7,6,9)              109.4712         estimate D2E/DX2                !
 ! A18   A(8,6,9)              109.4712         estimate D2E/DX2                !
 ! A19   A(1,10,11)            109.4712         estimate D2E/DX2                !
 ! A20   A(1,10,12)            109.4712         estimate D2E/DX2                !
 ! A21   A(1,10,13)            109.4712         estimate D2E/DX2                !
 ! A22   A(11,10,12)           109.4712         estimate D2E/DX2                !
 ! A23   A(11,10,13)           109.4712         estimate D2E/DX2                !
 ! A24   A(12,10,13)           109.4712         estimate D2E/DX2                !
 ! D1    D(6,1,2,3)             60.0            estimate D2E/DX2                !
 ! D2    D(6,1,2,4)            180.0            estimate D2E/DX2                !
 ! D3    D(6,1,2,5)            -60.0            estimate D2E/DX2                !
 ! D4    D(10,1,2,3)           180.0            estimate D2E/DX2                !
 ! D5    D(10,1,2,4)           -60.0            estimate D2E/DX2                !
 ! D6    D(10,1,2,5)            60.0            estimate D2E/DX2                !
 ! D7    D(14,1,2,3)           -60.0            estimate D2E/DX2                !
 ! D8    D(14,1,2,4)            60.0            estimate D2E/DX2                !
 ! D9    D(14,1,2,5)           180.0            estimate D2E/DX2                !
 ! D10   D(2,1,6,7)            180.0            estimate D2E/DX2                !
 ! D11   D(2,1,6,8)            -60.0            estimate D2E/DX2                !
 ! D12   D(2,1,6,9)             60.0            estimate D2E/DX2                !
 ! D13   D(10,1,6,7)            60.0            estimate D2E/DX2                !
 ! D14   D(10,1,6,8)          -180.0            estimate D2E/DX2                !
 ! D15   D(10,1,6,9)           -60.0            estimate D2E/DX2                !
 ! D16   D(14,1,6,7)           -60.0            estimate D2E/DX2                !
 ! D17   D(14,1,6,8)            60.0            estimate D2E/DX2                !
 ! D18   D(14,1,6,9)           180.0            estimate D2E/DX2                !
 ! D19   D(2,1,10,11)           60.0            estimate D2E/DX2                !
 ! D20   D(2,1,10,12)          180.0            estimate D2E/DX2                !
 ! D21   D(2,1,10,13)          -60.0            estimate D2E/DX2                !
 ! D22   D(6,1,10,11)         -180.0            estimate D2E/DX2                !
 ! D23   D(6,1,10,12)          -60.0            estimate D2E/DX2                !
 ! D24   D(6,1,10,13)           60.0            estimate D2E/DX2                !
 ! D25   D(14,1,10,11)         -60.0            estimate D2E/DX2                !
 ! D26   D(14,1,10,12)          60.0            estimate D2E/DX2                !
 ! D27   D(14,1,10,13)         180.0            estimate D2E/DX2                !
 --------------------------------------------------------------------------------
 Trust Radius=3.00D-01 FncErr=1.00D-07 GrdErr=1.00D-07 EigMax=2.50D+02 EigMin=1.00D-04
 Number of steps in this run=     74 maximum allowed number of steps=    100.
 GradGradGradGradGradGradGradGradGradGradGradGradGradGradGradGradGradGrad

                          Input orientation:                          
 ---------------------------------------------------------------------
 Center     Atomic      Atomic             Coordinates (Angstroms)
 Number     Number       Type             X           Y           Z
 ---------------------------------------------------------------------
      1          7           0        0.000176    0.000551    0.437099
      2          6           0       -0.000237    1.385844   -0.054698
      3          1           0       -0.873816    1.890577    0.301677
      4          1           0        0.873486    1.890840    0.300952
      5          1           0       -0.000681    1.384456   -1.124697
      6          6           0       -1.200172   -0.693230   -0.051503
      7          1           0       -1.199871   -1.701572    0.306472
      8          1           0       -2.073752   -0.188496    0.304872
      9          1           0       -1.200616   -0.694618   -1.121502
     10          6           0        1.200328   -0.692867   -0.052500
     11          1           0        2.074051   -0.187871    0.303150
     12          1           0        1.200628   -1.701210    0.305475
     13          1           0        1.199884   -0.694255   -1.122499
     14          1           0        0.000591    0.001848    1.437099
 ---------------------------------------------------------------------
                    Distance matrix (angstroms):
                    1          2          3          4          5
     1  N    0.000000
     2  C    1.470000   0.000000
     3  H    2.086720   1.070000   0.000000
     4  H    2.086720   1.070000   1.747303   0.000000
     5  H    2.086720   1.070000   1.747303   1.747303   0.000000
     6  C    1.470000   2.400500   2.628174   3.331921   2.628174
     7  H    2.086720   3.331921   3.606919   4.147803   3.606919
     8  H    2.086720   2.628174   2.400500   3.606919   2.969085
     9  H    2.086720   2.628174   2.969085   3.606919   2.400500
    10  C    1.470000   2.400500   3.331921   2.628174   2.628174
    11  H    2.086720   2.628174   3.606919   2.400500   2.969085
    12  H    2.086720   3.331921   4.147803   3.606919   3.606919
    13  H    2.086720   2.628174   3.606919   2.969085   2.400500
    14  H    1.000000   2.034920   2.370879   2.370879   2.911082
                    6          7          8          9         10
     6  C    0.000000
     7  H    1.070000   0.000000
     8  H    1.070000   1.747303   0.000000
     9  H    1.070000   1.747303   1.747303   0.000000
    10  C    2.400500   2.628174   3.331921   2.628174   0.000000
    11  H    3.331921   3.606919   4.147803   3.606919   1.070000
    12  H    2.628174   2.400500   3.606919   2.969085   1.070000
    13  H    2.628174   2.969085   3.606919   2.400500   1.070000
    14  H    2.034920   2.370879   2.370879   2.911082   2.034920
                   11         12         13         14
    11  H    0.000000
    12  H    1.747303   0.000000
    13  H    1.747303   1.747303   0.000000
    14  H    2.370879   2.370879   2.911082   0.000000
 Stoichiometry    C3H10N(1+)
 Framework group  C3V[C3(NH),3SGV(CH),X(H6)]
 Deg. of freedom     8
 Full point group                 C3V     NOp   6
 Largest Abelian subgroup         CS      NOp   2
 Largest concise Abelian subgroup CS      NOp   2
                         Standard orientation:                         
 ---------------------------------------------------------------------
 Center     Atomic      Atomic             Coordinates (Angstroms)
 Number     Number       Type             X           Y           Z
 ---------------------------------------------------------------------
      1          7           0       -0.000000   -0.000000    0.380000
      2          6           0        0.000000    1.385929   -0.110000
      3          1           0       -0.873651    1.890332    0.246667
      4          1           0        0.873651    1.890332    0.246667
      5          1           0        0.000000    1.385929   -1.180000
      6          6           0       -1.200250   -0.692965   -0.110000
      7          1           0       -1.200250   -1.701770    0.246667
      8          1           0       -2.073901   -0.188562    0.246667
      9          1           0       -1.200250   -0.692965   -1.180000
     10          6           0        1.200250   -0.692965   -0.110000
     11          1           0        2.073901   -0.188562    0.246667
     12          1           0        1.200250   -1.701770    0.246667
     13          1           0        1.200250   -0.692965   -1.180000
     14          1           0       -0.000000   -0.000000    1.380000
 ---------------------------------------------------------------------
 Rotational constants (GHZ):           8.4884908           8.4884908           4.9948691
 Standard basis: 3-21G (6D, 7F)
 There are    35 symmetry adapted cartesian basis functions of A'  symmetry.
 There are    21 symmetry adapted cartesian basis functions of A"  symmetry.
 There are    35 symmetry adapted basis functions of A'  symmetry.
 There are    21 symmetry adapted basis functions of A"  symmetry.
    56 basis functions,    90 primitive gaussians,    56 cartesian basis functions
    17 alpha electrons       17 beta electrons
       nuclear repulsion energy       149.5937764304 Hartrees.
 NAtoms=   14 NActive=   14 NUniq=    5 SFac= 4.00D+00 NAtFMM=   60 NAOKFM=F Big=F
 Integral buffers will be    131072 words long.
 Raffenetti 1 integral format.
 Two-electron integral symmetry is turned on.
 One-electron integrals computed using PRISM.
 NBasis=    56 RedAO= T EigKep=  2.39D-02  NBF=    35    21
 NBsUse=    56 1.00D-06 EigRej= -1.00D+00 NBFU=    35    21
 ExpMin= 1.83D-01 ExpMax= 2.43D+02 ExpMxC= 2.43D+02 IAcc=3 IRadAn=         5 AccDes= 0.00D+00
 Harris functional with IExCor=  205 and IRadAn=       5 diagonalized for initial guess.
 HarFok:  IExCor=  205 AccDes= 0.00D+00 IRadAn=         5 IDoV= 1 UseB2=F ITyADJ=14
 ICtDFT=  3500011 ScaDFX=  1.000000  1.000000  1.000000  1.000000
 FoFCou: FMM=F IPFlag=           0 FMFlag=      100000 FMFlg1=           0
         NFxFlg=           0 DoJE=T BraDBF=F KetDBF=T FulRan=T
         wScrn=  0.000000 ICntrl=       500 IOpCl=  0 I1Cent=   200000004 NGrid=           0
         NMat0=    1 NMatS0=      1 NMatT0=    0 NMatD0=    1 NMtDS0=    0 NMtDT0=    0
 Petite list used in FoFCou.
 Initial guess orbital symmetries:
       Occupied  (A1) (E) (E) (A1) (A1) (E) (E) (A1) (A1) (E) (E)
                 (E) (E) (A2) (E) (E) (A1)
       Virtual   (A1) (A1) (E) (E) (A1) (E) (E) (A1) (E) (E) (E)
                 (E) (A2) (E) (E) (A1) (E) (E) (A1) (E) (E) (A1)
                 (A1) (E) (E) (A2) (E) (E) (A2) (A1) (E) (E) (A1)
                 (E) (E) (A1) (E) (E) (A1)
 The electronic state of the initial guess is 1-A1.
 Keep R1 ints in memory in symmetry-blocked form, NReq=2106488.
 Requested convergence on RMS density matrix=1.00D-08 within 128 cycles.
 Requested convergence on MAX density matrix=1.00D-06.
 Requested convergence on             energy=1.00D-06.
 No special actions if energy rises.
 SCF Done:  E(RHF) =  -172.699155178     A.U. after   10 cycles
            NFock= 10  Conv=0.19D-08     -V/T= 2.0003

 **********************************************************************

            Population analysis using the SCF Density.

 **********************************************************************

 Orbital symmetries:
       Occupied  (A1) (E) (E) (A1) (A1) (E) (E) (A1) (A1) (E) (E)
                 (E) (E) (A1) (A2) (E) (E)
       Virtual   (A1) (A1) (A1) (E) (E) (E) (E) (A1) (E) (E) (E)
                 (E) (A2) (E) (E) (A1) (E) (E) (A1) (E) (E) (A1)
                 (A1) (E) (E) (A2) (A2) (E) (E) (A1) (E) (E) (A1)
                 (E) (E) (A1) (E) (E) (A1)
 The electronic state is 1-A1.
 Alpha  occ. eigenvalues --  -15.81761 -11.40557 -11.40557 -11.40494  -1.55112
 Alpha  occ. eigenvalues --   -1.20016  -1.20016  -1.11099  -0.96006  -0.88308
 Alpha  occ. eigenvalues --   -0.88308  -0.78290  -0.78290  -0.75557  -0.74575
 Alpha  occ. eigenvalues --   -0.73907  -0.73907
 Alpha virt. eigenvalues --    0.02614   0.08883   0.12219   0.12527   0.12527
 Alpha virt. eigenvalues --    0.15140   0.15140   0.16101   0.18253   0.18253
 Alpha virt. eigenvalues --    0.20975   0.20975   0.22432   0.66346   0.66346
 Alpha virt. eigenvalues --    0.66636   0.73914   0.73914   0.80943   0.89973
 Alpha virt. eigenvalues --    0.89973   1.02869   1.08745   1.09745   1.09745
 Alpha virt. eigenvalues --    1.13013   1.15797   1.19296   1.19296   1.22765
 Alpha virt. eigenvalues --    1.28555   1.28555   1.46617   1.52313   1.52313
 Alpha virt. eigenvalues --    1.64576   2.04738   2.04738   2.92399
     Molecular Orbital Coefficients:
                           1         2         3         4         5
                        (A1)--O   (E)--O    (E)--O    (A1)--O   (A1)--O
     Eigenvalues --   -15.81761 -11.40557 -11.40557 -11.40494  -1.55112
   1 1   N  1S          0.98642  -0.00000   0.00000   0.00006  -0.20734
   2        2S          0.10544  -0.00000   0.00000   0.00176   0.17339
   3        2PX         0.00000   0.00000  -0.00043   0.00000   0.00000
   4        2PY         0.00000   0.00043   0.00000  -0.00000  -0.00000
   5        2PZ        -0.00083  -0.00000   0.00000  -0.00067  -0.00435
   6        3S         -0.07181   0.00000   0.00000   0.00653   0.66696
   7        3PX         0.00000   0.00000  -0.00658   0.00000   0.00000
   8        3PY        -0.00000   0.00658   0.00000  -0.00000   0.00000
   9        3PZ         0.00457   0.00000   0.00000   0.00127  -0.02959
  10 2   C  1S         -0.00045   0.80647   0.00000   0.56966  -0.06432
  11        2S         -0.00132   0.08477   0.00000   0.05569   0.07054
  12        2PX         0.00000   0.00000   0.00125   0.00000   0.00000
  13        2PY        -0.00244  -0.00152   0.00000  -0.00024  -0.05614
  14        2PZ         0.00059  -0.00043   0.00000   0.00042   0.01769
  15        3S          0.01682  -0.06705   0.00000  -0.03480   0.08366
  16        3PX         0.00000   0.00000  -0.00703   0.00000   0.00000
  17        3PY        -0.00639   0.00528   0.00000  -0.00321   0.01255
  18        3PZ         0.00265   0.00327   0.00000  -0.00191   0.00287
  19 3   H  1S         -0.00117   0.00005  -0.00072  -0.00049   0.02230
  20        2S         -0.00179   0.01120  -0.00337   0.00839  -0.00354
  21 4   H  1S         -0.00117   0.00005   0.00072  -0.00049   0.02230
  22        2S         -0.00179   0.01120   0.00337   0.00839  -0.00354
  23 5   H  1S         -0.00119   0.00094   0.00000  -0.00107   0.02478
  24        2S         -0.00127   0.01495   0.00000   0.00616   0.00167
  25 6   C  1S         -0.00045  -0.40323   0.69842   0.56966  -0.06432
  26        2S         -0.00132  -0.04238   0.07341   0.05569   0.07054
  27        2PX         0.00212  -0.00012   0.00145   0.00021   0.04862
  28        2PY         0.00122  -0.00132   0.00012   0.00012   0.02807
  29        2PZ         0.00059   0.00021  -0.00037   0.00042   0.01769
  30        3S          0.01682   0.03352  -0.05806  -0.03480   0.08366
  31        3PX         0.00553  -0.00076  -0.00572   0.00278  -0.01087
  32        3PY         0.00319   0.00659   0.00076   0.00160  -0.00628
  33        3PZ         0.00265  -0.00164   0.00283  -0.00191   0.00287
  34 7   H  1S         -0.00117   0.00060   0.00041  -0.00049   0.02230
  35        2S         -0.00179  -0.00268   0.01139   0.00839  -0.00354
  36 8   H  1S         -0.00117  -0.00065  -0.00031  -0.00049   0.02230
  37        2S         -0.00179  -0.00852   0.00802   0.00839  -0.00354
  38 9   H  1S         -0.00119  -0.00047   0.00081  -0.00107   0.02478
  39        2S         -0.00127  -0.00747   0.01294   0.00616   0.00167
  40 10  C  1S         -0.00045  -0.40323  -0.69842   0.56966  -0.06432
  41        2S         -0.00132  -0.04238  -0.07341   0.05569   0.07054
  42        2PX        -0.00212   0.00012   0.00145  -0.00021  -0.04862
  43        2PY         0.00122  -0.00132  -0.00012   0.00012   0.02807
  44        2PZ         0.00059   0.00021   0.00037   0.00042   0.01769
  45        3S          0.01682   0.03352   0.05806  -0.03480   0.08366
  46        3PX        -0.00553   0.00076  -0.00572  -0.00278   0.01087
  47        3PY         0.00319   0.00659  -0.00076   0.00160  -0.00628
  48        3PZ         0.00265  -0.00164  -0.00283  -0.00191   0.00287
  49 11  H  1S         -0.00117  -0.00065   0.00031  -0.00049   0.02230
  50        2S         -0.00179  -0.00852  -0.00802   0.00839  -0.00354
  51 12  H  1S         -0.00117   0.00060  -0.00041  -0.00049   0.02230
  52        2S         -0.00179  -0.00268  -0.01139   0.00839  -0.00354
  53 13  H  1S         -0.00119  -0.00047  -0.00081  -0.00107   0.02478
  54        2S         -0.00127  -0.00747  -0.01294   0.00616   0.00167
  55 14  H  1S          0.00337  -0.00000   0.00000  -0.00118   0.08796
  56        2S          0.00569   0.00000   0.00000   0.00306  -0.00346
                           6         7         8         9        10
                        (E)--O    (E)--O    (A1)--O   (A1)--O   (E)--O
     Eigenvalues --    -1.20016  -1.20016  -1.11099  -0.96006  -0.88308
   1 1   N  1S          0.00000   0.00000  -0.08492   0.05444  -0.00000
   2        2S          0.00000   0.00000   0.06938  -0.03430  -0.00000
   3        2PX        -0.19459   0.00000   0.00000   0.00000   0.00000
   4        2PY         0.00000   0.19459   0.00000  -0.00000   0.27342
   5        2PZ         0.00000  -0.00000   0.21263   0.28434   0.00000
   6        3S          0.00000  -0.00000   0.38441  -0.28866   0.00000
   7        3PX        -0.15157   0.00000   0.00000   0.00000   0.00000
   8        3PY         0.00000   0.15157   0.00000  -0.00000   0.34844
   9        3PZ         0.00000   0.00000   0.18645   0.32167  -0.00000
  10 2   C  1S          0.00000  -0.17035   0.08778  -0.04129   0.04464
  11        2S          0.00000   0.16037  -0.08734   0.03780  -0.03556
  12        2PX        -0.04033   0.00000   0.00000   0.00000   0.00000
  13        2PY         0.00000  -0.00858  -0.03328   0.14404  -0.17577
  14        2PZ         0.00000   0.01589   0.06124   0.06105   0.10039
  15        3S          0.00000   0.49258  -0.28306   0.18817  -0.25554
  16        3PX         0.00255   0.00000   0.00000   0.00000   0.00000
  17        3PY         0.00000  -0.01288  -0.01032   0.06162  -0.06715
  18        3PZ         0.00000  -0.00679   0.02468   0.04839   0.04712
  19 3   H  1S          0.01602   0.09652  -0.05446   0.08203  -0.06172
  20        2S          0.01597   0.00638  -0.00514   0.03891  -0.02473
  21 4   H  1S         -0.01602   0.09652  -0.05446   0.08203  -0.06172
  22        2S         -0.01597   0.00638  -0.00514   0.03891  -0.02473
  23 5   H  1S          0.00000   0.08831  -0.08828  -0.00501  -0.09385
  24        2S          0.00000  -0.00867  -0.02576  -0.01256  -0.04916
  25 6   C  1S         -0.14752   0.08517   0.08778  -0.04129  -0.02232
  26        2S          0.13889  -0.08019  -0.08734   0.03780   0.01778
  27        2PX        -0.00365  -0.02118   0.02882  -0.12474  -0.15855
  28        2PY         0.02118   0.02810   0.01664  -0.07202   0.09884
  29        2PZ         0.01376  -0.00794   0.06124   0.06105  -0.05019
  30        3S          0.42659  -0.24629  -0.28306   0.18817   0.12777
  31        3PX         0.01030  -0.00448   0.00893  -0.05337  -0.08867
  32        3PY         0.00448  -0.00513   0.00516  -0.03081   0.08643
  33        3PZ        -0.00588   0.00340   0.02468   0.04839  -0.02356
  34 7   H  1S          0.07558  -0.06213  -0.05446   0.08203  -0.05268
  35        2S         -0.00246  -0.01702  -0.00514   0.03891  -0.03915
  36 8   H  1S          0.09160  -0.03439  -0.05446   0.08203   0.11440
  37        2S          0.01351   0.01065  -0.00514   0.03891   0.06388
  38 9   H  1S          0.07648  -0.04416  -0.08828  -0.00501   0.04693
  39        2S         -0.00751   0.00434  -0.02576  -0.01256   0.02458
  40 10  C  1S          0.14752   0.08517   0.08778  -0.04129  -0.02232
  41        2S         -0.13889  -0.08019  -0.08734   0.03780   0.01778
  42        2PX        -0.00365   0.02118  -0.02882   0.12474   0.15855
  43        2PY        -0.02118   0.02810   0.01664  -0.07202   0.09884
  44        2PZ        -0.01376  -0.00794   0.06124   0.06105  -0.05019
  45        3S         -0.42659  -0.24629  -0.28306   0.18817   0.12777
  46        3PX         0.01030   0.00448  -0.00893   0.05337   0.08867
  47        3PY        -0.00448  -0.00513   0.00516  -0.03081   0.08643
  48        3PZ         0.00588   0.00340   0.02468   0.04839  -0.02356
  49 11  H  1S         -0.09160  -0.03439  -0.05446   0.08203   0.11440
  50        2S         -0.01351   0.01065  -0.00514   0.03891   0.06388
  51 12  H  1S         -0.07558  -0.06213  -0.05446   0.08203  -0.05268
  52        2S          0.00246  -0.01702  -0.00514   0.03891  -0.03915
  53 13  H  1S         -0.07648  -0.04416  -0.08828  -0.00501   0.04693
  54        2S          0.00751   0.00434  -0.02576  -0.01256   0.02458
  55 14  H  1S          0.00000  -0.00000   0.16171   0.13892  -0.00000
  56        2S          0.00000  -0.00000   0.06023   0.05331   0.00000
                          11        12        13        14        15
                        (E)--O    (E)--O    (E)--O    (A1)--O   (A2)--O
     Eigenvalues --    -0.88308  -0.78290  -0.78290  -0.75557  -0.74575
   1 1   N  1S          0.00000   0.00000   0.00000   0.01010   0.00000
   2        2S          0.00000   0.00000   0.00000  -0.00340   0.00000
   3        2PX         0.27342   0.00000  -0.09858   0.00000   0.00000
   4        2PY         0.00000   0.09858   0.00000  -0.00000   0.00000
   5        2PZ         0.00000   0.00000   0.00000   0.22314   0.00000
   6        3S          0.00000  -0.00000   0.00000  -0.06386   0.00000
   7        3PX         0.34844   0.00000  -0.12208   0.00000   0.00000
   8        3PY         0.00000   0.12208   0.00000   0.00000   0.00000
   9        3PZ         0.00000   0.00000   0.00000   0.25188   0.00000
  10 2   C  1S          0.00000  -0.00119   0.00000   0.00724   0.00000
  11        2S          0.00000   0.00094   0.00000  -0.00637   0.00000
  12        2PX         0.19038   0.00000   0.15652   0.00000   0.23888
  13        2PY         0.00000   0.02639   0.00000  -0.00165   0.00000
  14        2PZ         0.00000   0.28761   0.00000  -0.19951   0.00000
  15        3S          0.00000  -0.01641   0.00000  -0.01773   0.00000
  16        3PX         0.13763   0.00000   0.14554   0.00000   0.23092
  17        3PY         0.00000   0.04727   0.00000  -0.02266   0.00000
  18        3PZ         0.00000   0.24830   0.00000  -0.17391   0.00000
  19 3   H  1S         -0.09646   0.07137  -0.08767  -0.05425  -0.13700
  20        2S         -0.05948   0.04410  -0.05776  -0.04007  -0.09243
  21 4   H  1S          0.09646   0.07137   0.08767  -0.05425   0.13700
  22        2S          0.05948   0.04410   0.05776  -0.04007   0.09243
  23 5   H  1S          0.00000  -0.19474   0.00000   0.14780   0.00000
  24        2S          0.00000  -0.13074   0.00000   0.12729   0.00000
  25 6   C  1S         -0.03866   0.00060  -0.00103   0.00724   0.00000
  26        2S          0.03080  -0.00047   0.00081  -0.00637   0.00000
  27        2PX        -0.08423   0.07920   0.01934   0.00143  -0.11944
  28        2PY        -0.15855  -0.11080  -0.07920   0.00082   0.20687
  29        2PZ        -0.08694  -0.14380   0.24908  -0.19951   0.00000
  30        3S          0.22131   0.00820  -0.01421  -0.01773  -0.00000
  31        3PX        -0.01595   0.08349   0.00094   0.01963  -0.11546
  32        3PY        -0.08867  -0.09734  -0.08349   0.01133   0.19999
  33        3PZ        -0.04081  -0.12415   0.21503  -0.17391   0.00000
  34 7   H  1S          0.10168   0.04024   0.10564  -0.05425  -0.13700
  35        2S          0.05116   0.02797   0.06707  -0.04007  -0.09243
  36 8   H  1S          0.00522  -0.11161   0.01797  -0.05425   0.13700
  37        2S         -0.00832  -0.07207   0.00932  -0.04007   0.09243
  38 9   H  1S          0.08128   0.09737  -0.16865   0.14780  -0.00000
  39        2S          0.04257   0.06537  -0.11322   0.12729  -0.00000
  40 10  C  1S          0.03866   0.00060   0.00103   0.00724  -0.00000
  41        2S         -0.03080  -0.00047  -0.00081  -0.00637  -0.00000
  42        2PX        -0.08423  -0.07920   0.01934  -0.00143  -0.11944
  43        2PY         0.15855  -0.11080   0.07920   0.00082  -0.20687
  44        2PZ         0.08694  -0.14380  -0.24908  -0.19951  -0.00000
  45        3S         -0.22131   0.00820   0.01421  -0.01773   0.00000
  46        3PX        -0.01595  -0.08349   0.00094  -0.01963  -0.11546
  47        3PY         0.08867  -0.09734   0.08349   0.01133  -0.19999
  48        3PZ         0.04081  -0.12415  -0.21503  -0.17391  -0.00000
  49 11  H  1S         -0.00522  -0.11161  -0.01797  -0.05425  -0.13700
  50        2S          0.00832  -0.07207  -0.00932  -0.04007  -0.09243
  51 12  H  1S         -0.10168   0.04024  -0.10564  -0.05425   0.13700
  52        2S         -0.05116   0.02797  -0.06707  -0.04007   0.09243
  53 13  H  1S         -0.08128   0.09737   0.16865   0.14780   0.00000
  54        2S         -0.04257   0.06537   0.11322   0.12729   0.00000
  55 14  H  1S          0.00000   0.00000   0.00000   0.16644   0.00000
  56        2S          0.00000   0.00000   0.00000   0.14606   0.00000
                          16        17        18        19        20
                        (E)--O    (E)--O    (A1)--V   (A1)--V   (A1)--V
     Eigenvalues --    -0.73907  -0.73907   0.02614   0.08883   0.12219
   1 1   N  1S          0.00000   0.00000  -0.10111   0.01550  -0.10860
   2        2S          0.00000   0.00000   0.03612  -0.00970   0.04200
   3        2PX         0.22822   0.00000   0.00000   0.00000   0.00000
   4        2PY         0.00000   0.22822  -0.00000  -0.00000   0.00000
   5        2PZ         0.00000  -0.00000   0.10317  -0.13391   0.05115
   6        3S          0.00000  -0.00000   1.10693  -0.15067   1.19032
   7        3PX         0.27645   0.00000   0.00000   0.00000   0.00000
   8        3PY         0.00000   0.27645  -0.00000  -0.00000   0.00000
   9        3PZ         0.00000   0.00000   0.31210  -0.39863   0.24931
  10 2   C  1S          0.00000  -0.01396  -0.04588  -0.02645   0.07730
  11        2S          0.00000   0.00802   0.01559   0.00779  -0.03394
  12        2PX        -0.20024   0.00000   0.00000   0.00000   0.00000
  13        2PY         0.00000  -0.22200   0.09841   0.02620   0.00979
  14        2PZ         0.00000  -0.10705  -0.02401  -0.15135  -0.09036
  15        3S          0.00000   0.02298   0.68136   0.42260  -0.93552
  16        3PX        -0.20104   0.00000   0.00000   0.00000   0.00000
  17        3PY         0.00000  -0.16778   0.40658   0.13857  -0.05608
  18        3PZ         0.00000  -0.12417  -0.11361  -0.57422  -0.48388
  19 3   H  1S          0.12352  -0.09725  -0.00799   0.00237   0.01276
  20        2S          0.09581  -0.07766  -0.40047   0.02956   0.65073
  21 4   H  1S         -0.12352  -0.09725  -0.00799   0.00237   0.01276
  22        2S         -0.09581  -0.07766  -0.40047   0.02956   0.65073
  23 5   H  1S          0.00000   0.08322   0.00985  -0.02081  -0.03591
  24        2S          0.00000   0.05209  -0.29379  -0.89484  -0.17722
  25 6   C  1S          0.01209   0.00698  -0.04588  -0.02645   0.07730
  26        2S         -0.00694  -0.00401   0.01559   0.00779  -0.03394
  27        2PX        -0.21656  -0.00942  -0.08523  -0.02269  -0.00848
  28        2PY        -0.00942  -0.20568  -0.04921  -0.01310  -0.00489
  29        2PZ         0.09271   0.05353  -0.02401  -0.15135  -0.09036
  30        3S         -0.01990  -0.01149   0.68136   0.42260  -0.93552
  31        3PX        -0.17609   0.01441  -0.35211  -0.12001   0.04856
  32        3PY         0.01441  -0.19273  -0.20329  -0.06929   0.02804
  33        3PZ         0.10753   0.06208  -0.11361  -0.57422  -0.48388
  34 7   H  1S          0.02246   0.15560  -0.00799   0.00237   0.01276
  35        2S          0.01935   0.12181  -0.40047   0.02956   0.65073
  36 8   H  1S          0.14599  -0.05835  -0.00799   0.00237   0.01276
  37        2S          0.11516  -0.04414  -0.40047   0.02956   0.65073
  38 9   H  1S         -0.07207  -0.04161   0.00985  -0.02081  -0.03591
  39        2S         -0.04512  -0.02605  -0.29379  -0.89484  -0.17722
  40 10  C  1S         -0.01209   0.00698  -0.04588  -0.02645   0.07730
  41        2S          0.00694  -0.00401   0.01559   0.00779  -0.03394
  42        2PX        -0.21656   0.00942   0.08523   0.02269   0.00848
  43        2PY         0.00942  -0.20568  -0.04921  -0.01310  -0.00489
  44        2PZ        -0.09271   0.05353  -0.02401  -0.15135  -0.09036
  45        3S          0.01990  -0.01149   0.68136   0.42260  -0.93552
  46        3PX        -0.17609  -0.01441   0.35211   0.12001  -0.04856
  47        3PY        -0.01441  -0.19273  -0.20329  -0.06929   0.02804
  48        3PZ        -0.10753   0.06208  -0.11361  -0.57422  -0.48388
  49 11  H  1S         -0.14599  -0.05835  -0.00799   0.00237   0.01276
  50        2S         -0.11516  -0.04414  -0.40047   0.02956   0.65073
  51 12  H  1S         -0.02246   0.15560  -0.00799   0.00237   0.01276
  52        2S         -0.01935   0.12181  -0.40047   0.02956   0.65073
  53 13  H  1S          0.07207  -0.04161   0.00985  -0.02081  -0.03591
  54        2S          0.04512  -0.02605  -0.29379  -0.89484  -0.17722
  55 14  H  1S          0.00000  -0.00000  -0.04938   0.11913  -0.01385
  56        2S          0.00000  -0.00000  -0.88962   0.98484  -0.65130
                          21        22        23        24        25
                        (E)--V    (E)--V    (E)--V    (E)--V    (A1)--V
     Eigenvalues --     0.12527   0.12527   0.15140   0.15140   0.16101
   1 1   N  1S          0.00000  -0.00000   0.00000   0.00000  -0.10014
   2        2S          0.00000   0.00000  -0.00000   0.00000   0.02797
   3        2PX         0.08112   0.00000   0.00000   0.14171   0.00000
   4        2PY         0.00000   0.08112  -0.14171   0.00000  -0.00000
   5        2PZ         0.00000  -0.00000   0.00000   0.00000  -0.25107
   6        3S          0.00000   0.00000  -0.00000   0.00000   1.15156
   7        3PX         0.18903   0.00000   0.00000   0.57573   0.00000
   8        3PY         0.00000   0.18903  -0.57573   0.00000  -0.00000
   9        3PZ         0.00000  -0.00000   0.00000   0.00000  -0.97415
  10 2   C  1S          0.00000   0.03427  -0.14718   0.00000   0.05312
  11        2S          0.00000  -0.02350   0.05168   0.00000  -0.01274
  12        2PX         0.21917   0.00000   0.00000  -0.06001   0.00000
  13        2PY         0.00000   0.11865  -0.01195   0.00000   0.12256
  14        2PZ         0.00000  -0.00835  -0.02847   0.00000   0.03402
  15        3S          0.00000  -0.23761   2.09349   0.00000  -0.68224
  16        3PX         1.04710   0.00000   0.00000  -0.14012   0.00000
  17        3PY         0.00000   0.40361  -0.14080   0.00000   0.67542
  18        3PZ         0.00000  -0.10419  -0.28904   0.00000   0.22476
  19 3   H  1S          0.06408   0.00747   0.02822   0.03502  -0.01560
  20        2S          1.12169  -0.05112  -0.66092  -0.11511  -0.10335
  21 4   H  1S         -0.06408   0.00747   0.02822  -0.03502  -0.01560
  22        2S         -1.12169  -0.05112  -0.66092   0.11511  -0.10335
  23 5   H  1S          0.00000  -0.04133  -0.05208   0.00000  -0.01377
  24        2S          0.00000  -0.02286  -1.24833   0.00000   0.57681
  25 6   C  1S         -0.02968  -0.01713   0.07359  -0.12746   0.05312
  26        2S          0.02035   0.01175  -0.02584   0.04476  -0.01274
  27        2PX         0.14378  -0.04353  -0.03116  -0.00604  -0.10614
  28        2PY        -0.04353   0.19404   0.04202   0.03116  -0.06128
  29        2PZ         0.00723   0.00418   0.01424  -0.02466   0.03402
  30        3S          0.20578   0.11881  -1.04675   1.81302  -0.68224
  31        3PX         0.56448  -0.27864  -0.12165   0.07057  -0.58493
  32        3PY        -0.27864   0.88622   0.06989   0.12165  -0.33771
  33        3PZ         0.09023   0.05209   0.14452  -0.25032   0.22476
  34 7   H  1S         -0.03851   0.05176  -0.04444   0.00693  -0.01560
  35        2S         -0.51657   0.99697   0.43015  -0.51482  -0.10335
  36 8   H  1S          0.02557  -0.05923   0.01622   0.04195  -0.01560
  37        2S          0.60512  -0.94585   0.23078  -0.62993  -0.10335
  38 9   H  1S          0.03579   0.02067   0.02604  -0.04511  -0.01377
  39        2S          0.01979   0.01143   0.62417  -1.08109   0.57681
  40 10  C  1S          0.02968  -0.01713   0.07359   0.12746   0.05312
  41        2S         -0.02035   0.01175  -0.02584  -0.04476  -0.01274
  42        2PX         0.14378   0.04353   0.03116  -0.00604   0.10614
  43        2PY         0.04353   0.19404   0.04202  -0.03116  -0.06128
  44        2PZ        -0.00723   0.00418   0.01424   0.02466   0.03402
  45        3S         -0.20578   0.11881  -1.04675  -1.81302  -0.68224
  46        3PX         0.56448   0.27864   0.12165   0.07057   0.58493
  47        3PY         0.27864   0.88622   0.06989  -0.12165  -0.33771
  48        3PZ        -0.09023   0.05209   0.14452   0.25032   0.22476
  49 11  H  1S         -0.02557  -0.05923   0.01622  -0.04195  -0.01560
  50        2S         -0.60512  -0.94585   0.23078   0.62993  -0.10335
  51 12  H  1S          0.03851   0.05176  -0.04444  -0.00693  -0.01560
  52        2S          0.51657   0.99697   0.43015   0.51482  -0.10335
  53 13  H  1S         -0.03579   0.02067   0.02604   0.04511  -0.01377
  54        2S         -0.01979   0.01143   0.62417   1.08109   0.57681
  55 14  H  1S          0.00000  -0.00000  -0.00000   0.00000   0.04016
  56        2S          0.00000  -0.00000  -0.00000   0.00000   0.79395
                          26        27        28        29        30
                        (E)--V    (E)--V    (E)--V    (E)--V    (A2)--V
     Eigenvalues --     0.18253   0.18253   0.20975   0.20975   0.22432
   1 1   N  1S          0.00000   0.00000   0.00000   0.00000   0.00000
   2        2S          0.00000   0.00000   0.00000  -0.00000   0.00000
   3        2PX         0.07112   0.00000   0.28139   0.00000  -0.00000
   4        2PY         0.00000  -0.07112   0.00000   0.28139   0.00000
   5        2PZ         0.00000   0.00000   0.00000   0.00000   0.00000
   6        3S          0.00000  -0.00000   0.00000  -0.00000   0.00000
   7        3PX         0.28294   0.00000   1.12377   0.00000  -0.00000
   8        3PY         0.00000  -0.28294   0.00000   1.12377   0.00000
   9        3PZ         0.00000   0.00000   0.00000   0.00000   0.00000
  10 2   C  1S          0.00000   0.02506   0.00000   0.02605   0.00000
  11        2S          0.00000  -0.00590   0.00000   0.00232   0.00000
  12        2PX         0.02619   0.00000  -0.04744   0.00000   0.20863
  13        2PY         0.00000  -0.19636   0.00000   0.16627   0.00000
  14        2PZ         0.00000  -0.15134   0.00000  -0.17580   0.00000
  15        3S          0.00000  -0.50185   0.00000  -0.25796   0.00000
  16        3PX        -0.14190   0.00000  -0.44679   0.00000   0.94848
  17        3PY         0.00000  -0.87024   0.00000   0.89837   0.00000
  18        3PZ         0.00000  -0.81650   0.00000  -0.94579   0.00000
  19 3   H  1S         -0.05651   0.05543  -0.01149  -0.02141   0.03311
  20        2S         -0.14993   1.04245  -0.38042   0.05650   0.98120
  21 4   H  1S          0.05651   0.05543   0.01149  -0.02141  -0.03311
  22        2S          0.14993   1.04245   0.38042   0.05650  -0.98120
  23 5   H  1S          0.00000  -0.06754   0.00000  -0.05992   0.00000
  24        2S          0.00000  -0.89348   0.00000  -0.96278   0.00000
  25 6   C  1S          0.02171  -0.01253  -0.02256  -0.01302   0.00000
  26        2S         -0.00511   0.00295  -0.00201  -0.00116  -0.00000
  27        2PX         0.15382  -0.07369   0.11284   0.09254  -0.10431
  28        2PY         0.07369  -0.06873   0.09254   0.00598   0.18068
  29        2PZ        -0.13106   0.07567   0.15225   0.08790  -0.00000
  30        3S         -0.43461   0.25092   0.22340   0.12898  -0.00000
  31        3PX         0.61720  -0.43827   0.56208   0.58247  -0.47424
  32        3PY         0.43827  -0.11113   0.58247  -0.11050   0.82141
  33        3PZ        -0.70711   0.40825   0.81908   0.47290  -0.00000
  34 7   H  1S          0.07626   0.02122   0.02429   0.00075   0.03311
  35        2S          0.97776  -0.39138   0.14127  -0.35770   0.98120
  36 8   H  1S          0.01975  -0.07666   0.01280   0.02066  -0.03311
  37        2S          0.82783  -0.65107  -0.23914   0.30120  -0.98120
  38 9   H  1S         -0.05849   0.03377   0.05189   0.02996  -0.00000
  39        2S         -0.77378   0.44674   0.83379   0.48139  -0.00000
  40 10  C  1S         -0.02171  -0.01253   0.02256  -0.01302  -0.00000
  41        2S          0.00511   0.00295   0.00201  -0.00116   0.00000
  42        2PX         0.15382   0.07369   0.11284  -0.09254  -0.10431
  43        2PY        -0.07369  -0.06873  -0.09254   0.00598  -0.18068
  44        2PZ         0.13106   0.07567  -0.15225   0.08790   0.00000
  45        3S          0.43461   0.25092  -0.22340   0.12898   0.00000
  46        3PX         0.61720   0.43827   0.56208  -0.58247  -0.47424
  47        3PY        -0.43827  -0.11113  -0.58247  -0.11050  -0.82141
  48        3PZ         0.70711   0.40825  -0.81908   0.47290   0.00000
  49 11  H  1S         -0.01975  -0.07666  -0.01280   0.02066   0.03311
  50        2S         -0.82783  -0.65107   0.23914   0.30120   0.98120
  51 12  H  1S         -0.07626   0.02122  -0.02429   0.00075  -0.03311
  52        2S         -0.97776  -0.39138  -0.14127  -0.35770  -0.98120
  53 13  H  1S          0.05849   0.03377  -0.05189   0.02996   0.00000
  54        2S          0.77378   0.44674  -0.83379   0.48139   0.00000
  55 14  H  1S          0.00000  -0.00000   0.00000  -0.00000   0.00000
  56        2S          0.00000  -0.00000   0.00000  -0.00000   0.00000
                          31        32        33        34        35
                        (E)--V    (E)--V    (A1)--V   (E)--V    (E)--V
     Eigenvalues --     0.66346   0.66346   0.66636   0.73914   0.73914
   1 1   N  1S          0.00000   0.00000  -0.00698  -0.00000   0.00000
   2        2S          0.00000   0.00000  -0.04645   0.00000   0.00000
   3        2PX         0.00000   0.08055   0.00000   0.00000  -0.08294
   4        2PY        -0.08055   0.00000  -0.00000   0.08294   0.00000
   5        2PZ        -0.00000   0.00000   0.04751  -0.00000   0.00000
   6        3S         -0.00000   0.00000   0.35559  -0.00000   0.00000
   7        3PX         0.00000  -0.26768   0.00000   0.00000   0.18619
   8        3PY         0.26768   0.00000   0.00000  -0.18619   0.00000
   9        3PZ         0.00000   0.00000  -0.11947  -0.00000   0.00000
  10 2   C  1S         -0.00454   0.00000  -0.00678   0.02011   0.00000
  11        2S          0.08864   0.00000   0.06050  -0.09912   0.00000
  12        2PX         0.00000  -0.48858   0.00000   0.00000  -0.09292
  13        2PY        -0.40569   0.00000  -0.29442   0.42380   0.00000
  14        2PZ        -0.08866   0.00000  -0.24787  -0.62141   0.00000
  15        3S         -0.30746   0.00000  -0.13079   0.03134   0.00000
  16        3PX         0.00000   0.73012   0.00000   0.00000   0.10077
  17        3PY         0.37826   0.00000   0.35532  -0.53729   0.00000
  18        3PZ         0.11712   0.00000   0.48752   1.00657   0.00000
  19 3   H  1S         -0.07402   0.38195  -0.18035  -0.06438  -0.01783
  20        2S          0.15035  -0.08470   0.04119   0.05876   0.00589
  21 4   H  1S         -0.07402  -0.38195  -0.18035  -0.06438   0.01783
  22        2S          0.15035   0.08470   0.04119   0.05876  -0.00589
  23 5   H  1S          0.14349   0.00000   0.33712   0.44232   0.00000
  24        2S         -0.02065   0.00000   0.05463   0.05234   0.00000
  25 6   C  1S          0.00227  -0.00393  -0.00678  -0.01005   0.01741
  26        2S         -0.04432   0.07676   0.06050   0.04956  -0.08584
  27        2PX        -0.38723   0.18212   0.25498   0.14327  -0.34108
  28        2PY         0.26501   0.38723   0.14721   0.17564  -0.14327
  29        2PZ         0.04433  -0.07678  -0.24787   0.31071  -0.53816
  30        3S          0.15373  -0.26627  -0.13079  -0.01567   0.02714
  31        3PX         0.47994  -0.10116  -0.30771  -0.18902   0.42816
  32        3PY        -0.45303  -0.47994  -0.17766  -0.20990   0.18902
  33        3PZ        -0.05856   0.10143   0.48752  -0.50329   0.87172
  34 7   H  1S         -0.29377  -0.25508  -0.18035   0.04763  -0.04683
  35        2S         -0.00182   0.17256   0.04119  -0.03448   0.04794
  36 8   H  1S          0.36779   0.12688  -0.18035   0.01674  -0.06467
  37        2S         -0.14853   0.08785   0.04119  -0.02428   0.05383
  38 9   H  1S         -0.07174   0.12427   0.33712  -0.22116   0.38306
  39        2S          0.01032  -0.01788   0.05463  -0.02617   0.04533
  40 10  C  1S          0.00227   0.00393  -0.00678  -0.01005  -0.01741
  41        2S         -0.04432  -0.07676   0.06050   0.04956   0.08584
  42        2PX         0.38723   0.18212  -0.25498  -0.14327  -0.34108
  43        2PY         0.26501  -0.38723   0.14721   0.17564   0.14327
  44        2PZ         0.04433   0.07678  -0.24787   0.31071   0.53816
  45        3S          0.15373   0.26627  -0.13079  -0.01567  -0.02714
  46        3PX        -0.47994  -0.10116   0.30771   0.18902   0.42816
  47        3PY        -0.45303   0.47994  -0.17766  -0.20990  -0.18902
  48        3PZ        -0.05856  -0.10143   0.48752  -0.50329  -0.87172
  49 11  H  1S          0.36779  -0.12688  -0.18035   0.01674   0.06467
  50        2S         -0.14853  -0.08785   0.04119  -0.02428  -0.05383
  51 12  H  1S         -0.29377   0.25508  -0.18035   0.04763   0.04683
  52        2S         -0.00182  -0.17256   0.04119  -0.03448  -0.04794
  53 13  H  1S         -0.07174  -0.12427   0.33712  -0.22116  -0.38306
  54        2S          0.01032   0.01788   0.05463  -0.02617  -0.04533
  55 14  H  1S          0.00000   0.00000  -0.40415  -0.00000   0.00000
  56        2S         -0.00000   0.00000   0.08678  -0.00000   0.00000
                          36        37        38        39        40
                        (A1)--V   (E)--V    (E)--V    (A1)--V   (A1)--V
     Eigenvalues --     0.80943   0.89973   0.89973   1.02869   1.08745
   1 1   N  1S          0.06415   0.00000   0.00000   0.01799   0.00450
   2        2S         -0.24566  -0.00000   0.00000  -0.00911  -0.04204
   3        2PX         0.00000   0.00000  -0.35139   0.00000   0.00000
   4        2PY         0.00000  -0.35139   0.00000   0.00000   0.00000
   5        2PZ         0.17150   0.00000   0.00000   0.00315   0.37940
   6        3S          0.60881  -0.00000   0.00000   0.13446  -0.09627
   7        3PX         0.00000   0.00000   0.10577   0.00000   0.00000
   8        3PY        -0.00000   0.10577   0.00000  -0.00000  -0.00000
   9        3PZ        -0.09975  -0.00000   0.00000  -0.58489  -0.46271
  10 2   C  1S         -0.03478  -0.05077   0.00000   0.02678  -0.03711
  11        2S          0.08368  -0.01244   0.00000   0.10212   0.01604
  12        2PX         0.00000   0.00000  -0.27186   0.00000   0.00000
  13        2PY        -0.48328  -0.42221   0.00000  -0.24904   0.00608
  14        2PZ         0.31634  -0.27978   0.00000  -0.27789  -0.42915
  15        3S          0.10576   0.42849   0.00000  -0.37357   0.05864
  16        3PX         0.00000   0.00000   0.69770   0.00000   0.00000
  17        3PY         0.49706   1.04798   0.00000   0.17607   0.15541
  18        3PZ        -0.51763   0.64447   0.00000   0.60811   0.53919
  19 3   H  1S         -0.06557  -0.44630   0.16771   0.35939  -0.07787
  20        2S          0.00390  -0.26813   0.18709  -0.25450  -0.17729
  21 4   H  1S         -0.06557  -0.44630  -0.16771   0.35939  -0.07787
  22        2S          0.00390  -0.26813  -0.18709  -0.25450  -0.17729
  23 5   H  1S         -0.20392  -0.05690   0.00000   0.08413  -0.57509
  24        2S         -0.13893   0.09098   0.00000   0.45966   0.65310
  25 6   C  1S         -0.03478   0.02539   0.04397   0.02678  -0.03711
  26        2S          0.08368   0.00622   0.01077   0.10212   0.01604
  27        2PX         0.41853  -0.06510  -0.38462   0.21567  -0.00527
  28        2PY         0.24164  -0.30945  -0.06510   0.12452  -0.00304
  29        2PZ         0.31634   0.13989   0.24229  -0.27789  -0.42915
  30        3S          0.10576  -0.21424  -0.37108  -0.37357   0.05864
  31        3PX        -0.43047   0.15168   0.96041  -0.15248  -0.13459
  32        3PY        -0.24853   0.78527   0.15168  -0.08804  -0.07770
  33        3PZ        -0.51763  -0.32224  -0.55813   0.60811   0.53919
  34 7   H  1S         -0.06557   0.36840   0.30265   0.35939  -0.07787
  35        2S          0.00390   0.29609   0.13867  -0.25450  -0.17729
  36 8   H  1S         -0.06557   0.07791   0.47037   0.35939  -0.07787
  37        2S          0.00390  -0.02796   0.32576  -0.25450  -0.17729
  38 9   H  1S         -0.20392   0.02845   0.04928   0.08413  -0.57509
  39        2S         -0.13893  -0.04549  -0.07879   0.45966   0.65310
  40 10  C  1S         -0.03478   0.02539  -0.04397   0.02678  -0.03711
  41        2S          0.08368   0.00622  -0.01077   0.10212   0.01604
  42        2PX        -0.41853   0.06510  -0.38462  -0.21567   0.00527
  43        2PY         0.24164  -0.30945   0.06510   0.12452  -0.00304
  44        2PZ         0.31634   0.13989  -0.24229  -0.27789  -0.42915
  45        3S          0.10576  -0.21424   0.37108  -0.37357   0.05864
  46        3PX         0.43047  -0.15168   0.96041   0.15248   0.13459
  47        3PY        -0.24853   0.78527  -0.15168  -0.08804  -0.07770
  48        3PZ        -0.51763  -0.32224   0.55813   0.60811   0.53919
  49 11  H  1S         -0.06557   0.07791  -0.47037   0.35939  -0.07787
  50        2S          0.00390  -0.02796  -0.32576  -0.25450  -0.17729
  51 12  H  1S         -0.06557   0.36840  -0.30265   0.35939  -0.07787
  52        2S          0.00390   0.29609  -0.13867  -0.25450  -0.17729
  53 13  H  1S         -0.20392   0.02845  -0.04928   0.08413  -0.57509
  54        2S         -0.13893  -0.04549   0.07879   0.45966   0.65310
  55 14  H  1S          0.13461   0.00000   0.00000   0.74999  -0.13127
  56        2S          0.22941  -0.00000   0.00000  -0.42109   0.11042
                          41        42        43        44        45
                        (E)--V    (E)--V    (A2)--V   (A2)--V   (E)--V
     Eigenvalues --     1.09745   1.09745   1.13013   1.15797   1.19296
   1 1   N  1S          0.00000  -0.00000   0.00000   0.00000   0.00000
   2        2S          0.00000   0.00000   0.00000   0.00000  -0.00000
   3        2PX         0.34301   0.00000   0.00000  -0.00000   0.00000
   4        2PY         0.00000   0.34301   0.00000   0.00000  -0.10070
   5        2PZ         0.00000  -0.00000   0.00000   0.00000  -0.00000
   6        3S          0.00000   0.00000   0.00000   0.00000   0.00000
   7        3PX        -0.60005   0.00000  -0.00000   0.00000   0.00000
   8        3PY         0.00000  -0.60005   0.00000   0.00000   0.18912
   9        3PZ         0.00000   0.00000   0.00000   0.00000   0.00000
  10 2   C  1S          0.00000   0.01858   0.00000   0.00000  -0.00469
  11        2S          0.00000  -0.10193   0.00000   0.00000   0.04528
  12        2PX        -0.61654   0.00000  -0.68334   0.13628   0.00000
  13        2PY         0.00000  -0.17741   0.00000   0.00000  -0.14446
  14        2PZ         0.00000  -0.33854   0.00000   0.00000  -0.53651
  15        3S          0.00000   0.33311   0.00000   0.00000  -0.16017
  16        3PX         0.86885   0.00000   1.66956   0.20715   0.00000
  17        3PY         0.00000   0.17750   0.00000   0.00000   0.20011
  18        3PZ         0.00000   0.61173   0.00000   0.00000   0.63612
  19 3   H  1S         -0.46395   0.18813   0.05228   0.57202   0.33556
  20        2S          0.79067  -0.38135   0.74579  -0.49375  -0.51554
  21 4   H  1S          0.46395   0.18813  -0.05228  -0.57202   0.33556
  22        2S         -0.79067  -0.38135  -0.74579   0.49375  -0.51554
  23 5   H  1S          0.00000  -0.24394   0.00000   0.00000  -0.72190
  24        2S          0.00000   0.52269   0.00000   0.00000   1.18027
  25 6   C  1S         -0.01609  -0.00929  -0.00000  -0.00000   0.00235
  26        2S          0.08827   0.05096  -0.00000   0.00000  -0.02264
  27        2PX        -0.28719   0.19015   0.34167  -0.06814  -0.21332
  28        2PY         0.19015  -0.50676  -0.59179   0.11802   0.22502
  29        2PZ         0.29319   0.16927   0.00000  -0.00000   0.26825
  30        3S         -0.28848  -0.16655   0.00000   0.00000   0.08008
  31        3PX         0.35034  -0.29936  -0.83478  -0.10358   0.29722
  32        3PY        -0.29936   0.69601   1.44589   0.17940  -0.31469
  33        3PZ        -0.52977  -0.30586  -0.00000   0.00000  -0.31806
  34 7   H  1S          0.06905  -0.49586   0.05228   0.57202   0.06047
  35        2S         -0.06508   0.87541   0.74579  -0.49375  -0.18012
  36 8   H  1S         -0.39490   0.30773  -0.05228  -0.57202  -0.39604
  37        2S          0.72559  -0.49406  -0.74579   0.49375   0.69566
  38 9   H  1S          0.21125   0.12197   0.00000  -0.00000   0.36095
  39        2S         -0.45266  -0.26134  -0.00000   0.00000  -0.59013
  40 10  C  1S          0.01609  -0.00929   0.00000   0.00000   0.00235
  41        2S         -0.08827   0.05096   0.00000  -0.00000  -0.02264
  42        2PX        -0.28719  -0.19015   0.34167  -0.06814   0.21332
  43        2PY        -0.19015  -0.50676   0.59179  -0.11802   0.22502
  44        2PZ        -0.29319   0.16927  -0.00000   0.00000   0.26825
  45        3S          0.28848  -0.16655  -0.00000  -0.00000   0.08008
  46        3PX         0.35034   0.29936  -0.83478  -0.10358  -0.29722
  47        3PY         0.29936   0.69601  -1.44589  -0.17940  -0.31469
  48        3PZ         0.52977  -0.30586   0.00000  -0.00000  -0.31806
  49 11  H  1S          0.39490   0.30773   0.05228   0.57202  -0.39604
  50        2S         -0.72559  -0.49406   0.74579  -0.49375   0.69566
  51 12  H  1S         -0.06905  -0.49586  -0.05228  -0.57202   0.06047
  52        2S          0.06508   0.87541  -0.74579   0.49375  -0.18012
  53 13  H  1S         -0.21125   0.12197  -0.00000   0.00000   0.36095
  54        2S          0.45266  -0.26134   0.00000  -0.00000  -0.59013
  55 14  H  1S          0.00000   0.00000   0.00000   0.00000   0.00000
  56        2S          0.00000  -0.00000   0.00000   0.00000  -0.00000
                          46        47        48        49        50
                        (E)--V    (A1)--V   (E)--V    (E)--V    (A1)--V
     Eigenvalues --     1.19296   1.22765   1.28555   1.28555   1.46617
   1 1   N  1S          0.00000  -0.06021  -0.00000   0.00000   0.01696
   2        2S          0.00000   0.23367   0.00000   0.00000  -0.10724
   3        2PX         0.10070   0.00000   0.00000   0.05255   0.00000
   4        2PY         0.00000  -0.00000   0.05255   0.00000   0.00000
   5        2PZ         0.00000   0.51848  -0.00000   0.00000  -0.82622
   6        3S          0.00000   0.01553  -0.00000   0.00000  -0.16189
   7        3PX        -0.18912   0.00000   0.00000  -0.00204   0.00000
   8        3PY         0.00000   0.00000  -0.00204   0.00000  -0.00000
   9        3PZ         0.00000  -0.29056   0.00000   0.00000   1.77577
  10 2   C  1S          0.00000   0.03909   0.07252   0.00000   0.00160
  11        2S          0.00000  -0.13157  -0.41689   0.00000  -0.51651
  12        2PX        -0.34818   0.00000   0.00000  -0.04902   0.00000
  13        2PY         0.00000  -0.09277  -0.54587   0.00000  -0.20833
  14        2PZ         0.00000   0.08946   0.01557   0.00000  -0.10098
  15        3S          0.00000   0.05401   0.85400   0.00000   1.29005
  16        3PX         0.48629   0.00000   0.00000   0.41818   0.00000
  17        3PY         0.00000   0.12462   1.00166   0.00000  -0.00826
  18        3PZ         0.00000  -0.37387   0.22486   0.00000  -0.26691
  19 3   H  1S         -0.26357   0.31150   0.41288   0.25422   0.10540
  20        2S          0.50563  -0.18609  -0.79238  -0.07445  -0.32906
  21 4   H  1S          0.26357   0.31150   0.41288  -0.25422   0.10540
  22        2S         -0.50563  -0.18609  -0.79238   0.07445  -0.32906
  23 5   H  1S          0.00000   0.04341   0.62245   0.00000  -0.26054
  24        2S          0.00000  -0.21612  -0.54774   0.00000  -0.18813
  25 6   C  1S         -0.00406   0.03909  -0.03626  -0.06280   0.00160
  26        2S          0.03922  -0.13157   0.20845   0.36104  -0.51651
  27        2PX         0.02130   0.08034  -0.21514  -0.42166   0.18042
  28        2PY         0.21332   0.04639  -0.17323  -0.21514   0.10416
  29        2PZ        -0.46463   0.08946  -0.00778  -0.01348  -0.10098
  30        3S         -0.13871   0.05401  -0.42700  -0.73959   1.29005
  31        3PX        -0.02851  -0.10792   0.25265   0.85579   0.00716
  32        3PY        -0.29722  -0.06231   0.56405   0.25265   0.00413
  33        3PZ         0.55090  -0.37387  -0.11243  -0.19474  -0.26691
  34 7   H  1S          0.42239   0.31150   0.01372  -0.48468   0.10540
  35        2S         -0.69929  -0.18609   0.33172   0.72344  -0.32906
  36 8   H  1S          0.15882   0.31150  -0.42661  -0.23046   0.10540
  37        2S         -0.19365  -0.18609   0.46066   0.64900  -0.32906
  38 9   H  1S         -0.62519   0.04341  -0.31122  -0.53906  -0.26054
  39        2S          1.02214  -0.21612   0.27387   0.47436  -0.18813
  40 10  C  1S          0.00406   0.03909  -0.03626   0.06280   0.00160
  41        2S         -0.03922  -0.13157   0.20845  -0.36104  -0.51651
  42        2PX         0.02130  -0.08034   0.21514  -0.42166  -0.18042
  43        2PY        -0.21332   0.04639  -0.17323   0.21514   0.10416
  44        2PZ         0.46463   0.08946  -0.00778   0.01348  -0.10098
  45        3S          0.13871   0.05401  -0.42700   0.73959   1.29005
  46        3PX        -0.02851   0.10792  -0.25265   0.85579  -0.00716
  47        3PY         0.29722  -0.06231   0.56405  -0.25265   0.00413
  48        3PZ        -0.55090  -0.37387  -0.11243   0.19474  -0.26691
  49 11  H  1S         -0.15882   0.31150  -0.42661   0.23046   0.10540
  50        2S          0.19365  -0.18609   0.46066  -0.64900  -0.32906
  51 12  H  1S         -0.42239   0.31150   0.01372   0.48468   0.10540
  52        2S          0.69929  -0.18609   0.33172  -0.72344  -0.32906
  53 13  H  1S          0.62519   0.04341  -0.31122   0.53906  -0.26054
  54        2S         -1.02214  -0.21612   0.27387  -0.47436  -0.18813
  55 14  H  1S          0.00000  -0.95799  -0.00000   0.00000  -0.44870
  56        2S          0.00000   1.19036   0.00000   0.00000  -0.50899
                          51        52        53        54        55
                        (E)--V    (E)--V    (A1)--V   (E)--V    (E)--V
     Eigenvalues --     1.52313   1.52313   1.64576   2.04738   2.04738
   1 1   N  1S          0.00000   0.00000   0.04301  -0.00000   0.00000
   2        2S         -0.00000   0.00000  -0.09684   0.00000   0.00000
   3        2PX         0.00000  -1.03094   0.00000   0.00000   0.01272
   4        2PY        -1.03094   0.00000  -0.00000  -0.01272   0.00000
   5        2PZ        -0.00000   0.00000   0.43953   0.00000   0.00000
   6        3S          0.00000   0.00000  -0.63630  -0.00000   0.00000
   7        3PX         0.00000   2.12462   0.00000   0.00000   0.72752
   8        3PY         2.12462   0.00000   0.00000  -0.72752   0.00000
   9        3PZ         0.00000   0.00000  -0.92816  -0.00000   0.00000
  10 2   C  1S          0.04020   0.00000  -0.00239  -0.06604   0.00000
  11        2S         -0.05242   0.00000  -0.96150  -1.72668   0.00000
  12        2PX         0.00000  -0.20728   0.00000   0.00000  -0.18126
  13        2PY         0.21987   0.00000   0.00156   0.14076   0.00000
  14        2PZ        -0.01724   0.00000  -0.00325   0.07693   0.00000
  15        3S         -1.11157   0.00000   1.62926   3.64245   0.00000
  16        3PX         0.00000  -0.26524   0.00000   0.00000   0.59152
  17        3PY         0.28692   0.00000   0.26054  -0.63033   0.00000
  18        3PZ        -0.57103   0.00000   0.39825  -0.24357   0.00000
  19 3   H  1S          0.26092  -0.24551  -0.13044  -0.23637   0.07206
  20        2S          0.04974   0.12665  -0.42234  -0.43034   0.26213
  21 4   H  1S          0.26092   0.24551  -0.13044  -0.23637  -0.07206
  22        2S          0.04974  -0.12665  -0.42234  -0.43034  -0.26213
  23 5   H  1S          0.06568   0.00000   0.11684  -0.34771   0.00000
  24        2S         -0.14229   0.00000  -0.23845  -0.72231   0.00000
  25 6   C  1S         -0.02010  -0.03481  -0.00239   0.03302  -0.05719
  26        2S          0.02621   0.04540  -0.96150   0.86334  -1.49535
  27        2PX         0.18496   0.11308  -0.00135  -0.01754  -0.15088
  28        2PY        -0.10049   0.18496  -0.00078   0.17114   0.01754
  29        2PZ         0.00862   0.01493  -0.00325  -0.03847   0.06662
  30        3S          0.55579   0.96265   1.62926  -1.82123   3.15446
  31        3PX         0.23909   0.14888  -0.22563  -0.01681   0.62063
  32        3PY        -0.12720   0.23909  -0.13027  -0.60122   0.01681
  33        3PZ         0.28552   0.49453   0.39825   0.12178  -0.21093
  34 7   H  1S         -0.34308  -0.10321  -0.13044   0.05578  -0.24073
  35        2S          0.08481  -0.10640  -0.42234  -0.01184  -0.50375
  36 8   H  1S          0.08216  -0.34872  -0.13044   0.18059  -0.16867
  37        2S         -0.13455   0.02025  -0.42234   0.44218  -0.24162
  38 9   H  1S         -0.03284  -0.05688   0.11684   0.17385  -0.30112
  39        2S          0.07114   0.12322  -0.23845   0.36116  -0.62554
  40 10  C  1S         -0.02010   0.03481  -0.00239   0.03302   0.05719
  41        2S          0.02621  -0.04540  -0.96150   0.86334   1.49535
  42        2PX        -0.18496   0.11308   0.00135   0.01754  -0.15088
  43        2PY        -0.10049  -0.18496  -0.00078   0.17114  -0.01754
  44        2PZ         0.00862  -0.01493  -0.00325  -0.03847  -0.06662
  45        3S          0.55579  -0.96265   1.62926  -1.82123  -3.15446
  46        3PX        -0.23909   0.14888   0.22563   0.01681   0.62063
  47        3PY        -0.12720  -0.23909  -0.13027  -0.60122  -0.01681
  48        3PZ         0.28552  -0.49453   0.39825   0.12178   0.21093
  49 11  H  1S          0.08216   0.34872  -0.13044   0.18059   0.16867
  50        2S         -0.13455  -0.02025  -0.42234   0.44218   0.24162
  51 12  H  1S         -0.34308   0.10321  -0.13044   0.05578   0.24073
  52        2S          0.08481   0.10640  -0.42234  -0.01184   0.50375
  53 13  H  1S         -0.03284   0.05688   0.11684   0.17385   0.30112
  54        2S          0.07114  -0.12322  -0.23845   0.36116   0.62554
  55 14  H  1S         -0.00000   0.00000   0.55265  -0.00000   0.00000
  56        2S         -0.00000   0.00000  -0.16680   0.00000   0.00000
                          56
                        (A1)--V
     Eigenvalues --     2.92399
   1 1   N  1S         -0.03940
   2        2S         -2.01979
   3        2PX         0.00000
   4        2PY         0.00000
   5        2PZ         0.10569
   6        3S          3.72361
   7        3PX         0.00000
   8        3PY        -0.00000
   9        3PZ        -0.29936
  10 2   C  1S          0.05079
  11        2S          0.18156
  12        2PX         0.00000
  13        2PY         0.22680
  14        2PZ        -0.04167
  15        3S         -1.25063
  16        3PX         0.00000
  17        3PY         0.29294
  18        3PZ        -0.20229
  19 3   H  1S          0.12654
  20        2S          0.16460
  21 4   H  1S          0.12654
  22        2S          0.16460
  23 5   H  1S          0.11148
  24        2S          0.08441
  25 6   C  1S          0.05079
  26        2S          0.18156
  27        2PX        -0.19642
  28        2PY        -0.11340
  29        2PZ        -0.04167
  30        3S         -1.25063
  31        3PX        -0.25369
  32        3PY        -0.14647
  33        3PZ        -0.20229
  34 7   H  1S          0.12654
  35        2S          0.16460
  36 8   H  1S          0.12654
  37        2S          0.16460
  38 9   H  1S          0.11148
  39        2S          0.08441
  40 10  C  1S          0.05079
  41        2S          0.18156
  42        2PX         0.19642
  43        2PY        -0.11340
  44        2PZ        -0.04167
  45        3S         -1.25063
  46        3PX         0.25369
  47        3PY        -0.14647
  48        3PZ        -0.20229
  49 11  H  1S          0.12654
  50        2S          0.16460
  51 12  H  1S          0.12654
  52        2S          0.16460
  53 13  H  1S          0.11148
  54        2S          0.08441
  55 14  H  1S         -0.41536
  56        2S         -0.09192
     Density Matrix:
                           1         2         3         4         5
   1 1   N  1S          2.05259
   2        2S          0.12052   0.09437
   3        2PX         0.00000  -0.00000   0.34885
   4        2PY         0.00000  -0.00000   0.00000   0.34885
   5        2PZ        -0.00048   0.00680  -0.00000  -0.00000   0.35174
   6        3S         -0.51625   0.28975   0.00000   0.00000  -0.03486
   7        3PX        -0.00000   0.00000   0.39978   0.00000  -0.00000
   8        3PY        -0.00000   0.00000  -0.00000   0.39978  -0.00000
   9        3PZ         0.02973  -0.00720  -0.00000  -0.00000   0.37487
  10 2   C  1S          0.00659  -0.00544  -0.00000  -0.04780   0.01687
  11        2S         -0.01304   0.00971   0.00000   0.04689  -0.01918
  12        2PX         0.00000  -0.00000  -0.00245  -0.00000   0.00000
  13        2PY         0.03976  -0.03447  -0.00000  -0.19558   0.06752
  14        2PZ        -0.01395   0.01193   0.00000   0.06892  -0.02844
  15        3S          0.06670  -0.01963   0.00000   0.05916  -0.02198
  16        3PX        -0.00000  -0.00000  -0.04618  -0.00000   0.00000
  17        3PY        -0.00980  -0.00251  -0.00000  -0.10899   0.02045
  18        3PZ         0.00160   0.00284   0.00000   0.01541  -0.03963
  19 3   H  1S          0.00552  -0.00533   0.01468  -0.02650  -0.00091
  20        2S          0.00223  -0.00468   0.01638  -0.03779   0.00208
  21 4   H  1S          0.00552  -0.00533  -0.01468  -0.02650  -0.00091
  22        2S          0.00223  -0.00468  -0.01638  -0.03779   0.00208
  23 5   H  1S          0.00482  -0.00457  -0.00000  -0.01736   0.02536
  24        2S          0.00239  -0.00325  -0.00000  -0.03224   0.03869
  25 6   C  1S          0.00659  -0.00544   0.04140   0.02390   0.01687
  26        2S         -0.01304   0.00971  -0.04060  -0.02344  -0.01918
  27        2PX        -0.03444   0.02985  -0.14730  -0.08363  -0.05847
  28        2PY        -0.01988   0.01724  -0.08363  -0.05074  -0.03376
  29        2PZ        -0.01395   0.01193  -0.05969  -0.03446  -0.02844
  30        3S          0.06670  -0.01963  -0.05124  -0.02958  -0.02198
  31        3PX         0.00849   0.00217  -0.09329  -0.02719  -0.01771
  32        3PY         0.00490   0.00125  -0.02719  -0.06188  -0.01022
  33        3PZ         0.00160   0.00284  -0.01334  -0.00770  -0.03963
  34 7   H  1S          0.00552  -0.00533   0.01561   0.02597  -0.00091
  35        2S          0.00223  -0.00468   0.02453   0.03308   0.00208
  36 8   H  1S          0.00552  -0.00533   0.03030   0.00054  -0.00091
  37        2S          0.00223  -0.00468   0.04091   0.00471   0.00208
  38 9   H  1S          0.00482  -0.00457   0.01503   0.00868   0.02536
  39        2S          0.00239  -0.00325   0.02792   0.01612   0.03869
  40 10  C  1S          0.00659  -0.00544  -0.04140   0.02390   0.01687
  41        2S         -0.01304   0.00971   0.04060  -0.02344  -0.01918
  42        2PX         0.03444  -0.02985  -0.14730   0.08363   0.05847
  43        2PY        -0.01988   0.01724   0.08363  -0.05074  -0.03376
  44        2PZ        -0.01395   0.01193   0.05969  -0.03446  -0.02844
  45        3S          0.06670  -0.01963   0.05124  -0.02958  -0.02198
  46        3PX        -0.00849  -0.00217  -0.09329   0.02719   0.01771
  47        3PY         0.00490   0.00125   0.02719  -0.06188  -0.01022
  48        3PZ         0.00160   0.00284   0.01334  -0.00770  -0.03963
  49 11  H  1S          0.00552  -0.00533  -0.03030   0.00054  -0.00091
  50        2S          0.00223  -0.00468  -0.04091   0.00471   0.00208
  51 12  H  1S          0.00552  -0.00533  -0.01561   0.02597  -0.00091
  52        2S          0.00223  -0.00468  -0.02453   0.03308   0.00208
  53 13  H  1S          0.00482  -0.00457  -0.01503   0.00868   0.02536
  54        2S          0.00239  -0.00325  -0.02792   0.01612   0.03869
  55 14  H  1S         -0.03881   0.04299  -0.00000  -0.00000   0.22128
  56        2S          0.01119   0.00372  -0.00000  -0.00000   0.12113
                           6         7         8         9        10
   6        3S          1.37041
   7        3PX         0.00000   0.47151
   8        3PY         0.00000  -0.00000   0.47151
   9        3PZ        -0.11464  -0.00000  -0.00000   0.40514
  10 2   C  1S          0.01211  -0.00000  -0.01792   0.01506   2.03942
  11        2S          0.00686   0.00000   0.02961  -0.01551   0.11451
  12        2PX        -0.00000  -0.00404  -0.00000   0.00000  -0.00000
  13        2PY        -0.18308  -0.00000  -0.24142   0.08273  -0.01989
  14        2PZ         0.06084   0.00000   0.08580  -0.03944   0.00618
  15        3S         -0.21527  -0.00000  -0.02095   0.00169  -0.41529
  16        3PX        -0.00000  -0.05146  -0.00000   0.00000  -0.00000
  17        3PY        -0.02300  -0.00000  -0.13185   0.02357  -0.00100
  18        3PZ         0.01668   0.00000   0.02279  -0.04743   0.00994
  19 3   H  1S         -0.05240   0.01763  -0.05010   0.00381  -0.05631
  20        2S         -0.02564   0.02083  -0.04733   0.00315   0.02108
  21 4   H  1S         -0.05240  -0.01763  -0.05010   0.00381  -0.05631
  22        2S         -0.02564  -0.02083  -0.04733   0.00315   0.02108
  23 5   H  1S         -0.05064  -0.00000  -0.04015   0.03683  -0.05616
  24        2S         -0.02633  -0.00000  -0.03981   0.04634   0.02669
  25 6   C  1S          0.01211   0.01552   0.00896   0.01506  -0.00538
  26        2S          0.00686  -0.02564  -0.01480  -0.01551  -0.00352
  27        2PX         0.15855  -0.18207  -0.10279  -0.07164   0.00231
  28        2PY         0.09154  -0.10279  -0.06339  -0.04136   0.00853
  29        2PZ         0.06084  -0.07431  -0.04290  -0.03944  -0.00157
  30        3S         -0.21527   0.01814   0.01048   0.00169   0.03377
  31        3PX         0.01992  -0.11175  -0.03481  -0.02041   0.00261
  32        3PY         0.01150  -0.03481  -0.07156  -0.01178   0.03195
  33        3PZ         0.01668  -0.01974  -0.01140  -0.04743  -0.01207
  34 7   H  1S         -0.05240   0.03457   0.04032   0.00381  -0.00756
  35        2S         -0.02564   0.03057   0.04170   0.00315  -0.00016
  36 8   H  1S         -0.05240   0.05220   0.00978   0.00381   0.00223
  37        2S         -0.02564   0.05140   0.00563   0.00315  -0.00494
  38 9   H  1S         -0.05064   0.03477   0.02008   0.03683   0.00206
  39        2S         -0.02633   0.03447   0.01990   0.04634  -0.00560
  40 10  C  1S          0.01211  -0.01552   0.00896   0.01506  -0.00538
  41        2S          0.00686   0.02564  -0.01480  -0.01551  -0.00352
  42        2PX        -0.15855  -0.18207   0.10279   0.07164  -0.00231
  43        2PY         0.09154   0.10279  -0.06339  -0.04136   0.00853
  44        2PZ         0.06084   0.07431  -0.04290  -0.03944  -0.00157
  45        3S         -0.21527  -0.01814   0.01048   0.00169   0.03377
  46        3PX        -0.01992  -0.11175   0.03481   0.02041  -0.00261
  47        3PY         0.01150   0.03481  -0.07156  -0.01178   0.03195
  48        3PZ         0.01668   0.01974  -0.01140  -0.04743  -0.01207
  49 11  H  1S         -0.05240  -0.05220   0.00978   0.00381   0.00223
  50        2S         -0.02564  -0.05140   0.00563   0.00315  -0.00494
  51 12  H  1S         -0.05240  -0.03457   0.04032   0.00381  -0.00756
  52        2S         -0.02564  -0.03057   0.04170   0.00315  -0.00016
  53 13  H  1S         -0.05064  -0.03477   0.02008   0.03683   0.00206
  54        2S         -0.02633  -0.03447   0.01990   0.04634  -0.00560
  55 14  H  1S          0.13970  -0.00000  -0.00000   0.22834   0.00667
  56        2S         -0.00852  -0.00000  -0.00000   0.13060   0.01222
                          11        12        13        14        15
  11        2S          0.10283
  12        2PX         0.00000   0.31906
  13        2PY         0.01477  -0.00000   0.21194
  14        2PZ        -0.00429   0.00000   0.03933   0.30421
  15        3S          0.23692   0.00000   0.13417  -0.05162   0.87514
  16        3PX         0.00000   0.28858  -0.00000   0.00000   0.00000
  17        3PY         0.00712  -0.00000   0.11793   0.06495   0.04360
  18        3PZ        -0.00475   0.00000   0.06431   0.25708  -0.03396
  19 3   H  1S          0.05343  -0.18039   0.09193   0.07833   0.18717
  20        2S          0.00933  -0.12455   0.05745   0.05721   0.03014
  21 4   H  1S          0.05343   0.18039   0.09193   0.07833   0.18717
  22        2S          0.00933   0.12455   0.05745   0.05721   0.03014
  23 5   H  1S          0.05267  -0.00000  -0.01459  -0.21540   0.19209
  24        2S          0.00669  -0.00000  -0.01515  -0.15193   0.02641
  25 6   C  1S         -0.00352  -0.00624  -0.00627  -0.00157   0.03377
  26        2S          0.00012   0.00374   0.00579   0.00065  -0.01079
  27        2PX        -0.00315   0.00395   0.02114   0.00453   0.00203
  28        2PY        -0.00614   0.01573   0.02523  -0.00504  -0.06030
  29        2PZ         0.00065   0.00663  -0.00140  -0.00932   0.02331
  30        3S         -0.01079   0.05323   0.02839   0.02331  -0.06455
  31        3PX        -0.00195   0.00873   0.01442   0.01337   0.01127
  32        3PY        -0.01404   0.02952   0.04155  -0.00541  -0.07175
  33        3PZ         0.00500   0.00919  -0.01335  -0.01090   0.03364
  34 7   H  1S          0.00599  -0.00875  -0.02244   0.00306   0.03882
  35        2S          0.00367  -0.01120  -0.02646   0.00160   0.02601
  36 8   H  1S         -0.00092   0.00721   0.00533  -0.00405  -0.02393
  37        2S          0.00137  -0.00328   0.00527   0.00116  -0.00295
  38 9   H  1S         -0.00153   0.00085   0.00905   0.00341  -0.02550
  39        2S          0.00093  -0.00053   0.00382  -0.00716  -0.00548
  40 10  C  1S         -0.00352   0.00624  -0.00627  -0.00157   0.03377
  41        2S          0.00012  -0.00374   0.00579   0.00065  -0.01079
  42        2PX         0.00315   0.00395  -0.02114  -0.00453  -0.00203
  43        2PY        -0.00614  -0.01573   0.02523  -0.00504  -0.06030
  44        2PZ         0.00065  -0.00663  -0.00140  -0.00932   0.02331
  45        3S         -0.01079  -0.05323   0.02839   0.02331  -0.06455
  46        3PX         0.00195   0.00873  -0.01442  -0.01337  -0.01127
  47        3PY        -0.01404  -0.02952   0.04155  -0.00541  -0.07175
  48        3PZ         0.00500  -0.00919  -0.01335  -0.01090   0.03364
  49 11  H  1S         -0.00092  -0.00721   0.00533  -0.00405  -0.02393
  50        2S          0.00137   0.00328   0.00527   0.00116  -0.00295
  51 12  H  1S          0.00599   0.00875  -0.02244   0.00306   0.03882
  52        2S          0.00367   0.01120  -0.02646   0.00160   0.02601
  53 13  H  1S         -0.00153  -0.00085   0.00905   0.00341  -0.02550
  54        2S          0.00093   0.00053   0.00382  -0.00716  -0.00548
  55 14  H  1S         -0.00760   0.00000   0.01882  -0.02653  -0.03025
  56        2S         -0.00852   0.00000   0.01123  -0.04451  -0.01982
                          16        17        18        19        20
  16        3PX         0.26785
  17        3PY        -0.00000   0.07942
  18        3PZ         0.00000   0.07241   0.22512
  19 3   H  1S         -0.16492   0.05945   0.07671   0.18418
  20        2S         -0.11427   0.04010   0.05623   0.10793   0.07370
[...]
     6         -2.36951921         -1.36854440         -0.10889099
     1         -2.32641702         -3.27773233          0.60429019
     1         -4.00167303         -0.37711600          0.60429019
     1         -2.37286964         -1.37047945         -2.14711881
     6          2.36991366         -1.36782832         -0.10889099
     1          4.00176781         -0.37590676          0.60429019
     1          2.32738839         -3.27702918          0.60429019
     1          2.37326468         -1.36976235         -2.14711881
     1         -0.00000949         -0.00002994          2.69030723

 Electric dipole moment (dipole orientation):
 (Debye = 10**-18 statcoulomb cm , SI units = C m)
                  (au)            (Debye)         (10**-30 SI)
   Tot        0.318530D+00      0.809622D+00      0.270061D+01
   x          0.000000D+00      0.000000D+00      0.000000D+00
   y          0.000000D+00      0.000000D+00      0.000000D+00
   z          0.318530D+00      0.809622D+00      0.270061D+01

 Dipole polarizability, Alpha (dipole orientation).
 (esu units = cm**3 , SI units = C**2 m**2 J**-1)
 Alpha(0;0):
               (au)            (10**-24 esu)      (10**-40 SI)
   iso        0.338018D+02      0.500890D+01      0.557316D+01
   aniso      0.428050D+01      0.634305D+00      0.705760D+00
   xx         0.352286D+02      0.522034D+01      0.580841D+01
   yx         0.000000D+00      0.000000D+00      0.000000D+00
   yy         0.352286D+02      0.522034D+01      0.580841D+01
   zx         0.000000D+00      0.000000D+00      0.000000D+00
   zy         0.000000D+00      0.000000D+00      0.000000D+00
   zz         0.309481D+02      0.458603D+01      0.510265D+01

 First dipole hyperpolarizability, Beta (dipole orientation).
 ||, _|_  parallel and perpendicular components, (z) with respect to z axis,
 vector components x,y,z.  Values do not include the 1/n! factor of 1/2.
 (esu units = statvolt**-1 cm**4 , SI units = C**3 m**3 J**-2)
 Beta(0;0,0):
               (au)            (10**-30 esu)      (10**-50 SI)
   || (z)    -0.617663D+01     -0.533612D-01     -0.198045D-01
   _|_(z)    -0.205888D+01     -0.177871D-01     -0.660150D-02
   x          0.000000D+00      0.000000D+00      0.000000D+00
   y          0.000000D+00      0.000000D+00      0.000000D+00
   z         -0.308831D+02     -0.266806D+00     -0.990225D-01
   ||         0.617663D+01      0.533612D-01      0.198045D-01
   xxx       -0.735975D-02     -0.635825D-04     -0.235980D-04
   xxy        0.162369D+02      0.140274D+00      0.520614D-01
   yxy        0.735975D-02      0.635825D-04      0.235980D-04
   yyy       -0.162369D+02     -0.140274D+00     -0.520614D-01
   xxz        0.157718D+02      0.136256D+00      0.505700D-01
   yxz        0.000000D+00      0.000000D+00      0.000000D+00
   yyz        0.157718D+02      0.136256D+00      0.505700D-01
   zxz        0.000000D+00      0.000000D+00      0.000000D+00
   zyz        0.000000D+00      0.000000D+00      0.000000D+00
   zzz       -0.418379D+02     -0.361447D+00     -0.134147D+00

 ----------------------------------------------------------------------
 1\1\GINC-IISERK51\Freq\RHF\3-21G\C3H10N1(1+)\GAUSSIAN\16-Jun-2025\0\\#
 N Geom=AllCheck Guess=TCheck SCRF=Check GenChk RHF/3-21G Freq\\TMA+ op
 t\\1,1\N,0.0001645436,0.0005141514,0.4085755214\C,-0.0002481056,1.4479
 025952,-0.0595007571\H,-0.886440259,1.9337884345,0.3176363292\H,0.8861
 103227,1.9340557735,0.316900342\H,-0.0006960467,1.4485509157,-1.138086
 127\C,-1.2539191803,-0.7242763091,-0.0561627724\H,-1.2309535833,-1.734
 0846569,0.3225371689\H,-2.1174612231,-0.1991456523,0.3209140064\H,-1.2
 56139782,-0.7266993969,-1.1347434225\C,1.2540804749,-0.7238980485,-0.0
 572041281\H,2.1177769134,-0.1985068867,0.3191554777\H,1.2317339715,-1.
 7337132303,0.3215146274\H,1.255406124,-0.7263206014,-1.1357862506\H,0.
 000585817,0.0018308745,1.4236479778\\Version=EM64L-G16RevB.01\State=1-
 A1\HF=-172.7055338\RMSD=2.716e-10\RMSF=7.869e-05\ZeroPoint=0.1455109\T
 hermal=0.1508686\Dipole=0.0001322,0.0004132,0.3185297\DipoleDeriv=-0.7
 002724,0.0000001,0.0001273,0.0000001,-0.7002719,0.0003979,0.0001273,0.
 0003979,-0.393506,0.0821786,-0.0001371,0.0000419,-0.0000945,0.5242622,
 -0.0671235,0.0000573,-0.169565,0.1587031,0.0265445,0.0469246,0.0511535
 ,-0.0056228,0.072747,0.0269108,0.0596515,0.0039658,0.0970859,0.026465,
 -0.0469353,-0.0511029,0.0056312,0.0727345,0.0268907,-0.0595941,0.00398
 68,0.0971779,0.1293381,0.0000066,-0.0000348,-0.0000286,0.0674928,-0.09
 14112,-0.0000476,-0.0066565,0.0122741,0.4139978,0.1917036,0.0573599,0.
 1917974,0.1929867,0.0332087,0.1460691,0.0844429,0.1581594,0.0789372,0.
 0359637,-0.0489076,-0.0165917,0.0203388,0.0309957,-0.0332023,0.0497359
 ,0.0971014,0.043332,0.0039882,0.0023511,0.0565856,0.055741,-0.057735,0
 .0263487,-0.0535447,0.0973044,0.0830928,-0.0266255,0.0791005,-0.026703
 1,0.1139639,0.0455606,0.0057073,0.0031722,0.0120484,0.4139443,-0.19156
 68,-0.0575823,-0.1917031,0.1928711,0.0333506,-0.1463069,0.084558,0.158
 3285,0.0433265,-0.0040364,-0.0022889,-0.0566372,0.0557227,-0.0576887,-
 0.0262877,-0.0535493,0.0973282,0.0790112,-0.0359047,0.0489133,0.016635
 1,0.020333,0.0309966,0.0332023,0.0497758,0.0970332,0.0830062,0.0266188
 ,-0.0791731,0.0267316,0.11398,0.0455146,-0.0057671,0.0031484,0.0121189
 ,0.197098,0.,0.0000422,0.,0.1970982,0.000132,0.0000423,0.000132,0.2988
 427\Polar=35.228595,-0.0000023,35.2285886,-0.0017765,-0.0055525,30.948
 101\PolarDeriv=0.0010122,4.7103577,0.0033367,2.3372416,-0.0019632,-0.0
 040524,4.7110816,0.0031054,-4.6974687,-0.0019632,2.3494331,-0.0126894,
 2.8956003,-0.0019632,2.9077925,-0.0042842,-0.0134138,-5.0901393,-0.001
 6011,-3.4296809,-0.0027894,-2.1538284,0.0011211,0.0032608,-1.8888127,-
 0.0021146,4.3786922,0.0009159,-1.5705434,0.5289638,-2.7256581,0.001195
 6,-2.6357064,0.0036561,-0.51767,3.7378243,-4.4735034,2.5749752,-1.6909
 103,1.2809439,-0.2001655,-0.5535185,1.0472678,-2.516927,3.3124227,-0.1
 792393,1.1464364,0.1644907,1.0150582,-0.2190192,1.0581457,-1.7501737,1
 .4515301,0.9137162,4.4746023,2.5754024,1.6923426,1.2790261,0.1992731,0
 .5521005,1.0473957,2.5179714,3.3144517,0.1785467,1.14446,0.1643603,1.0
 141164,0.2180732,1.0568727,1.7485877,1.4517104,0.9103517,-0.0016915,0.
 9137549,-0.0000947,-1.5938069,0.0001327,-0.0013265,0.2214685,-0.000699
 9,0.0322162,0.0000974,-2.0857076,0.2773483,-0.1413623,0.0001699,-0.880
 0613,-0.0020469,1.054561,-6.2814233,-0.9577942,-3.2105897,-1.2108306,-
 1.7087288,0.2594328,-0.448035,-3.982726,0.1241345,2.7199985,0.2589812,
 -2.0134125,-0.2502404,-2.6475977,0.0449444,-2.7055667,0.4601611,0.2748
 914,3.7365881,-0.4071974,-1.8961165,-0.278945,1.019065,0.0261968,0.132
 2732,-0.4172694,-1.1884289,-7.0931628,0.0480977,1.4204871,-0.5648087,0
 .8577391,0.1288434,1.220136,-0.3839268,-2.2444512,0.9228303,-6.5703272
 ,1.4881216,-0.2827567,1.3463635,-0.1437983,-0.4210355,1.5367722,-2.018
 3836,1.6291908,-0.1652592,1.0846054,0.394538,1.2366337,-0.0919242,0.83
 63622,-2.1340166,0.7872804,0.915405,-0.4718418,0.2947106,0.2437149,-1.
 9643058,-0.215256,-0.242954,0.6435731,-0.3581167,-0.7797797,-0.2153333
 ,-1.7160959,-0.143589,-0.6986405,-0.3222839,-0.3270657,-0.9177215,-0.5
 348369,-6.2758946,0.9558948,-3.2108778,1.2058263,-1.7093728,-0.2564463
 ,0.4540521,-3.9827883,-0.1287968,2.7202869,-0.2557896,-2.0134629,-0.24
 96768,-2.6491248,-0.0420324,-2.7065963,-0.4535224,0.2750039,3.7369723,
 6.5722247,1.4896046,0.2838577,1.342934,0.1432946,0.4194418,1.5378101,2
 .0197048,1.6304943,0.1643888,1.0830218,0.394391,1.2346643,0.0914623,0.
 8361823,2.1323949,0.7877285,0.9115131,0.4108723,-1.8965655,0.2809536,1
 .0189565,-0.0266067,-0.1330292,-0.4179438,1.1910496,-7.0923606,-0.0483
 408,1.4194766,-0.5647686,0.8581148,-0.1292416,1.2198257,0.3838112,-2.2
 442063,0.9223029,0.4676284,0.2952639,-0.2435734,-1.9638637,0.2144921,0
 .2410471,0.643856,0.3572099,-0.7796369,0.2146046,-1.7162632,-0.1438729
 ,-0.697703,0.3214827,-0.3266692,0.9148814,-0.535006,-6.2776174,0.00172
 21,-0.6983597,-0.0001317,1.4693765,0.0002931,0.0017756,-0.6996847,0.00
 02919,0.704654,0.0002931,1.4675657,0.0055541,0.4481583,0.0002924,0.446
 3469,0.0021995,0.0068785,7.2175705\HyperPolar=0.0122638,16.2573557,0.0
 139009,-16.1754967,15.750681,-0.0067961,15.7926643,-0.030437,-0.095212
 5,-41.8377131\Quadrupole=0.647608,0.6476051,-1.295213,-0.000001,-0.000
 8063,-0.0025202\PG=C03V [C3(N1H1),3SGV(C1H1),X(H6)]\NImag=0\\0.5448497
 0,0.00000014,0.54485010,0.00010882,0.00034011,0.80704322,-0.10411051,0
 .00001366,-0.00000855,0.71078054,0.00001446,-0.14990313,0.01819748,0.0
 0006606,0.47959368,-0.00000826,0.01626657,-0.11808953,-0.00002360,0.07
 511787,0.68123881,0.00313305,-0.00494987,-0.00230479,-0.26882907,0.110
 55801,0.08999970,0.28318305,0.03311101,-0.02832099,-0.01265259,0.09865
 779,-0.11232444,-0.04309465,-0.11688691,0.13182882,-0.01490508,0.01197
 013,0.00417335,0.09319816,-0.05029340,-0.10156094,-0.09805779,0.046692
 23,0.10098561,0.00315584,0.00496931,0.00230945,-0.26891794,-0.11064696
 ,-0.08984770,-0.02221652,-0.01438599,-0.01209640,0.28327523,-0.0331120
 1,-0.02832949,-0.01262440,-0.09874077,-0.11238757,-0.04303981,0.014381
 98,0.01082185,0.00716415,0.11697131,0.13189936,0.01490231,0.01197051,0
 .00415906,-0.09304400,-0.05022964,-0.10140894,0.01211753,0.00717975,0.
 00582451,0.09789231,0.04662469,0.10082289,-0.00159096,0.00000228,-0.00
 001116,-0.06090235,-0.00000196,-0.00012202,0.00219137,-0.00133590,0.03
 247698,0.00216453,0.00133579,-0.03248170,0.05733271,0.00002199,-0.0120
 3276,0.04917737,-0.00000827,-0.05931699,-0.01934695,-0.00189969,0.0017
 3443,-0.01764401,0.00188516,0.00173541,-0.01765538,-0.00000106,0.07203
 084,-0.00000399,0.00169325,-0.01059282,-0.00012431,-0.00414463,-0.3618
 1239,-0.00134023,-0.00029946,-0.00993169,0.00133027,-0.00030017,-0.009
 90582,0.00013710,0.00279705,0.38853840,-0.13849481,-0.01987533,-0.0156
 8807,-0.00083994,-0.00850857,0.00192171,0.00110703,0.00280967,-0.00014
 237,0.00034858,0.00289211,-0.00099094,0.00040874,0.00133780,-0.0000798
 4,0.53722104,-0.01987356,-0.11559812,-0.00907538,-0.03381394,-0.025314
 08,-0.01108403,-0.00070099,0.00125466,-0.00044721,0.00085940,-0.005213
 73,0.00230358,0.00022779,0.00209193,-0.00088265,-0.10030806,0.65280790
 ,-0.01401600,-0.00810966,-0.11801024,0.01064616,0.00396506,0.00626509,
 0.00003794,-0.00059401,-0.00004052,0.00003164,0.00351014,-0.00106371,0
 .00141689,0.00175033,0.00023168,-0.06463168,-0.03735906,0.68158409,-0.
 00824724,-0.03970435,0.01219455,-0.00545404,-0.00046350,-0.00301661,0.
 00012944,-0.00023507,-0.00031049,0.00053343,-0.00185123,0.00065912,-0.
 00017219,0.00015643,0.00010743,-0.06087636,0.02158727,-0.00778413,0.06
 847045,-0.00162687,-0.01694754,0.00436662,-0.00249695,0.00057677,-0.00
 178384,0.00000896,0.00023417,-0.00000035,0.00010189,-0.00047836,0.0004
 1876,0.00001918,0.00006883,0.00005008,0.00968332,-0.31996978,0.0998190
 8,-0.00727030,0.34622744,-0.00288962,-0.01879044,0.00418019,-0.0024787
 5,-0.00029753,-0.00105160,-0.00008399,0.00022341,-0.00014009,-0.000032
 89,-0.00077506,0.00068655,-0.00021139,-0.00025868,0.00037276,-0.003130
 17,0.10616763,-0.10186831,0.00866061,-0.10864318,0.10129958,-0.0326582
 2,0.01247043,0.00982283,0.00030544,0.00234758,0.00052745,0.00047173,-0
 .00099300,-0.00013106,0.00030538,-0.00013330,-0.00023575,-0.00014283,-
 0.00025386,0.00009110,-0.24188674,0.11420705,0.08226165,0.00253881,-0.
 00006512,-0.00015029,0.27073118,-0.02565213,0.00749484,0.00835173,-0.0
 0116368,0.00205877,0.00026102,-0.00033201,-0.00029375,-0.00019834,0.00
 011050,0.00005824,-0.00003965,-0.00000934,-0.00018319,0.00014359,0.126
 12417,-0.13929551,-0.05645086,0.02864694,-0.01396655,-0.01407651,-0.12
 406777,0.14432658,-0.01771298,0.00689352,0.00414879,0.00031823,0.00033
 903,-0.00004304,0.00010690,0.00021571,0.00043852,-0.00015588,0.0002687
 4,-0.00014010,0.00028307,-0.00015265,-0.00015202,0.09006748,-0.0556032
 2,-0.10153219,-0.01231634,0.00693576,0.00585759,-0.08942429,0.06161277
 ,0.10093973,-0.00948870,-0.00460639,-0.04257793,0.00099242,0.00167390,
 -0.00081163,-0.00005882,-0.00020505,0.00027413,-0.00006738,0.00021700,
 0.00011832,0.00023835,-0.00028706,0.00038834,-0.05968295,0.00072146,0.
 01628734,0.00044753,0.00088961,-0.00097788,0.00329170,-0.00121348,0.03
 150979,0.06834766,-0.00456291,-0.00425228,-0.02460038,0.00056395,0.001
 50445,-0.00210616,0.00003864,-0.00026768,-0.00016852,0.00008008,-0.000
 03536,0.00031328,-0.00049573,-0.00021437,0.00037137,0.00070754,-0.0604
 8404,0.00908853,0.00039510,0.00353516,0.03692590,-0.00075074,0.0006339
 6,-0.01931779,0.00635969,0.06100489,-0.00145909,-0.00085210,-0.0104755
 6,0.00072201,0.00050553,0.00023546,-0.00007897,-0.00015018,-0.00015155
 ,0.00001079,-0.00011742,0.00037214,-0.00012571,-0.00051985,0.00056794,
 0.00312290,0.00148538,-0.36186474,0.00091071,-0.00103386,-0.00998858,-
 0.00042704,0.00128754,-0.00993155,-0.00194194,-0.00077132,0.38854939,-
 0.13848212,0.01986169,0.01570781,-0.00086313,0.00851923,-0.00191245,0.
 00035051,-0.00288751,0.00098906,0.00110775,-0.00281020,0.00014155,0.00
 040810,-0.00133685,0.00007996,-0.03752180,0.01266210,0.00869456,0.0021
 3249,0.00129338,0.00045264,-0.00220665,-0.00233546,-0.00149379,0.00234
 656,0.00089433,0.00079921,0.53726800,0.01985911,-0.11558613,-0.0090871
 4,0.03381210,-0.02530131,-0.01111268,-0.00085581,-0.00521486,0.0023045
 9,0.00070058,0.00125402,-0.00044775,-0.00022903,0.00209146,-0.00088243
 ,-0.01267085,0.01139061,0.00722025,-0.00221761,0.00023153,0.00010375,-
 0.00437113,-0.00267236,-0.00199978,-0.00022044,0.00015276,0.00037269,0
 .10024214,0.65286839,0.01403544,-0.00812194,-0.11803492,-0.01064145,0.
 00395478,0.00627552,-0.00003387,0.00351253,-0.00106451,-0.00003872,-0.
 00059169,-0.00004061,-0.00141757,0.00175102,0.00023278,-0.00866039,0.0
 0720711,0.00624226,0.00049518,0.00032717,-0.00004286,-0.00304677,-0.00
 172104,-0.00104986,-0.00222762,0.00035047,0.00023302,0.06476278,-0.037
 42281,0.68147664,-0.03265562,-0.01247682,-0.00979479,0.00030509,-0.002
 34782,-0.00052782,0.00030570,0.00013360,0.00023539,0.00047135,0.000993
 41,0.00013109,-0.00014322,0.00025375,-0.00009115,-0.00220490,0.0043696
 0,0.00304824,0.00011008,-0.00002022,0.00015514,-0.00098290,-0.00097781
 ,-0.00068775,0.00008503,0.00012884,-0.00009678,-0.24195722,-0.11428414
 ,-0.08212799,0.27080469,0.02564695,0.00749881,0.00832747,0.00116337,0.
 00205841,0.00025989,-0.00011046,0.00005825,-0.00003948,0.00033208,-0.0
 0029335,-0.00019858,0.00000947,-0.00018311,0.00014355,0.00233417,-0.00
 267034,-0.00172206,0.00022318,0.00025281,-0.00026974,0.00097750,0.0010
 3911,0.00035917,-0.00000752,-0.00018796,0.00006890,-0.12620196,-0.1393
 6803,-0.05637088,0.12415703,0.14440145,0.01774146,0.00690922,0.0041422
 1,-0.00031862,0.00034089,-0.00004234,0.00015543,0.00026868,-0.00014042
 ,-0.00010699,0.00021485,0.00043850,-0.00028303,-0.00015295,-0.00015171
 ,0.00149536,-0.00200296,-0.00105363,-0.00015228,-0.00018503,-0.0001393
 8,0.00068903,0.00036019,0.00068541,0.00033023,-0.00005306,0.00037233,-
 0.08993407,-0.05553549,-0.10138920,0.08926463,0.06153665,0.10079134,-0
 .00826742,0.03969135,-0.01218553,-0.00545037,0.00046143,0.00302080,0.0
 0053239,0.00185089,-0.00065912,0.00012970,0.00023522,0.00031027,-0.000
 17206,-0.00015672,-0.00010699,0.00213143,0.00221827,-0.00049709,-0.000
 67613,-0.00033036,0.00023977,0.00011014,-0.00022344,0.00015213,-0.0002
 8739,-0.00007364,-0.00016955,-0.06085797,-0.02142094,0.00771997,0.0025
 5779,-0.02865364,0.01231699,0.06845179,0.00163311,-0.01693508,0.004361
 59,0.00249365,0.00057766,-0.00178500,-0.00010124,-0.00047783,0.0004186
 4,-0.00000899,0.00023424,-0.00000025,-0.00001922,0.00006878,0.00005005
 ,-0.00129254,0.00023181,0.00032810,0.00032988,0.00085406,-0.00001556,0
 .00002002,0.00025275,-0.00018500,0.00017058,-0.00003843,0.00000662,-0.
 00952226,-0.31997916,0.09982940,0.00007586,-0.01397517,0.00693941,0.00
 709629,0.34623178,0.00290563,-0.01882253,0.00418791,0.00248249,-0.0002
 9717,-0.00105616,0.00003325,-0.00077658,0.00068707,0.00008370,0.000223
 24,-0.00014042,0.00021192,-0.00025849,0.00037267,-0.00045447,0.0001017
 7,-0.00004208,-0.00023884,-0.00001536,0.00043857,-0.00015527,-0.000269
 60,-0.00013937,-0.00000937,0.00032142,-0.00015223,0.00306410,0.1061864
 2,-0.10187732,0.00015728,-0.01405267,0.00584723,-0.00860056,-0.1086517
 5,0.10131392,-0.00945489,0.00460410,0.04258450,0.00099317,-0.00167363,
 0.00081162,-0.00006740,-0.00021711,-0.00011805,-0.00005904,0.00020498,
 -0.00027416,0.00023790,0.00028677,-0.00038817,0.00234795,0.00022141,0.
 00222577,-0.00028721,-0.00017065,0.00000938,0.00008487,0.00000765,-0.0
 0032998,-0.00044015,0.00010344,-0.00051419,-0.05969885,-0.00071999,-0.
 01654101,0.00326529,0.00121535,-0.03151492,0.00044796,-0.00089140,0.00
 095808,0.06835494,0.00454091,-0.00424952,-0.02459131,-0.00056585,0.001
 50377,-0.00210544,-0.00007983,-0.00003544,0.00031331,-0.00003872,-0.00
 026763,-0.00016857,0.00049617,-0.00021414,0.00037084,-0.00089338,0.000
 15256,0.00035188,0.00007384,-0.00003846,0.00032136,-0.00012880,-0.0001
 8799,-0.00005305,-0.00010359,0.00046461,0.00015097,-0.00069975,-0.0604
 8447,0.00908416,0.00073549,0.00063455,-0.01932792,-0.00036536,0.003534
 77,0.03692651,-0.00635811,0.06100105,0.00145850,-0.00085548,-0.0105121
 3,-0.00072279,0.00050670,0.00023540,-0.00001038,-0.00011724,0.00037224
 ,0.00007894,-0.00015032,-0.00015138,0.00012614,-0.00052005,0.00056816,
 -0.00080108,0.00037226,0.00023182,0.00016966,0.00000682,-0.00015238,0.
 00009700,0.00006893,0.00037252,0.00051498,0.00015104,0.00056747,-0.003
 37428,0.00148499,-0.36184841,0.00041569,0.00128666,-0.00990573,-0.0009
 1906,-0.00103340,-0.00998862,0.00220807,-0.00076541,0.38854594,-0.0676
 8813,-0.00000020,-0.00015714,0.00199069,0.00000177,-0.00001121,-0.0002
 3245,0.00058357,-0.00075337,-0.00023091,-0.00058428,0.00075404,0.00014
 192,0.00000161,0.00000050,-0.00205725,-0.00237780,-0.03772129,0.001350
 92,-0.00001590,0.00043744,0.00003809,0.00108587,-0.00031659,-0.0057238
 7,-0.00338859,-0.00075235,-0.00202567,0.00237601,0.03772200,0.00003883
 ,-0.00108552,0.00031680,0.00135013,0.00001626,-0.00043792,-0.00572456,
 0.00338699,0.00075861,0.07877226,-0.00000020,-0.06768870,-0.00049115,0
 .00001889,-0.00332598,0.04355321,0.00092922,0.00100283,-0.00007174,-0.
 00092965,0.00100237,-0.00007074,0.00000155,-0.00767711,0.00088954,-0.0
 0234005,0.00061615,-0.02179773,0.00032943,-0.00058008,-0.00061535,0.00
 074116,0.00073511,0.00068679,-0.00338873,-0.00181571,-0.00043290,0.002
 32115,0.00061756,-0.02178828,-0.00074080,0.00073456,0.00068750,-0.0003
 2935,-0.00058018,-0.00061521,0.00338719,-0.00181366,-0.00043549,0.0000
 0021,0.07877284,-0.00015714,-0.00049115,-0.44631954,-0.00000499,0.0023
 3502,-0.00918534,-0.00054073,-0.00040761,0.00054841,0.00054150,-0.0004
 0696,0.00054733,0.00000048,0.00103323,0.00166207,-0.00202843,-0.001183
 23,-0.00907952,0.00062144,-0.00026267,0.00054795,0.00008140,0.00067024
 ,0.00054558,-0.00087677,-0.00050477,0.00166646,0.00202292,-0.00118459,
 -0.00911253,-0.00008117,0.00067112,0.00054539,-0.00062203,-0.00026287,
 0.00054883,0.00088306,-0.00050732,0.00166510,0.00016047,0.00050154,0.4
 6541982\\-0.00000019,-0.00000059,-0.00045142,0.00000004,-0.00004022,0.
 00008270,-0.00000596,-0.00000351,0.00000282,0.00000597,-0.00000350,0.0
 0000282,0.00000001,-0.00004680,0.00001101,0.00003496,0.00002028,0.0000
 8261,0.00000602,-0.00000341,0.00000282,0.00000006,0.00000692,0.0000028
 1,0.00004055,0.00002343,0.00001090,-0.00003489,0.00002027,0.00008263,-
 0.00000006,0.00000692,0.00000281,-0.00000602,-0.00000341,0.00000282,-0
 .00004054,0.00002342,0.00001093,0.00000006,0.00000020,0.00015375\\\@


 IN THE UNIVERSE THE DIFFICULT THINGS ARE DONE AS IF THEY WERE EASY.

                                                          -- LAO-TSU
 Job cpu time:       0 days  0 hours  0 minutes  1.5 seconds.
 Elapsed time:       0 days  0 hours  0 minutes  1.4 seconds.
 File lengths (MBytes):  RWF=      6 Int=      0 D2E=      0 Chk=      2 Scr=      1
 Normal termination of Gaussian 16 at Mon Jun 16 16:09:09 2025.
