 Entering Gaussian System, Link 0=g16
 Input=/home/gaussian/Documents/Summer_Internship/Acid_Base_adduct/Base/tri_methyl_ammine/TMA_sp.com
 Output=/home/gaussian/Documents/Summer_Internship/Acid_Base_adduct/Base/tri_methyl_ammine/TMA_sp.log
 Initial command:
 /usr/local/g16/l1.exe "/home/gaussian/tmp/Gau-72927.inp" -scrdir="/home/gaussian/tmp/"
 Entering Link 1 = /usr/local/g16/l1.exe PID=     72930.
  
 Copyright (c) 1988-2017, Gaussian, Inc.  All Rights Reserved.
  
 This is part of the Gaussian(R) 16 program.  It is based on
 the Gaussian(R) 09 system (copyright 2009, Gaussian, Inc.),
 the Gaussian(R) 03 system (copyright 2003, Gaussian, Inc.),
 the Gaussian(R) 98 system (copyright 1998, Gaussian, Inc.),
 the Gaussian(R) 94 system (copyright 1995, Gaussian, Inc.),
 the Gaussian 92(TM) system (copyright 1992, Gaussian, Inc.),
 the Gaussian 90(TM) system (copyright 1990, Gaussian, Inc.),
 the Gaussian 88(TM) system (copyright 1988, Gaussian, Inc.),
 the Gaussian 86(TM) system (copyright 1986, Carnegie Mellon
 University), and the Gaussian 82(TM) system (copyright 1983,
 Carnegie Mellon University). Gaussian is a federally registered
 trademark of Gaussian, Inc.
  
 This software contains proprietary and confidential information,
 including trade secrets, belonging to Gaussian, Inc.
  
 This software is provided under written license and may be
 used, copied, transmitted, or stored only in accord with that
 written license.
  
 The following legend is applicable only to US Government
 contracts under FAR:
  
                    RESTRICTED RIGHTS LEGEND
  
 Use, reproduction and disclosure by the US Government is
 subject to restrictions as set forth in subparagraphs (a)
 and (c) of the Commercial Computer Software - Restricted
 Rights clause in FAR 52.227-19.
  
 Gaussian, Inc.
 340 Quinnipiac St., Bldg. 40, Wallingford CT 06492
  
  
 ---------------------------------------------------------------
 Warning -- This program may not be used in any manner that
 competes with the business of Gaussian, Inc. or will provide
 assistance to any competitor of Gaussian, Inc.  The licensee
 of this program is prohibited from giving any competitor of
 Gaussian, Inc. access to this program.  By using this program,
 the user acknowledges that Gaussian, Inc. is engaged in the
 business of creating and licensing software in the field of
 computational chemistry and represents and warrants to the
 licensee that it is not a competitor of Gaussian, Inc. and that
 it will not use this program in any manner prohibited above.
 ---------------------------------------------------------------
  

 Cite this work as:
 Gaussian 16, Revision B.01,
 M. J. Frisch, G. W. Trucks, H. B. Schlegel, G. E. Scuseria, 
 M. A. Robb, J. R. Cheeseman, G. Scalmani, V. Barone, 
 G. A. Petersson, H. Nakatsuji, X. Li, M. Caricato, A. V. Marenich, 
 J. Bloino, B. G. Janesko, R. Gomperts, B. Mennucci, H. P. Hratchian, 
 J. V. Ortiz, A. F. Izmaylov, J. L. Sonnenberg, D. Williams-Young, 
 F. Ding, F. Lipparini, F. Egidi, J. Goings, B. Peng, A. Petrone, 
 T. Henderson, D. Ranasinghe, V. G. Zakrzewski, J. Gao, N. Rega, 
 G. Zheng, W. Liang, M. Hada, M. Ehara, K. Toyota, R. Fukuda, 
 J. Hasegawa, M. Ishida, T. Nakajima, Y. Honda, O. Kitao, H. Nakai, 
 T. Vreven, K. Throssell, J. A. Montgomery, Jr., J. E. Peralta, 
 F. Ogliaro, M. J. Bearpark, J. J. Heyd, E. N. Brothers, K. N. Kudin, 
 V. N. Staroverov, T. A. Keith, R. Kobayashi, J. Normand, 
 K. Raghavachari, A. P. Rendell, J. C. Burant, S. S. Iyengar, 
 J. Tomasi, M. Cossi, J. M. Millam, M. Klene, C. Adamo, R. Cammi, 
 J. W. Ochterski, R. L. Martin, K. Morokuma, O. Farkas, 
 J. B. Foresman, and D. J. Fox, Gaussian, Inc., Wallingford CT, 2016.
 
 ******************************************
 Gaussian 16:  EM64L-G16RevB.01 20-Dec-2017
                16-Jun-2025 
 ******************************************
 %chk=TMA_sp.chk
 -------------------------------------
 # hf/3-21g pop=full geom=connectivity
 -------------------------------------
 1/38=1,57=2,172=1/1;
 2/12=2,17=6,18=5,40=1/2;
 3/5=5,11=9,25=1,30=1/1,2,3;
 4//1;
 5/5=2,38=5/2;
 6/7=3,28=1/1;
 99/5=1,9=1/99;
 ------
 TMA sp
 ------
 Symbolic Z-matrix:
 Charge =  0 Multiplicity = 1
 N                     0.        0.        0.33753 
 C                     0.        1.40967  -0.05714 
 H                    -0.87773   1.89747   0.34837 
 H                     0.87773   1.89747   0.34837 
 H                     0.        1.54587  -1.14149 
 C                    -1.22081  -0.70483  -0.05714 
 H                    -1.20439  -1.70887   0.34837 
 H                    -2.08212  -0.1886    0.34837 
 H                    -1.33877  -0.77294  -1.14149 
 C                     1.22081  -0.70483  -0.05714 
 H                     2.08212  -0.1886    0.34837 
 H                     1.20439  -1.70887   0.34837 
 H                     1.33877  -0.77294  -1.14149 
 
                          Input orientation:                          
 ---------------------------------------------------------------------
 Center     Atomic      Atomic             Coordinates (Angstroms)
 Number     Number       Type             X           Y           Z
 ---------------------------------------------------------------------
      1          7           0        0.000000    0.000000    0.337528
      2          6           0        0.000000    1.409666   -0.057136
      3          1           0       -0.877730    1.897468    0.348370
      4          1           0        0.877730    1.897468    0.348370
      5          1           0        0.000000    1.545874   -1.141490
      6          6           0       -1.220806   -0.704833   -0.057136
      7          1           0       -1.204391   -1.708871    0.348370
      8          1           0       -2.082121   -0.188598    0.348370
      9          1           0       -1.338766   -0.772937   -1.141490
     10          6           0        1.220806   -0.704833   -0.057136
     11          1           0        2.082121   -0.188598    0.348370
     12          1           0        1.204391   -1.708871    0.348370
     13          1           0        1.338766   -0.772937   -1.141490
 ---------------------------------------------------------------------
                    Distance matrix (angstroms):
                    1          2          3          4          5
     1  N    0.000000
     2  C    1.463871   0.000000
     3  H    2.090673   1.082957   0.000000
     4  H    2.090673   1.082957   1.755460   0.000000
     5  H    2.139444   1.092875   1.764571   1.764571   0.000000
     6  C    1.463870   2.441613   2.655957   3.367530   2.780625
     7  H    2.090673   3.367531   3.621103   4.164242   3.776719
     8  H    2.090673   2.655958   2.408782   3.621103   3.092459
     9  H    2.139444   2.780625   3.092459   3.776718   2.677532
    10  C    1.463870   2.441613   3.367530   2.655957   2.780625
    11  H    2.090673   2.655958   3.621103   2.408782   3.092459
    12  H    2.090673   3.367531   4.164242   3.621103   3.776719
    13  H    2.139444   2.780625   3.776718   3.092459   2.677532
                    6          7          8          9         10
     6  C    0.000000
     7  H    1.082957   0.000000
     8  H    1.082958   1.755460   0.000000
     9  H    1.092875   1.764571   1.764571   0.000000
    10  C    2.441612   2.655957   3.367530   2.780624   0.000000
    11  H    3.367530   3.621104   4.164242   3.776719   1.082958
    12  H    2.655957   2.408782   3.621104   3.092459   1.082957
    13  H    2.780624   3.092459   3.776719   2.677532   1.092875
                   11         12         13
    11  H    0.000000
    12  H    1.755460   0.000000
    13  H    1.764571   1.764571   0.000000
 Stoichiometry    C3H9N
 Framework group  C3V[C3(N),3SGV(CH),X(H6)]
 Deg. of freedom     7
 Full point group                 C3V     NOp   6
 Largest Abelian subgroup         CS      NOp   2
 Largest concise Abelian subgroup CS      NOp   2
                         Standard orientation:                         
 ---------------------------------------------------------------------
 Center     Atomic      Atomic             Coordinates (Angstroms)
 Number     Number       Type             X           Y           Z
 ---------------------------------------------------------------------
      1          7           0       -0.000000    0.000000    0.337528
      2          6           0        0.000000    1.409666   -0.057136
      3          1           0       -0.877730    1.897468    0.348370
      4          1           0        0.877730    1.897468    0.348370
      5          1           0        0.000000    1.545874   -1.141490
      6          6           0       -1.220807   -0.704833   -0.057136
      7          1           0       -1.204391   -1.708871    0.348370
      8          1           0       -2.082121   -0.188598    0.348370
      9          1           0       -1.338766   -0.772937   -1.141490
     10          6           0        1.220807   -0.704833   -0.057136
     11          1           0        2.082121   -0.188598    0.348370
     12          1           0        1.204391   -1.708871    0.348370
     13          1           0        1.338766   -0.772937   -1.141490
 ---------------------------------------------------------------------
 Rotational constants (GHZ):           8.5725680           8.5725680           4.8043044
 Standard basis: 3-21G (6D, 7F)
 There are    33 symmetry adapted cartesian basis functions of A'  symmetry.
 There are    21 symmetry adapted cartesian basis functions of A"  symmetry.
 There are    33 symmetry adapted basis functions of A'  symmetry.
 There are    21 symmetry adapted basis functions of A"  symmetry.
    54 basis functions,    87 primitive gaussians,    54 cartesian basis functions
    17 alpha electrons       17 beta electrons
       nuclear repulsion energy       137.8488371868 Hartrees.
 NAtoms=   13 NActive=   13 NUniq=    4 SFac= 4.00D+00 NAtFMM=   60 NAOKFM=F Big=F
 Integral buffers will be    131072 words long.
 Raffenetti 1 integral format.
 Two-electron integral symmetry is turned on.
 One-electron integrals computed using PRISM.
 NBasis=    54 RedAO= T EigKep=  2.52D-02  NBF=    33    21
 NBsUse=    54 1.00D-06 EigRej= -1.00D+00 NBFU=    33    21
 ExpMin= 1.83D-01 ExpMax= 2.43D+02 ExpMxC= 2.43D+02 IAcc=3 IRadAn=         5 AccDes= 0.00D+00
 Harris functional with IExCor=  205 and IRadAn=       5 diagonalized for initial guess.
 HarFok:  IExCor=  205 AccDes= 0.00D+00 IRadAn=         5 IDoV= 1 UseB2=F ITyADJ=14
 ICtDFT=  3500011 ScaDFX=  1.000000  1.000000  1.000000  1.000000
 FoFCou: FMM=F IPFlag=           0 FMFlag=      100000 FMFlg1=           0
         NFxFlg=           0 DoJE=T BraDBF=F KetDBF=T FulRan=T
         wScrn=  0.000000 ICntrl=       500 IOpCl=  0 I1Cent=   200000004 NGrid=           0
         NMat0=    1 NMatS0=      1 NMatT0=    0 NMatD0=    1 NMtDS0=    0 NMtDT0=    0
 Petite list used in FoFCou.
 Initial guess orbital symmetries:
       Occupied  (A1) (E) (E) (A1) (A1) (E) (E) (A1) (E) (E) (A1)
                 (E) (E) (A2) (E) (E) (A1)
       Virtual   (A1) (E) (E) (A1) (A1) (E) (E) (E) (E) (E) (E)
                 (A2) (E) (E) (A1) (A1) (E) (E) (E) (E) (A1) (A1)
                 (E) (E) (A2) (E) (E) (A2) (E) (E) (A1) (E) (E)
                 (A1) (E) (E) (A1)
 The electronic state of the initial guess is 1-A1.
 Keep R1 ints in memory in symmetry-blocked form, NReq=1932135.
 Requested convergence on RMS density matrix=1.00D-08 within 128 cycles.
 Requested convergence on MAX density matrix=1.00D-06.
 Requested convergence on             energy=1.00D-06.
 No special actions if energy rises.
 SCF Done:  E(RHF) =  -172.310269527     A.U. after   10 cycles
            NFock= 10  Conv=0.35D-08     -V/T= 2.0023

 **********************************************************************

            Population analysis using the SCF Density.

 **********************************************************************

 Orbital symmetries:
       Occupied  (A1) (E) (E) (A1) (A1) (E) (E) (A1) (A1) (E) (E)
                 (E) (E) (A2) (E) (E) (A1)
       Virtual   (A1) (E) (E) (E) (E) (A1) (A1) (E) (E) (A2) (E)
                 (E) (E) (E) (A1) (E) (E) (A1) (E) (E) (A1) (A1)
                 (E) (E) (A2) (A2) (E) (E) (E) (E) (A1) (A1) (E)
                 (E) (E) (E) (A1)
 The electronic state is 1-A1.
 Alpha  occ. eigenvalues --  -15.46342 -11.17879 -11.17879 -11.17814  -1.21309
 Alpha  occ. eigenvalues --   -0.94994  -0.94994  -0.80540  -0.63543  -0.62517
 Alpha  occ. eigenvalues --   -0.62517  -0.54262  -0.54262  -0.51827  -0.49401
 Alpha  occ. eigenvalues --   -0.49401  -0.33368
 Alpha virt. eigenvalues --    0.25423   0.32229   0.32229   0.34198   0.34198
 Alpha virt. eigenvalues --    0.34761   0.37225   0.37650   0.37650   0.41628
 Alpha virt. eigenvalues --    0.48036   0.48036   0.88557   0.88557   0.91168
 Alpha virt. eigenvalues --    0.99336   0.99336   1.00828   1.13821   1.13821
 Alpha virt. eigenvalues --    1.28103   1.29463   1.30932   1.30932   1.31670
 Alpha virt. eigenvalues --    1.35576   1.38152   1.38152   1.46021   1.46021
 Alpha virt. eigenvalues --    1.63491   1.82949   1.88799   1.88799   2.21889
 Alpha virt. eigenvalues --    2.21889   3.04996
     Molecular Orbital Coefficients:
                           1         2         3         4         5
                        (A1)--O   (E)--O    (E)--O    (A1)--O   (A1)--O
     Eigenvalues --   -15.46342 -11.17879 -11.17879 -11.17814  -1.21309
   1 1   N  1S          0.98621   0.00000   0.00000   0.00001  -0.18806
   2        2S          0.10320  -0.00000   0.00000   0.00104   0.15811
   3        2PX         0.00000   0.00000  -0.00038   0.00000   0.00000
   4        2PY        -0.00000   0.00038   0.00000   0.00000  -0.00000
   5        2PZ        -0.00352   0.00000   0.00000  -0.00074  -0.05443
   6        3S         -0.06642  -0.00000   0.00000   0.00805   0.57348
   7        3PX         0.00000   0.00000  -0.00602   0.00000   0.00000
   8        3PY         0.00000   0.00602   0.00000   0.00000   0.00000
   9        3PZ         0.00964  -0.00000   0.00000   0.00175  -0.08100
  10 2   C  1S         -0.00043   0.80640   0.00000   0.56970  -0.07939
  11        2S         -0.00141   0.08385   0.00000   0.05543   0.08568
  12        2PX         0.00000   0.00000   0.00125   0.00000   0.00000
  13        2PY        -0.00214  -0.00079   0.00000   0.00041  -0.06331
  14        2PZ         0.00022  -0.00053   0.00000   0.00017   0.01145
  15        3S          0.01636  -0.06419   0.00000  -0.03492   0.13883
  16        3PX         0.00000   0.00000  -0.00625   0.00000   0.00000
  17        3PY        -0.00734   0.00306   0.00000  -0.00372   0.00997
  18        3PZ         0.00156   0.00237   0.00000  -0.00151   0.00631
  19 3   H  1S         -0.00107   0.00005  -0.00060  -0.00045   0.02968
  20        2S         -0.00133   0.01137  -0.00305   0.00842  -0.00358
  21 4   H  1S         -0.00107   0.00005   0.00060  -0.00045   0.02968
  22        2S         -0.00133   0.01137   0.00305   0.00842  -0.00358
  23 5   H  1S         -0.00131   0.00068   0.00000  -0.00089   0.03230
  24        2S         -0.00103   0.01359   0.00000   0.00664   0.00205
  25 6   C  1S         -0.00043  -0.40320   0.69836   0.56970  -0.07939
  26        2S         -0.00141  -0.04193   0.07262   0.05543   0.08568
  27        2PX         0.00185   0.00020   0.00090  -0.00035   0.05483
  28        2PY         0.00107  -0.00113  -0.00020  -0.00020   0.03165
  29        2PZ         0.00022   0.00027  -0.00046   0.00017   0.01145
  30        3S          0.01636   0.03209  -0.05559  -0.03492   0.13883
  31        3PX         0.00636  -0.00138  -0.00386   0.00322  -0.00864
  32        3PY         0.00367   0.00545   0.00138   0.00186  -0.00499
  33        3PZ         0.00156  -0.00118   0.00205  -0.00151   0.00631
  34 7   H  1S         -0.00107   0.00050   0.00035  -0.00045   0.02968
  35        2S         -0.00133  -0.00304   0.01137   0.00842  -0.00358
  36 8   H  1S         -0.00107  -0.00055  -0.00026  -0.00045   0.02968
  37        2S         -0.00133  -0.00833   0.00832   0.00842  -0.00358
  38 9   H  1S         -0.00131  -0.00034   0.00059  -0.00089   0.03230
  39        2S         -0.00103  -0.00680   0.01177   0.00664   0.00205
  40 10  C  1S         -0.00043  -0.40320  -0.69836   0.56970  -0.07939
  41        2S         -0.00141  -0.04193  -0.07262   0.05543   0.08568
  42        2PX        -0.00185  -0.00020   0.00090   0.00035  -0.05483
  43        2PY         0.00107  -0.00113   0.00020  -0.00020   0.03165
  44        2PZ         0.00022   0.00027   0.00046   0.00017   0.01145
  45        3S          0.01636   0.03209   0.05559  -0.03492   0.13883
  46        3PX        -0.00636   0.00138  -0.00386  -0.00322   0.00864
  47        3PY         0.00367   0.00545  -0.00138   0.00186  -0.00499
  48        3PZ         0.00156  -0.00118  -0.00205  -0.00151   0.00631
  49 11  H  1S         -0.00107  -0.00055   0.00026  -0.00045   0.02968
  50        2S         -0.00133  -0.00833  -0.00832   0.00842  -0.00358
  51 12  H  1S         -0.00107   0.00050  -0.00035  -0.00045   0.02968
  52        2S         -0.00133  -0.00304  -0.01137   0.00842  -0.00358
  53 13  H  1S         -0.00131  -0.00034  -0.00059  -0.00089   0.03230
  54        2S         -0.00103  -0.00680  -0.01177   0.00664   0.00205
                           6         7         8         9        10
                        (E)--O    (E)--O    (A1)--O   (A1)--O   (E)--O
     Eigenvalues --    -0.94994  -0.94994  -0.80540  -0.63543  -0.62517
   1 1   N  1S          0.00000  -0.00000  -0.12036  -0.02000  -0.00000
   2        2S          0.00000  -0.00000   0.09544   0.02707   0.00000
   3        2PX        -0.14721   0.00000   0.00000   0.00000   0.00000
   4        2PY         0.00000   0.14721   0.00000  -0.00000   0.21473
   5        2PZ         0.00000   0.00000  -0.00110   0.21348   0.00000
   6        3S          0.00000   0.00000   0.49522   0.05247   0.00000
   7        3PX        -0.09531   0.00000   0.00000   0.00000   0.00000
   8        3PY         0.00000   0.09531   0.00000  -0.00000   0.22808
   9        3PZ         0.00000  -0.00000  -0.02930   0.20414   0.00000
  10 2   C  1S          0.00000  -0.17240   0.08106  -0.00318   0.02198
  11        2S          0.00000   0.16464  -0.07881   0.00091  -0.01516
  12        2PX        -0.03350   0.00000   0.00000   0.00000   0.00000
  13        2PY         0.00000   0.00821  -0.12520   0.07008  -0.16911
  14        2PZ         0.00000   0.00825   0.03791   0.17890   0.07566
  15        3S          0.00000   0.50309  -0.28673   0.02614  -0.12698
  16        3PX        -0.00107   0.00000   0.00000   0.00000   0.00000
  17        3PY         0.00000   0.00707  -0.06259   0.04682  -0.10024
  18        3PZ         0.00000  -0.01787   0.02868   0.14236   0.03547
  19 3   H  1S          0.01345   0.10340  -0.08057   0.06592  -0.04428
  20        2S          0.01420   0.01867  -0.03296   0.05220  -0.02425
  21 4   H  1S         -0.01345   0.10340  -0.08057   0.06592  -0.04428
  22        2S         -0.01420   0.01867  -0.03296   0.05220  -0.02425
  23 5   H  1S          0.00000   0.09482  -0.08327  -0.10812  -0.07689
  24        2S          0.00000   0.00142  -0.03355  -0.09210  -0.06326
  25 6   C  1S         -0.14930   0.08620   0.08106  -0.00318  -0.01099
  26        2S          0.14258  -0.08232  -0.07881   0.00091   0.00758
  27        2PX        -0.01453  -0.01095   0.10842  -0.06069  -0.17363
  28        2PY         0.01095   0.02718   0.06260  -0.03504   0.13162
  29        2PZ         0.00715  -0.00413   0.03791   0.17890  -0.03783
  30        3S          0.43569  -0.25154  -0.28673   0.02614   0.06349
  31        3PX        -0.00557   0.00260   0.05420  -0.04055  -0.11885
  32        3PY        -0.00260   0.00257   0.03129  -0.02341   0.10562
  33        3PZ        -0.01548   0.00894   0.02868   0.14236  -0.01774
  34 7   H  1S          0.08282  -0.06335  -0.08057   0.06592  -0.08658
  35        2S          0.00907  -0.02163  -0.03296   0.05220  -0.07421
  36 8   H  1S          0.09627  -0.04005  -0.08057   0.06592   0.13086
  37        2S          0.02327   0.00297  -0.03296   0.05220   0.09846
  38 9   H  1S          0.08212  -0.04741  -0.08327  -0.10812   0.03845
  39        2S          0.00123  -0.00071  -0.03355  -0.09210   0.03163
  40 10  C  1S          0.14930   0.08620   0.08106  -0.00318  -0.01099
  41        2S         -0.14258  -0.08232  -0.07881   0.00091   0.00758
  42        2PX        -0.01453   0.01095  -0.10842   0.06069   0.17363
  43        2PY        -0.01095   0.02718   0.06260  -0.03504   0.13162
  44        2PZ        -0.00715  -0.00413   0.03791   0.17890  -0.03783
  45        3S         -0.43569  -0.25154  -0.28673   0.02614   0.06349
  46        3PX        -0.00557  -0.00260  -0.05420   0.04055   0.11885
  47        3PY         0.00260   0.00257   0.03129  -0.02341   0.10562
  48        3PZ         0.01548   0.00894   0.02868   0.14236  -0.01774
  49 11  H  1S         -0.09627  -0.04005  -0.08057   0.06592   0.13086
  50        2S         -0.02327   0.00297  -0.03296   0.05220   0.09846
  51 12  H  1S         -0.08282  -0.06335  -0.08057   0.06592  -0.08658
  52        2S         -0.00907  -0.02163  -0.03296   0.05220  -0.07421
  53 13  H  1S         -0.08212  -0.04741  -0.08327  -0.10812   0.03845
  54        2S         -0.00123  -0.00071  -0.03355  -0.09210   0.03163
                          11        12        13        14        15
                        (E)--O    (E)--O    (E)--O    (A2)--O   (E)--O
     Eigenvalues --    -0.62517  -0.54262  -0.54262  -0.51827  -0.49401
   1 1   N  1S          0.00000  -0.00000   0.00000   0.00000   0.00000
   2        2S          0.00000   0.00000   0.00000   0.00000   0.00000
   3        2PX         0.21473   0.00000  -0.06236   0.00000   0.00000
   4        2PY         0.00000   0.06236   0.00000   0.00000   0.26084
   5        2PZ         0.00000   0.00000   0.00000   0.00000   0.00000
   6        3S          0.00000   0.00000   0.00000   0.00000  -0.00000
   7        3PX         0.22808   0.00000  -0.06298   0.00000   0.00000
   8        3PY         0.00000   0.06298   0.00000   0.00000   0.29145
   9        3PZ         0.00000   0.00000   0.00000   0.00000   0.00000
  10 2   C  1S          0.00000  -0.00247   0.00000   0.00000  -0.02531
  11        2S          0.00000   0.00500   0.00000   0.00000   0.02061
  12        2PX         0.23187   0.00000   0.08764   0.22895   0.00000
  13        2PY         0.00000   0.02413   0.00000   0.00000  -0.25486
  14        2PZ         0.00000   0.30378   0.00000   0.00000  -0.03064
  15        3S          0.00000  -0.00070   0.00000   0.00000   0.07704
  16        3PX         0.17424   0.00000   0.07430   0.20959   0.00000
  17        3PY         0.00000   0.03314   0.00000   0.00000  -0.20246
  18        3PZ         0.00000   0.24305   0.00000   0.00000  -0.05381
  19 3   H  1S         -0.12554   0.09212  -0.05072  -0.13697  -0.08108
  20        2S         -0.09969   0.08087  -0.04504  -0.11941  -0.08541
  21 4   H  1S          0.12554   0.09212   0.05072   0.13697  -0.08108
  22        2S          0.09969   0.08087   0.04504   0.11941  -0.08541
  23 5   H  1S          0.00000  -0.21304   0.00000   0.00000   0.02369
  24        2S          0.00000  -0.20316   0.00000   0.00000   0.00693
  25 6   C  1S         -0.01904   0.00124  -0.00214  -0.00000   0.01266
  26        2S          0.01313  -0.00250   0.00433  -0.00000  -0.01030
  27        2PX        -0.06887   0.04840   0.00381  -0.11448  -0.03256
  28        2PY        -0.17363  -0.05970  -0.04840   0.19828  -0.19847
  29        2PZ        -0.06552  -0.15189   0.26308   0.00000   0.01532
  30        3S          0.10997   0.00035  -0.00061   0.00000  -0.03852
  31        3PX        -0.03162   0.04652  -0.00628  -0.10480  -0.01326
  32        3PY        -0.11885  -0.04744  -0.04652   0.18151  -0.17950
  33        3PZ        -0.03072  -0.12152   0.21048   0.00000   0.02691
  34 7   H  1S          0.10112  -0.00213   0.10514  -0.13697   0.14449
  35        2S          0.07084  -0.00143   0.09255  -0.11941   0.14836
  36 8   H  1S         -0.02442  -0.08999   0.05442   0.13697  -0.06341
  37        2S         -0.02885  -0.07944   0.04751   0.11941  -0.06296
  38 9   H  1S          0.06659   0.10652  -0.18450  -0.00000  -0.01185
  39        2S          0.05478   0.10158  -0.17594  -0.00000  -0.00347
  40 10  C  1S          0.01904   0.00124   0.00214   0.00000   0.01266
  41        2S         -0.01313  -0.00250  -0.00433   0.00000  -0.01030
  42        2PX        -0.06887  -0.04840   0.00381  -0.11448   0.03256
  43        2PY         0.17363  -0.05970   0.04840  -0.19828  -0.19847
  44        2PZ         0.06552  -0.15189  -0.26308  -0.00000   0.01532
  45        3S         -0.10997   0.00035   0.00061  -0.00000  -0.03852
  46        3PX        -0.03162  -0.04652  -0.00628  -0.10480   0.01326
  47        3PY         0.11885  -0.04744   0.04652  -0.18151  -0.17950
  48        3PZ         0.03072  -0.12152  -0.21048  -0.00000   0.02691
  49 11  H  1S          0.02442  -0.08999  -0.05442  -0.13697  -0.06341
  50        2S          0.02885  -0.07944  -0.04751  -0.11941  -0.06296
  51 12  H  1S         -0.10112  -0.00213  -0.10514   0.13697   0.14449
  52        2S         -0.07084  -0.00143  -0.09255   0.11941   0.14836
  53 13  H  1S         -0.06659   0.10652   0.18450   0.00000  -0.01185
  54        2S         -0.05478   0.10158   0.17594   0.00000  -0.00347
                          16        17        18        19        20
                        (E)--O    (A1)--O   (A1)--V   (E)--V    (E)--V
     Eigenvalues --    -0.49401  -0.33368   0.25423   0.32229   0.32229
   1 1   N  1S          0.00000  -0.04727  -0.03846   0.00000  -0.00000
   2        2S          0.00000   0.05054   0.00799   0.00000  -0.00000
   3        2PX         0.26084   0.00000   0.00000   0.03699   0.00000
   4        2PY         0.00000  -0.00000   0.00000   0.00000   0.03699
   5        2PZ         0.00000   0.42730  -0.00135   0.00000  -0.00000
   6        3S          0.00000   0.19836   0.43908   0.00000   0.00000
   7        3PX         0.29145   0.00000   0.00000   0.03302   0.00000
   8        3PY         0.00000  -0.00000   0.00000   0.00000   0.03302
   9        3PZ         0.00000   0.57031  -0.06324   0.00000  -0.00000
  10 2   C  1S          0.00000   0.01265  -0.07734   0.00000   0.00783
  11        2S          0.00000  -0.01697   0.02039   0.00000  -0.01892
  12        2PX        -0.17967   0.00000   0.00000   0.22864   0.00000
  13        2PY         0.00000   0.03169   0.09348   0.00000   0.10106
  14        2PZ         0.00000  -0.09996  -0.02900   0.00000  -0.00050
  15        3S          0.00000  -0.03025   1.07062   0.00000   0.12410
  16        3PX        -0.17184   0.00000   0.00000   1.06955   0.00000
  17        3PY         0.00000   0.01141   0.47835   0.00000   0.33399
  18        3PZ         0.00000  -0.03064  -0.07677   0.00000  -0.06166
  19 3   H  1S          0.12003  -0.04956  -0.01033   0.04510   0.00780
  20        2S          0.12201  -0.06858  -0.58592   1.12198  -0.16187
  21 4   H  1S         -0.12003  -0.04956  -0.01033  -0.04510   0.00780
  22        2S         -0.12201  -0.06858  -0.58592  -1.12198  -0.16187
  23 5   H  1S          0.00000   0.11307   0.01531   0.00000  -0.04073
  24        2S          0.00000   0.20819  -0.52365   0.00000  -0.15574
  25 6   C  1S          0.02192   0.01265  -0.07734  -0.00678  -0.00392
  26        2S         -0.01785  -0.01697   0.02039   0.01638   0.00946
  27        2PX        -0.23606  -0.02744  -0.08096   0.13296  -0.05524
  28        2PY        -0.03256  -0.01584  -0.04674  -0.05524   0.19674
  29        2PZ         0.02654  -0.09996  -0.02900   0.00043   0.00025
  30        3S         -0.06671  -0.03025   1.07062  -0.10747  -0.06205
  31        3PX        -0.19481  -0.00988  -0.41426   0.51788  -0.31851
  32        3PY        -0.01326  -0.00570  -0.23917  -0.31851   0.88566
  33        3PZ         0.04660  -0.03064  -0.07677   0.05340   0.03083
  34 7   H  1S          0.01020  -0.04956  -0.01033  -0.02931   0.03516
  35        2S          0.01296  -0.06858  -0.58592  -0.42081   1.05260
  36 8   H  1S          0.13023  -0.04956  -0.01033   0.01579  -0.04296
  37        2S          0.13497  -0.06858  -0.58592   0.70118  -0.89073
  38 9   H  1S         -0.02052   0.11307   0.01531   0.03528   0.02037
  39        2S         -0.00600   0.20819  -0.52365   0.13487   0.07787
  40 10  C  1S         -0.02192   0.01265  -0.07734   0.00678  -0.00392
  41        2S          0.01785  -0.01697   0.02039  -0.01638   0.00946
  42        2PX        -0.23606   0.02744   0.08096   0.13296   0.05524
  43        2PY         0.03256  -0.01584  -0.04674   0.05524   0.19674
  44        2PZ        -0.02654  -0.09996  -0.02900  -0.00043   0.00025
  45        3S          0.06671  -0.03025   1.07062   0.10747  -0.06205
  46        3PX        -0.19481   0.00988   0.41426   0.51788   0.31851
  47        3PY         0.01326  -0.00570  -0.23917   0.31851   0.88566
  48        3PZ        -0.04660  -0.03064  -0.07677  -0.05340   0.03083
  49 11  H  1S         -0.13023  -0.04956  -0.01033  -0.01579  -0.04296
  50        2S         -0.13497  -0.06858  -0.58592  -0.70118  -0.89073
  51 12  H  1S         -0.01020  -0.04956  -0.01033   0.02931   0.03516
  52        2S         -0.01296  -0.06858  -0.58592   0.42081   1.05260
  53 13  H  1S          0.02052   0.11307   0.01531  -0.03528   0.02037
  54        2S          0.00600   0.20819  -0.52365  -0.13487   0.07787
                          21        22        23        24        25
                        (E)--V    (E)--V    (A1)--V   (A1)--V   (E)--V
     Eigenvalues --     0.34198   0.34198   0.34761   0.37225   0.37650
   1 1   N  1S          0.00000   0.00000   0.05603  -0.16619  -0.00000
   2        2S          0.00000  -0.00000  -0.02169   0.02878  -0.00000
   3        2PX         0.07013   0.00000   0.00000   0.00000   0.00000
   4        2PY         0.00000  -0.07013   0.00000   0.00000   0.02330
   5        2PZ         0.00000  -0.00000  -0.08505  -0.15169  -0.00000
   6        3S          0.00000  -0.00000  -0.56842   1.88308   0.00000
   7        3PX         0.22660   0.00000   0.00000   0.00000   0.00000
   8        3PY         0.00000  -0.22660   0.00000   0.00000   0.02860
   9        3PZ         0.00000  -0.00000  -0.30896  -0.52808  -0.00000
  10 2   C  1S          0.00000  -0.13668  -0.02219   0.07463  -0.02835
  11        2S          0.00000   0.03660   0.02012  -0.02551   0.00325
  12        2PX        -0.00519   0.00000   0.00000   0.00000   0.00000
  13        2PY         0.00000   0.07328  -0.00692   0.10789   0.12703
  14        2PZ         0.00000  -0.08392   0.19553   0.02130   0.21638
  15        3S          0.00000   1.92855   0.15551  -0.88575   0.52392
  16        3PX         0.14455   0.00000   0.00000   0.00000   0.00000
  17        3PY         0.00000   0.21727   0.00974   0.62475   0.53158
  18        3PZ         0.00000  -0.38926   0.80966   0.06854   1.03869
  19 3   H  1S          0.04299   0.01368   0.00959  -0.01639  -0.03477
  20        2S          0.17521  -0.70083  -0.47785   0.10465  -0.99436
  21 4   H  1S         -0.04299   0.01368   0.00959  -0.01639  -0.03477
  22        2S         -0.17521  -0.70083  -0.47785   0.10465  -0.99436
  23 5   H  1S          0.00000  -0.03091   0.00170  -0.02860   0.05792
  24        2S          0.00000  -1.28674   0.90594   0.44086   1.05723
  25 6   C  1S         -0.11837   0.06834  -0.02219   0.07463   0.01418
  26        2S          0.03169  -0.01830   0.02012  -0.02551  -0.00163
  27        2PX        -0.05626   0.02949   0.00600  -0.09344   0.04399
  28        2PY        -0.02949   0.02221   0.00346  -0.05395   0.05084
  29        2PZ        -0.07268   0.04196   0.19553   0.02130  -0.10819
  30        3S          1.67017  -0.96427   0.15551  -0.88575  -0.26196
  31        3PX        -0.12681   0.15667  -0.00843  -0.54105   0.25141
  32        3PY        -0.15667  -0.05410  -0.00487  -0.31237   0.09612
  33        3PZ        -0.33711   0.19463   0.80966   0.06854  -0.51935
  34 7   H  1S         -0.00965  -0.04407   0.00959  -0.01639  -0.02203
  35        2S         -0.69454   0.19868  -0.47785   0.10465   0.43095
  36 8   H  1S          0.03334   0.03039   0.00959  -0.01639   0.05680
  37        2S         -0.51933   0.50215  -0.47785   0.10465   0.56341
  38 9   H  1S         -0.02677   0.01546   0.00170  -0.02860  -0.02896
  39        2S         -1.11435   0.64337   0.90594   0.44086  -0.52861
  40 10  C  1S          0.11837   0.06834  -0.02219   0.07463   0.01418
  41        2S         -0.03169  -0.01830   0.02012  -0.02551  -0.00163
  42        2PX        -0.05626  -0.02949  -0.00600   0.09344  -0.04399
  43        2PY         0.02949   0.02221   0.00346  -0.05395   0.05084
  44        2PZ         0.07268   0.04196   0.19553   0.02130  -0.10819
  45        3S         -1.67017  -0.96427   0.15551  -0.88575  -0.26196
  46        3PX        -0.12681  -0.15667   0.00843   0.54105  -0.25141
  47        3PY         0.15667  -0.05410  -0.00487  -0.31237   0.09612
  48        3PZ         0.33711   0.19463   0.80966   0.06854  -0.51935
  49 11  H  1S         -0.03334   0.03039   0.00959  -0.01639   0.05680
  50        2S          0.51933   0.50215  -0.47785   0.10465   0.56341
  51 12  H  1S          0.00965  -0.04407   0.00959  -0.01639  -0.02203
  52        2S          0.69454   0.19868  -0.47785   0.10465   0.43095
  53 13  H  1S          0.02677   0.01546   0.00170  -0.02860  -0.02896
  54        2S          1.11435   0.64337   0.90594   0.44086  -0.52861
                          26        27        28        29        30
                        (E)--V    (A2)--V   (E)--V    (E)--V    (E)--V
     Eigenvalues --     0.37650   0.41628   0.48036   0.48036   0.88557
   1 1   N  1S          0.00000   0.00000   0.00000   0.00000   0.00000
   2        2S          0.00000   0.00000   0.00000  -0.00000   0.00000
   3        2PX        -0.02330  -0.00000   0.32139   0.00000   0.10609
   4        2PY         0.00000   0.00000   0.00000   0.32139   0.00000
   5        2PZ         0.00000   0.00000   0.00000   0.00000   0.00000
   6        3S          0.00000   0.00000   0.00000  -0.00000   0.00000
   7        3PX        -0.02860  -0.00000   1.42452   0.00000  -0.21601
   8        3PY         0.00000   0.00000   0.00000   1.42452   0.00000
   9        3PZ         0.00000   0.00000   0.00000   0.00000   0.00000
  10 2   C  1S          0.00000   0.00000   0.00000   0.06068   0.00000
  11        2S          0.00000   0.00000   0.00000  -0.00765   0.00000
  12        2PX        -0.02545   0.20358  -0.01843   0.00000  -0.49699
  13        2PY         0.00000   0.00000   0.00000   0.13406   0.00000
  14        2PZ         0.00000   0.00000   0.00000  -0.07861   0.00000
  15        3S          0.00000   0.00000   0.00000  -0.82580   0.00000
  16        3PX         0.04903   0.93772  -0.42377   0.00000   0.72722
  17        3PY         0.00000   0.00000   0.00000   1.25162   0.00000
  18        3PZ         0.00000   0.00000   0.00000  -0.57722   0.00000
  19 3   H  1S          0.04551   0.02539  -0.00555  -0.06972   0.39460
  20        2S          0.07647   0.96182  -0.31240   0.02153  -0.09983
  21 4   H  1S         -0.04551  -0.02539   0.00555  -0.06972  -0.39460
  22        2S         -0.07647  -0.96182   0.31240   0.02153   0.09983
  23 5   H  1S          0.00000   0.00000   0.00000  -0.04150   0.00000
  24        2S          0.00000   0.00000   0.00000  -0.35619   0.00000
  25 6   C  1S         -0.02455   0.00000  -0.05255  -0.03034  -0.00889
  26        2S          0.00282   0.00000   0.00662   0.00382   0.08855
  27        2PX        -0.10163  -0.10179   0.09594   0.06603   0.18343
  28        2PY        -0.04399   0.17630   0.06603   0.01969   0.39284
  29        2PZ         0.18739  -0.00000   0.06808   0.03930  -0.06183
  30        3S          0.45373  -0.00000   0.71517   0.41290  -0.22085
  31        3PX        -0.38643  -0.46886   0.83277   0.72546  -0.04989
  32        3PY        -0.25141   0.81209   0.72546  -0.00492  -0.44866
  33        3PZ         0.89953  -0.00000   0.49989   0.28861   0.07185
  34 7   H  1S         -0.05287   0.02539   0.06315   0.03005  -0.23784
  35        2S         -0.89938   0.96182   0.13756  -0.28131   0.16399
  36 8   H  1S         -0.00736  -0.02539   0.05760   0.03966   0.15677
  37        2S         -0.82290  -0.96182  -0.17484   0.25979   0.06416
  38 9   H  1S          0.05016  -0.00000   0.03594   0.02075   0.09522
  39        2S          0.91559  -0.00000   0.30847   0.17809  -0.02041
  40 10  C  1S          0.02455  -0.00000   0.05255  -0.03034   0.00889
  41        2S         -0.00282  -0.00000  -0.00662   0.00382  -0.08855
  42        2PX        -0.10163  -0.10179   0.09594  -0.06603   0.18343
  43        2PY         0.04399  -0.17630  -0.06603   0.01969  -0.39284
  44        2PZ        -0.18739   0.00000  -0.06808   0.03930   0.06183
  45        3S         -0.45373   0.00000  -0.71517   0.41290   0.22085
  46        3PX        -0.38643  -0.46886   0.83277  -0.72546  -0.04989
  47        3PY         0.25141  -0.81209  -0.72546  -0.00492   0.44866
  48        3PZ        -0.89953   0.00000  -0.49989   0.28861  -0.07185
  49 11  H  1S          0.00736   0.02539  -0.05760   0.03966  -0.15677
  50        2S          0.82290   0.96182   0.17484   0.25979  -0.06416
  51 12  H  1S          0.05287  -0.02539  -0.06315   0.03005   0.23784
  52        2S          0.89938  -0.96182  -0.13756  -0.28131  -0.16399
  53 13  H  1S         -0.05016   0.00000  -0.03594   0.02075  -0.09522
  54        2S         -0.91559   0.00000  -0.30847   0.17809   0.02041
                          31        32        33        34        35
                        (E)--V    (A1)--V   (E)--V    (E)--V    (A1)--V
     Eigenvalues --     0.88557   0.91168   0.99336   0.99336   1.00828
   1 1   N  1S         -0.00000   0.03266   0.00000  -0.00000   0.04588
   2        2S          0.00000  -0.09715   0.00000   0.00000  -0.17094
   3        2PX         0.00000   0.00000  -0.13701   0.00000   0.00000
   4        2PY         0.10609  -0.00000   0.00000   0.13701  -0.00000
   5        2PZ        -0.00000  -0.12399   0.00000  -0.00000   0.30409
   6        3S         -0.00000   0.18657   0.00000  -0.00000   0.66675
   7        3PX         0.00000   0.00000   0.12665   0.00000   0.00000
   8        3PY        -0.21601  -0.00000   0.00000  -0.12665  -0.00000
   9        3PZ        -0.00000  -0.32401   0.00000  -0.00000   0.05970
  10 2   C  1S          0.01026  -0.01146   0.00000   0.02488  -0.03207
  11        2S         -0.10225   0.08776   0.00000  -0.07680   0.08626
  12        2PX         0.00000   0.00000  -0.14667   0.00000   0.00000
  13        2PY         0.41023  -0.33913   0.00000   0.44597  -0.48581
  14        2PZ         0.07140  -0.27305   0.00000  -0.57103   0.30530
  15        3S          0.25502  -0.12294   0.00000  -0.08492   0.08749
  16        3PX         0.00000   0.00000   0.20270   0.00000   0.00000
  17        3PY        -0.30892   0.33837   0.00000  -0.59057   0.46948
  18        3PZ        -0.08297   0.64125   0.00000   0.94966  -0.53964
  19 3   H  1S          0.04680  -0.15679  -0.00682  -0.07351  -0.03586
  20        2S         -0.13172  -0.00622   0.03866   0.10451   0.02623
  21 4   H  1S          0.04680  -0.15679   0.00682  -0.07351  -0.03586
  22        2S         -0.13172  -0.00622  -0.03866   0.10451   0.02623
  23 5   H  1S         -0.10995   0.34919   0.00000   0.49238  -0.19997
  24        2S          0.02356   0.11007   0.00000   0.06514  -0.17087
  25 6   C  1S         -0.00513  -0.01146   0.02155  -0.01244  -0.03207
  26        2S          0.05112   0.08776  -0.06651   0.03840   0.08626
  27        2PX         0.39284   0.29370  -0.37115   0.12960   0.42073
  28        2PY        -0.27018   0.16957  -0.12960   0.22149   0.24291
  29        2PZ        -0.03570  -0.27305  -0.49452   0.28551   0.30530
  30        3S         -0.12751  -0.12294  -0.07354   0.04246   0.08749
  31        3PX        -0.44866  -0.29304   0.49360  -0.16795  -0.40658
  32        3PY         0.46819  -0.16919   0.16795  -0.29967  -0.23474
  33        3PZ         0.04149   0.64125   0.82243  -0.47483  -0.53964
  34 7   H  1S          0.31834  -0.15679  -0.06025   0.04266  -0.03586
  35        2S         -0.02060  -0.00622   0.07118  -0.08574   0.02623
  36 8   H  1S         -0.36514  -0.15679  -0.06707   0.03085  -0.03586
  37        2S          0.15232  -0.00622   0.10984  -0.01877   0.02623
  38 9   H  1S          0.05498   0.34919   0.42641  -0.24619  -0.19997
  39        2S         -0.01178   0.11007   0.05641  -0.03257  -0.17087
  40 10  C  1S         -0.00513  -0.01146  -0.02155  -0.01244  -0.03207
  41        2S          0.05112   0.08776   0.06651   0.03840   0.08626
  42        2PX        -0.39284  -0.29370  -0.37115  -0.12960  -0.42073
  43        2PY        -0.27018   0.16957   0.12960   0.22149   0.24291
  44        2PZ        -0.03570  -0.27305   0.49452   0.28551   0.30530
  45        3S         -0.12751  -0.12294   0.07354   0.04246   0.08749
  46        3PX         0.44866   0.29304   0.49360   0.16795   0.40658
  47        3PY         0.46819  -0.16919  -0.16795  -0.29967  -0.23474
  48        3PZ         0.04149   0.64125  -0.82243  -0.47483  -0.53964
  49 11  H  1S         -0.36514  -0.15679   0.06707   0.03085  -0.03586
  50        2S          0.15232  -0.00622  -0.10984  -0.01877   0.02623
  51 12  H  1S          0.31834  -0.15679   0.06025   0.04266  -0.03586
  52        2S         -0.02060  -0.00622  -0.07118  -0.08574   0.02623
  53 13  H  1S          0.05498   0.34919  -0.42641  -0.24619  -0.19997
  54        2S         -0.01178   0.11007  -0.05641  -0.03257  -0.17087
                          36        37        38        39        40
                        (E)--V    (E)--V    (A1)--V   (A1)--V   (E)--V
     Eigenvalues --     1.13821   1.13821   1.28103   1.29463   1.30932
   1 1   N  1S          0.00000   0.00000  -0.03721  -0.01405   0.00000
   2        2S          0.00000  -0.00000   0.16695   0.02524   0.00000
   3        2PX        -0.31305   0.00000   0.00000   0.00000   0.27963
   4        2PY         0.00000  -0.31305   0.00000  -0.00000   0.00000
   5        2PZ         0.00000  -0.00000   0.03167   0.29708   0.00000
   6        3S          0.00000  -0.00000   0.16014   0.12782   0.00000
   7        3PX        -0.08114   0.00000   0.00000   0.00000  -0.42268
   8        3PY         0.00000  -0.08114  -0.00000   0.00000   0.00000
   9        3PZ         0.00000   0.00000   0.04037  -0.44917   0.00000
  10 2   C  1S          0.00000  -0.05484   0.05954   0.01330   0.00000
  11        2S          0.00000  -0.01153  -0.00912   0.03985   0.00000
  12        2PX        -0.26757   0.00000   0.00000   0.00000  -0.59400
  13        2PY         0.00000  -0.43483  -0.11002  -0.16118   0.00000
  14        2PZ         0.00000  -0.31279   0.22958  -0.45260   0.00000
  15        3S          0.00000   0.50361  -0.22802  -0.18643   0.00000
  16        3PX         0.69460   0.00000   0.00000   0.00000   0.74951
  17        3PY         0.00000   0.88836  -0.05987   0.14676   0.00000
  18        3PZ         0.00000   0.78096  -0.29473   0.58410   0.00000
  19 3   H  1S          0.14553  -0.46080   0.35632   0.34024  -0.47883
  20        2S          0.20431  -0.23720  -0.02324  -0.34641   0.74368
  21 4   H  1S         -0.14553  -0.46080   0.35632   0.34024   0.47883
  22        2S         -0.20431  -0.23720  -0.02324  -0.34641  -0.74368
  23 5   H  1S          0.00000  -0.01717   0.51244  -0.30792   0.00000
  24        2S          0.00000   0.10970  -0.39896   0.65154   0.00000
  25 6   C  1S          0.04749   0.02742   0.05954   0.01330  -0.01605
  26        2S          0.00999   0.00577  -0.00912   0.03985   0.08298
  27        2PX        -0.39302  -0.07243   0.09528   0.13959  -0.20996
  28        2PY        -0.07243  -0.30939   0.05501   0.08059   0.22172
  29        2PZ         0.27088   0.15639   0.22958  -0.45260   0.33973
  30        3S         -0.43614  -0.25181  -0.22802  -0.18643  -0.19168
  31        3PX         0.83992   0.08390   0.05185  -0.12710   0.23906
  32        3PY         0.08390   0.74304   0.02993  -0.07338  -0.29471
  33        3PZ        -0.67633  -0.39048  -0.29473   0.58410  -0.50817
  34 7   H  1S          0.32630   0.35643   0.35632   0.34024   0.06965
  35        2S          0.10327   0.29554  -0.02324  -0.34641  -0.07720
  36 8   H  1S          0.47183   0.10436   0.35632   0.34024  -0.40918
  37        2S          0.30758  -0.05834  -0.02324  -0.34641   0.66648
  38 9   H  1S          0.01487   0.00859   0.51244  -0.30792   0.25942
  39        2S         -0.09500  -0.05485  -0.39896   0.65154  -0.48864
  40 10  C  1S         -0.04749   0.02742   0.05954   0.01330   0.01605
  41        2S         -0.00999   0.00577  -0.00912   0.03985  -0.08298
  42        2PX        -0.39302   0.07243  -0.09528  -0.13959  -0.20996
  43        2PY         0.07243  -0.30939   0.05501   0.08059  -0.22172
  44        2PZ        -0.27088   0.15639   0.22958  -0.45260  -0.33973
  45        3S          0.43614  -0.25181  -0.22802  -0.18643   0.19168
  46        3PX         0.83992  -0.08390  -0.05185   0.12710   0.23906
  47        3PY        -0.08390   0.74304   0.02993  -0.07338   0.29471
  48        3PZ         0.67633  -0.39048  -0.29473   0.58410   0.50817
  49 11  H  1S         -0.47183   0.10436   0.35632   0.34024   0.40918
  50        2S         -0.30758  -0.05834  -0.02324  -0.34641  -0.66648
  51 12  H  1S         -0.32630   0.35643   0.35632   0.34024  -0.06965
  52        2S         -0.10327   0.29554  -0.02324  -0.34641   0.07720
  53 13  H  1S         -0.01487   0.00859   0.51244  -0.30792  -0.25942
  54        2S          0.09500  -0.05485  -0.39896   0.65154   0.48864
                          41        42        43        44        45
                        (E)--V    (A2)--V   (A2)--V   (E)--V    (E)--V
     Eigenvalues --     1.30932   1.31670   1.35576   1.38152   1.38152
   1 1   N  1S         -0.00000   0.00000   0.00000   0.00000  -0.00000
   2        2S         -0.00000   0.00000   0.00000   0.00000   0.00000
   3        2PX         0.00000  -0.00000   0.00000   0.09514   0.00000
   4        2PY         0.27963   0.00000   0.00000   0.00000  -0.09514
   5        2PZ         0.00000   0.00000   0.00000   0.00000  -0.00000
   6        3S          0.00000   0.00000   0.00000   0.00000  -0.00000
   7        3PX         0.00000   0.00000  -0.00000  -0.16530   0.00000
   8        3PY        -0.42268   0.00000   0.00000   0.00000   0.16530
   9        3PZ        -0.00000   0.00000   0.00000   0.00000  -0.00000
  10 2   C  1S          0.01853   0.00000   0.00000   0.00000  -0.01788
  11        2S         -0.09582   0.00000   0.00000   0.00000   0.09958
  12        2PX         0.00000  -0.57405  -0.39303  -0.37864   0.00000
  13        2PY        -0.08195   0.00000   0.00000   0.00000  -0.02383
  14        2PZ        -0.39229   0.00000   0.00000   0.00000  -0.53019
  15        3S          0.22133   0.00000   0.00000   0.00000  -0.20417
  16        3PX         0.00000   1.49651   0.46174   0.51897   0.00000
  17        3PY         0.06891   0.00000   0.00000   0.00000   0.04534
  18        3PZ         0.58678   0.00000   0.00000   0.00000   0.59861
  19 3   H  1S          0.19603   0.26850  -0.50321  -0.27308   0.23583
  20        2S         -0.34022   0.41746   0.73936   0.51195  -0.39057
  21 4   H  1S          0.19603  -0.26850   0.50321   0.27308   0.23583
  22        2S         -0.34022  -0.41746  -0.73936  -0.51195  -0.39057
  23 5   H  1S         -0.29955   0.00000   0.00000   0.00000  -0.76576
  24        2S          0.56424   0.00000   0.00000   0.00000   1.12200
  25 6   C  1S         -0.00927   0.00000  -0.00000  -0.01549   0.00894
  26        2S          0.04791  -0.00000   0.00000   0.08624  -0.04979
  27        2PX         0.22172   0.28703   0.19652  -0.07679  -0.17427
  28        2PY        -0.46599  -0.49714  -0.34038   0.17427   0.27802
  29        2PZ         0.19614  -0.00000  -0.00000  -0.45915   0.26509
  30        3S         -0.11066   0.00000  -0.00000  -0.17681   0.10208
  31        3PX        -0.29471  -0.74825  -0.23087   0.09574   0.24436
  32        3PY         0.57936   1.29601   0.39988  -0.24436  -0.37789
  33        3PZ        -0.29339   0.00000  -0.00000   0.51841  -0.29930
  34 7   H  1S         -0.51270   0.26850  -0.50321   0.34077   0.11858
  35        2S          0.81416   0.41746   0.73936  -0.59422  -0.24807
  36 8   H  1S          0.31666  -0.26850   0.50321   0.06770  -0.35441
  37        2S         -0.47394  -0.41746  -0.73936  -0.08227   0.63864
  38 9   H  1S          0.14978  -0.00000  -0.00000  -0.66317   0.38288
  39        2S         -0.28212   0.00000   0.00000   0.97168  -0.56100
  40 10  C  1S         -0.00927  -0.00000   0.00000   0.01549   0.00894
  41        2S          0.04791   0.00000  -0.00000  -0.08624  -0.04979
  42        2PX        -0.22172   0.28703   0.19652  -0.07679   0.17427
  43        2PY        -0.46599   0.49714   0.34038  -0.17427   0.27802
  44        2PZ         0.19614   0.00000   0.00000   0.45915   0.26509
  45        3S         -0.11066  -0.00000   0.00000   0.17681   0.10208
  46        3PX         0.29471  -0.74825  -0.23087   0.09574  -0.24436
  47        3PY         0.57936  -1.29601  -0.39988   0.24436  -0.37789
  48        3PZ        -0.29339  -0.00000   0.00000  -0.51841  -0.29930
  49 11  H  1S          0.31666   0.26850  -0.50321  -0.06770  -0.35441
  50        2S         -0.47394   0.41746   0.73936   0.08227   0.63864
  51 12  H  1S         -0.51270  -0.26850   0.50321  -0.34077   0.11858
  52        2S          0.81416  -0.41746  -0.73936   0.59422  -0.24807
  53 13  H  1S          0.14978   0.00000   0.00000   0.66317   0.38288
  54        2S         -0.28212  -0.00000  -0.00000  -0.97168  -0.56100
                          46        47        48        49        50
                        (E)--V    (E)--V    (A1)--V   (A1)--V   (E)--V
     Eigenvalues --     1.46021   1.46021   1.63491   1.82949   1.88799
   1 1   N  1S          0.00000   0.00000   0.04109   0.02568   0.00000
   2        2S         -0.00000   0.00000  -0.15124  -0.04591  -0.00000
   3        2PX         0.00000   0.03893   0.00000   0.00000   0.00000
   4        2PY         0.03893   0.00000  -0.00000   0.00000  -1.08332
   5        2PZ         0.00000   0.00000  -0.90785   0.42581   0.00000
   6        3S          0.00000   0.00000  -0.17594  -0.63811  -0.00000
   7        3PX         0.00000   0.01211   0.00000   0.00000   0.00000
   8        3PY         0.01211   0.00000   0.00000  -0.00000   2.25172
   9        3PZ        -0.00000   0.00000   1.30441  -0.56530  -0.00000
  10 2   C  1S          0.07081   0.00000   0.00457   0.00051   0.03532
  11        2S         -0.38015   0.00000  -0.39246  -1.02291  -0.06986
  12        2PX         0.00000  -0.03762   0.00000   0.00000   0.00000
  13        2PY        -0.56430   0.00000  -0.20489  -0.04393   0.24919
  14        2PZ        -0.11509   0.00000  -0.00472  -0.02234  -0.02474
  15        3S          0.75667   0.00000   0.95973   1.79721  -1.15339
  16        3PX         0.00000   0.35044   0.00000   0.00000   0.00000
  17        3PY         0.93024   0.00000   0.09944   0.24585   0.37219
  18        3PZ         0.35659   0.00000  -0.40839   0.29565  -0.49152
  19 3   H  1S          0.47561   0.25294   0.12282  -0.09973   0.22304
  20        2S         -0.82215  -0.11268  -0.25528  -0.46382   0.05073
  21 4   H  1S          0.47561  -0.25294   0.12282  -0.09973   0.22304
  22        2S         -0.82215   0.11268  -0.25528  -0.46382   0.05073
  23 5   H  1S          0.48392   0.00000  -0.20018   0.04909   0.06142
  24        2S         -0.32499   0.00000  -0.25423  -0.29605  -0.11234
  25 6   C  1S         -0.03541  -0.06133   0.00457   0.00051  -0.01766
  26        2S          0.19008   0.32922  -0.39246  -1.02291   0.03493
  27        2PX        -0.22806  -0.43263   0.17744   0.03804   0.17520
  28        2PY        -0.16929  -0.22806   0.10245   0.02196  -0.05426
  29        2PZ         0.05754   0.09967  -0.00472  -0.02234   0.01237
  30        3S         -0.37833  -0.65529   0.95973   1.79721   0.57670
  31        3PX         0.25106   0.78529  -0.08611  -0.21291   0.32182
  32        3PY         0.49539   0.25106  -0.04972  -0.12292  -0.18521
  33        3PZ        -0.17830  -0.30882  -0.40839   0.29565   0.24576
  34 7   H  1S         -0.01875  -0.53836   0.12282  -0.09973  -0.28248
  35        2S          0.31349   0.76834  -0.25528  -0.46382   0.00076
  36 8   H  1S         -0.45686  -0.28542   0.12282  -0.09973   0.05945
  37        2S          0.50866   0.65566  -0.25528  -0.46382  -0.05148
  38 9   H  1S         -0.24196  -0.41908  -0.20018   0.04909  -0.03071
  39        2S          0.16250   0.28145  -0.25423  -0.29605   0.05617
  40 10  C  1S         -0.03541   0.06133   0.00457   0.00051  -0.01766
  41        2S          0.19008  -0.32922  -0.39246  -1.02291   0.03493
  42        2PX         0.22806  -0.43263  -0.17744  -0.03804  -0.17520
  43        2PY        -0.16929   0.22806   0.10245   0.02196  -0.05426
  44        2PZ         0.05754  -0.09967  -0.00472  -0.02234   0.01237
  45        3S         -0.37833   0.65529   0.95973   1.79721   0.57670
  46        3PX        -0.25106   0.78529   0.08611   0.21291  -0.32182
  47        3PY         0.49539  -0.25106  -0.04972  -0.12292  -0.18521
  48        3PZ        -0.17830   0.30882  -0.40839   0.29565   0.24576
  49 11  H  1S         -0.45686   0.28542   0.12282  -0.09973   0.05945
  50        2S          0.50866  -0.65566  -0.25528  -0.46382  -0.05148
  51 12  H  1S         -0.01875   0.53836   0.12282  -0.09973  -0.28248
  52        2S          0.31349  -0.76834  -0.25528  -0.46382   0.00076
  53 13  H  1S         -0.24196   0.41908  -0.20018   0.04909  -0.03071
  54        2S          0.16250  -0.28145  -0.25423  -0.29605   0.05617
                          51        52        53        54
                        (E)--V    (E)--V    (E)--V    (A1)--V
     Eigenvalues --     1.88799   2.21889   2.21889   3.04996
   1 1   N  1S          0.00000   0.00000   0.00000  -0.01260
   2        2S          0.00000   0.00000   0.00000  -1.95217
   3        2PX        -1.08332  -0.00740   0.00000   0.00000
   4        2PY         0.00000   0.00000   0.00740   0.00000
   5        2PZ         0.00000   0.00000   0.00000   0.15178
   6        3S          0.00000   0.00000  -0.00000   3.40982
   7        3PX         2.25172   0.73952   0.00000   0.00000
   8        3PY         0.00000   0.00000  -0.73952  -0.00000
   9        3PZ         0.00000   0.00000  -0.00000  -0.58265
  10 2   C  1S          0.00000   0.00000  -0.05643   0.04524
  11        2S          0.00000   0.00000  -1.70117   0.17524
  12        2PX        -0.15541  -0.18601   0.00000   0.00000
  13        2PY         0.00000   0.00000   0.10270   0.20813
  14        2PZ         0.00000   0.00000   0.07812  -0.01604
  15        3S          0.00000   0.00000   3.51620  -1.18134
  16        3PX        -0.37101   0.50766   0.00000   0.00000
  17        3PY         0.00000   0.00000  -0.47573   0.33104
  18        3PZ         0.00000   0.00000  -0.16704  -0.08432
  19 3   H  1S         -0.19741   0.05169  -0.23578   0.10477
  20        2S          0.03016   0.23233  -0.46144   0.13622
  21 4   H  1S          0.19741  -0.05169  -0.23578   0.10477
  22        2S         -0.03016  -0.23233  -0.46144   0.13622
  23 5   H  1S          0.00000   0.00000  -0.30375   0.13143
  24        2S          0.00000   0.00000  -0.64978   0.08967
  25 6   C  1S         -0.03059  -0.04887   0.02821   0.04524
  26        2S          0.06050  -1.47326   0.85058   0.17524
  27        2PX         0.14804  -0.12352  -0.03608  -0.18024
  28        2PY         0.17520   0.03608   0.16518  -0.10406
  29        2PZ         0.02143   0.06765  -0.03906  -0.01604
  30        3S          0.99887   3.04512  -1.75810  -1.18134
  31        3PX         0.18639   0.48371   0.01383  -0.28669
  32        3PY         0.32182  -0.01383  -0.49968  -0.16552
  33        3PZ         0.42567  -0.14466   0.08352  -0.08432
  34 7   H  1S         -0.09445  -0.23004   0.07313   0.10477
  35        2S         -0.05901  -0.51578   0.02952   0.13622
  36 8   H  1S         -0.29186  -0.17835   0.16266   0.10477
  37        2S         -0.02885  -0.28345   0.43192   0.13622
  38 9   H  1S         -0.05319  -0.26305   0.15187   0.13143
  39        2S          0.09729  -0.56273   0.32489   0.08967
  40 10  C  1S          0.03059   0.04887   0.02821   0.04524
  41        2S         -0.06050   1.47326   0.85058   0.17524
  42        2PX         0.14804  -0.12352   0.03608   0.18024
  43        2PY        -0.17520  -0.03608   0.16518  -0.10406
  44        2PZ        -0.02143  -0.06765  -0.03906  -0.01604
  45        3S         -0.99887  -3.04512  -1.75810  -1.18134
  46        3PX         0.18639   0.48371  -0.01383   0.28669
  47        3PY        -0.32182   0.01383  -0.49968  -0.16552
  48        3PZ        -0.42567   0.14466   0.08352  -0.08432
  49 11  H  1S          0.29186   0.17835   0.16266   0.10477
  50        2S          0.02885   0.28345   0.43192   0.13622
  51 12  H  1S          0.09445   0.23004   0.07313   0.10477
  52        2S          0.05901   0.51578   0.02952   0.13622
  53 13  H  1S          0.05319   0.26305   0.15187   0.13143
  54        2S         -0.09729   0.56273   0.32489   0.08967
     Density Matrix:
                           1         2         3         4         5
   1 1   N  1S          2.05021
   2        2S          0.11525   0.09609
   3        2PX         0.00000   0.00000   0.27942
   4        2PY        -0.00000   0.00000  -0.00000   0.27942
   5        2PZ        -0.03513   0.03660   0.00000   0.00000   0.46226
   6        3S         -0.48676   0.28508   0.00000  -0.00000   0.12885
   7        3PX         0.00000  -0.00000   0.28592   0.00000   0.00000
   8        3PY         0.00000   0.00000   0.00000   0.28592  -0.00000
   9        3PZ        -0.00555   0.03949   0.00000   0.00000   0.58335
  10 2   C  1S          0.00844  -0.00742  -0.00000  -0.05421   0.01709
  11        2S         -0.01448   0.01021   0.00000   0.05340  -0.02334
  12        2PX         0.00000  -0.00000   0.00478  -0.00000   0.00000
  13        2PY         0.04393  -0.03736  -0.00000  -0.20016   0.06418
  14        2PZ        -0.01070   0.01049   0.00000   0.05683  -0.01037
  15        3S          0.05088  -0.00917   0.00000   0.13364  -0.02924
  16        3PX        -0.00000  -0.00000  -0.02376  -0.00000   0.00000
  17        3PY        -0.00612  -0.00663  -0.00000  -0.14245   0.02885
  18        3PZ        -0.00900   0.01240   0.00000   0.01222   0.03384
  19 3   H  1S          0.00817  -0.00765   0.01107  -0.01938  -0.01726
  20        2S          0.01106  -0.01179   0.02227  -0.03938  -0.03586
  21 4   H  1S          0.00817  -0.00765  -0.01107  -0.01938  -0.01726
  22        2S          0.01106  -0.01179  -0.02227  -0.03938  -0.03586
  23 5   H  1S         -0.00105  -0.00038  -0.00000  -0.01931   0.04714
  24        2S         -0.01073   0.01010  -0.00000  -0.04846   0.13845
  25 6   C  1S          0.00844  -0.00742   0.04695   0.02711   0.01709
  26        2S         -0.01448   0.01021  -0.04625  -0.02670  -0.02334
  27        2PX        -0.03804   0.03236  -0.14892  -0.08874  -0.05558
  28        2PY        -0.02196   0.01868  -0.08874  -0.04646  -0.03209
  29        2PZ        -0.01070   0.01049  -0.04921  -0.02841  -0.01037
  30        3S          0.05088  -0.00917  -0.11573  -0.06682  -0.02924
  31        3PX         0.00530   0.00574  -0.11278  -0.05139  -0.02498
  32        3PY         0.00306   0.00332  -0.05139  -0.05344  -0.01442
  33        3PZ        -0.00900   0.01240  -0.01058  -0.00611   0.03384
  34 7   H  1S          0.00817  -0.00765   0.01125   0.01928  -0.01726
  35        2S          0.01106  -0.01179   0.02296   0.03898  -0.03586
  36 8   H  1S          0.00817  -0.00765   0.02232   0.00010  -0.01726
  37        2S          0.01106  -0.01179   0.04524   0.00040  -0.03586
  38 9   H  1S         -0.00105  -0.00038   0.01673   0.00966   0.04714
  39        2S         -0.01073   0.01010   0.04197   0.02423   0.13845
  40 10  C  1S          0.00844  -0.00742  -0.04695   0.02711   0.01709
  41        2S         -0.01448   0.01021   0.04625  -0.02670  -0.02334
  42        2PX         0.03804  -0.03236  -0.14892   0.08874   0.05558
  43        2PY        -0.02196   0.01868   0.08874  -0.04646  -0.03209
  44        2PZ        -0.01070   0.01049   0.04921  -0.02841  -0.01037
  45        3S          0.05088  -0.00917   0.11573  -0.06682  -0.02924
  46        3PX        -0.00530  -0.00574  -0.11278   0.05139   0.02498
  47        3PY         0.00306   0.00332   0.05139  -0.05344  -0.01442
  48        3PZ        -0.00900   0.01240   0.01058  -0.00611   0.03384
  49 11  H  1S          0.00817  -0.00765  -0.02232   0.00010  -0.01726
  50        2S          0.01106  -0.01179  -0.04524   0.00040  -0.03586
  51 12  H  1S          0.00817  -0.00765  -0.01125   0.01928  -0.01726
  52        2S          0.01106  -0.01179  -0.02296   0.03898  -0.03586
  53 13  H  1S         -0.00105  -0.00038  -0.01673   0.00966   0.04714
  54        2S         -0.01073   0.01010  -0.04197   0.02423   0.13845
                           6         7         8         9        10
   6        3S          1.24139
   7        3PX        -0.00000   0.30010
   8        3PY         0.00000   0.00000   0.30010
   9        3PZ         0.12450   0.00000   0.00000   0.74888
  10 2   C  1S          0.00314  -0.00000  -0.02819   0.02323   2.03746
  11        2S          0.01466   0.00000   0.03812  -0.02808   0.11308
  12        2PX        -0.00000  -0.00363  -0.00000   0.00000  -0.00000
  13        2PY        -0.17640  -0.00000  -0.22110   0.08231  -0.00817
  14        2PZ         0.02977   0.00000   0.05648  -0.04504   0.00053
  15        3S         -0.13675   0.00000   0.08201  -0.02932  -0.39573
  16        3PX        -0.00000  -0.02976  -0.00000   0.00000  -0.00000
  17        3PY        -0.04020  -0.00000  -0.15818   0.03402  -0.00779
  18        3PZ         0.03820   0.00000   0.01205   0.02050   0.01330
  19 3   H  1S         -0.05836   0.01653  -0.03615  -0.02973  -0.05383
  20        2S         -0.05817   0.02864  -0.04696  -0.05439   0.01751
  21 4   H  1S         -0.05836  -0.01653  -0.03615  -0.02973  -0.05383
  22        2S         -0.05817  -0.02864  -0.04696  -0.05439   0.01751
  23 5   H  1S         -0.01175  -0.00000  -0.03001   0.08445  -0.05121
  24        2S          0.04229  -0.00000  -0.04997   0.20150   0.02696
  25 6   C  1S          0.00314   0.02442   0.01410   0.02323  -0.00592
  26        2S          0.01466  -0.03301  -0.01906  -0.02808  -0.00203
  27        2PX         0.15276  -0.16674  -0.09417  -0.07128   0.00604
  28        2PY         0.08820  -0.09417  -0.05800  -0.04115   0.00965
  29        2PZ         0.02977  -0.04892  -0.02824  -0.04504   0.00102
  30        3S         -0.13675  -0.07103  -0.04101  -0.02932   0.03397
  31        3PX         0.03481  -0.12608  -0.05561  -0.02947   0.00592
  32        3PY         0.02010  -0.05561  -0.06187  -0.01701   0.02986
  33        3PZ         0.03820  -0.01044  -0.00603   0.02050  -0.00629
  34 7   H  1S         -0.05836   0.02304   0.03239  -0.02973  -0.00843
  35        2S         -0.05817   0.02635   0.04829  -0.05439  -0.00547
  36 8   H  1S         -0.05836   0.03957   0.00376  -0.02973   0.00237
  37        2S         -0.05817   0.05499  -0.00132  -0.05439  -0.00379
  38 9   H  1S         -0.01175   0.02599   0.01501   0.08445   0.00147
  39        2S          0.04229   0.04327   0.02498   0.20150  -0.00199
  40 10  C  1S          0.00314  -0.02442   0.01410   0.02323  -0.00592
  41        2S          0.01466   0.03301  -0.01906  -0.02808  -0.00203
  42        2PX        -0.15276  -0.16674   0.09417   0.07128  -0.00604
  43        2PY         0.08820   0.09417  -0.05800  -0.04115   0.00965
  44        2PZ         0.02977   0.04892  -0.02824  -0.04504   0.00102
  45        3S         -0.13675   0.07103  -0.04101  -0.02932   0.03397
  46        3PX        -0.03481  -0.12608   0.05561   0.02947  -0.00592
  47        3PY         0.02010   0.05561  -0.06187  -0.01701   0.02986
  48        3PZ         0.03820   0.01044  -0.00603   0.02050  -0.00629
  49 11  H  1S         -0.05836  -0.03957   0.00376  -0.02973   0.00237
  50        2S         -0.05817  -0.05499  -0.00132  -0.05439  -0.00379
  51 12  H  1S         -0.05836  -0.02304   0.03239  -0.02973  -0.00843
  52        2S         -0.05817  -0.02635   0.04829  -0.05439  -0.00547
  53 13  H  1S         -0.01175  -0.02599   0.01501   0.08445   0.00147
  54        2S          0.04229  -0.04327   0.02498   0.20150  -0.00199
                          11        12        13        14        15
  11        2S          0.10346
  12        2PX         0.00000   0.29454
  13        2PY         0.00542  -0.00000   0.23961
  14        2PZ         0.00183   0.00000   0.01263   0.28516
  15        3S          0.22805   0.00000   0.06787  -0.01916   0.76770
  16        3PX         0.00000   0.25160  -0.00000   0.00000   0.00000
  17        3PY         0.00875  -0.00000   0.16054   0.02744   0.04138
  18        3PZ        -0.00867   0.00000   0.03689   0.21541  -0.04117
  19 3   H  1S          0.05252  -0.17386   0.08497   0.08401   0.16354
  20        2S          0.01402  -0.15361   0.06761   0.08080   0.03436
  21 4   H  1S          0.05252   0.17386   0.08497   0.08401   0.16354
  22        2S          0.01402   0.15361   0.06761   0.08080   0.03436
  23 5   H  1S          0.04705   0.00000   0.01398  -0.20782   0.16304
  24        2S          0.00207   0.00000   0.01649  -0.21049   0.01901
  25 6   C  1S         -0.00203  -0.00534  -0.01005   0.00102   0.03397
  26        2S         -0.00099   0.00389   0.00927  -0.00133  -0.01481
  27        2PX        -0.00608   0.00212   0.03313  -0.00181  -0.02042
  28        2PY        -0.00800   0.01275   0.02861  -0.00764  -0.06437
  29        2PZ        -0.00133   0.00571   0.00538  -0.01189   0.00483
  30        3S         -0.01481   0.04554   0.04986   0.00483  -0.07012
  31        3PX        -0.00528   0.00662   0.03044   0.00252  -0.00415
  32        3PY        -0.01475   0.02479   0.04265  -0.00678  -0.07275
  33        3PZ         0.00086   0.00694  -0.00341  -0.01864   0.01272
  34 7   H  1S          0.00732  -0.00661  -0.02299   0.00377   0.04134
  35        2S          0.00866  -0.01084  -0.03925   0.00826   0.04449
  36 8   H  1S         -0.00122   0.00768   0.00558  -0.00358  -0.02221
  37        2S          0.00115  -0.00041   0.00671   0.00036  -0.00639
  38 9   H  1S         -0.00173   0.00041   0.00617   0.00361  -0.01515
  39        2S         -0.00232  -0.00333   0.00441  -0.01036  -0.00665
  40 10  C  1S         -0.00203   0.00534  -0.01005   0.00102   0.03397
  41        2S         -0.00099  -0.00389   0.00927  -0.00133  -0.01481
  42        2PX         0.00608   0.00212  -0.03313   0.00181   0.02042
  43        2PY        -0.00800  -0.01275   0.02861  -0.00764  -0.06437
  44        2PZ        -0.00133  -0.00571   0.00538  -0.01189   0.00483
  45        3S         -0.01481  -0.04554   0.04986   0.00483  -0.07012
  46        3PX         0.00528   0.00662  -0.03044  -0.00252   0.00415
  47        3PY        -0.01475  -0.02479   0.04265  -0.00678  -0.07275
  48        3PZ         0.00086  -0.00694  -0.00341  -0.01864   0.01272
  49 11  H  1S         -0.00122  -0.00768   0.00558  -0.00358  -0.02221
  50        2S          0.00115   0.00041   0.00671   0.00036  -0.00639
  51 12  H  1S          0.00732   0.00661  -0.02299   0.00377   0.04134
  52        2S          0.00866   0.01084  -0.03925   0.00826   0.04449
  53 13  H  1S         -0.00173  -0.00041   0.00617   0.00361  -0.01515
  54        2S         -0.00232   0.00333   0.00441  -0.01036  -0.00665
                          16        17        18        19        20
  16        3PX         0.21876
  17        3PY        -0.00000   0.11721
  18        3PZ         0.00000   0.03970   0.17124
  19 3   H  1S         -0.14997   0.06502   0.06423   0.18714
  20        2S         -0.13341   0.05247   0.06326   0.14552   0.12964
  21 4   H  1S          0.14997   0.06502   0.06423  -0.01959  -0.03845
  22        2S          0.13341   0.05247   0.06326  -0.03845  -0.03565
  23 5   H  1S         -0.00000  -0.00341  -0.15703  -0.02680  -0.05277
  24        2S         -0.00000  -0.00316  -0.14487  -0.05991  -0.06647
  25 6   C  1S         -0.02290  -0.02006  -0.00629   0.00237  -0.00379
  26        2S          0.01014   0.01195   0.00086  -0.00122   0.00115
  27        2PX         0.00973   0.03223   0.00642  -0.00099  -0.00601
  28        2PY         0.02658   0.03954  -0.00431  -0.00944  -0.00300
  29        2PZ         0.00713   0.00121  -0.01864  -0.00358   0.00036
  30        3S          0.06092   0.03997   0.01272  -0.02221  -0.00639
  31        3PX         0.01113   0.02121   0.00758  -0.00148  -0.00651
  32        3PY         0.03230   0.04203  -0.00089  -0.01474  -0.00436
  33        3PZ         0.00456  -0.00612  -0.01941  -0.00865  -0.00790
  34 7   H  1S         -0.01024  -0.02645  -0.00291   0.00524   0.00351
  35        2S         -0.01623  -0.03828  -0.00407   0.00543   0.00376
  36 8   H  1S          0.01203   0.00865  -0.00865  -0.00087   0.00897
  37        2S          0.00052   0.00782  -0.00790   0.00897   0.01675
  38 9   H  1S          0.00266   0.00703   0.01539  -0.00251  -0.00527
  39        2S         -0.00514   0.00208   0.01109  -0.00826  -0.01713
  40 10  C  1S          0.02290  -0.02006  -0.00629  -0.00843  -0.00547
  41        2S         -0.01014   0.01195   0.00086   0.00732   0.00866
  42        2PX         0.00973  -0.03223  -0.00642  -0.01660  -0.02857
  43        2PY        -0.02658   0.03954  -0.00431   0.01722   0.02901
  44        2PZ        -0.00713   0.00121  -0.01864   0.00377   0.00826
  45        3S         -0.06092   0.03997   0.01272   0.04134   0.04449
  46        3PX         0.01113  -0.02121  -0.00758  -0.01778  -0.02504
  47        3PY        -0.03230   0.04203  -0.00089   0.02209   0.03320
  48        3PZ        -0.00456  -0.00612  -0.01941  -0.00291  -0.00407
  49 11  H  1S         -0.01203   0.00865  -0.00865   0.00524   0.00543
  50        2S         -0.00052   0.00782  -0.00790   0.00351   0.00376
  51 12  H  1S          0.01024  -0.02645  -0.00291  -0.00705  -0.01233
  52        2S          0.01623  -0.03828  -0.00407  -0.01233  -0.01506
  53 13  H  1S         -0.00266   0.00703   0.01539  -0.00107  -0.00661
  54        2S          0.00514   0.00208   0.01109  -0.01360  -0.02398
                          21        22        23        24        25
  21 4   H  1S          0.18714
  22        2S          0.14552   0.12964
  23 5   H  1S         -0.02680  -0.05277   0.18661
  24        2S         -0.05991  -0.06647   0.16962   0.19702
  25 6   C  1S         -0.00843  -0.00547   0.00147  -0.00199   2.03746
  26        2S          0.00732   0.00866  -0.00173  -0.00232   0.11308
  27        2PX         0.01660   0.02857  -0.00514  -0.00548   0.00708
  28        2PY         0.01722   0.02901  -0.00345   0.00068   0.00409
  29        2PZ         0.00377   0.00826   0.00361  -0.01036   0.00053
  30        3S          0.04134   0.04449  -0.01515  -0.00665  -0.39573
  31        3PX         0.01778   0.02504  -0.00476  -0.00437   0.00675
  32        3PY         0.02209   0.03320  -0.00581   0.00341   0.00390
  33        3PZ        -0.00291  -0.00407   0.01539   0.01109   0.01330
  34 7   H  1S         -0.00705  -0.01233  -0.00107  -0.01360  -0.05383
  35        2S         -0.01233  -0.01506  -0.00661  -0.02398   0.01751
  36 8   H  1S          0.00524   0.00543  -0.00251  -0.00826  -0.05383
  37        2S          0.00351   0.00376  -0.00527  -0.01713   0.01751
  38 9   H  1S         -0.00107  -0.00661   0.00406   0.02425  -0.05121
  39        2S         -0.01360  -0.02398   0.02425   0.06049   0.02696
  40 10  C  1S          0.00237  -0.00379   0.00147  -0.00199  -0.00592
  41        2S         -0.00122   0.00115  -0.00173  -0.00232  -0.00203
  42        2PX         0.00099   0.00601   0.00514   0.00548  -0.01137
  43        2PY        -0.00944  -0.00300  -0.00345   0.00068   0.00040
  44        2PZ        -0.00358   0.00036   0.00361  -0.01036   0.00102
  45        3S         -0.02221  -0.00639  -0.01515  -0.00665   0.03397
  46        3PX         0.00148   0.00651   0.00476   0.00437  -0.02882
  47        3PY        -0.01474  -0.00436  -0.00581   0.00341  -0.00980
  48        3PZ        -0.00865  -0.00790   0.01539   0.01109  -0.00629
  49 11  H  1S         -0.00087   0.00897  -0.00251  -0.00826  -0.00843
  50        2S          0.00897   0.01675  -0.00527  -0.01713  -0.00547
  51 12  H  1S          0.00524   0.00351  -0.00107  -0.01360   0.00237
  52        2S          0.00543   0.00376  -0.00661  -0.02398  -0.00379
  53 13  H  1S         -0.00251  -0.00527   0.00406   0.02425   0.00147
  54        2S         -0.00826  -0.01713   0.02425   0.06049  -0.00199
                          26        27        28        29        30
  26        2S          0.10346
  27        2PX        -0.00470   0.25334
  28        2PY        -0.00271  -0.02378   0.28080
  29        2PZ         0.00183  -0.01093  -0.00631   0.28516
  30        3S          0.22805  -0.05878  -0.03394  -0.01916   0.76770
  31        3PX        -0.00757   0.18330  -0.03943  -0.02376  -0.03583
  32        3PY        -0.00437  -0.03943   0.22884  -0.01372  -0.02069
  33        3PZ        -0.00867  -0.03195  -0.01844   0.21541  -0.04117
  34 7   H  1S          0.05252   0.01335  -0.19305   0.08401   0.16354
  35        2S          0.01402   0.01825  -0.16683   0.08080   0.03436
  36 8   H  1S          0.05252  -0.16051   0.10809   0.08401   0.16354
  37        2S          0.01402  -0.13536   0.09922   0.08080   0.03436
  38 9   H  1S          0.04705  -0.01210  -0.00699  -0.20782   0.16304
  39        2S          0.00207  -0.01428  -0.00825  -0.21049   0.01901
  40 10  C  1S         -0.00203   0.01137   0.00040   0.00102   0.03397
  41        2S         -0.00099  -0.00997  -0.00127  -0.00133  -0.01481
  42        2PX         0.00997   0.04185   0.01019   0.00752   0.06595
  43        2PY        -0.00127  -0.01019  -0.01113   0.00225   0.01450
  44        2PZ        -0.00133  -0.00752   0.00225  -0.01189   0.00483
  45        3S         -0.01481  -0.06595   0.01450   0.00483  -0.07012
  46        3PX         0.01542   0.05755   0.00462   0.00461   0.06508
  47        3PY         0.00281  -0.00103  -0.00829   0.00557   0.03278
  48        3PZ         0.00086  -0.00052   0.00772  -0.01864   0.01272
  49 11  H  1S          0.00732   0.02321   0.00577   0.00377   0.04134
  50        2S          0.00866   0.03941   0.01024   0.00826   0.04449
  51 12  H  1S         -0.00122  -0.00867   0.00386  -0.00358  -0.02221
  52        2S          0.00115  -0.00560  -0.00371   0.00036  -0.00639
  53 13  H  1S         -0.00173  -0.00555  -0.00273   0.00361  -0.01515
  54        2S         -0.00232  -0.00215  -0.00509  -0.01036  -0.00665
                          31        32        33        34        35
  31        3PX         0.14259
  32        3PY        -0.04397   0.19337
  33        3PZ        -0.03438  -0.01985   0.17124
  34 7   H  1S          0.01868  -0.16239   0.06423   0.18714
  35        2S          0.02126  -0.14177   0.06326   0.14552   0.12964
  36 8   H  1S         -0.13129   0.09737   0.06423  -0.01959  -0.03845
  37        2S         -0.11215   0.08930   0.06326  -0.03845  -0.03565
  38 9   H  1S          0.00295   0.00170  -0.15703  -0.02680  -0.05277
  39        2S          0.00273   0.00158  -0.14487  -0.05991  -0.06647
  40 10  C  1S          0.02882  -0.00980  -0.00629   0.00237  -0.00379
  41        2S         -0.01542   0.00281   0.00086  -0.00122   0.00115
  42        2PX         0.05755   0.00103   0.00052   0.00867   0.00560
  43        2PY        -0.00462  -0.00829   0.00772   0.00386  -0.00371
  44        2PZ        -0.00461   0.00557  -0.01864  -0.00358   0.00036
  45        3S         -0.06508   0.03278   0.01272  -0.02221  -0.00639
  46        3PX         0.05747  -0.00554  -0.00302   0.01350   0.00703
  47        3PY         0.00554  -0.00432   0.00701   0.00609  -0.00345
  48        3PZ         0.00302   0.00701  -0.01941  -0.00865  -0.00790
  49 11  H  1S          0.02802   0.00435  -0.00291   0.00524   0.00351
  50        2S          0.04127   0.00508  -0.00407   0.00543   0.00376
  51 12  H  1S         -0.01350   0.00609  -0.00865  -0.00087   0.00897
  52        2S         -0.00703  -0.00345  -0.00790   0.00897   0.01675
  53 13  H  1S         -0.00741  -0.00121   0.01539  -0.00251  -0.00527
  54        2S          0.00077  -0.00549   0.01109  -0.00826  -0.01713
                          36        37        38        39        40
  36 8   H  1S          0.18714
  37        2S          0.14552   0.12964
  38 9   H  1S         -0.02680  -0.05277   0.18661
  39        2S         -0.05991  -0.06647   0.16962   0.19702
  40 10  C  1S         -0.00843  -0.00547   0.00147  -0.00199   2.03746
  41        2S          0.00732   0.00866  -0.00173  -0.00232   0.11308
  42        2PX        -0.02321  -0.03941   0.00555   0.00215  -0.00708
  43        2PY         0.00577   0.01024  -0.00273  -0.00509   0.00409
  44        2PZ         0.00377   0.00826   0.00361  -0.01036   0.00053
  45        3S          0.04134   0.04449  -0.01515  -0.00665  -0.39573
  46        3PX        -0.02802  -0.04127   0.00741  -0.00077  -0.00675
  47        3PY         0.00435   0.00508  -0.00121  -0.00549   0.00390
  48        3PZ        -0.00291  -0.00407   0.01539   0.01109   0.01330
  49 11  H  1S         -0.00705  -0.01233  -0.00107  -0.01360  -0.05383
  50        2S         -0.01233  -0.01506  -0.00661  -0.02398   0.01751
  51 12  H  1S          0.00524   0.00543  -0.00251  -0.00826  -0.05383
  52        2S          0.00351   0.00376  -0.00527  -0.01713   0.01751
  53 13  H  1S         -0.00107  -0.00661   0.00406   0.02425  -0.05121
  54        2S         -0.01360  -0.02398   0.02425   0.06049   0.02696
                          41        42        43        44        45
  41        2S          0.10346
  42        2PX         0.00470   0.25334
  43        2PY        -0.00271   0.02378   0.28080
  44        2PZ         0.00183   0.01093  -0.00631   0.28516
  45        3S          0.22805   0.05878  -0.03394  -0.01916   0.76770
  46        3PX         0.00757   0.18330   0.03943   0.02376   0.03583
  47        3PY        -0.00437   0.03943   0.22884  -0.01372  -0.02069
  48        3PZ        -0.00867   0.03195  -0.01844   0.21541  -0.04117
  49 11  H  1S          0.05252   0.16051   0.10809   0.08401   0.16354
  50        2S          0.01402   0.13536   0.09922   0.08080   0.03436
  51 12  H  1S          0.05252  -0.01335  -0.19305   0.08401   0.16354
  52        2S          0.01402  -0.01825  -0.16683   0.08080   0.03436
  53 13  H  1S          0.04705   0.01210  -0.00699  -0.20782   0.16304
  54        2S          0.00207   0.01428  -0.00825  -0.21049   0.01901
                          46        47        48        49        50
  46        3PX         0.14259
  47        3PY         0.04397   0.19337
  48        3PZ         0.03438  -0.01985   0.17124
  49 11  H  1S          0.13129   0.09737   0.06423   0.18714
  50        2S          0.11215   0.08930   0.06326   0.14552   0.12964
[...]
  27        2PX         0.00000   0.00006  -0.00000  -0.00004   0.00000
  28        2PY         0.00000   0.00007  -0.00000   0.00001   0.00000
  29        2PZ         0.00000   0.00000  -0.00000   0.00007   0.00000
  30        3S          0.00004   0.00096  -0.00012  -0.00049  -0.07136
  31        3PX         0.00005   0.00092  -0.00006  -0.00032   0.00000
  32        3PY         0.00008   0.00151  -0.00015   0.00045   0.00000
  33        3PZ        -0.00000  -0.00003  -0.00019  -0.00071   0.00000
  34 7   H  1S         -0.00000  -0.00000  -0.00000  -0.00000  -0.00106
  35        2S         -0.00000  -0.00005  -0.00000  -0.00023   0.00143
  36 8   H  1S          0.00000   0.00000  -0.00000  -0.00003  -0.00106
  37        2S          0.00000   0.00005  -0.00002  -0.00075   0.00143
  38 9   H  1S         -0.00000  -0.00000   0.00000   0.00033  -0.00095
  39        2S         -0.00000  -0.00023   0.00033   0.00580   0.00217
  40 10  C  1S          0.00000  -0.00001   0.00000  -0.00000   0.00000
  41        2S         -0.00000   0.00002  -0.00000  -0.00003  -0.00000
  42        2PX        -0.00000  -0.00002  -0.00000  -0.00004   0.00000
  43        2PY        -0.00000  -0.00007  -0.00000   0.00001   0.00000
  44        2PZ        -0.00000   0.00000  -0.00000   0.00007   0.00000
  45        3S         -0.00027  -0.00059  -0.00012  -0.00049   0.00011
  46        3PX        -0.00001  -0.00017  -0.00006  -0.00032   0.00036
  47        3PY        -0.00063  -0.00084  -0.00015   0.00045  -0.00000
  48        3PZ        -0.00006  -0.00024  -0.00019  -0.00071   0.00000
  49 11  H  1S         -0.00000   0.00025  -0.00000  -0.00003  -0.00000
  50        2S          0.00025   0.00251  -0.00002  -0.00075  -0.00000
  51 12  H  1S          0.00000   0.00000  -0.00000  -0.00000   0.00000
  52        2S          0.00000   0.00005  -0.00000  -0.00023  -0.00001
  53 13  H  1S         -0.00000  -0.00002   0.00000   0.00033   0.00000
  54        2S         -0.00003  -0.00075   0.00033   0.00580  -0.00000
                          26        27        28        29        30
  26        2S          0.10346
  27        2PX         0.00000   0.25334
  28        2PY         0.00000  -0.00000   0.28080
  29        2PZ         0.00000   0.00000   0.00000   0.28516
  30        3S          0.17362   0.00000   0.00000   0.00000   0.76770
  31        3PX         0.00000   0.09696  -0.00000   0.00000   0.00000
  32        3PY         0.00000   0.00000   0.12104   0.00000   0.00000
  33        3PZ         0.00000   0.00000   0.00000   0.11394   0.00000
  34 7   H  1S          0.01044   0.00006   0.05341   0.00939   0.05587
  35        2S          0.00567   0.00007   0.03639   0.00712   0.02310
  36 8   H  1S          0.01044   0.03810   0.01537   0.00939   0.05587
  37        2S          0.00567   0.02533   0.01113   0.00712   0.02310
  38 9   H  1S          0.00907   0.00038   0.00013   0.06011   0.05502
  39        2S          0.00083   0.00036   0.00012   0.04902   0.01268
  40 10  C  1S         -0.00000   0.00000   0.00000   0.00000   0.00011
  41        2S         -0.00000  -0.00001   0.00000   0.00000  -0.00043
  42        2PX        -0.00001  -0.00013  -0.00000   0.00000  -0.00250
  43        2PY         0.00000  -0.00000  -0.00000   0.00000   0.00000
  44        2PZ         0.00000   0.00000   0.00000  -0.00000   0.00000
  45        3S         -0.00043  -0.00250   0.00000   0.00000  -0.00872
  46        3PX        -0.00145  -0.00607  -0.00000   0.00000  -0.01652
  47        3PY        -0.00000   0.00000  -0.00015   0.00000   0.00000
  48        3PZ         0.00000   0.00000   0.00000  -0.00035   0.00000
  49 11  H  1S          0.00000   0.00000   0.00000   0.00000   0.00004
  50        2S          0.00002   0.00013   0.00001   0.00000   0.00096
  51 12  H  1S         -0.00000  -0.00000  -0.00000  -0.00000  -0.00027
  52        2S          0.00002  -0.00013   0.00004   0.00000  -0.00059
  53 13  H  1S         -0.00000  -0.00000   0.00000  -0.00000  -0.00012
  54        2S         -0.00003  -0.00004   0.00000   0.00007  -0.00049
                          31        32        33        34        35
  31        3PX         0.14259
  32        3PY         0.00000   0.19337
  33        3PZ         0.00000   0.00000   0.17124
  34 7   H  1S          0.00014   0.07596   0.01213   0.18714
  35        2S          0.00019   0.07734   0.01394   0.09399   0.12964
  36 8   H  1S          0.05268   0.02342   0.01213  -0.00017  -0.00471
  37        2S          0.05248   0.02505   0.01394  -0.00471  -0.01301
  38 9   H  1S         -0.00016  -0.00005   0.07835  -0.00023  -0.00635
  39        2S         -0.00017  -0.00006   0.08474  -0.00721  -0.02400
  40 10  C  1S          0.00036  -0.00000   0.00000   0.00000  -0.00001
  41        2S         -0.00145  -0.00000   0.00000  -0.00000   0.00002
  42        2PX        -0.00607   0.00000   0.00000  -0.00000  -0.00013
  43        2PY        -0.00000  -0.00015   0.00000  -0.00000   0.00004
  44        2PZ         0.00000   0.00000  -0.00035  -0.00000   0.00000
  45        3S         -0.01652   0.00000   0.00000  -0.00027  -0.00059
  46        3PX        -0.02265   0.00000   0.00000  -0.00054  -0.00127
  47        3PY         0.00000  -0.00054   0.00000  -0.00010   0.00026
  48        3PZ         0.00000   0.00000  -0.00241  -0.00006  -0.00024
  49 11  H  1S          0.00013   0.00000  -0.00000   0.00000   0.00000
  50        2S          0.00238   0.00005  -0.00003   0.00000   0.00005
  51 12  H  1S         -0.00054  -0.00010  -0.00006  -0.00000   0.00025
  52        2S         -0.00127   0.00026  -0.00024   0.00025   0.00251
  53 13  H  1S         -0.00021   0.00000  -0.00019  -0.00000  -0.00002
  54        2S          0.00012   0.00002  -0.00071  -0.00003  -0.00075
                          36        37        38        39        40
  36 8   H  1S          0.18714
  37        2S          0.09399   0.12964
  38 9   H  1S         -0.00023  -0.00635   0.18661
  39        2S         -0.00721  -0.02400   0.10955   0.19702
  40 10  C  1S         -0.00000  -0.00000   0.00000  -0.00000   2.03746
  41        2S          0.00000   0.00002  -0.00000  -0.00003   0.02165
  42        2PX         0.00000   0.00013  -0.00000  -0.00004   0.00000
  43        2PY         0.00000   0.00001   0.00000   0.00000   0.00000
  44        2PZ         0.00000   0.00000  -0.00000   0.00007   0.00000
  45        3S          0.00004   0.00096  -0.00012  -0.00049  -0.07136
  46        3PX         0.00013   0.00238  -0.00021   0.00012   0.00000
  47        3PY         0.00000   0.00005   0.00000   0.00002   0.00000
  48        3PZ        -0.00000  -0.00003  -0.00019  -0.00071   0.00000
  49 11  H  1S         -0.00000  -0.00000  -0.00000  -0.00000  -0.00106
  50        2S         -0.00000  -0.00005  -0.00000  -0.00023   0.00143
  51 12  H  1S          0.00000   0.00000  -0.00000  -0.00003  -0.00106
  52        2S          0.00000   0.00005  -0.00002  -0.00075   0.00143
  53 13  H  1S         -0.00000  -0.00000   0.00000   0.00033  -0.00095
  54        2S         -0.00000  -0.00023   0.00033   0.00580   0.00217
                          41        42        43        44        45
  41        2S          0.10346
  42        2PX         0.00000   0.25334
  43        2PY         0.00000   0.00000   0.28080
  44        2PZ         0.00000   0.00000   0.00000   0.28516
  45        3S          0.17362   0.00000   0.00000   0.00000   0.76770
  46        3PX         0.00000   0.09696  -0.00000   0.00000   0.00000
  47        3PY         0.00000   0.00000   0.12104   0.00000   0.00000
  48        3PZ         0.00000   0.00000   0.00000   0.11394   0.00000
  49 11  H  1S          0.01044   0.03810   0.01537   0.00939   0.05587
  50        2S          0.00567   0.02533   0.01113   0.00712   0.02310
  51 12  H  1S          0.01044   0.00006   0.05341   0.00939   0.05587
  52        2S          0.00567   0.00007   0.03639   0.00712   0.02310
  53 13  H  1S          0.00907   0.00038   0.00013   0.06011   0.05502
  54        2S          0.00083   0.00036   0.00012   0.04902   0.01268
                          46        47        48        49        50
  46        3PX         0.14259
  47        3PY         0.00000   0.19337
  48        3PZ         0.00000   0.00000   0.17124
  49 11  H  1S          0.05268   0.02342   0.01213   0.18714
  50        2S          0.05248   0.02505   0.01394   0.09399   0.12964
  51 12  H  1S          0.00014   0.07596   0.01213  -0.00017  -0.00471
  52        2S          0.00019   0.07734   0.01394  -0.00471  -0.01301
  53 13  H  1S         -0.00016  -0.00005   0.07835  -0.00023  -0.00635
  54        2S         -0.00017  -0.00006   0.08474  -0.00721  -0.02400
                          51        52        53        54
  51 12  H  1S          0.18714
  52        2S          0.09399   0.12964
  53 13  H  1S         -0.00023  -0.00635   0.18661
  54        2S         -0.00721  -0.02400   0.10955   0.19702
     Gross orbital populations:
                           1
   1 1   N  1S          1.98820
   2        2S          0.34739
   3        2PX         0.51560
   4        2PY         0.51560
   5        2PZ         0.77619
   6        3S          1.35254
   7        3PX         0.59416
   8        3PY         0.59416
   9        3PZ         0.99763
  10 2   C  1S          1.98787
  11        2S          0.36175
  12        2PX         0.56541
  13        2PY         0.48190
  14        2PZ         0.54638
  15        3S          1.04309
  16        3PX         0.55412
  17        3PY         0.29448
  18        3PZ         0.51247
  19 3   H  1S          0.47937
  20        2S          0.31607
  21 4   H  1S          0.47937
  22        2S          0.31607
  23 5   H  1S          0.47794
  24        2S          0.35654
  25 6   C  1S          1.98787
  26        2S          0.36175
  27        2PX         0.50278
  28        2PY         0.54454
  29        2PZ         0.54638
  30        3S          1.04309
  31        3PX         0.35939
  32        3PY         0.48921
  33        3PZ         0.51247
  34 7   H  1S          0.47937
  35        2S          0.31607
  36 8   H  1S          0.47937
  37        2S          0.31607
  38 9   H  1S          0.47794
  39        2S          0.35654
  40 10  C  1S          1.98787
  41        2S          0.36175
  42        2PX         0.50278
  43        2PY         0.54454
  44        2PZ         0.54638
  45        3S          1.04309
  46        3PX         0.35939
  47        3PY         0.48921
  48        3PZ         0.51247
  49 11  H  1S          0.47937
  50        2S          0.31607
  51 12  H  1S          0.47937
  52        2S          0.31607
  53 13  H  1S          0.47794
  54        2S          0.35654
          Condensed to atoms (all electrons):
               1          2          3          4          5          6
     1  N    7.244469   0.264359  -0.033365  -0.033365  -0.051962   0.264359
     2  C    0.264359   5.146865   0.381574   0.381574   0.351580  -0.088477
     3  H   -0.033365   0.381574   0.504765  -0.022601  -0.037792  -0.002876
     4  H   -0.033365   0.381574  -0.022601   0.504765  -0.037792   0.003691
     5  H   -0.051962   0.351580  -0.037792  -0.037792   0.602743  -0.001573
     6  C    0.264359  -0.088477  -0.002876   0.003691  -0.001573   5.146865
     7  H   -0.033365   0.003691   0.000057  -0.000053  -0.000232   0.381574
     8  H   -0.033365  -0.002876   0.003018   0.000057  -0.000801   0.381574
     9  H   -0.051962  -0.001573  -0.000801  -0.000232   0.006456   0.351580
    10  C    0.264359  -0.088477   0.003691  -0.002876  -0.001573  -0.088477
    11  H   -0.033365  -0.002876   0.000057   0.003018  -0.000801   0.003691
    12  H   -0.033365   0.003691  -0.000053   0.000057  -0.000232  -0.002876
    13  H   -0.051962  -0.001573  -0.000232  -0.000801   0.006456  -0.001573
               7          8          9         10         11         12
     1  N   -0.033365  -0.033365  -0.051962   0.264359  -0.033365  -0.033365
     2  C    0.003691  -0.002876  -0.001573  -0.088477  -0.002876   0.003691
     3  H    0.000057   0.003018  -0.000801   0.003691   0.000057  -0.000053
     4  H   -0.000053   0.000057  -0.000232  -0.002876   0.003018   0.000057
     5  H   -0.000232  -0.000801   0.006456  -0.001573  -0.000801  -0.000232
     6  C    0.381574   0.381574   0.351580  -0.088477   0.003691  -0.002876
     7  H    0.504765  -0.022601  -0.037792  -0.002876   0.000057   0.003018
     8  H   -0.022601   0.504765  -0.037792   0.003691  -0.000053   0.000057
     9  H   -0.037792  -0.037792   0.602743  -0.001573  -0.000232  -0.000801
    10  C   -0.002876   0.003691  -0.001573   5.146865   0.381574   0.381574
    11  H    0.000057  -0.000053  -0.000232   0.381574   0.504765  -0.022601
    12  H    0.003018   0.000057  -0.000801   0.381574  -0.022601   0.504765
    13  H   -0.000801  -0.000232   0.006456   0.351580  -0.037792  -0.037792
              13
     1  N   -0.051962
     2  C   -0.001573
     3  H   -0.000232
     4  H   -0.000801
     5  H    0.006456
     6  C   -0.001573
     7  H   -0.000801
     8  H   -0.000232
     9  H    0.006456
    10  C    0.351580
    11  H   -0.037792
    12  H   -0.037792
    13  H    0.602743
 Mulliken charges:
               1
     1  N   -0.681470
     2  C   -0.347483
     3  H    0.204559
     4  H    0.204559
     5  H    0.165522
     6  C   -0.347483
     7  H    0.204559
     8  H    0.204559
     9  H    0.165522
    10  C   -0.347483
    11  H    0.204559
    12  H    0.204559
    13  H    0.165522
 Sum of Mulliken charges =   0.00000
 Mulliken charges with hydrogens summed into heavy atoms:
               1
     1  N   -0.681470
     2  C    0.227157
     6  C    0.227157
    10  C    0.227157
 Electronic spatial extent (au):  <R**2>=            327.2572
 Charge=             -0.0000 electrons
 Dipole moment (field-independent basis, Debye):
    X=              0.0000    Y=              0.0000    Z=             -0.8880  Tot=              0.8880
 Quadrupole moment (field-independent basis, Debye-Ang):
   XX=            -25.8435   YY=            -25.8435   ZZ=            -29.8962
   XY=             -0.0000   XZ=             -0.0000   YZ=             -0.0000
 Traceless Quadrupole moment (field-independent basis, Debye-Ang):
   XX=              1.3509   YY=              1.3509   ZZ=             -2.7019
   XY=             -0.0000   XZ=             -0.0000   YZ=             -0.0000
 Octapole moment (field-independent basis, Debye-Ang**2):
  XXX=             -0.0000  YYY=             -0.3198  ZZZ=             -1.5498  XYY=              0.0000
  XXY=              0.3198  XXZ=              1.9446  XZZ=              0.0000  YZZ=              0.0000
  YYZ=              1.9446  XYZ=             -0.0000
 Hexadecapole moment (field-independent basis, Debye-Ang**3):
 XXXX=           -188.7100 YYYY=           -188.7100 ZZZZ=            -53.9948 XXXY=              0.0000
 XXXZ=             -0.0000 YYYX=              0.0000 YYYZ=             -1.2239 ZZZX=             -0.0000
 ZZZY=             -0.0000 XXYY=            -62.9033 XXZZ=            -41.6783 YYZZ=            -41.6783
 XXYZ=              1.2239 YYXZ=             -0.0000 ZZXY=              0.0000
 N-N= 1.378488371868D+02 E-N=-6.767760516248D+02  KE= 1.719148092783D+02
 Symmetry A'   KE= 1.284343298671D+02
 Symmetry A"   KE= 4.348047941117D+01
 Orbital energies and kinetic energies (alpha):
                                 1                 2
   1         (A1)--O         -15.463418         21.921281
   2         (E)--O          -11.178792         15.876531
   3         (E)--O          -11.178792         15.876531
   4         (A1)--O         -11.178139         15.870483
   5         (A1)--O          -1.213087          1.728926
   6         (E)--O           -0.949942          1.375855
   7         (E)--O           -0.949942          1.375855
   8         (A1)--O          -0.805397          1.441938
   9         (A1)--O          -0.635429          0.960655
  10         (E)--O           -0.625170          1.080236
  11         (E)--O           -0.625170          1.080236
  12         (E)--O           -0.542616          1.006226
  13         (E)--O           -0.542616          1.006226
  14         (A2)--O          -0.518267          1.071682
  15         (E)--O           -0.494015          1.329711
  16         (E)--O           -0.494015          1.329711
  17         (A1)--O          -0.333679          1.625325
  18         (A1)--V           0.254225          0.911856
  19         (E)--V            0.322286          0.871353
  20         (E)--V            0.322286          0.871353
  21         (E)--V            0.341976          1.138969
  22         (E)--V            0.341976          1.138969
  23         (A1)--V           0.347609          1.060379
  24         (A1)--V           0.372253          1.951587
  25         (E)--V            0.376500          0.941931
  26         (E)--V            0.376500          0.941931
  27         (A2)--V           0.416277          1.008464
  28         (E)--V            0.480358          1.571562
  29         (E)--V            0.480358          1.571562
  30         (E)--V            0.885568          2.126157
  31         (E)--V            0.885568          2.126157
  32         (A1)--V           0.911681          2.117382
  33         (E)--V            0.993358          2.357152
  34         (E)--V            0.993358          2.357152
  35         (A1)--V           1.008275          3.001346
  36         (E)--V            1.138207          2.502463
  37         (E)--V            1.138207          2.502463
  38         (A1)--V           1.281028          2.757725
  39         (A1)--V           1.294628          3.069195
  40         (E)--V            1.309319          3.139817
  41         (E)--V            1.309319          3.139817
  42         (A2)--V           1.316702          2.490246
  43         (A2)--V           1.355757          2.828840
  44         (E)--V            1.381520          2.982935
  45         (E)--V            1.381520          2.982935
  46         (E)--V            1.460206          3.099136
  47         (E)--V            1.460206          3.099136
  48         (A1)--V           1.634907          3.693830
  49         (A1)--V           1.829491          3.236948
  50         (E)--V            1.887991          4.151018
  51         (E)--V            1.887991          4.151018
  52         (E)--V            2.218890          3.264747
  53         (E)--V            2.218890          3.264747
  54         (A1)--V           3.049957          5.115223
 Total kinetic energy from orbitals= 1.719148092783D+02
 1\1\GINC-IISERK51\SP\RHF\3-21G\C3H9N1\GAUSSIAN\16-Jun-2025\0\\# hf/3-2
 1g pop=full geom=connectivity\\TMA sp\\0,1\N,0,0.,0.,0.337528\C,0,0.,1
 .409666,-0.057136\H,0,-0.87773,1.897468,0.34837\H,0,0.87773,1.897468,0
 .34837\H,0,0.,1.545874,-1.14149\C,0,-1.220806,-0.704833,-0.057136\H,0,
 -1.204391,-1.708871,0.34837\H,0,-2.082121,-0.188598,0.34837\H,0,-1.338
 766,-0.772937,-1.14149\C,0,1.220806,-0.704833,-0.057136\H,0,2.082121,-
 0.188598,0.34837\H,0,1.204391,-1.708871,0.34837\H,0,1.338766,-0.772937
 ,-1.14149\\Version=EM64L-G16RevB.01\State=1-A1\HF=-172.3102695\RMSD=3.
 461e-09\Dipole=0.,0.,-0.3493633\Quadrupole=1.0043801,1.0043801,-2.0087
 602,0.,0.,0.\PG=C03V [C3(N1),3SGV(C1H1),X(H6)]\\@


 TIME IS IN FACT THE HERO OF THE PLOT. THE TIME
 WITH WHICH WE HAVE TO DEAL IS OF THE ORDER OF TWO
 BILLION YEARS...GIVEN SO MUCH TIME, THE "IMPOSSIBLE"
 BECOMES POSSIBLE, THE POSSIBLE PROBABLE, THE PROBABLE
 VIRTUALLY CERTAIN.  ONE HAS ONLY TO WAIT, TIME
 ITSELF PERFORMS THE MIRACLES.
 "ORIGIN OF LIFE" LECTURES, GEORGE WALD, 1954
 Job cpu time:       0 days  0 hours  0 minutes  0.5 seconds.
 Elapsed time:       0 days  0 hours  0 minutes  0.5 seconds.
 File lengths (MBytes):  RWF=      6 Int=      0 D2E=      0 Chk=      1 Scr=      1
 Normal termination of Gaussian 16 at Mon Jun 16 16:06:32 2025.
