 Entering Gaussian System, Link 0=g16
 Input=/home/gaussian/Documents/Summer_Internship/Acid_Base_adduct/Adduct/NH3 - BCl3/BCl3_only_adduct_sp.com
 Output=/home/gaussian/Documents/Summer_Internship/Acid_Base_adduct/Adduct/NH3 - BCl3/BCl3_only_adduct_sp.log
 Initial command:
 /usr/local/g16/l1.exe "/home/gaussian/tmp/Gau-79463.inp" -scrdir="/home/gaussian/tmp/"
 Entering Link 1 = /usr/local/g16/l1.exe PID=     79466.
  
 Copyright (c) 1988-2017, Gaussian, Inc.  All Rights Reserved.
  
 This is part of the Gaussian(R) 16 program.  It is based on
 the Gaussian(R) 09 system (copyright 2009, Gaussian, Inc.),
 the Gaussian(R) 03 system (copyright 2003, Gaussian, Inc.),
 the Gaussian(R) 98 system (copyright 1998, Gaussian, Inc.),
 the Gaussian(R) 94 system (copyright 1995, Gaussian, Inc.),
 the Gaussian 92(TM) system (copyright 1992, Gaussian, Inc.),
 the Gaussian 90(TM) system (copyright 1990, Gaussian, Inc.),
 the Gaussian 88(TM) system (copyright 1988, Gaussian, Inc.),
 the Gaussian 86(TM) system (copyright 1986, Carnegie Mellon
 University), and the Gaussian 82(TM) system (copyright 1983,
 Carnegie Mellon University). Gaussian is a federally registered
 trademark of Gaussian, Inc.
  
 This software contains proprietary and confidential information,
 including trade secrets, belonging to Gaussian, Inc.
  
 This software is provided under written license and may be
 used, copied, transmitted, or stored only in accord with that
 written license.
  
 The following legend is applicable only to US Government
 contracts under FAR:
  
                    RESTRICTED RIGHTS LEGEND
  
 Use, reproduction and disclosure by the US Government is
 subject to restrictions as set forth in subparagraphs (a)
 and (c) of the Commercial Computer Software - Restricted
 Rights clause in FAR 52.227-19.
  
 Gaussian, Inc.
 340 Quinnipiac St., Bldg. 40, Wallingford CT 06492
  
  
 ---------------------------------------------------------------
 Warning -- This program may not be used in any manner that
 competes with the business of Gaussian, Inc. or will provide
 assistance to any competitor of Gaussian, Inc.  The licensee
 of this program is prohibited from giving any competitor of
 Gaussian, Inc. access to this program.  By using this program,
 the user acknowledges that Gaussian, Inc. is engaged in the
 business of creating and licensing software in the field of
 computational chemistry and represents and warrants to the
 licensee that it is not a competitor of Gaussian, Inc. and that
 it will not use this program in any manner prohibited above.
 ---------------------------------------------------------------
  

 Cite this work as:
 Gaussian 16, Revision B.01,
 M. J. Frisch, G. W. Trucks, H. B. Schlegel, G. E. Scuseria, 
 M. A. Robb, J. R. Cheeseman, G. Scalmani, V. Barone, 
 G. A. Petersson, H. Nakatsuji, X. Li, M. Caricato, A. V. Marenich, 
 J. Bloino, B. G. Janesko, R. Gomperts, B. Mennucci, H. P. Hratchian, 
 J. V. Ortiz, A. F. Izmaylov, J. L. Sonnenberg, D. Williams-Young, 
 F. Ding, F. Lipparini, F. Egidi, J. Goings, B. Peng, A. Petrone, 
 T. Henderson, D. Ranasinghe, V. G. Zakrzewski, J. Gao, N. Rega, 
 G. Zheng, W. Liang, M. Hada, M. Ehara, K. Toyota, R. Fukuda, 
 J. Hasegawa, M. Ishida, T. Nakajima, Y. Honda, O. Kitao, H. Nakai, 
 T. Vreven, K. Throssell, J. A. Montgomery, Jr., J. E. Peralta, 
 F. Ogliaro, M. J. Bearpark, J. J. Heyd, E. N. Brothers, K. N. Kudin, 
 V. N. Staroverov, T. A. Keith, R. Kobayashi, J. Normand, 
 K. Raghavachari, A. P. Rendell, J. C. Burant, S. S. Iyengar, 
 J. Tomasi, M. Cossi, J. M. Millam, M. Klene, C. Adamo, R. Cammi, 
 J. W. Ochterski, R. L. Martin, K. Morokuma, O. Farkas, 
 J. B. Foresman, and D. J. Fox, Gaussian, Inc., Wallingford CT, 2016.
 
 ******************************************
 Gaussian 16:  EM64L-G16RevB.01 20-Dec-2017
                16-Jun-2025 
 ******************************************
 %chk=BCl3_only_adduct_sp.chk
 -------------------------------------
 # hf/3-21g pop=full geom=connectivity
 -------------------------------------
 1/38=1,57=2,172=1/1;
 2/12=2,17=6,18=5,40=1/2;
 3/5=5,11=9,25=1,30=1/1,2,3;
 4//1;
 5/5=2,38=5/2;
 6/7=3,28=1/1;
 99/5=1,9=1/99;
 ----------------
 BCl3 only adduct
 ----------------
 Symbolic Z-matrix:
 Charge =  0 Multiplicity = 1
 B                     0.        0.        0.11466 
 Cl                    0.        1.81065  -0.37255 
 Cl                    1.56807  -0.90532  -0.37255 
 Cl                   -1.56807  -0.90532  -0.37255 
 
                          Input orientation:                          
 ---------------------------------------------------------------------
 Center     Atomic      Atomic             Coordinates (Angstroms)
 Number     Number       Type             X           Y           Z
 ---------------------------------------------------------------------
      1          5           0        0.000000    0.000000    0.114656
      2         17           0        0.000000    1.810649   -0.372549
      3         17           0        1.568068   -0.905324   -0.372549
      4         17           0       -1.568068   -0.905324   -0.372549
 ---------------------------------------------------------------------
                    Distance matrix (angstroms):
                    1          2          3          4
     1  B    0.000000
     2  Cl   1.875052   0.000000
     3  Cl   1.875051   3.136136   0.000000
     4  Cl   1.875051   3.136136   3.136136   0.000000
 Stoichiometry    BCl3
 Framework group  C3V[C3(B),3SGV(Cl)]
 Deg. of freedom     2
 Full point group                 C3V     NOp   6
 Largest Abelian subgroup         CS      NOp   2
 Largest concise Abelian subgroup CS      NOp   2
                         Standard orientation:                         
 ---------------------------------------------------------------------
 Center     Atomic      Atomic             Coordinates (Angstroms)
 Number     Number       Type             X           Y           Z
 ---------------------------------------------------------------------
      1          5           0        0.000000   -0.000000    0.443705
      2         17           0       -0.000000    1.810649   -0.043500
      3         17           0        1.568068   -0.905324   -0.043500
      4         17           0       -1.568068   -0.905324   -0.043500
 ---------------------------------------------------------------------
 Rotational constants (GHZ):           2.8989715           2.8989715           1.4694207
 Standard basis: 3-21G (6D, 7F)
 There are    30 symmetry adapted cartesian basis functions of A'  symmetry.
 There are    18 symmetry adapted cartesian basis functions of A"  symmetry.
 There are    30 symmetry adapted basis functions of A'  symmetry.
 There are    18 symmetry adapted basis functions of A"  symmetry.
    48 basis functions,    96 primitive gaussians,    48 cartesian basis functions
    28 alpha electrons       28 beta electrons
       nuclear repulsion energy       218.2597581340 Hartrees.
 NAtoms=    4 NActive=    4 NUniq=    2 SFac= 4.00D+00 NAtFMM=   60 NAOKFM=F Big=F
 Integral buffers will be    131072 words long.
 Raffenetti 1 integral format.
 Two-electron integral symmetry is turned on.
 One-electron integrals computed using PRISM.
 NBasis=    48 RedAO= T EigKep=  1.64D-02  NBF=    30    18
 NBsUse=    48 1.00D-06 EigRej= -1.00D+00 NBFU=    30    18
 ExpMin= 1.24D-01 ExpMax= 1.38D+03 ExpMxC= 1.38D+03 IAcc=3 IRadAn=         5 AccDes= 0.00D+00
 Harris functional with IExCor=  205 and IRadAn=       5 diagonalized for initial guess.
 HarFok:  IExCor=  205 AccDes= 0.00D+00 IRadAn=         5 IDoV= 1 UseB2=F ITyADJ=14
 ICtDFT=  3500011 ScaDFX=  1.000000  1.000000  1.000000  1.000000
 FoFCou: FMM=F IPFlag=           0 FMFlag=      100000 FMFlg1=           0
         NFxFlg=           0 DoJE=T BraDBF=F KetDBF=T FulRan=T
         wScrn=  0.000000 ICntrl=       500 IOpCl=  0 I1Cent=   200000004 NGrid=           0
         NMat0=    1 NMatS0=      1 NMatT0=    0 NMatD0=    1 NMtDS0=    0 NMtDT0=    0
 Petite list used in FoFCou.
 Initial guess orbital symmetries:
       Occupied  (E) (E) (A1) (E) (E) (A1) (E) (E) (A1) (A2) (E)
                 (E) (A1) (E) (E) (A1) (A1) (E) (E) (A1) (E) (E)
                 (A1) (E) (E) (E) (E) (A2)
       Virtual   (A1) (A1) (E) (E) (E) (E) (A1) (A1) (E) (E) (E)
                 (E) (A1) (A1) (E) (E) (A2) (E) (E) (A1)
 The electronic state of the initial guess is 1-A1.
 Keep R1 ints in memory in symmetry-blocked form, NReq=1504345.
 Requested convergence on RMS density matrix=1.00D-08 within 128 cycles.
 Requested convergence on MAX density matrix=1.00D-06.
 Requested convergence on             energy=1.00D-06.
 No special actions if energy rises.
 SCF Done:  E(RHF) =  -1396.49330245     A.U. after   11 cycles
            NFock= 11  Conv=0.12D-08     -V/T= 2.0009

 **********************************************************************

            Population analysis using the SCF Density.

 **********************************************************************

 Orbital symmetries:
       Occupied  (E) (E) (A1) (E) (E) (A1) (E) (E) (A1) (E) (E)
                 (A1) (A2) (E) (E) (A1) (A1) (E) (E) (A1) (E) (E)
                 (A1) (E) (E) (E) (E) (A2)
       Virtual   (A1) (A1) (E) (E) (E) (E) (A1) (A1) (E) (E) (E)
                 (E) (A1) (A1) (E) (E) (A2) (E) (E) (A1)
 The electronic state is 1-A1.
 Alpha  occ. eigenvalues -- -104.14992-104.14992-104.14964 -10.54401 -10.54401
 Alpha  occ. eigenvalues --  -10.54309  -8.00677  -8.00677  -8.00655  -8.00314
 Alpha  occ. eigenvalues --   -8.00314  -8.00306  -8.00292  -8.00267  -8.00267
 Alpha  occ. eigenvalues --   -7.81558  -1.18153  -1.12618  -1.12618  -0.70712
 Alpha  occ. eigenvalues --   -0.59812  -0.59812  -0.55551  -0.50188  -0.50188
 Alpha  occ. eigenvalues --   -0.48626  -0.48626  -0.47597
 Alpha virt. eigenvalues --   -0.02446   0.16105   0.19201   0.19201   0.56788
 Alpha virt. eigenvalues --    0.56788   0.57595   0.64446   0.73627   0.73627
 Alpha virt. eigenvalues --    0.74848   0.74848   0.75949   0.81259   0.84031
 Alpha virt. eigenvalues --    0.84031   0.88729   1.01613   1.01613   1.11264
     Molecular Orbital Coefficients:
                           1         2         3         4         5
                        (E)--O    (E)--O    (A1)--O   (E)--O    (E)--O
     Eigenvalues --  -104.14992-104.14992-104.14964 -10.54401 -10.54401
   1 1   B  1S         -0.00000   0.00000   0.00014   0.00000   0.00000
   2        2S         -0.00000   0.00000   0.00157   0.00000   0.00000
   3        2PX         0.00000   0.00011   0.00000  -0.00072   0.00000
   4        2PY         0.00011   0.00000   0.00000   0.00000  -0.00072
   5        2PZ         0.00000   0.00000  -0.00013   0.00000  -0.00000
   6        3S          0.00000   0.00000  -0.00885   0.00000  -0.00000
   7        3PX         0.00000  -0.00473   0.00000   0.02753   0.00000
   8        3PY        -0.00473   0.00000  -0.00000   0.00000   0.02753
   9        3PZ        -0.00000   0.00000   0.00205   0.00000   0.00000
  10 2   Cl 1S          0.80497   0.00000   0.56921   0.00000  -0.24977
  11        2S          0.04339   0.00000   0.03059   0.00000   0.80247
  12        2PX         0.00000  -0.00003   0.00000   0.00009   0.00000
  13        2PY        -0.00021   0.00000  -0.00008   0.00000  -0.00704
  14        2PZ         0.00006   0.00000   0.00003   0.00000   0.00266
  15        3S         -0.01608   0.00000  -0.01082   0.00000   0.11888
  16        3PX         0.00000   0.00011   0.00000  -0.00055   0.00000
  17        3PY         0.00086   0.00000   0.00022   0.00000  -0.00619
  18        3PZ        -0.00023   0.00000  -0.00006   0.00000   0.00183
  19        4S          0.01161   0.00000   0.00783   0.00000  -0.06787
  20        4PX         0.00000   0.00043   0.00000  -0.00266   0.00000
  21        4PY        -0.00316   0.00000  -0.00209   0.00000   0.01844
  22        4PZ         0.00103   0.00000   0.00028   0.00000  -0.00607
  23 3   Cl 1S         -0.40248   0.69712   0.56921  -0.21631   0.12488
  24        2S         -0.02170   0.03758   0.03059   0.69496  -0.40124
  25        2PX         0.00008  -0.00017  -0.00007  -0.00526   0.00309
  26        2PY        -0.00007   0.00008   0.00004   0.00309  -0.00169
  27        2PZ        -0.00003   0.00006   0.00003   0.00230  -0.00133
  28        3S          0.00804  -0.01392  -0.01082   0.10296  -0.05944
  29        3PX        -0.00032   0.00067   0.00019  -0.00478   0.00244
  30        3PY         0.00030  -0.00032  -0.00011   0.00244  -0.00196
  31        3PZ         0.00012  -0.00020  -0.00006   0.00159  -0.00092
  32        4S         -0.00580   0.01005   0.00783  -0.05877   0.03393
  33        4PX         0.00156  -0.00226  -0.00181   0.01317  -0.00914
  34        4PY        -0.00047   0.00156   0.00105  -0.00914   0.00261
  35        4PZ        -0.00051   0.00089   0.00028  -0.00526   0.00304
  36 4   Cl 1S         -0.40248  -0.69712   0.56921   0.21631   0.12488
  37        2S         -0.02170  -0.03758   0.03059  -0.69496  -0.40124
  38        2PX        -0.00008  -0.00017   0.00007  -0.00526  -0.00309
  39        2PY        -0.00007  -0.00008   0.00004  -0.00309  -0.00169
  40        2PZ        -0.00003  -0.00006   0.00003  -0.00230  -0.00133
  41        3S          0.00804   0.01392  -0.01082  -0.10296  -0.05944
  42        3PX         0.00032   0.00067  -0.00019  -0.00478  -0.00244
  43        3PY         0.00030   0.00032  -0.00011  -0.00244  -0.00196
  44        3PZ         0.00012   0.00020  -0.00006  -0.00159  -0.00092
  45        4S         -0.00580  -0.01005   0.00783   0.05877   0.03393
  46        4PX        -0.00156  -0.00226   0.00181   0.01317   0.00914
  47        4PY        -0.00047  -0.00156   0.00105   0.00914   0.00261
  48        4PZ        -0.00051  -0.00089   0.00028   0.00526   0.00304
                           6         7         8         9        10
                        (A1)--O   (E)--O    (E)--O    (A1)--O   (E)--O
     Eigenvalues --   -10.54309  -8.00677  -8.00677  -8.00655  -8.00314
   1 1   B  1S         -0.00118   0.00000  -0.00000   0.00196   0.00000
   2        2S         -0.00924   0.00000  -0.00000   0.00092   0.00000
   3        2PX         0.00000   0.00151   0.00000   0.00000  -0.00081
   4        2PY        -0.00000   0.00000   0.00151   0.00000   0.00000
   5        2PZ         0.00077   0.00000   0.00000  -0.00054   0.00000
   6        3S          0.05256   0.00000   0.00000  -0.01807   0.00000
   7        3PX         0.00000  -0.01156   0.00000   0.00000   0.00610
   8        3PY         0.00000   0.00000  -0.01156  -0.00000   0.00000
   9        3PZ        -0.01223   0.00000  -0.00000   0.00169   0.00000
  10 2   Cl 1S         -0.17669   0.00000  -0.00289  -0.00196   0.00000
  11        2S          0.56793   0.00000   0.01006   0.00668   0.00000
  12        2PX         0.00000   0.00984   0.00000   0.00000   0.12575
  13        2PY        -0.00527   0.00000   0.75526   0.53178   0.00000
  14        2PZ         0.00195   0.00000  -0.24654  -0.18192   0.00000
  15        3S          0.08131   0.00000  -0.00688  -0.00188   0.00000
  16        3PX         0.00000   0.00126   0.00000   0.00000   0.01071
  17        3PY        -0.00234   0.00000   0.06497   0.04443   0.00000
  18        3PZ         0.00071   0.00000  -0.02107  -0.01546   0.00000
  19        4S         -0.04655   0.00000   0.01456   0.00541   0.00000
  20        4PX         0.00000  -0.00024   0.00000   0.00000  -0.00523
  21        4PY         0.01274   0.00000  -0.02746  -0.01619   0.00000
  22        4PZ        -0.00173   0.00000   0.00851   0.00581   0.00000
  23 3   Cl 1S         -0.17669  -0.00251   0.00145  -0.00196   0.00008
  24        2S          0.56793   0.00871  -0.00503   0.00668  -0.00022
  25        2PX        -0.00457   0.56890  -0.32277   0.46054   0.21311
  26        2PY         0.00264  -0.32277   0.19620  -0.26589  -0.05044
  27        2PZ         0.00195  -0.21351   0.12327  -0.18192   0.64705
  28        3S          0.08131  -0.00596   0.00344  -0.00188  -0.00012
  29        3PX        -0.00203   0.04904  -0.02758   0.03847   0.01764
  30        3PY         0.00117  -0.02758   0.01719  -0.02221  -0.00400
  31        3PZ         0.00071  -0.01825   0.01054  -0.01546   0.05276
  32        4S         -0.04655   0.01261  -0.00728   0.00541  -0.00208
  33        4PX         0.01103  -0.02065   0.01178  -0.01402  -0.00529
  34        4PY        -0.00637   0.01178  -0.00705   0.00810   0.00003
  35        4PZ        -0.00173   0.00737  -0.00426   0.00581  -0.01683
  36 4   Cl 1S         -0.17669   0.00251   0.00145  -0.00196  -0.00008
  37        2S          0.56793  -0.00871  -0.00503   0.00668   0.00022
  38        2PX         0.00457   0.56890   0.32277  -0.46054   0.21311
  39        2PY         0.00264   0.32277   0.19620  -0.26589   0.05044
  40        2PZ         0.00195   0.21351   0.12327  -0.18192  -0.64705
  41        3S          0.08131   0.00596   0.00344  -0.00188   0.00012
  42        3PX         0.00203   0.04904   0.02758  -0.03847   0.01764
  43        3PY         0.00117   0.02758   0.01719  -0.02221   0.00400
  44        3PZ         0.00071   0.01825   0.01054  -0.01546  -0.05276
  45        4S         -0.04655  -0.01261  -0.00728   0.00541   0.00208
  46        4PX        -0.01103  -0.02065  -0.01178   0.01402  -0.00529
  47        4PY        -0.00637  -0.01178  -0.00705   0.00810  -0.00003
  48        4PZ        -0.00173  -0.00737  -0.00426   0.00581   0.01683
                          11        12        13        14        15
                        (E)--O    (A1)--O   (A2)--O   (E)--O    (E)--O
     Eigenvalues --    -8.00314  -8.00306  -8.00292  -8.00267  -8.00267
   1 1   B  1S         -0.00000   0.00091   0.00000  -0.00000   0.00000
   2        2S         -0.00000   0.00190   0.00000  -0.00000   0.00000
   3        2PX         0.00000   0.00000   0.00000   0.00000  -0.00113
   4        2PY        -0.00081  -0.00000   0.00000  -0.00113   0.00000
   5        2PZ         0.00000  -0.00132   0.00000   0.00000   0.00000
   6        3S          0.00000  -0.00743   0.00000   0.00000   0.00000
   7        3PX         0.00000   0.00000  -0.00000   0.00000   0.00771
   8        3PY         0.00610   0.00000   0.00000   0.00771   0.00000
   9        3PZ        -0.00000   0.00938   0.00000  -0.00000   0.00000
  10 2   Cl 1S          0.00009   0.00004   0.00000  -0.00001   0.00000
  11        2S         -0.00025  -0.00016   0.00000   0.00009   0.00000
  12        2PX         0.00000   0.00000   0.56240   0.00000   0.78558
  13        2PY         0.24223   0.18217   0.00000  -0.04846   0.00000
  14        2PZ         0.74715   0.53222   0.00000  -0.11665   0.00000
  15        3S         -0.00014  -0.00038   0.00000  -0.00059   0.00000
  16        3PX         0.00000   0.00000   0.04641   0.00000   0.06321
  17        3PY         0.01994   0.01458   0.00000  -0.00334   0.00000
  18        3PZ         0.06092   0.04322   0.00000  -0.00914   0.00000
  19        4S         -0.00241   0.00287   0.00000  -0.00232   0.00000
  20        4PX         0.00000   0.00000  -0.01584   0.00000  -0.01939
  21        4PY        -0.00531  -0.00615   0.00000   0.00147   0.00000
  22        4PZ        -0.01943  -0.01381   0.00000   0.00134   0.00000
  23 3   Cl 1S         -0.00004   0.00004  -0.00000   0.00000  -0.00001
  24        2S          0.00013  -0.00016   0.00000  -0.00005   0.00008
  25        2PX        -0.05044   0.15777  -0.28120   0.36115   0.16005
  26        2PY         0.15487  -0.09109  -0.48705   0.57707   0.36115
  27        2PZ        -0.37358   0.53222   0.00000   0.05832  -0.10102
  28        3S          0.00007  -0.00038   0.00000   0.00030  -0.00051
  29        3PX        -0.00400   0.01262  -0.02321   0.02882   0.01330
  30        3PY         0.01302  -0.00729  -0.04019   0.04657   0.02882
  31        3PZ        -0.03046   0.04322   0.00000   0.00457  -0.00792
  32        4S          0.00120   0.00287   0.00000   0.00116  -0.00201
  33        4PX         0.00003  -0.00532   0.00792  -0.00903  -0.00374
  34        4PY        -0.00525   0.00307   0.01372  -0.01418  -0.00903
  35        4PZ         0.00972  -0.01381  -0.00000  -0.00067   0.00116
  36 4   Cl 1S         -0.00004   0.00004   0.00000   0.00000   0.00001
  37        2S          0.00013  -0.00016  -0.00000  -0.00005  -0.00008
  38        2PX         0.05044  -0.15777  -0.28120  -0.36115   0.16005
  39        2PY         0.15487  -0.09109   0.48705   0.57707  -0.36115
  40        2PZ        -0.37358   0.53222  -0.00000   0.05832   0.10102
  41        3S          0.00007  -0.00038  -0.00000   0.00030   0.00051
  42        3PX         0.00400  -0.01262  -0.02321  -0.02882   0.01330
  43        3PY         0.01302  -0.00729   0.04019   0.04657  -0.02882
  44        3PZ        -0.03046   0.04322  -0.00000   0.00457   0.00792
  45        4S          0.00120   0.00287  -0.00000   0.00116   0.00201
  46        4PX        -0.00003   0.00532   0.00792   0.00903  -0.00374
  47        4PY        -0.00525   0.00307  -0.01372  -0.01418   0.00903
  48        4PZ         0.00972  -0.01381   0.00000  -0.00067  -0.00116
                          16        17        18        19        20
                        (A1)--O   (A1)--O   (E)--O    (E)--O    (A1)--O
     Eigenvalues --    -7.81558  -1.18153  -1.12618  -1.12618  -0.70712
   1 1   B  1S          0.98914  -0.09108   0.00000  -0.00000  -0.15751
   2        2S          0.09165   0.12498   0.00000  -0.00000   0.20727
   3        2PX         0.00000   0.00000   0.11797   0.00000   0.00000
   4        2PY        -0.00000  -0.00000   0.00000   0.11797  -0.00000
   5        2PZ        -0.00102  -0.03690   0.00000   0.00000  -0.05286
   6        3S         -0.06452   0.11882   0.00000   0.00000   0.48418
   7        3PX         0.00000   0.00000  -0.01306   0.00000   0.00000
   8        3PY         0.00000  -0.00000   0.00000  -0.01306  -0.00000
   9        3PZ         0.01149  -0.01253   0.00000  -0.00000  -0.06228
  10 2   Cl 1S         -0.00012   0.04184   0.00000   0.06460  -0.02022
  11        2S          0.00059  -0.24537   0.00000  -0.38000   0.12189
  12        2PX         0.00000   0.00000  -0.00570   0.00000   0.00000
  13        2PY        -0.00191   0.02953   0.00000   0.02558   0.11263
  14        2PZ         0.00011  -0.00603   0.00000  -0.00854  -0.01963
  15        3S         -0.00447   0.31607   0.00000   0.47606  -0.14230
  16        3PX         0.00000   0.00000   0.01251   0.00000   0.00000
  17        3PY         0.00072  -0.06091   0.00000  -0.05075  -0.24246
  18        3PZ         0.00031   0.01128   0.00000   0.01673   0.03998
  19        4S          0.01756   0.22859   0.00000   0.42459  -0.25722
  20        4PX         0.00000   0.00000   0.00478   0.00000   0.00000
  21        4PY        -0.00833  -0.02170   0.00000  -0.04999  -0.09774
  22        4PZ        -0.00053   0.00972   0.00000   0.01657   0.02561
  23 3   Cl 1S         -0.00012   0.04184   0.05594  -0.03230  -0.02022
  24        2S          0.00059  -0.24537  -0.32909   0.19000   0.12189
  25        2PX        -0.00166   0.02557   0.01776  -0.01354   0.09754
  26        2PY         0.00096  -0.01477  -0.01354   0.00212  -0.05632
  27        2PZ         0.00011  -0.00603  -0.00739   0.00427  -0.01963
  28        3S         -0.00447   0.31607   0.41228  -0.23803  -0.14230
  29        3PX         0.00062  -0.05275  -0.03494   0.02740  -0.20997
  30        3PY        -0.00036   0.03045   0.02740  -0.00330   0.12123
  31        3PZ         0.00031   0.01128   0.01449  -0.00837   0.03998
  32        4S          0.01756   0.22859   0.36770  -0.21229  -0.25722
  33        4PX        -0.00722  -0.01880  -0.03630   0.02372  -0.08464
  34        4PY         0.00417   0.01085   0.02372  -0.00891   0.04887
  35        4PZ        -0.00053   0.00972   0.01435  -0.00828   0.02561
  36 4   Cl 1S         -0.00012   0.04184  -0.05594  -0.03230  -0.02022
  37        2S          0.00059  -0.24537   0.32909   0.19000   0.12189
  38        2PX         0.00166  -0.02557   0.01776   0.01354  -0.09754
  39        2PY         0.00096  -0.01477   0.01354   0.00212  -0.05632
  40        2PZ         0.00011  -0.00603   0.00739   0.00427  -0.01963
  41        3S         -0.00447   0.31607  -0.41228  -0.23803  -0.14230
  42        3PX        -0.00062   0.05275  -0.03494  -0.02740   0.20997
  43        3PY        -0.00036   0.03045  -0.02740  -0.00330   0.12123
  44        3PZ         0.00031   0.01128  -0.01449  -0.00837   0.03998
  45        4S          0.01756   0.22859  -0.36770  -0.21229  -0.25722
  46        4PX         0.00722   0.01880  -0.03630  -0.02372   0.08464
  47        4PY         0.00417   0.01085  -0.02372  -0.00891   0.04887
  48        4PZ        -0.00053   0.00972  -0.01435  -0.00828   0.02561
                          21        22        23        24        25
                        (E)--O    (E)--O    (A1)--O   (E)--O    (E)--O
     Eigenvalues --    -0.59812  -0.59812  -0.55551  -0.50188  -0.50188
   1 1   B  1S          0.00000   0.00000  -0.02613   0.00000   0.00000
   2        2S          0.00000  -0.00000   0.05071   0.00000  -0.00000
   3        2PX         0.28580   0.00000   0.00000  -0.11299   0.00000
   4        2PY         0.00000  -0.28580  -0.00000   0.00000   0.11299
   5        2PZ         0.00000  -0.00000   0.15557   0.00000   0.00000
   6        3S          0.00000  -0.00000   0.01523   0.00000   0.00000
   7        3PX         0.18433   0.00000   0.00000  -0.00721   0.00000
   8        3PY         0.00000  -0.18433  -0.00000   0.00000   0.00721
   9        3PZ         0.00000  -0.00000   0.17160   0.00000   0.00000
  10 2   Cl 1S          0.00000   0.01421  -0.00064   0.00000  -0.00296
  11        2S          0.00000  -0.08633   0.00366   0.00000   0.01798
  12        2PX        -0.11558   0.00000   0.00000  -0.15737   0.00000
  13        2PY         0.00000  -0.15370  -0.03678   0.00000   0.05472
  14        2PZ         0.00000   0.04912  -0.14102   0.00000  -0.15598
  15        3S          0.00000   0.10467  -0.01677   0.00000  -0.03211
  16        3PX         0.25365   0.00000   0.00000   0.34263   0.00000
  17        3PY         0.00000   0.33105   0.08199   0.00000  -0.11737
  18        3PZ         0.00000  -0.10621   0.30707   0.00000   0.33755
  19        4S          0.00000   0.19587   0.03539   0.00000  -0.00655
  20        4PX         0.16550   0.00000   0.00000   0.29567   0.00000
  21        4PY         0.00000   0.20102   0.03803   0.00000  -0.09803
  22        4PZ         0.00000  -0.05731   0.23435   0.00000   0.29221
  23 3   Cl 1S         -0.01230  -0.00710  -0.00064   0.00256   0.00148
  24        2S          0.07476   0.04316   0.00366  -0.01557  -0.00899
  25        2PX         0.08638   0.11660  -0.03185  -0.08038   0.04445
  26        2PY        -0.11660   0.04826   0.01839  -0.04445   0.13170
  27        2PZ        -0.04254  -0.02456  -0.14102   0.13508   0.07799
  28        3S         -0.09065  -0.05234  -0.01677   0.02781   0.01606
  29        3PX        -0.18487  -0.25318   0.07100   0.17368  -0.09754
  30        3PY         0.25318  -0.10748  -0.04099   0.09754  -0.28632
  31        3PZ         0.09198   0.05311   0.30707  -0.29233  -0.16877
  32        4S         -0.16963  -0.09793   0.03539   0.00568   0.00328
  33        4PX        -0.10939  -0.15871   0.03294   0.14744  -0.08558
  34        4PY         0.15871  -0.07387  -0.01902   0.08558  -0.24626
  35        4PZ         0.04963   0.02865   0.23435  -0.25306  -0.14611
  36 4   Cl 1S          0.01230  -0.00710  -0.00064  -0.00256   0.00148
  37        2S         -0.07476   0.04316   0.00366   0.01557  -0.00899
  38        2PX         0.08638  -0.11660   0.03185  -0.08038  -0.04445
  39        2PY         0.11660   0.04826   0.01839   0.04445   0.13170
  40        2PZ         0.04254  -0.02456  -0.14102  -0.13508   0.07799
  41        3S          0.09065  -0.05234  -0.01677  -0.02781   0.01606
  42        3PX        -0.18487   0.25318  -0.07100   0.17368   0.09754
  43        3PY        -0.25318  -0.10748  -0.04099  -0.09754  -0.28632
  44        3PZ        -0.09198   0.05311   0.30707   0.29233  -0.16877
  45        4S          0.16963  -0.09793   0.03539  -0.00568   0.00328
  46        4PX        -0.10939   0.15871  -0.03294   0.14744   0.08558
  47        4PY        -0.15871  -0.07387  -0.01902  -0.08558  -0.24626
  48        4PZ        -0.04963   0.02865   0.23435   0.25306  -0.14611
                          26        27        28        29        30
                        (E)--O    (E)--O    (A2)--O   (A1)--V   (A1)--V
     Eigenvalues --    -0.48626  -0.48626  -0.47597  -0.02446   0.16105
   1 1   B  1S          0.00000  -0.00000   0.00000  -0.10216  -0.18699
   2        2S          0.00000   0.00000   0.00000   0.09078   0.16173
   3        2PX        -0.07946   0.00000  -0.00000   0.00000   0.00000
   4        2PY         0.00000  -0.07946   0.00000  -0.00000  -0.00000
   5        2PZ         0.00000  -0.00000   0.00000   0.37402  -0.28930
   6        3S          0.00000  -0.00000   0.00000   0.69663   1.99463
   7        3PX         0.07900   0.00000   0.00000   0.00000   0.00000
   8        3PY         0.00000   0.07900   0.00000  -0.00000  -0.00000
   9        3PZ         0.00000   0.00000   0.00000   0.56229  -0.84254
  10 2   Cl 1S          0.00000   0.00044   0.00000  -0.00576  -0.01505
  11        2S          0.00000  -0.00244   0.00000   0.03549   0.09588
  12        2PX        -0.11264   0.00000  -0.17040   0.00000   0.00000
  13        2PY         0.00000  -0.13425   0.00000  -0.04079  -0.10160
  14        2PZ         0.00000  -0.15775   0.00000   0.08249  -0.00849
  15        3S          0.00000   0.01456   0.00000  -0.05530  -0.06842
  16        3PX         0.24794   0.00000   0.37513   0.00000   0.00000
  17        3PY         0.00000   0.29308   0.00000   0.09048   0.20994
  18        3PZ         0.00000   0.34493   0.00000  -0.17906   0.02094
  19        4S          0.00000  -0.05409   0.00000  -0.07840  -0.64090
  20        4PX         0.19340   0.00000   0.30997   0.00000   0.00000
  21        4PY         0.00000   0.27030   0.00000   0.11603   0.69400
  22        4PZ         0.00000   0.28360   0.00000  -0.26779   0.01154
  23 3   Cl 1S          0.00038  -0.00022   0.00000  -0.00576  -0.01505
  24        2S         -0.00211   0.00122  -0.00000   0.03549   0.09588
  25        2PX        -0.12884   0.00936   0.08520  -0.03532  -0.08799
  26        2PY         0.00936  -0.11804   0.14757   0.02039   0.05080
  27        2PZ        -0.13661   0.07887  -0.00000   0.08249  -0.00849
  28        3S          0.01261  -0.00728   0.00000  -0.05530  -0.06842
  29        3PX         0.28179  -0.01955  -0.18757   0.07836   0.18181
  30        3PY        -0.01955   0.25922  -0.32488  -0.04524  -0.10497
  31        3PZ         0.29871  -0.17246   0.00000  -0.17906   0.02094
  32        4S         -0.04685   0.02705  -0.00000  -0.07840  -0.64090
  33        4PX         0.25107  -0.03330  -0.15499   0.10049   0.60103
  34        4PY        -0.03330   0.21262  -0.26844  -0.05802  -0.34700
  35        4PZ         0.24561  -0.14180   0.00000  -0.26779   0.01154
  36 4   Cl 1S         -0.00038  -0.00022  -0.00000  -0.00576  -0.01505
  37        2S          0.00211   0.00122   0.00000   0.03549   0.09588
  38        2PX        -0.12884  -0.00936   0.08520   0.03532   0.08799
  39        2PY        -0.00936  -0.11804  -0.14757   0.02039   0.05080
  40        2PZ         0.13661   0.07887   0.00000   0.08249  -0.00849
  41        3S         -0.01261  -0.00728  -0.00000  -0.05530  -0.06842
  42        3PX         0.28179   0.01955  -0.18757  -0.07836  -0.18181
  43        3PY         0.01955   0.25922   0.32488  -0.04524  -0.10497
  44        3PZ        -0.29871  -0.17246  -0.00000  -0.17906   0.02094
  45        4S          0.04685   0.02705   0.00000  -0.07840  -0.64090
  46        4PX         0.25107   0.03330  -0.15499  -0.10049  -0.60103
  47        4PY         0.03330   0.21262   0.26844  -0.05802  -0.34700
  48        4PZ        -0.24561  -0.14180  -0.00000  -0.26779   0.01154
                          31        32        33        34        35
                        (E)--V    (E)--V    (E)--V    (E)--V    (A1)--V
     Eigenvalues --     0.19201   0.19201   0.56788   0.56788   0.57595
   1 1   B  1S          0.00000  -0.00000   0.00000   0.00000   0.03659
   2        2S          0.00000   0.00000   0.00000  -0.00000  -0.27615
   3        2PX         0.48084   0.00000  -1.07940   0.00000   0.00000
   4        2PY         0.00000   0.48084   0.00000  -1.07940   0.00000
   5        2PZ         0.00000  -0.00000   0.00000  -0.00000  -1.06852
   6        3S          0.00000   0.00000   0.00000  -0.00000  -0.15048
   7        3PX         1.68097   0.00000   1.81821   0.00000   0.00000
   8        3PY         0.00000   1.68097   0.00000   1.81821  -0.00000
   9        3PZ         0.00000  -0.00000   0.00000   0.00000   1.21629
  10 2   Cl 1S          0.00000  -0.01947   0.00000  -0.00716  -0.00385
  11        2S          0.00000   0.12454   0.00000   0.04666   0.02285
  12        2PX         0.05474   0.00000   0.06220   0.00000   0.00000
  13        2PY         0.00000  -0.09227   0.00000   0.07082   0.00004
  14        2PZ         0.00000   0.05157   0.00000   0.02107   0.04475
  15        3S          0.00000  -0.08299   0.00000  -0.13541  -0.12280
  16        3PX        -0.11474   0.00000  -0.18400   0.00000   0.00000
  17        3PY         0.00000   0.18219   0.00000  -0.17539  -0.00008
  18        3PZ         0.00000  -0.10896   0.00000  -0.08018  -0.13749
  19        4S          0.00000  -1.01485   0.00000  -0.65354   0.28663
  20        4PX        -0.36800   0.00000  -0.18291   0.00000   0.00000
  21        4PY         0.00000   0.82295   0.00000   0.33456  -0.13466
  22        4PZ         0.00000  -0.33507   0.00000  -0.07742  -0.06268
  23 3   Cl 1S         -0.01686   0.00973  -0.00620   0.00358  -0.00385
  24        2S          0.10785  -0.06227   0.04041  -0.02333   0.02285
  25        2PX        -0.05552   0.06366   0.06866  -0.00373   0.00003
  26        2PY         0.06366   0.01799  -0.00373   0.06435  -0.00002
  27        2PZ         0.04466  -0.02578   0.01825  -0.01054   0.04475
  28        3S         -0.07187   0.04149  -0.11727   0.06771  -0.12280
  29        3PX         0.10795  -0.12858  -0.17754  -0.00373  -0.00007
  30        3PY        -0.12858  -0.04051  -0.00373  -0.18185   0.00004
  31        3PZ        -0.09437   0.05448  -0.06944   0.04009  -0.13749
  32        4S         -0.87888   0.50742  -0.56598   0.32677   0.28663
  33        4PX         0.52521  -0.51569   0.20519  -0.22407  -0.11662
  34        4PY        -0.51569  -0.07026  -0.22407  -0.05354   0.06733
  35        4PZ        -0.29018   0.16753  -0.06705   0.03871  -0.06268
  36 4   Cl 1S          0.01686   0.00973   0.00620   0.00358  -0.00385
  37        2S         -0.10785  -0.06227  -0.04041  -0.02333   0.02285
  38        2PX        -0.05552  -0.06366   0.06866   0.00373  -0.00003
  39        2PY        -0.06366   0.01799   0.00373   0.06435  -0.00002
  40        2PZ        -0.04466  -0.02578  -0.01825  -0.01054   0.04475
  41        3S          0.07187   0.04149   0.11727   0.06771  -0.12280
  42        3PX         0.10795   0.12858  -0.17754   0.00373   0.00007
  43        3PY         0.12858  -0.04051   0.00373  -0.18185   0.00004
  44        3PZ         0.09437   0.05448   0.06944   0.04009  -0.13749
  45        4S          0.87888   0.50742   0.56598   0.32677   0.28663
  46        4PX         0.52521   0.51569   0.20519   0.22407   0.11662
  47        4PY         0.51569  -0.07026   0.22407  -0.05354   0.06733
  48        4PZ         0.29018   0.16753   0.06705   0.03871  -0.06268
                          36        37        38        39        40
                        (A1)--V   (E)--V    (E)--V    (E)--V    (E)--V
     Eigenvalues --     0.64446   0.73627   0.73627   0.74848   0.74848
   1 1   B  1S          0.06402   0.00000   0.00000  -0.00000   0.00000
   2        2S         -0.68904   0.00000  -0.00000   0.00000   0.00000
   3        2PX         0.00000   0.14257   0.00000   0.00000   0.09172
   4        2PY         0.00000   0.00000   0.14257  -0.09172   0.00000
   5        2PZ         0.16553   0.00000   0.00000  -0.00000   0.00000
   6        3S         -0.17393   0.00000   0.00000  -0.00000   0.00000
   7        3PX         0.00000  -0.83737   0.00000   0.00000  -0.74741
   8        3PY         0.00000   0.00000  -0.83737   0.74741   0.00000
   9        3PZ         0.07185   0.00000  -0.00000   0.00000   0.00000
  10 2   Cl 1S         -0.03334   0.00000  -0.04040  -0.00012   0.00000
  11        2S          0.20307   0.00000   0.24535   0.00270   0.00000
  12        2PX         0.00000   0.01103   0.00000   0.00000   0.24106
  13        2PY         0.01522   0.00000   0.16573   0.09938   0.00000
  14        2PZ        -0.05247   0.00000  -0.09646   0.11441   0.00000
  15        3S         -0.95186   0.00000  -1.15862   0.06552   0.00000
  16        3PX         0.00000  -0.05635   0.00000   0.00000  -0.84536
  17        3PY        -0.01445   0.00000  -0.57748  -0.34607   0.00000
  18        3PZ         0.16897   0.00000   0.32904  -0.39416   0.00000
  19        4S          0.99664   0.00000   1.51648  -0.43070   0.00000
  20        4PX         0.00000   0.23631   0.00000   0.00000   0.91728
  21        4PY        -0.16746   0.00000   0.33985   0.53108   0.00000
  22        4PZ        -0.10940   0.00000  -0.20086   0.27886   0.00000
  23 3   Cl 1S         -0.03334  -0.03499   0.02020   0.00006   0.00010
  24        2S          0.20307   0.21248  -0.12267  -0.00135  -0.00234
  25        2PX         0.01318   0.12706  -0.06699  -0.14741  -0.01427
  26        2PY        -0.00761  -0.06699   0.04971  -0.15595   0.14741
  27        2PZ        -0.05247  -0.08354   0.04823  -0.05721  -0.09909
  28        3S         -0.95186  -1.00339   0.57931  -0.03276  -0.05674
  29        3PX        -0.01251  -0.44719   0.22566   0.51591   0.04821
  30        3PY         0.00722   0.22566  -0.18663   0.54750  -0.51591
  31        3PZ         0.16897   0.28496  -0.16452   0.19708   0.34136
  32        4S          0.99664   1.31331  -0.75824   0.21535   0.37300
  33        4PX        -0.14502   0.31397  -0.04484  -0.62716  -0.16899
  34        4PY         0.08373  -0.04484   0.26219  -0.55519   0.62716
  35        4PZ        -0.10940  -0.17395   0.10043  -0.13943  -0.24150
  36 4   Cl 1S         -0.03334   0.03499   0.02020   0.00006  -0.00010
  37        2S          0.20307  -0.21248  -0.12267  -0.00135   0.00234
  38        2PX        -0.01318   0.12706   0.06699   0.14741  -0.01427
  39        2PY        -0.00761   0.06699   0.04971  -0.15595  -0.14741
  40        2PZ        -0.05247   0.08354   0.04823  -0.05721   0.09909
  41        3S         -0.95186   1.00339   0.57931  -0.03276   0.05674
  42        3PX         0.01251  -0.44719  -0.22566  -0.51591   0.04821
  43        3PY         0.00722  -0.22566  -0.18663   0.54750   0.51591
  44        3PZ         0.16897  -0.28496  -0.16452   0.19708  -0.34136
  45        4S          0.99664  -1.31331  -0.75824   0.21535  -0.37300
  46        4PX         0.14502   0.31397   0.04484   0.62716  -0.16899
  47        4PY         0.08373   0.04484   0.26219  -0.55519  -0.62716
  48        4PZ        -0.10940   0.17395   0.10043  -0.13943   0.24150
                          41        42        43        44        45
                        (A1)--V   (A1)--V   (E)--V    (E)--V    (A2)--V
     Eigenvalues --     0.75949   0.81259   0.84031   0.84031   0.88729
   1 1   B  1S          0.00094  -0.00134   0.00000   0.00000   0.00000
   2        2S          0.05149  -0.11312   0.00000   0.00000   0.00000
   3        2PX         0.00000   0.00000  -0.23488   0.00000   0.00000
   4        2PY        -0.00000   0.00000   0.00000  -0.23488   0.00000
   5        2PZ         0.08836  -0.23275   0.00000  -0.00000   0.00000
   6        3S          1.22708   1.34841   0.00000   0.00000   0.00000
   7        3PX         0.00000   0.00000   1.34399   0.00000  -0.00000
   8        3PY         0.00000  -0.00000   0.00000   1.34399   0.00000
   9        3PZ        -0.60406   0.38874   0.00000   0.00000   0.00000
  10 2   Cl 1S         -0.00361   0.01032   0.00000   0.00979   0.00000
  11        2S          0.02467  -0.06073   0.00000  -0.05651   0.00000
  12        2PX         0.00000   0.00000  -0.11954   0.00000   0.20044
  13        2PY         0.19068   0.07038   0.00000  -0.03741   0.00000
  14        2PZ         0.06432  -0.17574   0.00000  -0.24059   0.00000
  15        3S         -0.00080   0.38870   0.00000   0.38798   0.00000
  16        3PX         0.00000   0.00000   0.44637   0.00000  -0.73108
  17        3PY        -0.67838  -0.26295   0.00000   0.13886   0.00000
  18        3PZ        -0.22721   0.63292   0.00000   0.86473   0.00000
  19        4S         -0.34325  -0.64886   0.00000  -1.03405   0.00000
  20        4PX         0.00000   0.00000  -0.71045   0.00000   0.82267
  21        4PY         0.94535   0.48940   0.00000   0.19288   0.00000
  22        4PZ         0.23684  -0.78497   0.00000  -1.06968   0.00000
  23 3   Cl 1S         -0.00361   0.01032   0.00848  -0.00489  -0.00000
  24        2S          0.02467  -0.06073  -0.04894   0.02826   0.00000
  25        2PX         0.16513   0.06096  -0.05794  -0.03556  -0.10022
  26        2PY        -0.09534  -0.03519  -0.03556  -0.09901  -0.17359
  27        2PZ         0.06432  -0.17574  -0.20835   0.12029   0.00000
  28        3S         -0.00080   0.38870   0.33600  -0.19399  -0.00000
  29        3PX        -0.58749  -0.22772   0.21574   0.13316   0.36554
  30        3PY         0.33919   0.13147   0.13316   0.36949   0.63314
  31        3PZ        -0.22721   0.63292   0.74888  -0.43236  -0.00000
  32        4S         -0.34325  -0.64886  -0.89551   0.51702   0.00000
  33        4PX         0.81870   0.42383  -0.03296  -0.39115  -0.41134
  34        4PY        -0.47268  -0.24470  -0.39115  -0.48462  -0.71245
  35        4PZ         0.23684  -0.78497  -0.92637   0.53484   0.00000
  36 4   Cl 1S         -0.00361   0.01032  -0.00848  -0.00489   0.00000
  37        2S          0.02467  -0.06073   0.04894   0.02826  -0.00000
  38        2PX        -0.16513  -0.06096  -0.05794   0.03556  -0.10022
  39        2PY        -0.09534  -0.03519   0.03556  -0.09901   0.17359
  40        2PZ         0.06432  -0.17574   0.20835   0.12029  -0.00000
  41        3S         -0.00080   0.38870  -0.33600  -0.19399   0.00000
  42        3PX         0.58749   0.22772   0.21574  -0.13316   0.36554
  43        3PY         0.33919   0.13147  -0.13316   0.36949  -0.63314
  44        3PZ        -0.22721   0.63292  -0.74888  -0.43236   0.00000
  45        4S         -0.34325  -0.64886   0.89551   0.51702  -0.00000
  46        4PX        -0.81870  -0.42383  -0.03296   0.39115  -0.41134
  47        4PY        -0.47268  -0.24470   0.39115  -0.48462   0.71245
  48        4PZ         0.23684  -0.78497   0.92637   0.53484  -0.00000
                          46        47        48
                        (E)--V    (E)--V    (A1)--V
     Eigenvalues --     1.01613   1.01613   1.11264
   1 1   B  1S          0.00000  -0.00000  -0.08334
   2        2S          0.00000  -0.00000  -1.90468
   3        2PX        -0.14503   0.00000   0.00000
   4        2PY         0.00000  -0.14503   0.00000
   5        2PZ         0.00000   0.00000   0.20386
   6        3S          0.00000   0.00000   4.83437
   7        3PX        -1.11383   0.00000   0.00000
   8        3PY         0.00000  -1.11383   0.00000
   9        3PZ         0.00000  -0.00000  -1.37105
  10 2   Cl 1S          0.00000  -0.03848   0.01609
  11        2S          0.00000   0.23122  -0.08945
  12        2PX        -0.06679   0.00000   0.00000
  13        2PY         0.00000  -0.20967   0.00078
  14        2PZ         0.00000   0.03474   0.03000
  15        3S          0.00000  -1.37379   0.77702
  16        3PX         0.24169   0.00000   0.00000
  17        3PY         0.00000   0.82116  -0.01422
  18        3PZ         0.00000  -0.14001  -0.12796
  19        4S          0.00000   2.09879  -2.00210
  20        4PX        -0.13249   0.00000   0.00000
  21        4PY         0.00000  -1.48329   0.95269
  22        4PZ         0.00000   0.33826   0.14383
  23 3   Cl 1S         -0.03332   0.01924   0.01609
  24        2S          0.20024  -0.11561  -0.08945
  25        2PX        -0.17395   0.06187   0.00067
  26        2PY         0.06187  -0.10251  -0.00039
  27        2PZ         0.03009  -0.01737   0.03000
  28        3S         -1.18974   0.68690   0.77702
  29        3PX         0.67629  -0.25092  -0.01232
  30        3PY        -0.25092   0.38656   0.00711
  31        3PZ        -0.12125   0.07001  -0.12796
  32        4S          1.81761  -1.04940  -2.00210
  33        4PX        -1.14559   0.58492   0.82505
  34        4PY         0.58492  -0.47019  -0.47634
  35        4PZ         0.29294  -0.16913   0.14383
  36 4   Cl 1S          0.03332   0.01924   0.01609
  37        2S         -0.20024  -0.11561  -0.08945
  38        2PX        -0.17395  -0.06187  -0.00067
  39        2PY        -0.06187  -0.10251  -0.00039
  40        2PZ        -0.03009  -0.01737   0.03000
  41        3S          1.18974   0.68690   0.77702
  42        3PX         0.67629   0.25092   0.01232
  43        3PY         0.25092   0.38656   0.00711
  44        3PZ         0.12125   0.07001  -0.12796
  45        4S         -1.81761  -1.04940  -2.00210
  46        4PX        -1.14559  -0.58492  -0.82505
  47        4PY        -0.58492  -0.47019  -0.47634
  48        4PZ        -0.29294  -0.16913   0.14383
     Density Matrix:
                           1         2         3         4         5
   1 1   B  1S          2.02438
   2        2S          0.09063   0.13929
   3        2PX         0.00000   0.00000   0.22936
   4        2PY         0.00000  -0.00000   0.00000   0.22936
   5        2PZ         0.01321  -0.01557   0.00000  -0.00000   0.05672
   6        3S         -0.30282   0.21907  -0.00000   0.00000  -0.05496
   7        3PX        -0.00000   0.00000   0.09125  -0.00000  -0.00000
   8        3PY         0.00000   0.00000   0.00000   0.09125  -0.00000
   9        3PZ         0.03572  -0.00917   0.00000  -0.00000   0.06083
  10 2   Cl 1S         -0.00090   0.00704   0.00000   0.00691  -0.00156
  11        2S          0.00597  -0.02071  -0.00000  -0.03697   0.00722
  12        2PX        -0.00000   0.00000  -0.01591   0.00000  -0.00000
  13        2PY        -0.04029   0.05176   0.00000   0.12960  -0.02659
  14        2PZ         0.01513  -0.02227  -0.00000  -0.04197  -0.04256
  15        3S         -0.02092   0.01596   0.00000   0.04272  -0.01336
  16        3PX         0.00000  -0.00000   0.03096  -0.00000   0.00000
  17        3PY         0.08482  -0.10711  -0.00000  -0.27412   0.05554
  18        3PZ        -0.03007   0.05071   0.00000   0.08598   0.09038
  19        4S          0.07242  -0.04178  -0.00000  -0.00452   0.02121
  20        4PX         0.00000  -0.00000  -0.00176  -0.00000   0.00000
  21        4PY         0.01616  -0.04391  -0.00000  -0.19191   0.02384
  22        4PZ        -0.02314   0.03671   0.00000   0.05769   0.06952
  23 3   Cl 1S         -0.00090   0.00704   0.00598  -0.00345  -0.00156
  24        2S          0.00597  -0.02071  -0.03202   0.01848   0.00722
  25        2PX        -0.03490   0.04483   0.09323  -0.06301  -0.02303
  26        2PY         0.02015  -0.02588  -0.06301   0.02047   0.01330
  27        2PZ         0.01513  -0.02227  -0.03634   0.02098  -0.04256
  28        3S         -0.02092   0.01596   0.03700  -0.02136  -0.01336
  29        3PX         0.07346  -0.09276  -0.19785   0.13210   0.04810
  30        3PY        -0.04241   0.05355   0.13210  -0.04531  -0.02777
  31        3PZ        -0.03007   0.05071   0.07446  -0.04299   0.09038
  32        4S          0.07242  -0.04178  -0.00391   0.00226   0.02121
  33        4PX         0.01400  -0.03802  -0.14437   0.08234   0.02064
  34        4PY        -0.00808   0.02195   0.08234  -0.04930  -0.01192
  35        4PZ        -0.02314   0.03671   0.04996  -0.02885   0.06952
  36 4   Cl 1S         -0.00090   0.00704  -0.00598  -0.00345  -0.00156
  37        2S          0.00597  -0.02071   0.03202   0.01848   0.00722
  38        2PX         0.03490  -0.04483   0.09323   0.06301   0.02303
  39        2PY         0.02015  -0.02588   0.06301   0.02047   0.01330
  40        2PZ         0.01513  -0.02227   0.03634   0.02098  -0.04256
  41        3S         -0.02092   0.01596  -0.03700  -0.02136  -0.01336
  42        3PX        -0.07346   0.09276  -0.19785  -0.13210  -0.04810
  43        3PY        -0.04241   0.05355  -0.13210  -0.04531  -0.02777
  44        3PZ        -0.03007   0.05071  -0.07446  -0.04299   0.09038
  45        4S          0.07242  -0.04178   0.00391   0.00226   0.02121
  46        4PX        -0.01400   0.03802  -0.14437  -0.08234  -0.02064
  47        4PY        -0.00808   0.02195  -0.08234  -0.04930  -0.01192
  48        4PZ        -0.02314   0.03671  -0.04996  -0.02885   0.06952
                           6         7         8         9        10
   6        3S          0.51234
   7        3PX         0.00000   0.08290
   8        3PY        -0.00000  -0.00000   0.08290
   9        3PZ        -0.06107  -0.00000   0.00000   0.06772
  10 2   Cl 1S         -0.03822  -0.00000  -0.02820   0.00790   2.14426
  11        2S          0.11868   0.00000   0.08516  -0.02152  -0.57408
  12        2PX         0.00000  -0.04456   0.00000  -0.00000  -0.00000
  13        2PY         0.09273   0.00000   0.01994  -0.02209  -0.00499
  14        2PZ        -0.02588  -0.00000  -0.03190  -0.03647   0.00198
  15        3S         -0.05381  -0.00000  -0.04234   0.00190  -0.02937
  16        3PX        -0.00000   0.12846  -0.00000   0.00000   0.00000
  17        3PY        -0.24893  -0.00000  -0.07777   0.06036   0.01341
  18        3PZ         0.05070   0.00000   0.09927   0.10087  -0.00504
  19        4S         -0.20122  -0.00000  -0.09619   0.04011   0.16774
  20        4PX        -0.00000   0.08668  -0.00000   0.00000  -0.00000
  21        4PY        -0.09552  -0.00000  -0.02988   0.02509  -0.01880
  22        4PZ         0.03413   0.00000   0.06896   0.07679   0.00405
  23 3   Cl 1S         -0.03822  -0.02442   0.01410   0.00790   0.00001
  24        2S          0.11868   0.07375  -0.04258  -0.02152   0.00000
  25        2PX         0.08031   0.00382  -0.02793  -0.01913  -0.00027
  26        2PY        -0.04637  -0.02793  -0.02843   0.01105   0.00153
  27        2PZ        -0.02588  -0.02763   0.01595  -0.03647  -0.00013
  28        3S         -0.05381  -0.03667   0.02117   0.00190   0.00146
  29        3PX        -0.21558  -0.02621   0.08930   0.05228   0.00009
  30        3PY         0.12446   0.08930   0.07691  -0.03018  -0.00295
  31        3PZ         0.05070   0.08597  -0.04964   0.10087   0.00053
  32        4S         -0.20122  -0.08330   0.04810   0.04011  -0.00163
  33        4PX        -0.08272  -0.00074   0.05047   0.02173   0.00194
  34        4PY         0.04776   0.05047   0.05754  -0.01254  -0.00126
  35        4PZ         0.03413   0.05972  -0.03448   0.07679  -0.00145
  36 4   Cl 1S         -0.03822   0.02442   0.01410   0.00790   0.00001
  37        2S          0.11868  -0.07375  -0.04258  -0.02152   0.00000
  38        2PX        -0.08031   0.00382   0.02793   0.01913   0.00027
  39        2PY        -0.04637   0.02793  -0.02843   0.01105   0.00153
  40        2PZ        -0.02588   0.02763   0.01595  -0.03647  -0.00013
  41        3S         -0.05381   0.03667   0.02117   0.00190   0.00146
  42        3PX         0.21558  -0.02621  -0.08930  -0.05228  -0.00009
  43        3PY         0.12446  -0.08930   0.07691  -0.03018  -0.00295
  44        3PZ         0.05070  -0.08597  -0.04964   0.10087   0.00053
  45        4S         -0.20122   0.08330   0.04810   0.04011  -0.00163
  46        4PX         0.08272  -0.00074  -0.05047  -0.02173  -0.00194
  47        4PY         0.04776  -0.05047   0.05754  -0.01254  -0.00126
  48        4PZ         0.03413  -0.05972  -0.03448   0.07679  -0.00145
                          11        12        13        14        15
  11        2S          2.39346
  12        2PX         0.00000   2.05842
  13        2PY         0.02721   0.00000   2.01541
  14        2PZ        -0.01116   0.00000   0.01657   2.04198
  15        3S         -0.29009  -0.00000  -0.04246   0.01864   0.76091
  16        3PX        -0.00000  -0.19608   0.00000  -0.00000   0.00000
  17        3PY        -0.06346   0.00000  -0.09935  -0.03748   0.06184
  18        3PZ         0.02558  -0.00000  -0.03724  -0.15796  -0.03161
  19        4S         -0.69102  -0.00000  -0.04251   0.01877   0.63599
  20        4PX         0.00000  -0.33019   0.00000  -0.00000   0.00000
  21        4PY         0.02843   0.00000  -0.23776  -0.03596   0.02859
  22        4PZ        -0.00173  -0.00000  -0.03203  -0.30417  -0.01762
  23 3   Cl 1S          0.00000   0.00119  -0.00100  -0.00013   0.00146
  24        2S         -0.00091  -0.00779   0.00702   0.00072  -0.00235
  25        2PX         0.00219   0.00508  -0.00804  -0.00039   0.00059
  26        2PY        -0.01025  -0.01075   0.01593  -0.00209   0.00396
  27        2PZ         0.00072  -0.00201   0.00071  -0.01101   0.00134
  28        3S         -0.00235   0.00372  -0.00147   0.00134   0.00110
  29        3PX        -0.00374  -0.01090   0.01727   0.00046   0.00325
  30        3PY         0.02207   0.02411  -0.03444   0.00390  -0.01407
  31        3PZ        -0.00223   0.00375  -0.00181   0.02396  -0.00580
  32        4S          0.00512   0.04034  -0.03848  -0.01199  -0.00510
  33        4PX        -0.00678  -0.02315   0.02885   0.01125   0.00457
  34        4PY         0.01304   0.03657  -0.05080   0.00520  -0.00873
  35        4PZ         0.00284   0.01041   0.00142   0.02603  -0.00514
  36 4   Cl 1S          0.00000  -0.00119  -0.00100  -0.00013   0.00146
  37        2S         -0.00091   0.00779   0.00702   0.00072  -0.00235
  38        2PX        -0.00219   0.00508   0.00804   0.00039  -0.00059
  39        2PY        -0.01025   0.01075   0.01593  -0.00209   0.00396
  40        2PZ         0.00072   0.00201   0.00071  -0.01101   0.00134
  41        3S         -0.00235  -0.00372  -0.00147   0.00134   0.00110
  42        3PX         0.00374  -0.01090  -0.01727  -0.00046  -0.00325
  43        3PY         0.02207  -0.02411  -0.03444   0.00390  -0.01407
  44        3PZ        -0.00223  -0.00375  -0.00181   0.02396  -0.00580
  45        4S          0.00512  -0.04034  -0.03848  -0.01199  -0.00510
  46        4PX         0.00678  -0.02315  -0.02885  -0.01125  -0.00457
  47        4PY         0.01304  -0.03657  -0.05080   0.00520  -0.00873
  48        4PZ         0.00284  -0.01041   0.00142   0.02603  -0.00514
                          16        17        18        19        20
  16        3PX         0.78071
  17        3PY        -0.00000   0.57583
  18        3PZ         0.00000   0.08013   0.69368
  19        4S          0.00000   0.16258  -0.06391   0.69762
  20        4PX         0.61112  -0.00000   0.00000   0.00000   0.49796
  21        4PY        -0.00000   0.37018   0.09150   0.04631  -0.00000
  22        4PZ         0.00000   0.08336   0.54768  -0.03372   0.00000
  23 3   Cl 1S         -0.00251   0.00155   0.00053  -0.00163  -0.00012
  24        2S          0.01725  -0.01427  -0.00223   0.00512   0.00790
  25        2PX        -0.01064   0.01713   0.00031  -0.01316  -0.01556
  26        2PY         0.02396  -0.03470   0.00415   0.05418   0.03219
  27        2PZ         0.00361  -0.00155   0.02396  -0.01199   0.01013
  28        3S         -0.01056   0.00985  -0.00580  -0.00510  -0.00527
  29        3PX         0.02340  -0.03925   0.00105   0.01585   0.03393
  30        3PY        -0.05772   0.07939  -0.00648  -0.12045  -0.06702
  31        3PZ        -0.00509   0.00415  -0.05247   0.04148  -0.02698
  32        4S         -0.09639   0.07395   0.04148   0.01791  -0.06698
  33        4PX         0.05293  -0.05794  -0.03358   0.00014   0.05155
  34        4PY        -0.07799   0.10608  -0.01176  -0.07742  -0.07597
  35        4PZ        -0.02628  -0.00427  -0.05662   0.02884  -0.03792
  36 4   Cl 1S          0.00251   0.00155   0.00053  -0.00163   0.00012
  37        2S         -0.01725  -0.01427  -0.00223   0.00512  -0.00790
  38        2PX        -0.01064  -0.01713  -0.00031   0.01316  -0.01556
  39        2PY        -0.02396  -0.03470   0.00415   0.05418  -0.03219
  40        2PZ        -0.00361  -0.00155   0.02396  -0.01199  -0.01013
  41        3S          0.01056   0.00985  -0.00580  -0.00510   0.00527
  42        3PX         0.02340   0.03925  -0.00105  -0.01585   0.03393
  43        3PY         0.05772   0.07939  -0.00648  -0.12045   0.06702
  44        3PZ         0.00509   0.00415  -0.05247   0.04148   0.02698
  45        4S          0.09639   0.07395   0.04148   0.01791   0.06698
  46        4PX         0.05293   0.05794   0.03358  -0.00014   0.05155
  47        4PY         0.07799   0.10608  -0.01176  -0.07742   0.07597
  48        4PZ         0.02628  -0.00427  -0.05662   0.02884   0.03792
                          21        22        23        24        25
  21        4PY         0.27744
  22        4PZ         0.08318   0.45153
  23 3   Cl 1S          0.00231  -0.00145   2.14426
  24        2S         -0.01239   0.00284  -0.57408   2.39346
  25        2PX         0.02447   0.00644  -0.00432   0.02357   2.02616
  26        2PY        -0.05839   0.00831   0.00249  -0.01361   0.01862
  27        2PZ         0.00714   0.02603   0.00198  -0.01116   0.01435
  28        3S          0.00832  -0.00514  -0.02937  -0.29009  -0.03677
  29        3PX        -0.04697  -0.01683   0.01161  -0.05496  -0.12353
  30        3PY         0.12507  -0.02062  -0.00670   0.03173  -0.04188
  31        3PZ        -0.02320  -0.05662  -0.00504   0.02558  -0.03225
  32        4S          0.03884   0.02884   0.16774  -0.69102  -0.03681
  33        4PX        -0.04763  -0.03895  -0.01628   0.02462  -0.26087
  34        4PY         0.12291  -0.02130   0.00940  -0.01422  -0.04002
  35        4PZ        -0.02308  -0.05807   0.00405  -0.00173  -0.02774
  36 4   Cl 1S          0.00231  -0.00145   0.00001   0.00000  -0.00146
  37        2S         -0.01239   0.00284   0.00000  -0.00091   0.00997
  38        2PX        -0.02447  -0.00644   0.00146  -0.00997   0.02136
  39        2PY        -0.05839   0.00831  -0.00053   0.00323  -0.00135
  40        2PZ         0.00714   0.02603  -0.00013   0.00072   0.00162
  41        3S          0.00832  -0.00514   0.00146  -0.00235  -0.00313
  42        3PX         0.04697   0.01683  -0.00260   0.02098  -0.04648
  43        3PY         0.12507  -0.02062   0.00140  -0.00780   0.00327
  44        3PZ        -0.02320  -0.05662   0.00053  -0.00223  -0.00344
  45        4S          0.03884   0.02884  -0.00163   0.00512  -0.05350
  46        4PX         0.04763   0.03895  -0.00206   0.01468  -0.07222
  47        4PY         0.12291  -0.02130  -0.00105  -0.00065  -0.00052
  48        4PZ        -0.02308  -0.05807  -0.00145   0.00284  -0.00397
                          26        27        28        29        30
  26        2PY         2.04767
  27        2PZ        -0.00829   2.04198
  28        3S          0.02123   0.01864   0.76091
  29        3PX        -0.04188  -0.03246   0.05355   0.62705
  30        3PY        -0.17190   0.01874  -0.03092   0.08871   0.72949
  31        3PZ         0.01862  -0.15796  -0.03161   0.06939  -0.04006
  32        4S          0.02125   0.01877   0.63599   0.14080  -0.08129
  33        4PX        -0.04002  -0.03114   0.02476   0.43041   0.10433
  34        4PY        -0.30708   0.01798  -0.01430   0.10433   0.55089
  35        4PZ         0.01602  -0.30417  -0.01762   0.07219  -0.04168
  36 4   Cl 1S         -0.00053  -0.00013   0.00146   0.00260   0.00140
  37        2S          0.00323   0.00072  -0.00235  -0.02098  -0.00780
  38        2PX         0.00135  -0.00162   0.00313  -0.04648  -0.00327
  39        2PY        -0.00034   0.00139  -0.00249   0.00356   0.00113
  40        2PZ         0.00139  -0.01101   0.00134  -0.00315  -0.00235
  41        3S         -0.00249   0.00134   0.00110   0.01381   0.00422
  42        3PX        -0.00356   0.00315  -0.01381   0.10738   0.00923
  43        3PY         0.00113  -0.00235   0.00422  -0.00923  -0.00459
  44        3PZ        -0.00235   0.02396  -0.00580   0.00614   0.00233
  45        4S         -0.01570  -0.01199  -0.00510   0.11224   0.04650
  46        4PX        -0.00824  -0.00112  -0.00984   0.15165   0.02099
  47        4PY        -0.00174  -0.01234   0.00041   0.00094   0.00736
  48        4PZ        -0.00973   0.02603  -0.00514   0.00944   0.02489
                          31        32        33        34        35
  31        3PZ         0.69368
  32        4S         -0.06391   0.69762
  33        4PX         0.07924   0.04010   0.33257
  34        4PY        -0.04575  -0.02315   0.09549   0.44283
  35        4PZ         0.54768  -0.03372   0.07204  -0.04159   0.45153
  36 4   Cl 1S          0.00053  -0.00163   0.00206  -0.00105  -0.00145
  37        2S         -0.00223   0.00512  -0.01468  -0.00065   0.00284
  38        2PX         0.00344   0.05350  -0.07222   0.00052   0.00397
  39        2PY        -0.00235  -0.01570   0.00824  -0.00174  -0.00973
  40        2PZ         0.02396  -0.01199   0.00112  -0.01234   0.02603
  41        3S         -0.00580  -0.00510   0.00984   0.00041  -0.00514
  42        3PX        -0.00614  -0.11224   0.15165  -0.00094  -0.00944
  43        3PY         0.00233   0.04650  -0.02099   0.00736   0.02489
  44        3PZ        -0.05247   0.04148  -0.00660   0.03496  -0.05662
  45        4S          0.04148   0.01791   0.06712   0.03859   0.02884
  46        4PX         0.00660  -0.06712   0.15859   0.01417   0.00103
  47        4PY         0.03496   0.03859  -0.01417   0.01587   0.04438
  48        4PZ        -0.05662   0.02884  -0.00103   0.04438  -0.05807
                          36        37        38        39        40
  36 4   Cl 1S          2.14426
  37        2S         -0.57408   2.39346
  38        2PX         0.00432  -0.02357   2.02616
  39        2PY         0.00249  -0.01361  -0.01862   2.04767
  40        2PZ         0.00198  -0.01116  -0.01435  -0.00829   2.04198
  41        3S         -0.02937  -0.29009   0.03677   0.02123   0.01864
  42        3PX        -0.01161   0.05496  -0.12353   0.04188   0.03246
  43        3PY        -0.00670   0.03173   0.04188  -0.17190   0.01874
  44        3PZ        -0.00504   0.02558   0.03225   0.01862  -0.15796
  45        4S          0.16774  -0.69102   0.03681   0.02125   0.01877
  46        4PX         0.01628  -0.02462  -0.26087   0.04002   0.03114
  47        4PY         0.00940  -0.01422   0.04002  -0.30708   0.01798
  48        4PZ         0.00405  -0.00173   0.02774   0.01602  -0.30417
                          41        42        43        44        45
  41        3S          0.76091
  42        3PX        -0.05355   0.62705
  43        3PY        -0.03092  -0.08871   0.72949
  44        3PZ        -0.03161  -0.06939  -0.04006   0.69368
  45        4S          0.63599  -0.14080  -0.08129  -0.06391   0.69762
  46        4PX        -0.02476   0.43041  -0.10433  -0.07924  -0.04010
  47        4PY        -0.01430  -0.10433   0.55089  -0.04575  -0.02315
  48        4PZ        -0.01762  -0.07219  -0.04168   0.54768  -0.03372
                          46        47        48
  46        4PX         0.33257
  47        4PY        -0.09549   0.44283
  48        4PZ        -0.07204  -0.04159   0.45153
    Full Mulliken population analysis:
                           1         2         3         4         5
   1 1   B  1S          2.02438
   2        2S          0.01657   0.13929
   3        2PX         0.00000   0.00000   0.22936
   4        2PY         0.00000   0.00000   0.00000   0.22936
   5        2PZ         0.00000   0.00000   0.00000   0.00000   0.05672
   6        3S         -0.05265   0.16985   0.00000   0.00000   0.00000
   7        3PX         0.00000   0.00000   0.05031  -0.00000   0.00000
   8        3PY         0.00000   0.00000  -0.00000   0.05031   0.00000
   9        3PZ         0.00000   0.00000   0.00000   0.00000   0.03353
  10 2   Cl 1S         -0.00000   0.00000   0.00000   0.00001   0.00000
  11        2S          0.00000  -0.00007  -0.00000  -0.00035  -0.00002
  12        2PX         0.00000  -0.00000  -0.00002  -0.00000  -0.00000
  13        2PY         0.00000  -0.00016  -0.00000  -0.00109  -0.00007
  14        2PZ         0.00000  -0.00002  -0.00000  -0.00011  -0.00001
  15        3S         -0.00003   0.00095   0.00000   0.00464   0.00039
  16        3PX        -0.00000   0.00000   0.00106   0.00000   0.00000
  17        3PY        -0.00039   0.01121   0.00000   0.04641   0.00304
  18        3PZ        -0.00004   0.00143   0.00000   0.00471   0.00175
  19        4S          0.00207  -0.00810  -0.00000  -0.00089  -0.00113
  20        4PX        -0.00000   0.00000  -0.00025   0.00000   0.00000
  21        4PY        -0.00124   0.01706   0.00000   0.05169   0.00263
  22        4PZ        -0.00048   0.00384   0.00000   0.00637   0.00776
  23 3   Cl 1S         -0.00000   0.00000   0.00000   0.00000   0.00000
  24        2S          0.00000  -0.00007  -0.00026  -0.00009  -0.00002
  25        2PX         0.00000  -0.00012  -0.00057  -0.00026  -0.00005
  26        2PY         0.00000  -0.00004  -0.00026  -0.00003  -0.00002
  27        2PZ         0.00000  -0.00002  -0.00008  -0.00003  -0.00001
  28        3S         -0.00003   0.00095   0.00348   0.00116   0.00039
  29        3PX        -0.00029   0.00841   0.02344   0.01164   0.00228
  30        3PY        -0.00010   0.00280   0.01164   0.00076   0.00076
  31        3PZ        -0.00004   0.00143   0.00353   0.00118   0.00175
  32        4S          0.00207  -0.00810  -0.00067  -0.00022  -0.00113
  33        4PX        -0.00093   0.01279   0.02406   0.01464   0.00198
  34        4PY        -0.00031   0.00426   0.01464  -0.00191   0.00066
  35        4PZ        -0.00048   0.00384   0.00478   0.00159   0.00776
  36 4   Cl 1S         -0.00000   0.00000   0.00000   0.00000   0.00000
  37        2S          0.00000  -0.00007  -0.00026  -0.00009  -0.00002
  38        2PX         0.00000  -0.00012  -0.00057  -0.00026  -0.00005
  39        2PY         0.00000  -0.00004  -0.00026  -0.00003  -0.00002
  40        2PZ         0.00000  -0.00002  -0.00008  -0.00003  -0.00001
  41        3S         -0.00003   0.00095   0.00348   0.00116   0.00039
  42        3PX        -0.00029   0.00841   0.02344   0.01164   0.00228
  43        3PY        -0.00010   0.00280   0.01164   0.00076   0.00076
  44        3PZ        -0.00004   0.00143   0.00353   0.00118   0.00175
  45        4S          0.00207  -0.00810  -0.00067  -0.00022  -0.00113
  46        4PX        -0.00093   0.01279   0.02406   0.01464   0.00198
  47        4PY        -0.00031   0.00426   0.01464  -0.00191   0.00066
  48        4PZ        -0.00048   0.00384   0.00478   0.00159   0.00776
                           6         7         8         9        10
   6        3S          0.51234
   7        3PX         0.00000   0.08290
   8        3PY         0.00000  -0.00000   0.08290
   9        3PZ         0.00000   0.00000   0.00000   0.06772
  10 2   Cl 1S         -0.00022  -0.00000  -0.00039  -0.00003   2.14426
  11        2S          0.00533   0.00000   0.00894   0.00061  -0.14894
  12        2PX        -0.00000  -0.00049  -0.00000  -0.00000   0.00000
  13        2PY        -0.00122  -0.00000  -0.00040  -0.00018   0.00000
  14        2PZ        -0.00009  -0.00000  -0.00027  -0.00032   0.00000
  15        3S         -0.01135  -0.00000  -0.01720  -0.00021  -0.00173
  16        3PX         0.00000   0.01791   0.00000   0.00000   0.00000
  17        3PY         0.04188   0.00000   0.01499   0.00540   0.00000
  18        3PZ         0.00229   0.00000   0.00887   0.01164   0.00000
  19        4S         -0.08098  -0.00000  -0.05350  -0.00600   0.00569
  20        4PX         0.00000   0.03451   0.00000   0.00000   0.00000
  21        4PY         0.04588   0.00000   0.00794   0.00448   0.00000
  22        4PZ         0.00441   0.00000   0.01232   0.02688   0.00000
  23 3   Cl 1S         -0.00022  -0.00029  -0.00010  -0.00003   0.00000
  24        2S          0.00533   0.00670   0.00223   0.00061   0.00000
  25        2PX        -0.00092  -0.00005  -0.00037  -0.00014   0.00000
  26        2PY        -0.00031  -0.00037  -0.00009  -0.00005   0.00000
  27        2PZ        -0.00009  -0.00020  -0.00007  -0.00032   0.00000
  28        3S         -0.01135  -0.01290  -0.00430  -0.00021   0.00000
  29        3PX         0.03141   0.00288   0.01284   0.00405  -0.00000
  30        3PY         0.01047   0.01284   0.00434   0.00135  -0.00000
  31        3PZ         0.00229   0.00666   0.00222   0.01164   0.00000
  32        4S         -0.08098  -0.04013  -0.01338  -0.00600  -0.00000
  33        4PX         0.03441   0.00007   0.01451   0.00336  -0.00000
  34        4PY         0.01147   0.01451   0.01336   0.00112  -0.00000
  35        4PZ         0.00441   0.00924   0.00308   0.02688   0.00000
  36 4   Cl 1S         -0.00022  -0.00029  -0.00010  -0.00003   0.00000
  37        2S          0.00533   0.00670   0.00223   0.00061   0.00000
  38        2PX        -0.00092  -0.00005  -0.00037  -0.00014   0.00000
  39        2PY        -0.00031  -0.00037  -0.00009  -0.00005   0.00000
  40        2PZ        -0.00009  -0.00020  -0.00007  -0.00032   0.00000
  41        3S         -0.01135  -0.01290  -0.00430  -0.00021   0.00000
  42        3PX         0.03141   0.00288   0.01284   0.00405  -0.00000
  43        3PY         0.01047   0.01284   0.00434   0.00135  -0.00000
  44        3PZ         0.00229   0.00666   0.00222   0.01164   0.00000
  45        4S         -0.08098  -0.04013  -0.01338  -0.00600  -0.00000
  46        4PX         0.03441   0.00007   0.01451   0.00336  -0.00000
  47        4PY         0.01147   0.01451   0.01336   0.00112  -0.00000
  48        4PZ         0.00441   0.00924   0.00308   0.02688   0.00000
                          11        12        13        14        15
  11        2S          2.39346
  12        2PX         0.00000   2.05842
  13        2PY         0.00000   0.00000   2.01541
  14        2PZ         0.00000   0.00000   0.00000   2.04198
  15        3S         -0.12613   0.00000   0.00000   0.00000   0.76091
  16        3PX         0.00000  -0.06300   0.00000   0.00000   0.00000
  17        3PY         0.00000  -0.00000  -0.03192   0.00000   0.00000
  18        3PZ         0.00000   0.00000   0.00000  -0.05075   0.00000
  19        4S         -0.17270   0.00000   0.00000   0.00000   0.52424
  20        4PX         0.00000  -0.02316  -0.00000   0.00000   0.00000
  21        4PY         0.00000   0.00000  -0.01668   0.00000   0.00000
  22        4PZ         0.00000   0.00000   0.00000  -0.02134   0.00000
  23 3   Cl 1S          0.00000   0.00000   0.00000   0.00000   0.00000
  24        2S          0.00000   0.00000   0.00000   0.00000  -0.00000
  25        2PX         0.00000   0.00000   0.00000   0.00000  -0.00000
  26        2PY         0.00000   0.00000   0.00000   0.00000   0.00000
  27        2PZ         0.00000   0.00000   0.00000   0.00000   0.00000
  28        3S         -0.00000   0.00000   0.00000   0.00000   0.00000
  29        3PX         0.00000   0.00000   0.00000   0.00000  -0.00000
  30        3PY         0.00000   0.00000   0.00000   0.00000  -0.00000
  31        3PZ         0.00000   0.00000   0.00000   0.00000   0.00000
  32        4S          0.00000   0.00001   0.00002   0.00000  -0.00005
  33        4PX         0.00001   0.00001   0.00004   0.00000  -0.00009
  34        4PY         0.00005   0.00004   0.00009   0.00000  -0.00028
  35        4PZ         0.00000   0.00000   0.00000   0.00001   0.00000
  36 4   Cl 1S          0.00000   0.00000   0.00000   0.00000   0.00000
  37        2S          0.00000   0.00000   0.00000   0.00000  -0.00000
  38        2PX         0.00000   0.00000   0.00000   0.00000  -0.00000
  39        2PY         0.00000   0.00000   0.00000   0.00000   0.00000
  40        2PZ         0.00000   0.00000   0.00000   0.00000   0.00000
  41        3S         -0.00000   0.00000   0.00000   0.00000   0.00000
  42        3PX         0.00000   0.00000   0.00000   0.00000  -0.00000
  43        3PY         0.00000   0.00000   0.00000   0.00000  -0.00000
  44        3PZ         0.00000   0.00000   0.00000   0.00000   0.00000
  45        4S          0.00000   0.00001   0.00002   0.00000  -0.00005
  46        4PX         0.00001   0.00001   0.00004   0.00000  -0.00009
  47        4PY         0.00005   0.00004   0.00009   0.00000  -0.00028
  48        4PZ         0.00000   0.00000   0.00000   0.00001   0.00000
                          16        17        18        19        20
  16        3PX         0.78071
  17        3PY        -0.00000   0.57583
  18        3PZ         0.00000   0.00000   0.69368
  19        4S          0.00000   0.00000   0.00000   0.69762
  20        4PX         0.38065   0.00000   0.00000   0.00000   0.49796
  21        4PY         0.00000   0.23057   0.00000   0.00000  -0.00000
  22        4PZ         0.00000   0.00000   0.34113   0.00000   0.00000
  23 3   Cl 1S         -0.00000  -0.00000   0.00000  -0.00000  -0.00000
  24        2S          0.00000   0.00000   0.00000   0.00000   0.00002
  25        2PX         0.00000   0.00000   0.00000   0.00000   0.00001
  26        2PY         0.00000   0.00000   0.00000   0.00003   0.00004
  27        2PZ         0.00000   0.00000   0.00000   0.00000   0.00000
  28        3S         -0.00000  -0.00000   0.00000  -0.00005  -0.00010
  29        3PX        -0.00001  -0.00002   0.00000  -0.00013  -0.00029
  30        3PY        -0.00003  -0.00007   0.00000  -0.00173  -0.00179
  31        3PZ         0.00000   0.00000  -0.00000   0.00000   0.00000
  32        4S         -0.00080  -0.00106   0.00000   0.00096  -0.00434
  33        4PX        -0.00045  -0.00155   0.00000  -0.00001  -0.00128
  34        4PY        -0.00208  -0.00417   0.00000  -0.00868  -0.01031
  35        4PZ         0.00000   0.00000  -0.00039   0.00000   0.00000
  36 4   Cl 1S         -0.00000  -0.00000   0.00000  -0.00000  -0.00000
  37        2S          0.00000   0.00000   0.00000   0.00000   0.00002
  38        2PX         0.00000   0.00000   0.00000   0.00000   0.00001
  39        2PY         0.00000   0.00000   0.00000   0.00003   0.00004
  40        2PZ         0.00000   0.00000   0.00000   0.00000   0.00000
  41        3S         -0.00000  -0.00000   0.00000  -0.00005  -0.00010
  42        3PX        -0.00001  -0.00002   0.00000  -0.00013  -0.00029
  43        3PY        -0.00003  -0.00007   0.00000  -0.00173  -0.00179
  44        3PZ         0.00000   0.00000  -0.00000   0.00000   0.00000
  45        4S         -0.00080  -0.00106   0.00000   0.00096  -0.00434
  46        4PX        -0.00045  -0.00155   0.00000  -0.00001  -0.00128
  47        4PY        -0.00208  -0.00417   0.00000  -0.00868  -0.01031
  48        4PZ         0.00000   0.00000  -0.00039   0.00000   0.00000
                          21        22        23        24        25
  21        4PY         0.27744
  22        4PZ         0.00000   0.45153
  23 3   Cl 1S         -0.00000   0.00000   2.14426
  24        2S          0.00005   0.00000  -0.14894   2.39346
  25        2PX         0.00003   0.00000   0.00000   0.00000   2.02616
  26        2PY         0.00011   0.00000   0.00000   0.00000  -0.00000
  27        2PZ         0.00000   0.00001   0.00000   0.00000   0.00000
  28        3S         -0.00027   0.00000  -0.00173  -0.12613   0.00000
  29        3PX        -0.00125   0.00000   0.00000   0.00000  -0.03969
  30        3PY        -0.00492   0.00000   0.00000   0.00000  -0.00000
  31        3PZ         0.00000  -0.00039   0.00000   0.00000   0.00000
  32        4S         -0.00436   0.00000   0.00569  -0.17270   0.00000
  33        4PX        -0.00646   0.00000   0.00000   0.00000  -0.01830
  34        4PY        -0.02231   0.00000   0.00000   0.00000   0.00000
  35        4PZ         0.00000  -0.00311   0.00000   0.00000   0.00000
  36 4   Cl 1S         -0.00000   0.00000   0.00000   0.00000   0.00000
  37        2S          0.00005   0.00000   0.00000   0.00000   0.00000
  38        2PX         0.00003   0.00000   0.00000   0.00000   0.00000
  39        2PY         0.00011   0.00000   0.00000   0.00000   0.00000
  40        2PZ         0.00000   0.00001   0.00000   0.00000   0.00000
  41        3S         -0.00027   0.00000   0.00000  -0.00000   0.00000
  42        3PX        -0.00125   0.00000  -0.00000   0.00000   0.00000
  43        3PY        -0.00492   0.00000  -0.00000  -0.00000  -0.00000
  44        3PZ         0.00000  -0.00039   0.00000   0.00000   0.00000
  45        4S         -0.00436   0.00000  -0.00000   0.00000   0.00003
  46        4PX        -0.00646   0.00000  -0.00000   0.00006   0.00019
  47        4PY        -0.02231   0.00000   0.00000  -0.00000   0.00000
  48        4PZ         0.00000  -0.00311   0.00000   0.00000   0.00000
                          26        27        28        29        30
  26        2PY         2.04767
  27        2PZ         0.00000   2.04198
  28        3S          0.00000   0.00000   0.76091
  29        3PX        -0.00000   0.00000   0.00000   0.62705
  30        3PY        -0.05523   0.00000   0.00000  -0.00000   0.72949
  31        3PZ         0.00000  -0.05075   0.00000   0.00000   0.00000
  32        4S          0.00000   0.00000   0.52424   0.00000   0.00000
  33        4PX        -0.00000   0.00000   0.00000   0.26809  -0.00000
  34        4PY        -0.02154   0.00000   0.00000   0.00000   0.34313
  35        4PZ         0.00000  -0.02134   0.00000   0.00000   0.00000
  36 4   Cl 1S          0.00000   0.00000   0.00000  -0.00000  -0.00000
  37        2S          0.00000   0.00000  -0.00000   0.00000  -0.00000
  38        2PX         0.00000   0.00000   0.00000   0.00000  -0.00000
  39        2PY         0.00000   0.00000   0.00000   0.00000   0.00000
  40        2PZ         0.00000   0.00000   0.00000   0.00000   0.00000
  41        3S          0.00000   0.00000   0.00000  -0.00001  -0.00000
  42        3PX         0.00000   0.00000  -0.00001  -0.00012  -0.00000
  43        3PY         0.00000   0.00000   0.00000   0.00000  -0.00000
  44        3PZ         0.00000   0.00000   0.00000   0.00000   0.00000
  45        4S          0.00000   0.00000  -0.00005  -0.00186  -0.00000
  46        4PX         0.00000   0.00000  -0.00037  -0.00830  -0.00000
  47        4PY        -0.00000   0.00000   0.00000  -0.00000   0.00005
  48        4PZ         0.00000   0.00001   0.00000   0.00000   0.00000
                          31        32        33        34        35
  31        3PZ         0.69368
  32        4S          0.00000   0.69762
  33        4PX         0.00000   0.00000   0.33257
  34        4PY         0.00000   0.00000  -0.00000   0.44283
  35        4PZ         0.34113   0.00000   0.00000   0.00000   0.45153
  36 4   Cl 1S          0.00000  -0.00000  -0.00000   0.00000   0.00000
  37        2S          0.00000   0.00000   0.00006  -0.00000   0.00000
  38        2PX         0.00000   0.00003   0.00019   0.00000   0.00000
  39        2PY         0.00000   0.00000   0.00000  -0.00000   0.00000
  40        2PZ         0.00000   0.00000   0.00000   0.00000   0.00001
  41        3S          0.00000  -0.00005  -0.00037   0.00000   0.00000
  42        3PX         0.00000  -0.00186  -0.00830  -0.00000   0.00000
  43        3PY         0.00000  -0.00000  -0.00000   0.00005   0.00000
  44        3PZ        -0.00000   0.00000   0.00000   0.00000  -0.00039
  45        4S          0.00000   0.00096  -0.00869  -0.00000   0.00000
  46        4PX         0.00000  -0.00869  -0.04121  -0.00000   0.00000
  47        4PY         0.00000   0.00000   0.00000   0.00085   0.00000
  48        4PZ        -0.00039   0.00000   0.00000   0.00000  -0.00311
                          36        37        38        39        40
  36 4   Cl 1S          2.14426
  37        2S         -0.14894   2.39346
  38        2PX         0.00000   0.00000   2.02616
  39        2PY         0.00000   0.00000  -0.00000   2.04767
  40        2PZ         0.00000   0.00000   0.00000   0.00000   2.04198
  41        3S         -0.00173  -0.12613   0.00000   0.00000   0.00000
  42        3PX         0.00000   0.00000  -0.03969   0.00000   0.00000
  43        3PY         0.00000   0.00000   0.00000  -0.05523   0.00000
  44        3PZ         0.00000   0.00000   0.00000   0.00000  -0.05075
  45        4S          0.00569  -0.17270   0.00000   0.00000   0.00000
  46        4PX         0.00000   0.00000  -0.01830   0.00000   0.00000
  47        4PY         0.00000   0.00000  -0.00000  -0.02154   0.00000
  48        4PZ         0.00000   0.00000   0.00000   0.00000  -0.02134
                          41        42        43        44        45
  41        3S          0.76091
  42        3PX         0.00000   0.62705
  43        3PY         0.00000   0.00000   0.72949
  44        3PZ         0.00000   0.00000   0.00000   0.69368
  45        4S          0.52424   0.00000   0.00000   0.00000   0.69762
  46        4PX         0.00000   0.26809   0.00000   0.00000   0.00000
  47        4PY         0.00000   0.00000   0.34313   0.00000   0.00000
  48        4PZ         0.00000   0.00000   0.00000   0.34113   0.00000
                          46        47        48
  46        4PX         0.33257
  47        4PY        -0.00000   0.44283
  48        4PZ         0.00000   0.00000   0.45153
     Gross orbital populations:
                           1
   1 1   B  1S          1.98798
   2        2S          0.40414
   3        2PX         0.44792
   4        2PY         0.44792
   5        2PZ         0.13330
   6        3S          0.64733
   7        3PX         0.18306
   8        3PY         0.18306
   9        3PZ         0.22805
  10 2   Cl 1S          1.99864
  11        2S          1.96026
  12        2PX         1.97189
  13        2PY         1.96399
  14        2PZ         1.96909
  15        3S          1.13360
  16        3PX         1.11058
  17        3PY         0.88327
  18        3PZ         1.01393
  19        4S          0.88709
  20        4PX         0.85363
  21        4PY         0.54099
  22        4PZ         0.82544
  23 3   Cl 1S          1.99864
  24        2S          1.96026
  25        2PX         1.96596
  26        2PY         1.96992
  27        2PZ         1.96909
  28        3S          1.13360
  29        3PX         0.94010
  30        3PY         1.05375
  31        3PZ         1.01393
  32        4S          0.88709
  33        4PX         0.61915
  34        4PY         0.77547
  35        4PZ         0.82544
  36 4   Cl 1S          1.99864
  37        2S          1.96026
  38        2PX         1.96596
  39        2PY         1.96992
  40        2PZ         1.96909
  41        3S          1.13360
  42        3PX         0.94010
  43        3PY         1.05375
  44        3PZ         1.01393
  45        4S          0.88709
  46        4PX         0.61915
  47        4PY         0.77547
  48        4PZ         0.82544
          Condensed to atoms (all electrons):
               1          2          3          4
     1  B    3.960827   0.233983   0.233983   0.233983
     2  Cl   0.233983  17.041057  -0.081316  -0.081316
     3  Cl   0.233983  -0.081316  17.041057  -0.081316
     4  Cl   0.233983  -0.081316  -0.081316  17.041057
 Mulliken charges:
               1
     1  B    0.337223
     2  Cl  -0.112408
     3  Cl  -0.112408
     4  Cl  -0.112408
 Sum of Mulliken charges =   0.00000
 Mulliken charges with hydrogens summed into heavy atoms:
               1
     1  B    0.337223
     2  Cl  -0.112408
     3  Cl  -0.112408
     4  Cl  -0.112408
 Electronic spatial extent (au):  <R**2>=            705.4524
 Charge=              0.0000 electrons
 Dipole moment (field-independent basis, Debye):
    X=             -0.0000    Y=              0.0000    Z=              1.5390  Tot=              1.5390
 Quadrupole moment (field-independent basis, Debye-Ang):
   XX=            -48.8642   YY=            -48.8642   ZZ=            -42.8375
   XY=             -0.0000   XZ=              0.0000   YZ=              0.0000
 Traceless Quadrupole moment (field-independent basis, Debye-Ang):
   XX=             -2.0089   YY=             -2.0089   ZZ=              4.0178
   XY=             -0.0000   XZ=              0.0000   YZ=              0.0000
 Octapole moment (field-independent basis, Debye-Ang**2):
  XXX=              0.0000  YYY=             -1.3774  ZZZ=             -0.6807  XYY=              0.0000
  XXY=              1.3774  XXZ=             -2.6363  XZZ=              0.0000  YZZ=              0.0000
  YYZ=             -2.6363  XYZ=             -0.0000
 Hexadecapole moment (field-independent basis, Debye-Ang**3):
 XXXX=           -431.6884 YYYY=           -431.6884 ZZZZ=            -54.5160 XXXY=              0.0000
 XXXZ=              0.0000 YYYX=              0.0000 YYYZ=             -2.8244 ZZZX=             -0.0000
 ZZZY=             -0.0000 XXYY=           -143.8961 XXZZ=            -81.2870 YYZZ=            -81.2870
 XXYZ=              2.8244 YYXZ=             -0.0000 ZZXY=              0.0000
 N-N= 2.182597581340D+02 E-N=-3.760120482826D+03  KE= 1.395172117953D+03
 Symmetry A'   KE= 8.913220046683D+02
 Symmetry A"   KE= 5.038501132850D+02
 Orbital energies and kinetic energies (alpha):
                                 1                 2
   1         (E)--O         -104.149924        136.078133
   2         (E)--O         -104.149924        136.078133
   3         (A1)--O        -104.149638        136.085220
   4         (E)--O          -10.544013         22.343847
   5         (E)--O          -10.544013         22.343847
   6         (A1)--O         -10.543095         22.366694
   7         (E)--O           -8.006771         20.330881
   8         (E)--O           -8.006771         20.330881
   9         (A1)--O          -8.006555         20.342151
  10         (E)--O           -8.003142         20.364883
  11         (E)--O           -8.003142         20.364883
  12         (A1)--O          -8.003060         20.368740
  13         (A2)--O          -8.002915         20.361902
  14         (E)--O           -8.002665         20.373966
  15         (E)--O           -8.002665         20.373966
  16         (A1)--O          -7.815585         10.820386
  17         (A1)--O          -1.181526          2.592060
  18         (E)--O           -1.126183          2.958623
  19         (E)--O           -1.126183          2.958623
  20         (A1)--O          -0.707125          2.135558
  21         (E)--O           -0.598122          1.989289
  22         (E)--O           -0.598122          1.989289
  23         (A1)--O          -0.555508          1.868769
  24         (E)--O           -0.501877          2.256062
  25         (E)--O           -0.501877          2.256062
  26         (E)--O           -0.486255          2.385741
  27         (E)--O           -0.486255          2.385741
  28         (A2)--O          -0.475967          2.481729
  29         (A1)--V          -0.024462          1.429195
  30         (A1)--V           0.161049          2.249170
  31         (E)--V            0.192010          1.668507
  32         (E)--V            0.192010          1.668507
  33         (E)--V            0.567880          1.911467
  34         (E)--V            0.567880          1.911467
  35         (A1)--V           0.575950          1.762510
  36         (A1)--V           0.644457          2.760846
  37         (E)--V            0.736275          3.147250
  38         (E)--V            0.736275          3.147250
  39         (E)--V            0.748477          3.471005
  40         (E)--V            0.748477          3.471005
  41         (A1)--V           0.759485          3.484645
  42         (A1)--V           0.812592          3.376399
  43         (E)--V            0.840310          3.367490
  44         (E)--V            0.840310          3.367490
  45         (A2)--V           0.887286          3.510889
  46         (E)--V            1.016131          3.706290
  47         (E)--V            1.016131          3.706290
  48         (A1)--V           1.112642          2.033509
 Total kinetic energy from orbitals= 1.395172117953D+03
 1\1\GINC-IISERK51\SP\RHF\3-21G\B1Cl3\GAUSSIAN\16-Jun-2025\0\\# hf/3-21
 g pop=full geom=connectivity\\BCl3 only adduct\\0,1\B,0,0.,0.,0.114656
 \Cl,0,0.,1.810649,-0.372549\Cl,0,1.568068,-0.905324,-0.372549\Cl,0,-1.
 568068,-0.905324,-0.372549\\Version=EM64L-G16RevB.01\State=1-A1\HF=-13
 96.4933024\RMSD=1.186e-09\Dipole=0.,0.,0.6055063\Quadrupole=-1.4935655
 ,-1.4935655,2.987131,0.,0.,0.\PG=C03V [C3(B1),3SGV(Cl1)]\\@


 THE ONLY TROUBLE WITH A SURE THING IS THE UNCERTAINTY.
     -- FROM A TEABAG (BELONGING TO W.H.?)
 Job cpu time:       0 days  0 hours  0 minutes  0.4 seconds.
 Elapsed time:       0 days  0 hours  0 minutes  0.4 seconds.
 File lengths (MBytes):  RWF=      6 Int=      0 D2E=      0 Chk=      1 Scr=      1
 Normal termination of Gaussian 16 at Mon Jun 16 21:49:58 2025.
