 Entering Gaussian System, Link 0=g16
 Input=/home/gaussian/Documents/Summer_Internship/Acid_Base_adduct/Adduct/NH3 - BCl3/NH3_only_adduct_sp.com
 Output=/home/gaussian/Documents/Summer_Internship/Acid_Base_adduct/Adduct/NH3 - BCl3/NH3_only_adduct_sp.log
 Initial command:
 /usr/local/g16/l1.exe "/home/gaussian/tmp/Gau-79486.inp" -scrdir="/home/gaussian/tmp/"
 Entering Link 1 = /usr/local/g16/l1.exe PID=     79489.
  
 Copyright (c) 1988-2017, Gaussian, Inc.  All Rights Reserved.
  
 This is part of the Gaussian(R) 16 program.  It is based on
 the Gaussian(R) 09 system (copyright 2009, Gaussian, Inc.),
 the Gaussian(R) 03 system (copyright 2003, Gaussian, Inc.),
 the Gaussian(R) 98 system (copyright 1998, Gaussian, Inc.),
 the Gaussian(R) 94 system (copyright 1995, Gaussian, Inc.),
 the Gaussian 92(TM) system (copyright 1992, Gaussian, Inc.),
 the Gaussian 90(TM) system (copyright 1990, Gaussian, Inc.),
 the Gaussian 88(TM) system (copyright 1988, Gaussian, Inc.),
 the Gaussian 86(TM) system (copyright 1986, Carnegie Mellon
 University), and the Gaussian 82(TM) system (copyright 1983,
 Carnegie Mellon University). Gaussian is a federally registered
 trademark of Gaussian, Inc.
  
 This software contains proprietary and confidential information,
 including trade secrets, belonging to Gaussian, Inc.
  
 This software is provided under written license and may be
 used, copied, transmitted, or stored only in accord with that
 written license.
  
 The following legend is applicable only to US Government
 contracts under FAR:
  
                    RESTRICTED RIGHTS LEGEND
  
 Use, reproduction and disclosure by the US Government is
 subject to restrictions as set forth in subparagraphs (a)
 and (c) of the Commercial Computer Software - Restricted
 Rights clause in FAR 52.227-19.
  
 Gaussian, Inc.
 340 Quinnipiac St., Bldg. 40, Wallingford CT 06492
  
  
 ---------------------------------------------------------------
 Warning -- This program may not be used in any manner that
 competes with the business of Gaussian, Inc. or will provide
 assistance to any competitor of Gaussian, Inc.  The licensee
 of this program is prohibited from giving any competitor of
 Gaussian, Inc. access to this program.  By using this program,
 the user acknowledges that Gaussian, Inc. is engaged in the
 business of creating and licensing software in the field of
 computational chemistry and represents and warrants to the
 licensee that it is not a competitor of Gaussian, Inc. and that
 it will not use this program in any manner prohibited above.
 ---------------------------------------------------------------
  

 Cite this work as:
 Gaussian 16, Revision B.01,
 M. J. Frisch, G. W. Trucks, H. B. Schlegel, G. E. Scuseria, 
 M. A. Robb, J. R. Cheeseman, G. Scalmani, V. Barone, 
 G. A. Petersson, H. Nakatsuji, X. Li, M. Caricato, A. V. Marenich, 
 J. Bloino, B. G. Janesko, R. Gomperts, B. Mennucci, H. P. Hratchian, 
 J. V. Ortiz, A. F. Izmaylov, J. L. Sonnenberg, D. Williams-Young, 
 F. Ding, F. Lipparini, F. Egidi, J. Goings, B. Peng, A. Petrone, 
 T. Henderson, D. Ranasinghe, V. G. Zakrzewski, J. Gao, N. Rega, 
 G. Zheng, W. Liang, M. Hada, M. Ehara, K. Toyota, R. Fukuda, 
 J. Hasegawa, M. Ishida, T. Nakajima, Y. Honda, O. Kitao, H. Nakai, 
 T. Vreven, K. Throssell, J. A. Montgomery, Jr., J. E. Peralta, 
 F. Ogliaro, M. J. Bearpark, J. J. Heyd, E. N. Brothers, K. N. Kudin, 
 V. N. Staroverov, T. A. Keith, R. Kobayashi, J. Normand, 
 K. Raghavachari, A. P. Rendell, J. C. Burant, S. S. Iyengar, 
 J. Tomasi, M. Cossi, J. M. Millam, M. Klene, C. Adamo, R. Cammi, 
 J. W. Ochterski, R. L. Martin, K. Morokuma, O. Farkas, 
 J. B. Foresman, and D. J. Fox, Gaussian, Inc., Wallingford CT, 2016.
 
 ******************************************
 Gaussian 16:  EM64L-G16RevB.01 20-Dec-2017
                16-Jun-2025 
 ******************************************
 %chk=NH3_only_adduct_sp.chk
 -------------------------------------
 # hf/3-21g pop=full geom=connectivity
 -------------------------------------
 1/38=1,57=2,172=1/1;
 2/12=2,17=6,18=5,40=1/2;
 3/5=5,11=9,25=1,30=1/1,2,3;
 4//1;
 5/5=2,38=5/2;
 6/7=3,28=1/1;
 99/5=1,9=1/99;
 ------------------
 NH3 only adduct sp
 ------------------
 Symbolic Z-matrix:
 Charge =  0 Multiplicity = 1
 N                     0.        0.        1.74092 
 H                     0.82936   0.47883   2.08011 
 H                    -0.82936   0.47883   2.08011 
 H                     0.       -0.95766   2.08011 
 
                          Input orientation:                          
 ---------------------------------------------------------------------
 Center     Atomic      Atomic             Coordinates (Angstroms)
 Number     Number       Type             X           Y           Z
 ---------------------------------------------------------------------
      1          7           0        0.000000    0.000000    1.740915
      2          1           0        0.829356    0.478829    2.080111
      3          1           0       -0.829356    0.478829    2.080111
      4          1           0        0.000000   -0.957658    2.080111
 ---------------------------------------------------------------------
                    Distance matrix (angstroms):
                    1          2          3          4
     1  N    0.000000
     2  H    1.015954   0.000000
     3  H    1.015954   1.658712   0.000000
     4  H    1.015954   1.658712   1.658712   0.000000
 Stoichiometry    H3N
 Framework group  C3V[C3(N),3SGV(H)]
 Deg. of freedom     2
 Full point group                 C3V     NOp   6
 Largest Abelian subgroup         CS      NOp   2
 Largest concise Abelian subgroup CS      NOp   2
                         Standard orientation:                         
 ---------------------------------------------------------------------
 Center     Atomic      Atomic             Coordinates (Angstroms)
 Number     Number       Type             X           Y           Z
 ---------------------------------------------------------------------
      1          7           0        0.000000    0.000000    0.101759
      2          1           0        0.000000    0.957658   -0.237437
      3          1           0        0.829356   -0.478829   -0.237437
      4          1           0       -0.829356   -0.478829   -0.237437
 ---------------------------------------------------------------------
 Rotational constants (GHZ):         302.1664233         302.1664233         182.2594446
 Standard basis: 3-21G (6D, 7F)
 There are    11 symmetry adapted cartesian basis functions of A'  symmetry.
 There are     4 symmetry adapted cartesian basis functions of A"  symmetry.
 There are    11 symmetry adapted basis functions of A'  symmetry.
 There are     4 symmetry adapted basis functions of A"  symmetry.
    15 basis functions,    24 primitive gaussians,    15 cartesian basis functions
     5 alpha electrons        5 beta electrons
       nuclear repulsion energy        11.8953001895 Hartrees.
 NAtoms=    4 NActive=    4 NUniq=    2 SFac= 4.00D+00 NAtFMM=   60 NAOKFM=F Big=F
 Integral buffers will be    131072 words long.
 Raffenetti 1 integral format.
 Two-electron integral symmetry is turned on.
 One-electron integrals computed using PRISM.
 NBasis=    15 RedAO= T EigKep=  7.13D-02  NBF=    11     4
 NBsUse=    15 1.00D-06 EigRej= -1.00D+00 NBFU=    11     4
 ExpMin= 1.83D-01 ExpMax= 2.43D+02 ExpMxC= 2.43D+02 IAcc=3 IRadAn=         5 AccDes= 0.00D+00
 Harris functional with IExCor=  205 and IRadAn=       5 diagonalized for initial guess.
 HarFok:  IExCor=  205 AccDes= 0.00D+00 IRadAn=         5 IDoV= 1 UseB2=F ITyADJ=14
 ICtDFT=  3500011 ScaDFX=  1.000000  1.000000  1.000000  1.000000
 FoFCou: FMM=F IPFlag=           0 FMFlag=      100000 FMFlg1=           0
         NFxFlg=           0 DoJE=T BraDBF=F KetDBF=T FulRan=T
         wScrn=  0.000000 ICntrl=       500 IOpCl=  0 I1Cent=   200000004 NGrid=           0
         NMat0=    1 NMatS0=      1 NMatT0=    0 NMatD0=    1 NMtDS0=    0 NMtDT0=    0
 Petite list used in FoFCou.
 Initial guess orbital symmetries:
       Occupied  (A1) (A1) (E) (E) (A1)
       Virtual   (A1) (E) (E) (E) (E) (A1) (A1) (E) (E) (A1)
 The electronic state of the initial guess is 1-A1.
 Keep R1 ints in memory in symmetry-blocked form, NReq=811288.
 Requested convergence on RMS density matrix=1.00D-08 within 128 cycles.
 Requested convergence on MAX density matrix=1.00D-06.
 Requested convergence on             energy=1.00D-06.
 No special actions if energy rises.
 SCF Done:  E(RHF) =  -55.8715594164     A.U. after   10 cycles
            NFock= 10  Conv=0.29D-09     -V/T= 2.0029

 **********************************************************************

            Population analysis using the SCF Density.

 **********************************************************************

 Orbital symmetries:
       Occupied  (A1) (A1) (E) (E) (A1)
       Virtual   (A1) (E) (E) (E) (E) (A1) (A1) (E) (E) (A1)
 The electronic state is 1-A1.
 Alpha  occ. eigenvalues --  -15.44133  -1.12279  -0.61269  -0.61269  -0.39671
 Alpha virt. eigenvalues --    0.26896   0.37086   0.37086   1.16905   1.16905
 Alpha virt. eigenvalues --    1.31005   1.41565   1.58796   1.58796   2.58515
     Molecular Orbital Coefficients:
                           1         2         3         4         5
                        (A1)--O   (A1)--O   (E)--O    (E)--O    (A1)--O
     Eigenvalues --   -15.44133  -1.12279  -0.61269  -0.61269  -0.39671
   1 1   N  1S          0.98552  -0.21648   0.00000  -0.00000  -0.06850
   2        2S          0.09787   0.19763   0.00000  -0.00000   0.06702
   3        2PX         0.00000   0.00000   0.37976   0.00000   0.00000
   4        2PY        -0.00000   0.00000   0.00000   0.37976  -0.00000
   5        2PZ        -0.00332  -0.07404   0.00000   0.00000   0.46125
   6        3S         -0.04932   0.65647   0.00000   0.00000   0.30395
   7        3PX         0.00000   0.00000   0.34173   0.00000   0.00000
   8        3PY        -0.00000  -0.00000   0.00000   0.34173  -0.00000
   9        3PZ         0.00647  -0.08039   0.00000   0.00000   0.60204
  10 2   H  1S          0.00151   0.11961   0.00000   0.26612  -0.04694
  11        2S          0.00864   0.02425   0.00000   0.22793  -0.04658
  12 3   H  1S          0.00151   0.11961   0.23047  -0.13306  -0.04694
  13        2S          0.00864   0.02425   0.19739  -0.11397  -0.04658
  14 4   H  1S          0.00151   0.11961  -0.23047  -0.13306  -0.04694
  15        2S          0.00864   0.02425  -0.19739  -0.11397  -0.04658
                           6         7         8         9        10
                        (A1)--V   (E)--V    (E)--V    (E)--V    (E)--V
     Eigenvalues --     0.26896   0.37086   0.37086   1.16905   1.16905
   1 1   N  1S         -0.14767   0.00000   0.00000   0.00000   0.00000
   2        2S          0.03534   0.00000  -0.00000   0.00000  -0.00000
   3        2PX         0.00000  -0.29997   0.00000   0.05940   0.00000
   4        2PY        -0.00000   0.00000  -0.29997   0.00000   0.05940
   5        2PZ        -0.13114   0.00000   0.00000   0.00000  -0.00000
   6        3S          1.55000   0.00000  -0.00000   0.00000  -0.00000
   7        3PX         0.00000  -1.00471   0.00000  -0.70499   0.00000
   8        3PY        -0.00000   0.00000  -1.00471   0.00000  -0.70499
   9        3PZ        -0.37696   0.00000   0.00000   0.00000   0.00000
  10 2   H  1S         -0.03421   0.00000   0.04432   0.00000   1.08533
  11        2S         -0.79156   0.00000   1.46460   0.00000  -0.59771
  12 3   H  1S         -0.03421   0.03839  -0.02216   0.93993  -0.54267
  13        2S         -0.79156   1.26838  -0.73230  -0.51764   0.29886
  14 4   H  1S         -0.03421  -0.03839  -0.02216  -0.93993  -0.54267
  15        2S         -0.79156  -1.26838  -0.73230   0.51764   0.29886
                          11        12        13        14        15
                        (A1)--V   (A1)--V   (E)--V    (E)--V    (A1)--V
     Eigenvalues --     1.31005   1.41565   1.58796   1.58796   2.58515
   1 1   N  1S          0.09900   0.03279   0.00000  -0.00000   0.03029
   2        2S         -0.13587  -0.05256   0.00000   0.00000  -1.78917
   3        2PX         0.00000   0.00000  -1.11492   0.00000   0.00000
   4        2PY        -0.00000  -0.00000   0.00000  -1.11492  -0.00000
   5        2PZ         0.17052  -1.05248   0.00000  -0.00000   0.09734
   6        3S         -0.17548  -0.24458   0.00000  -0.00000   2.56708
   7        3PX         0.00000   0.00000   1.40924   0.00000   0.00000
   8        3PY         0.00000   0.00000   0.00000   1.40924   0.00000
   9        3PZ         0.19224   1.05973   0.00000   0.00000  -0.40816
  10 2   H  1S          0.79028   0.10090   0.00000   0.16655  -0.23223
  11        2S         -0.35312   0.09882   0.00000  -0.89573  -0.44181
  12 3   H  1S          0.79028   0.10090   0.14424  -0.08328  -0.23223
  13        2S         -0.35312   0.09882  -0.77572   0.44786  -0.44181
  14 4   H  1S          0.79028   0.10090  -0.14424  -0.08328  -0.23223
  15        2S         -0.35312   0.09882   0.77572   0.44786  -0.44181
     Density Matrix:
                           1         2         3         4         5
   1 1   N  1S          2.04560
   2        2S          0.09815   0.10625
   3        2PX         0.00000   0.00000   0.28843
   4        2PY         0.00000  -0.00000   0.00000   0.28843
   5        2PZ        -0.03767   0.03191   0.00000   0.00000   0.43648
   6        3S         -0.42309   0.29056  -0.00000  -0.00000   0.18351
   7        3PX        -0.00000   0.00000   0.25955  -0.00000   0.00000
   8        3PY         0.00000  -0.00000   0.00000   0.25955   0.00000
   9        3PZ        -0.03492   0.05019   0.00000   0.00000   0.56724
  10 2   H  1S         -0.04239   0.04128   0.00000   0.20212  -0.06102
  11        2S          0.01292   0.00503   0.00000   0.17312  -0.04662
  12 3   H  1S         -0.04239   0.04128   0.17504  -0.10106  -0.06102
  13        2S          0.01292   0.00503   0.14992  -0.08656  -0.04662
  14 4   H  1S         -0.04239   0.04128  -0.17504  -0.10106  -0.06102
  15        2S          0.01292   0.00503  -0.14992  -0.08656  -0.04662
                           6         7         8         9        10
   6        3S          1.05153
   7        3PX        -0.00000   0.23355
   8        3PY         0.00000   0.00000   0.23355
   9        3PZ         0.25980   0.00000   0.00000   0.73792
  10 2   H  1S          0.12836   0.00000   0.18188  -0.07573   0.17467
  11        2S          0.00266   0.00000   0.15578  -0.05988   0.13151
  12 3   H  1S          0.12836   0.15752  -0.09094  -0.07573  -0.03780
  13        2S          0.00266   0.13491  -0.07789  -0.05988  -0.05046
  14 4   H  1S          0.12836  -0.15752  -0.09094  -0.07573  -0.03780
  15        2S          0.00266  -0.13491  -0.07789  -0.05988  -0.05046
                          11        12        13        14        15
  11        2S          0.10957
  12 3   H  1S         -0.05046   0.17467
  13        2S         -0.04629   0.13151   0.10957
  14 4   H  1S         -0.05046  -0.03780  -0.05046   0.17467
  15        2S         -0.04629  -0.05046  -0.04629   0.13151   0.10957
    Full Mulliken population analysis:
                           1         2         3         4         5
   1 1   N  1S          2.04560
   2        2S          0.01913   0.10625
   3        2PX         0.00000   0.00000   0.28843
   4        2PY         0.00000   0.00000   0.00000   0.28843
   5        2PZ         0.00000   0.00000   0.00000   0.00000   0.43648
   6        3S         -0.07794   0.21856   0.00000   0.00000   0.00000
   7        3PX         0.00000   0.00000   0.13393   0.00000   0.00000
   8        3PY         0.00000   0.00000   0.00000   0.13393   0.00000
   9        3PZ         0.00000   0.00000   0.00000   0.00000   0.29270
  10 2   H  1S         -0.00090   0.00718   0.00000   0.04617   0.00494
  11        2S          0.00090   0.00174   0.00000   0.02658   0.00254
  12 3   H  1S         -0.00090   0.00718   0.03463   0.01154   0.00494
  13        2S          0.00090   0.00174   0.01993   0.00664   0.00254
  14 4   H  1S         -0.00090   0.00718   0.03463   0.01154   0.00494
  15        2S          0.00090   0.00174   0.01993   0.00664   0.00254
                           6         7         8         9        10
   6        3S          1.05153
   7        3PX         0.00000   0.23355
   8        3PY         0.00000   0.00000   0.23355
   9        3PZ         0.00000   0.00000   0.00000   0.73792
  10 2   H  1S          0.04563   0.00000   0.09390   0.01385   0.17467
  11        2S          0.00171   0.00000   0.07550   0.01028   0.08494
  12 3   H  1S          0.04563   0.07043   0.02348   0.01385  -0.00054
  13        2S          0.00171   0.05663   0.01888   0.01028  -0.00738
  14 4   H  1S          0.04563   0.07043   0.02348   0.01385  -0.00054
  15        2S          0.00171   0.05663   0.01888   0.01028  -0.00738
                          11        12        13        14        15
  11        2S          0.10957
  12 3   H  1S         -0.00738   0.17467
  13        2S         -0.01882   0.08494   0.10957
  14 4   H  1S         -0.00738  -0.00054  -0.00738   0.17467
  15        2S         -0.01882  -0.00738  -0.01882   0.08494   0.10957
     Gross orbital populations:
                           1
   1 1   N  1S          1.98680
   2        2S          0.37068
   3        2PX         0.53148
   4        2PY         0.53148
   5        2PZ         0.75160
   6        3S          1.33416
   7        3PX         0.62158
   8        3PY         0.62158
   9        3PZ         1.10300
  10 2   H  1S          0.45453
  11        2S          0.26134
  12 3   H  1S          0.45453
  13        2S          0.26134
  14 4   H  1S          0.45453
  15        2S          0.26134
          Condensed to atoms (all electrons):
               1          2          3          4
     1  N    6.862342   0.330010   0.330010   0.330010
     2  H    0.330010   0.454128  -0.034130  -0.034130
     3  H    0.330010  -0.034130   0.454128  -0.034130
     4  H    0.330010  -0.034130  -0.034130   0.454128
 Mulliken charges:
               1
     1  N   -0.852371
     2  H    0.284124
     3  H    0.284124
     4  H    0.284124
 Sum of Mulliken charges =   0.00000
 Mulliken charges with hydrogens summed into heavy atoms:
               1
     1  N    0.000000
 Electronic spatial extent (au):  <R**2>=             25.8629
 Charge=              0.0000 electrons
 Dipole moment (field-independent basis, Debye):
    X=             -0.0000    Y=              0.0000    Z=             -1.9980  Tot=              1.9980
 Quadrupole moment (field-independent basis, Debye-Ang):
   XX=             -5.8809   YY=             -5.8809   ZZ=             -8.6489
   XY=             -0.0000   XZ=              0.0000   YZ=              0.0000
 Traceless Quadrupole moment (field-independent basis, Debye-Ang):
   XX=              0.9227   YY=              0.9227   ZZ=             -1.8453
   XY=             -0.0000   XZ=              0.0000   YZ=              0.0000
 Octapole moment (field-independent basis, Debye-Ang**2):
  XXX=             -0.0000  YYY=              0.8603  ZZZ=             -1.4753  XYY=              0.0000
  XXY=             -0.8603  XXZ=             -0.8172  XZZ=              0.0000  YZZ=              0.0000
  YYZ=             -0.8172  XYZ=              0.0000
 Hexadecapole moment (field-independent basis, Debye-Ang**3):
 XXXX=             -8.7356 YYYY=             -8.7356 ZZZZ=             -8.0648 XXXY=              0.0000
 XXXZ=              0.0000 YYYX=              0.0000 YYYZ=             -0.2833 ZZZX=             -0.0000
 ZZZY=             -0.0000 XXYY=             -2.9119 XXZZ=             -2.8987 YYZZ=             -2.8987
 XXYZ=              0.2833 YYXZ=             -0.0000 ZZXY=              0.0000
 N-N= 1.189530018949D+01 E-N=-1.548732490873D+02  KE= 5.571194168273D+01
 Symmetry A'   KE= 5.320883082036D+01
 Symmetry A"   KE= 2.503110862370D+00
 Orbital energies and kinetic energies (alpha):
                                 1                 2
   1         (A1)--O         -15.441332         21.916729
   2         (A1)--O          -1.122790          1.799631
   3         (E)--O           -0.612689          1.251555
   4         (E)--O           -0.612689          1.251555
   5         (A1)--O          -0.396706          1.636500
   6         (A1)--V           0.268959          1.140184
   7         (E)--V            0.370856          1.047775
   8         (E)--V            0.370856          1.047775
   9         (E)--V            1.169050          2.095614
  10         (E)--V            1.169050          2.095614
  11         (A1)--V           1.310053          2.844902
  12         (A1)--V           1.415648          3.772588
  13         (E)--V            1.587958          4.177812
  14         (E)--V            1.587958          4.177812
  15         (A1)--V           2.585151          4.661301
 Total kinetic energy from orbitals= 5.571194168273D+01
 1\1\GINC-IISERK51\SP\RHF\3-21G\H3N1\GAUSSIAN\16-Jun-2025\0\\# hf/3-21g
  pop=full geom=connectivity\\NH3 only adduct sp\\0,1\N,0,0.,0.,1.74091
 5\H,0,0.829356,0.478829,2.080111\H,0,-0.829356,0.478829,2.080111\H,0,0
 .,-0.957658,2.080111\\Version=EM64L-G16RevB.01\State=1-A1\HF=-55.87155
 94\RMSD=2.922e-10\Dipole=0.,0.,0.7860561\Quadrupole=0.6859779,0.685977
 9,-1.3719559,0.,0.,0.\PG=C03V [C3(N1),3SGV(H1)]\\@


 NOBODY LOSES ALL THE TIME
 I HAD AN UNCLE NAMED
 SOL WHO WAS A BORN FAILURE AND
 NEARLY EVERYBODY SAID HE SHOULD HAVE GONE
 INTO VAUDEVILLE PERHAPS BECAUSE MY UNCLE SOL COULD
 SING MCCANN HE WAS A DIVER ON XMAS EVE LIKE HELL ITSELF WHICH
 MAY OR MAY NOT ACCOUNT FOR THE FACT THAT MY UNCLE
 SOL INDULGED IN THAT POSSIBLY MOST INEXCUSABLE
 OF ALL TO USE A HIGHFALOOTIN PHRASE
 LUXURIES THAT IS OR TO
 WIT FARMING AND BE
 IT NEEDLESSLY
 ADDED
 MY UNCLE SOL'S FARM     
 FAILED BECAUSE THE CHICKENS
 ATE THE VEGETABLES SO
 MY UNCLE SOL HAD A
 CHICKEN FARM TILL THE
 SKUNKS ATE THE CHICKENS WHEN 
 MY UNCLE SOL
 HAD A SKUNK FARM BUT
 THE SKUNKS CAUGHT COLD AND
 DIED AND SO
 MY UNCLE SOL IMITATED THE
 SKUNKS IN A SUBTLE MANNER
 OR BY DROWNING HIMSELF IN THE WATERTANK
 BUT SOMEBODY WHO'D GIVEN MY UNCLE SOL A VICTOR     
 VICTROLA AND RECORDS WHILE HE LIVED PRESENTED TO
 HIM UPON THE AUSPICIOUS OCCASION OF HIS DECEASE A
 SCRUMPTIOUS NOT TO MENTION SPLENDIFEROUS FUNERAL WITH
 TALL BOYS IN BLACK GLOVES AND FLOWERS AND EVERYTHING AND
 I REMEMBER WE ALL CRIED LIKE THE MISSOURI
 WHEN MY UNCLE SOL'S COFFIN LURCHED BECAUSE     
 SOMEBODY PRESSED A BUTTON
 (AND DOWN WENT
 MY UNCLE
 SOL
 AND STARTED A WORM FARM)
           E. E. CUMMINGS
 Job cpu time:       0 days  0 hours  0 minutes  0.4 seconds.
 Elapsed time:       0 days  0 hours  0 minutes  0.3 seconds.
 File lengths (MBytes):  RWF=      6 Int=      0 D2E=      0 Chk=      1 Scr=      1
 Normal termination of Gaussian 16 at Mon Jun 16 21:51:42 2025.
