 Entering Gaussian System, Link 0=g16
 Input=/home/gaussian/Documents/Summer_Internship/Acid_Base_adduct/Adduct/NH3 - BCl3/NH3_Bcl3_sp.com
 Output=/home/gaussian/Documents/Summer_Internship/Acid_Base_adduct/Adduct/NH3 - BCl3/NH3_Bcl3_sp.log
 Initial command:
 /usr/local/g16/l1.exe "/home/gaussian/tmp/Gau-79339.inp" -scrdir="/home/gaussian/tmp/"
 Entering Link 1 = /usr/local/g16/l1.exe PID=     79342.
  
 Copyright (c) 1988-2017, Gaussian, Inc.  All Rights Reserved.
  
 This is part of the Gaussian(R) 16 program.  It is based on
 the Gaussian(R) 09 system (copyright 2009, Gaussian, Inc.),
 the Gaussian(R) 03 system (copyright 2003, Gaussian, Inc.),
 the Gaussian(R) 98 system (copyright 1998, Gaussian, Inc.),
 the Gaussian(R) 94 system (copyright 1995, Gaussian, Inc.),
 the Gaussian 92(TM) system (copyright 1992, Gaussian, Inc.),
 the Gaussian 90(TM) system (copyright 1990, Gaussian, Inc.),
 the Gaussian 88(TM) system (copyright 1988, Gaussian, Inc.),
 the Gaussian 86(TM) system (copyright 1986, Carnegie Mellon
 University), and the Gaussian 82(TM) system (copyright 1983,
 Carnegie Mellon University). Gaussian is a federally registered
 trademark of Gaussian, Inc.
  
 This software contains proprietary and confidential information,
 including trade secrets, belonging to Gaussian, Inc.
  
 This software is provided under written license and may be
 used, copied, transmitted, or stored only in accord with that
 written license.
  
 The following legend is applicable only to US Government
 contracts under FAR:
  
                    RESTRICTED RIGHTS LEGEND
  
 Use, reproduction and disclosure by the US Government is
 subject to restrictions as set forth in subparagraphs (a)
 and (c) of the Commercial Computer Software - Restricted
 Rights clause in FAR 52.227-19.
  
 Gaussian, Inc.
 340 Quinnipiac St., Bldg. 40, Wallingford CT 06492
  
  
 ---------------------------------------------------------------
 Warning -- This program may not be used in any manner that
 competes with the business of Gaussian, Inc. or will provide
 assistance to any competitor of Gaussian, Inc.  The licensee
 of this program is prohibited from giving any competitor of
 Gaussian, Inc. access to this program.  By using this program,
 the user acknowledges that Gaussian, Inc. is engaged in the
 business of creating and licensing software in the field of
 computational chemistry and represents and warrants to the
 licensee that it is not a competitor of Gaussian, Inc. and that
 it will not use this program in any manner prohibited above.
 ---------------------------------------------------------------
  

 Cite this work as:
 Gaussian 16, Revision B.01,
 M. J. Frisch, G. W. Trucks, H. B. Schlegel, G. E. Scuseria, 
 M. A. Robb, J. R. Cheeseman, G. Scalmani, V. Barone, 
 G. A. Petersson, H. Nakatsuji, X. Li, M. Caricato, A. V. Marenich, 
 J. Bloino, B. G. Janesko, R. Gomperts, B. Mennucci, H. P. Hratchian, 
 J. V. Ortiz, A. F. Izmaylov, J. L. Sonnenberg, D. Williams-Young, 
 F. Ding, F. Lipparini, F. Egidi, J. Goings, B. Peng, A. Petrone, 
 T. Henderson, D. Ranasinghe, V. G. Zakrzewski, J. Gao, N. Rega, 
 G. Zheng, W. Liang, M. Hada, M. Ehara, K. Toyota, R. Fukuda, 
 J. Hasegawa, M. Ishida, T. Nakajima, Y. Honda, O. Kitao, H. Nakai, 
 T. Vreven, K. Throssell, J. A. Montgomery, Jr., J. E. Peralta, 
 F. Ogliaro, M. J. Bearpark, J. J. Heyd, E. N. Brothers, K. N. Kudin, 
 V. N. Staroverov, T. A. Keith, R. Kobayashi, J. Normand, 
 K. Raghavachari, A. P. Rendell, J. C. Burant, S. S. Iyengar, 
 J. Tomasi, M. Cossi, J. M. Millam, M. Klene, C. Adamo, R. Cammi, 
 J. W. Ochterski, R. L. Martin, K. Morokuma, O. Farkas, 
 J. B. Foresman, and D. J. Fox, Gaussian, Inc., Wallingford CT, 2016.
 
 ******************************************
 Gaussian 16:  EM64L-G16RevB.01 20-Dec-2017
                16-Jun-2025 
 ******************************************
 %chk=NH3_Bcl3_sp.chk
 -------------------------------------
 # hf/3-21g pop=full geom=connectivity
 -------------------------------------
 1/38=1,57=2,172=1/1;
 2/12=2,17=6,18=5,40=1/2;
 3/5=5,11=9,25=1,30=1/1,2,3;
 4//1;
 5/5=2,38=5/2;
 6/7=3,28=1/1;
 99/5=1,9=1/99;
 -------------------
 Title Card Required
 -------------------
 Symbolic Z-matrix:
 Charge =  0 Multiplicity = 1
 B                     0.        0.        0.11466 
 Cl                    0.        1.81065  -0.37255 
 Cl                    1.56807  -0.90532  -0.37255 
 Cl                   -1.56807  -0.90532  -0.37255 
 N                     0.        0.        1.74092 
 H                     0.82936   0.47883   2.08011 
 H                    -0.82936   0.47883   2.08011 
 H                     0.       -0.95766   2.08011 
 
                          Input orientation:                          
 ---------------------------------------------------------------------
 Center     Atomic      Atomic             Coordinates (Angstroms)
 Number     Number       Type             X           Y           Z
 ---------------------------------------------------------------------
      1          5           0        0.000000    0.000000    0.114656
      2         17           0        0.000000    1.810649   -0.372549
      3         17           0        1.568068   -0.905324   -0.372549
      4         17           0       -1.568068   -0.905324   -0.372549
      5          7           0        0.000000    0.000000    1.740915
      6          1           0        0.829356    0.478829    2.080111
      7          1           0       -0.829356    0.478829    2.080111
      8          1           0        0.000000   -0.957658    2.080111
 ---------------------------------------------------------------------
                    Distance matrix (angstroms):
                    1          2          3          4          5
     1  B    0.000000
     2  Cl   1.875052   0.000000
     3  Cl   1.875051   3.136136   0.000000
     4  Cl   1.875051   3.136136   3.136136   0.000000
     5  N    1.626259   2.783016   2.783016   2.783016   0.000000
     6  H    2.186349   2.911549   2.911549   3.698522   1.015954
     7  H    2.186349   2.911549   3.698522   2.911549   1.015954
     8  H    2.186349   3.698522   2.911549   2.911549   1.015954
                    6          7          8
     6  H    0.000000
     7  H    1.658712   0.000000
     8  H    1.658712   1.658712   0.000000
 Stoichiometry    BCl3H3N
 Framework group  C3V[C3(BN),3SGV(ClH)]
 Deg. of freedom     5
 Full point group                 C3V     NOp   6
 Largest Abelian subgroup         CS      NOp   2
 Largest concise Abelian subgroup CS      NOp   2
                         Standard orientation:                         
 ---------------------------------------------------------------------
 Center     Atomic      Atomic             Coordinates (Angstroms)
 Number     Number       Type             X           Y           Z
 ---------------------------------------------------------------------
      1          5           0        0.000000   -0.000000    0.114656
      2         17           0        0.000000    1.810649   -0.372549
      3         17           0        1.568068   -0.905324   -0.372549
      4         17           0       -1.568068   -0.905324   -0.372549
      5          7           0        0.000000   -0.000000    1.740915
      6          1           0        0.829356    0.478829    2.080111
      7          1           0       -0.829356    0.478829    2.080111
      8          1           0       -0.000000   -0.957658    2.080111
 ---------------------------------------------------------------------
 Rotational constants (GHZ):           2.0780866           2.0780866           1.4576686
 Standard basis: 3-21G (6D, 7F)
 There are    41 symmetry adapted cartesian basis functions of A'  symmetry.
 There are    22 symmetry adapted cartesian basis functions of A"  symmetry.
 There are    41 symmetry adapted basis functions of A'  symmetry.
 There are    22 symmetry adapted basis functions of A"  symmetry.
    63 basis functions,   120 primitive gaussians,    63 cartesian basis functions
    33 alpha electrons       33 beta electrons
       nuclear repulsion energy       338.8918826411 Hartrees.
 NAtoms=    8 NActive=    8 NUniq=    4 SFac= 4.00D+00 NAtFMM=   60 NAOKFM=F Big=F
 Integral buffers will be    131072 words long.
 Raffenetti 1 integral format.
 Two-electron integral symmetry is turned on.
 One-electron integrals computed using PRISM.
 NBasis=    63 RedAO= T EigKep=  9.64D-03  NBF=    41    22
 NBsUse=    63 1.00D-06 EigRej= -1.00D+00 NBFU=    41    22
 ExpMin= 1.24D-01 ExpMax= 1.38D+03 ExpMxC= 1.38D+03 IAcc=3 IRadAn=         5 AccDes= 0.00D+00
 Harris functional with IExCor=  205 and IRadAn=       5 diagonalized for initial guess.
 HarFok:  IExCor=  205 AccDes= 0.00D+00 IRadAn=         5 IDoV= 1 UseB2=F ITyADJ=14
 ICtDFT=  3500011 ScaDFX=  1.000000  1.000000  1.000000  1.000000
 FoFCou: FMM=F IPFlag=           0 FMFlag=      100000 FMFlg1=           0
         NFxFlg=           0 DoJE=T BraDBF=F KetDBF=T FulRan=T
         wScrn=  0.000000 ICntrl=       500 IOpCl=  0 I1Cent=   200000004 NGrid=           0
         NMat0=    1 NMatS0=      1 NMatT0=    0 NMatD0=    1 NMtDS0=    0 NMtDT0=    0
 Petite list used in FoFCou.
 Initial guess orbital symmetries:
       Occupied  (E) (E) (A1) (A1) (E) (E) (A1) (E) (E) (A1) (A2)
                 (E) (E) (A1) (E) (E) (A1) (A1) (A1) (E) (E) (E)
                 (E) (A1) (A1) (E) (E) (E) (E) (A1) (E) (E) (A2)
       Virtual   (A1) (A1) (E) (E) (E) (E) (A1) (A1) (E) (E) (A1)
                 (E) (E) (E) (E) (A1) (A1) (E) (E) (A2) (E) (E)
                 (A1) (E) (E) (A1) (E) (E) (A1) (A1)
 The electronic state of the initial guess is 1-A1.
 Keep R1 ints in memory in symmetry-blocked form, NReq=3066968.
 Requested convergence on RMS density matrix=1.00D-08 within 128 cycles.
 Requested convergence on MAX density matrix=1.00D-06.
 Requested convergence on             energy=1.00D-06.
 No special actions if energy rises.
 SCF Done:  E(RHF) =  -1452.48361980     A.U. after   11 cycles
            NFock= 11  Conv=0.33D-08     -V/T= 2.0008

 **********************************************************************

            Population analysis using the SCF Density.

 **********************************************************************

 Orbital symmetries:
       Occupied  (E) (E) (A1) (A1) (E) (E) (A1) (E) (E) (A1) (E)
                 (E) (A2) (A1) (E) (E) (A1) (A1) (A1) (E) (E) (E)
                 (E) (A1) (A1) (E) (E) (A1) (E) (E) (E) (E) (A2)
       Virtual   (A1) (A1) (E) (E) (E) (E) (A1) (A1) (E) (E) (A1)
                 (E) (E) (E) (E) (A1) (A1) (E) (E) (A2) (E) (E)
                 (A1) (E) (E) (A1) (E) (E) (A1) (A1)
 The electronic state is 1-A1.
 Alpha  occ. eigenvalues -- -104.08718-104.08718-104.08692 -15.64702 -10.48260
 Alpha  occ. eigenvalues --  -10.48260 -10.48176  -7.94561  -7.94561  -7.94540
 Alpha  occ. eigenvalues --   -7.94213  -7.94213  -7.94210  -7.94206  -7.94186
 Alpha  occ. eigenvalues --   -7.94186  -7.73516  -1.33405  -1.12677  -1.07718
 Alpha  occ. eigenvalues --   -1.07718  -0.80160  -0.80160  -0.76408  -0.60634
 Alpha  occ. eigenvalues --   -0.54538  -0.54538  -0.46457  -0.46190  -0.46190
 Alpha  occ. eigenvalues --   -0.43888  -0.43888  -0.42668
 Alpha virt. eigenvalues --    0.17105   0.21414   0.22537   0.22537   0.26497
 Alpha virt. eigenvalues --    0.26497   0.33598   0.65820   0.65965   0.65965
 Alpha virt. eigenvalues --    0.72143   0.78246   0.78246   0.79924   0.79924
 Alpha virt. eigenvalues --    0.80375   0.84611   0.85792   0.85792   0.92629
 Alpha virt. eigenvalues --    1.03740   1.03740   1.18977   1.19579   1.19579
 Alpha virt. eigenvalues --    1.39988   1.48096   1.48096   1.58267   2.74047
     Molecular Orbital Coefficients:
                           1         2         3         4         5
                        (E)--O    (E)--O    (A1)--O   (A1)--O   (E)--O
     Eigenvalues --  -104.08718-104.08718-104.08692 -15.64702 -10.48260
   1 1   B  1S          0.00000   0.00000   0.00022  -0.00093   0.00000
   2        2S          0.00000   0.00000   0.00208  -0.00342   0.00000
   3        2PX         0.00000   0.00024   0.00000   0.00000  -0.00144
   4        2PY         0.00024   0.00000  -0.00000  -0.00000   0.00000
   5        2PZ        -0.00000   0.00000  -0.00014   0.00330   0.00000
   6        3S         -0.00000   0.00000  -0.01107   0.02653   0.00000
   7        3PX         0.00000  -0.00551   0.00000   0.00000   0.03239
   8        3PY        -0.00551   0.00000   0.00000  -0.00000   0.00000
   9        3PZ         0.00000   0.00000   0.00146   0.00793   0.00000
  10 2   Cl 1S          0.80496   0.00000   0.56921   0.00000   0.00000
  11        2S          0.04340   0.00000   0.03060   0.00002   0.00000
  12        2PX         0.00000  -0.00003   0.00000   0.00000   0.00008
  13        2PY        -0.00021   0.00000  -0.00007  -0.00009   0.00000
  14        2PZ         0.00006   0.00000   0.00004   0.00002   0.00000
  15        3S         -0.01623   0.00000  -0.01106   0.00180   0.00000
  16        3PX         0.00000   0.00010   0.00000   0.00000  -0.00044
  17        3PY         0.00088   0.00000   0.00022   0.00038   0.00000
  18        3PZ        -0.00023   0.00000  -0.00012   0.00002   0.00000
  19        4S          0.01215   0.00000   0.00852  -0.00681   0.00000
  20        4PX         0.00000   0.00058   0.00000   0.00000  -0.00362
  21        4PY        -0.00342   0.00000  -0.00243   0.00310   0.00000
  22        4PZ         0.00111   0.00000   0.00059  -0.00263   0.00000
  23 3   Cl 1S         -0.40248   0.69712   0.56921   0.00000  -0.21629
  24        2S         -0.02170   0.03759   0.03060   0.00002   0.69486
  25        2PX         0.00008  -0.00017  -0.00006  -0.00008  -0.00464
  26        2PY        -0.00007   0.00008   0.00003   0.00005   0.00272
  27        2PZ        -0.00003   0.00005   0.00004   0.00002   0.00232
  28        3S          0.00811  -0.01405  -0.01106   0.00180   0.10386
  29        3PX        -0.00034   0.00068   0.00019   0.00033  -0.00473
  30        3PY         0.00029  -0.00034  -0.00011  -0.00019   0.00247
  31        3PZ         0.00011  -0.00020  -0.00012   0.00002   0.00158
  32        4S         -0.00608   0.01052   0.00852  -0.00681  -0.06173
  33        4PX         0.00173  -0.00242  -0.00210   0.00269   0.01408
  34        4PY        -0.00042   0.00173   0.00121  -0.00155  -0.01022
  35        4PZ        -0.00056   0.00096   0.00059  -0.00263  -0.00572
  36 4   Cl 1S         -0.40248  -0.69712   0.56921   0.00000   0.21629
  37        2S         -0.02170  -0.03759   0.03060   0.00002  -0.69486
  38        2PX        -0.00008  -0.00017   0.00006   0.00008  -0.00464
  39        2PY        -0.00007  -0.00008   0.00003   0.00005  -0.00272
  40        2PZ        -0.00003  -0.00005   0.00004   0.00002  -0.00232
  41        3S          0.00811   0.01405  -0.01106   0.00180  -0.10386
  42        3PX         0.00034   0.00068  -0.00019  -0.00033  -0.00473
  43        3PY         0.00029   0.00034  -0.00011  -0.00019  -0.00247
  44        3PZ         0.00011   0.00020  -0.00012   0.00002  -0.00158
  45        4S         -0.00608  -0.01052   0.00852  -0.00681   0.06173
  46        4PX        -0.00173  -0.00242   0.00210  -0.00269   0.01408
  47        4PY        -0.00042  -0.00173   0.00121  -0.00155   0.01022
  48        4PZ        -0.00056  -0.00096   0.00059  -0.00263   0.00572
  49 5   N  1S         -0.00000   0.00000  -0.00004   0.98591   0.00000
  50        2S         -0.00000   0.00000  -0.00021   0.10151   0.00000
  51        2PX         0.00000   0.00014   0.00000   0.00000  -0.00062
  52        2PY         0.00014   0.00000  -0.00000   0.00000   0.00000
  53        2PZ        -0.00000   0.00000  -0.00015  -0.00024   0.00000
  54        3S          0.00000   0.00000   0.00165  -0.05947   0.00000
  55        3PX         0.00000  -0.00020   0.00000   0.00000   0.00071
  56        3PY        -0.00020   0.00000   0.00000  -0.00000   0.00000
  57        3PZ        -0.00000   0.00000  -0.00026   0.00426   0.00000
  58 6   H  1S          0.00005   0.00009   0.00009   0.00223  -0.00037
  59        2S          0.00029   0.00050  -0.00025   0.00567  -0.00288
  60 7   H  1S          0.00005  -0.00009   0.00009   0.00223   0.00037
  61        2S          0.00029  -0.00050  -0.00025   0.00567   0.00288
  62 8   H  1S         -0.00010   0.00000   0.00009   0.00223   0.00000
  63        2S         -0.00058   0.00000  -0.00025   0.00567   0.00000
                           6         7         8         9        10
                        (E)--O    (A1)--O   (E)--O    (E)--O    (A1)--O
     Eigenvalues --   -10.48260 -10.48176  -7.94561  -7.94561  -7.94540
   1 1   B  1S          0.00000  -0.00174   0.00000  -0.00000   0.00125
   2        2S          0.00000  -0.01223   0.00000   0.00000  -0.00075
   3        2PX         0.00000   0.00000   0.00141   0.00000   0.00000
   4        2PY        -0.00144  -0.00000   0.00000   0.00141   0.00000
   5        2PZ        -0.00000   0.00085   0.00000   0.00000  -0.00010
   6        3S         -0.00000   0.06599   0.00000   0.00000  -0.00972
   7        3PX         0.00000   0.00000  -0.00949   0.00000   0.00000
   8        3PY         0.03239   0.00000   0.00000  -0.00949  -0.00000
   9        3PZ         0.00000  -0.00836   0.00000  -0.00000   0.00519
  10 2   Cl 1S         -0.24975  -0.17667   0.00000  -0.00263  -0.00177
  11        2S          0.80236   0.56782   0.00000   0.00918   0.00607
  12        2PX         0.00000   0.00000   0.01491   0.00000   0.00000
  13        2PY        -0.00621  -0.00469   0.00000   0.76706   0.54097
  14        2PZ         0.00268   0.00192   0.00000  -0.20661  -0.15247
  15        3S          0.11992   0.08281   0.00000  -0.00679  -0.00146
  16        3PX         0.00000   0.00000   0.00182   0.00000   0.00000
  17        3PY        -0.00615  -0.00227   0.00000   0.06602   0.04525
  18        3PZ         0.00183   0.00108   0.00000  -0.01774  -0.01295
  19        4S         -0.07128  -0.05060   0.00000   0.01348   0.00363
  20        4PX         0.00000   0.00000  -0.00099   0.00000   0.00000
  21        4PY         0.01998   0.01469   0.00000  -0.02735  -0.01555
  22        4PZ        -0.00660  -0.00362   0.00000   0.00744   0.00426
  23 3   Cl 1S          0.12488  -0.17667  -0.00228   0.00132  -0.00177
  24        2S         -0.40118   0.56782   0.00795  -0.00459   0.00607
  25        2PX         0.00272  -0.00407   0.57902  -0.32569   0.46849
  26        2PY        -0.00149   0.00235  -0.32569   0.20295  -0.27048
  27        2PZ        -0.00134   0.00192  -0.17893   0.10331  -0.15247
  28        3S         -0.05996   0.08281  -0.00588   0.00339  -0.00146
  29        3PX         0.00247  -0.00197   0.04997  -0.02780   0.03919
  30        3PY        -0.00187   0.00114  -0.02780   0.01787  -0.02263
  31        3PZ        -0.00091   0.00108  -0.01536   0.00887  -0.01295
  32        4S          0.03564  -0.05060   0.01167  -0.00674   0.00363
  33        4PX        -0.01022   0.01272  -0.02076   0.01141  -0.01346
  34        4PY         0.00228  -0.00735   0.01141  -0.00758   0.00777
  35        4PZ         0.00330  -0.00362   0.00644  -0.00372   0.00426
  36 4   Cl 1S          0.12488  -0.17667   0.00228   0.00132  -0.00177
  37        2S         -0.40118   0.56782  -0.00795  -0.00459   0.00607
  38        2PX        -0.00272   0.00407   0.57902   0.32569  -0.46849
  39        2PY        -0.00149   0.00235   0.32569   0.20295  -0.27048
  40        2PZ        -0.00134   0.00192   0.17893   0.10331  -0.15247
  41        3S         -0.05996   0.08281   0.00588   0.00339  -0.00146
  42        3PX        -0.00247   0.00197   0.04997   0.02780  -0.03919
  43        3PY        -0.00187   0.00114   0.02780   0.01787  -0.02263
  44        3PZ        -0.00091   0.00108   0.01536   0.00887  -0.01295
  45        4S          0.03564  -0.05060  -0.01167  -0.00674   0.00363
  46        4PX         0.01022  -0.01272  -0.02076  -0.01141   0.01346
  47        4PY         0.00228  -0.00735  -0.01141  -0.00758   0.00777
  48        4PZ         0.00330  -0.00362  -0.00644  -0.00372   0.00426
  49 5   N  1S         -0.00000   0.00023   0.00000  -0.00000   0.00016
  50        2S         -0.00000   0.00124   0.00000  -0.00000   0.00147
  51        2PX         0.00000   0.00000   0.00077   0.00000   0.00000
  52        2PY        -0.00062  -0.00000   0.00000   0.00077   0.00000
  53        2PZ        -0.00000   0.00066   0.00000   0.00000  -0.00105
  54        3S          0.00000  -0.00971   0.00000   0.00000  -0.00227
  55        3PX         0.00000   0.00000  -0.00314   0.00000   0.00000
  56        3PY         0.00071   0.00000   0.00000  -0.00314  -0.00000
  57        3PZ        -0.00000   0.00202   0.00000  -0.00000   0.00420
  58 6   H  1S         -0.00022  -0.00045   0.00087   0.00050   0.00052
  59        2S         -0.00166   0.00121   0.00112   0.00065  -0.00180
  60 7   H  1S         -0.00022  -0.00045  -0.00087   0.00050   0.00052
  61        2S         -0.00166   0.00121  -0.00112   0.00065  -0.00180
  62 8   H  1S          0.00043  -0.00045   0.00000  -0.00100   0.00052
  63        2S          0.00333   0.00121   0.00000  -0.00130  -0.00180
                          11        12        13        14        15
                        (E)--O    (E)--O    (A2)--O   (A1)--O   (E)--O
     Eigenvalues --    -7.94213  -7.94213  -7.94210  -7.94206  -7.94186
   1 1   B  1S         -0.00000   0.00000   0.00000   0.00032  -0.00000
   2        2S         -0.00000   0.00000   0.00000   0.00081  -0.00000
   3        2PX         0.00000  -0.00054  -0.00000   0.00000   0.00000
   4        2PY        -0.00054   0.00000   0.00000  -0.00000  -0.00137
   5        2PZ         0.00000   0.00000   0.00000  -0.00173   0.00000
   6        3S          0.00000   0.00000   0.00000  -0.00312   0.00000
   7        3PX         0.00000   0.00329  -0.00000   0.00000   0.00000
   8        3PY         0.00329   0.00000   0.00000   0.00000   0.01057
   9        3PZ        -0.00000   0.00000   0.00000   0.01069  -0.00000
  10 2   Cl 1S          0.00031   0.00000   0.00000   0.00022  -0.00005
  11        2S         -0.00103   0.00000   0.00000  -0.00077   0.00022
  12        2PX         0.00000   0.16545   0.56234   0.00000   0.00000
  13        2PY         0.19931   0.00000   0.00000   0.15266  -0.05733
  14        2PZ         0.75203   0.00000   0.00000   0.54137  -0.15606
  15        3S         -0.00025   0.00000   0.00000   0.00021  -0.00026
  16        3PX         0.00000   0.01380   0.04658   0.00000   0.00000
  17        3PY         0.01649   0.00000   0.00000   0.01222  -0.00405
  18        3PZ         0.06153   0.00000   0.00000   0.04419  -0.01250
  19        4S         -0.00092   0.00000   0.00000   0.00146  -0.00410
  20        4PX         0.00000  -0.00539  -0.01592   0.00000   0.00000
  21        4PY        -0.00492   0.00000   0.00000  -0.00478   0.00246
  22        4PZ        -0.01960   0.00000   0.00000  -0.01487   0.00224
  23 3   Cl 1S         -0.00016   0.00027   0.00000   0.00022   0.00002
  24        2S          0.00052  -0.00089  -0.00000  -0.00077  -0.00011
  25        2PX        -0.01466   0.19084  -0.28117   0.13221   0.36171
  26        2PY         0.17392  -0.01466  -0.48700  -0.07633   0.56917
  27        2PZ        -0.37601   0.65127   0.00000   0.54137   0.07803
  28        3S          0.00012  -0.00021  -0.00000   0.00021   0.00013
  29        3PX        -0.00116   0.01582  -0.02329   0.01058   0.02902
  30        3PY         0.01448  -0.00116  -0.04034  -0.00611   0.04621
  31        3PZ        -0.03077   0.05329   0.00000   0.04419   0.00625
  32        4S          0.00046  -0.00079   0.00000   0.00146   0.00205
  33        4PX        -0.00021  -0.00504   0.00796  -0.00414  -0.00973
  34        4PY        -0.00528  -0.00021   0.01379   0.00239  -0.01439
  35        4PZ         0.00980  -0.01698  -0.00000  -0.01487  -0.00112
  36 4   Cl 1S         -0.00016  -0.00027  -0.00000   0.00022   0.00002
  37        2S          0.00052   0.00089   0.00000  -0.00077  -0.00011
  38        2PX         0.01466   0.19084  -0.28117  -0.13221  -0.36171
  39        2PY         0.17392   0.01466   0.48700  -0.07633   0.56917
  40        2PZ        -0.37601  -0.65127  -0.00000   0.54137   0.07803
  41        3S          0.00012   0.00021   0.00000   0.00021   0.00013
  42        3PX         0.00116   0.01582  -0.02329  -0.01058  -0.02902
  43        3PY         0.01448   0.00116   0.04034  -0.00611   0.04621
  44        3PZ        -0.03077  -0.05329  -0.00000   0.04419   0.00625
  45        4S          0.00046   0.00079  -0.00000   0.00146   0.00205
  46        4PX         0.00021  -0.00504   0.00796   0.00414   0.00973
  47        4PY        -0.00528   0.00021  -0.01379   0.00239  -0.01439
  48        4PZ         0.00980   0.01698   0.00000  -0.01487  -0.00112
  49 5   N  1S         -0.00000   0.00000   0.00000   0.00002  -0.00000
  50        2S         -0.00000   0.00000   0.00000   0.00004  -0.00000
  51        2PX         0.00000  -0.00056  -0.00000   0.00000   0.00000
  52        2PY        -0.00056   0.00000   0.00000   0.00000   0.00055
  53        2PZ        -0.00000   0.00000   0.00000   0.00039  -0.00000
  54        3S          0.00000   0.00000   0.00000  -0.00362   0.00000
  55        3PX         0.00000   0.00208   0.00000   0.00000   0.00000
  56        3PY         0.00208   0.00000   0.00000  -0.00000  -0.00303
  57        3PZ         0.00000   0.00000   0.00000  -0.00082   0.00000
  58 6   H  1S         -0.00066  -0.00114  -0.00000  -0.00050   0.00024
  59        2S          0.00064   0.00112   0.00000   0.00093   0.00033
  60 7   H  1S         -0.00066   0.00114   0.00000  -0.00050   0.00024
  61        2S          0.00064  -0.00112  -0.00000   0.00093   0.00033
  62 8   H  1S          0.00132   0.00000   0.00000  -0.00050  -0.00048
  63        2S         -0.00129   0.00000   0.00000   0.00093  -0.00066
                          16        17        18        19        20
                        (E)--O    (A1)--O   (A1)--O   (A1)--O   (E)--O
     Eigenvalues --    -7.94186  -7.73516  -1.33405  -1.12677  -1.07718
   1 1   B  1S          0.00000   0.98998  -0.04349  -0.08785   0.00000
   2        2S          0.00000   0.09981   0.05605   0.09824   0.00000
   3        2PX        -0.00137   0.00000   0.00000   0.00000   0.11238
   4        2PY         0.00000  -0.00000   0.00000  -0.00000   0.00000
   5        2PZ         0.00000   0.00088   0.04275  -0.04286   0.00000
   6        3S          0.00000  -0.09020   0.00250   0.16693   0.00000
   7        3PX         0.01057   0.00000   0.00000   0.00000  -0.00911
   8        3PY         0.00000   0.00000  -0.00000   0.00000   0.00000
   9        3PZ         0.00000  -0.00081  -0.01801   0.01999   0.00000
  10 2   Cl 1S          0.00000  -0.00014   0.00489   0.04129   0.00000
  11        2S          0.00000   0.00063  -0.02849  -0.24202   0.00000
  12        2PX         0.77800   0.00000   0.00000   0.00000  -0.00584
  13        2PY         0.00000  -0.00158   0.00642   0.02774   0.00000
  14        2PZ         0.00000   0.00028  -0.00440  -0.00755   0.00000
  15        3S          0.00000  -0.00598   0.03322   0.31087   0.00000
  16        3PX         0.06297   0.00000   0.00000   0.00000   0.01277
  17        3PY         0.00000   0.00060  -0.01318  -0.05725   0.00000
  18        3PZ         0.00000  -0.00004   0.00837   0.01537   0.00000
  19        4S          0.00000   0.02308   0.03123   0.22217   0.00000
  20        4PX        -0.02000   0.00000   0.00000   0.00000   0.00452
  21        4PY         0.00000  -0.01097  -0.00664  -0.01485   0.00000
  22        4PZ         0.00000   0.00295   0.01091   0.00395   0.00000
  23 3   Cl 1S         -0.00004  -0.00014   0.00489   0.04129   0.05547
  24        2S          0.00019   0.00063  -0.02849  -0.24202  -0.32617
  25        2PX         0.15150  -0.00137   0.00556   0.02402   0.01663
  26        2PY         0.36171   0.00079  -0.00321  -0.01387  -0.01297
  27        2PZ        -0.13515   0.00028  -0.00440  -0.00755  -0.01020
  28        3S         -0.00023  -0.00598   0.03322   0.31087   0.40267
  29        3PX         0.01270   0.00052  -0.01141  -0.04958  -0.03267
  30        3PY         0.02902  -0.00030   0.00659   0.02863   0.02624
  31        3PZ        -0.01082  -0.00004   0.00837   0.01537   0.02033
  32        4S         -0.00355   0.02308   0.03123   0.22217   0.37289
  33        4PX        -0.00315  -0.00950  -0.00575  -0.01286  -0.03369
  34        4PY        -0.00973   0.00549   0.00332   0.00742   0.02206
  35        4PZ         0.00194   0.00295   0.01091   0.00395   0.02005
  36 4   Cl 1S          0.00004  -0.00014   0.00489   0.04129  -0.05547
  37        2S         -0.00019   0.00063  -0.02849  -0.24202   0.32617
  38        2PX         0.15150   0.00137  -0.00556  -0.02402   0.01663
  39        2PY        -0.36171   0.00079  -0.00321  -0.01387   0.01297
  40        2PZ         0.13515   0.00028  -0.00440  -0.00755   0.01020
  41        3S          0.00023  -0.00598   0.03322   0.31087  -0.40267
  42        3PX         0.01270  -0.00052   0.01141   0.04958  -0.03267
  43        3PY        -0.02902  -0.00030   0.00659   0.02863  -0.02624
  44        3PZ         0.01082  -0.00004   0.00837   0.01537  -0.02033
  45        4S          0.00355   0.02308   0.03123   0.22217  -0.37289
  46        4PX        -0.00315   0.00950   0.00575   0.01286  -0.03369
  47        4PY         0.00973   0.00549   0.00332   0.00742  -0.02206
  48        4PZ        -0.00194   0.00295   0.01091   0.00395  -0.02005
  49 5   N  1S          0.00000   0.00000  -0.22033   0.04020   0.00000
  50        2S          0.00000   0.00067   0.19697  -0.03243   0.00000
  51        2PX         0.00055   0.00000   0.00000   0.00000   0.02614
  52        2PY         0.00000   0.00000   0.00000  -0.00000   0.00000
  53        2PZ         0.00000   0.00092   0.02386  -0.05137   0.00000
  54        3S          0.00000   0.00461   0.70074  -0.15372   0.00000
  55        3PX        -0.00303   0.00000   0.00000   0.00000   0.02153
  56        3PY         0.00000  -0.00000  -0.00000  -0.00000   0.00000
  57        3PZ         0.00000  -0.00642   0.00741  -0.01969   0.00000
  58 6   H  1S          0.00041   0.00017   0.10386  -0.02626   0.01118
  59        2S          0.00057   0.00550   0.00615  -0.01777   0.00505
  60 7   H  1S         -0.00041   0.00017   0.10386  -0.02626  -0.01118
  61        2S         -0.00057   0.00550   0.00615  -0.01777  -0.00505
  62 8   H  1S          0.00000   0.00017   0.10386  -0.02626   0.00000
  63        2S          0.00000   0.00550   0.00615  -0.01777   0.00000
                          21        22        23        24        25
                        (E)--O    (E)--O    (E)--O    (A1)--O   (A1)--O
     Eigenvalues --    -1.07718  -0.80160  -0.80160  -0.76408  -0.60634
   1 1   B  1S         -0.00000  -0.00000   0.00000   0.12544  -0.09052
   2        2S          0.00000   0.00000   0.00000  -0.13513   0.09834
   3        2PX         0.00000   0.00000   0.04087   0.00000   0.00000
   4        2PY         0.11238   0.04087   0.00000   0.00000  -0.00000
   5        2PZ        -0.00000   0.00000   0.00000  -0.12936  -0.21158
   6        3S         -0.00000  -0.00000   0.00000  -0.32891   0.40419
   7        3PX         0.00000   0.00000   0.02153   0.00000   0.00000
   8        3PY        -0.00911   0.02153   0.00000   0.00000  -0.00000
   9        3PZ        -0.00000   0.00000   0.00000  -0.03753  -0.09264
  10 2   Cl 1S          0.06405  -0.00818   0.00000   0.01552  -0.01230
  11        2S         -0.37663   0.04879   0.00000  -0.09292   0.07462
  12        2PX         0.00000   0.00000  -0.00734   0.00000   0.00000
  13        2PY         0.02411   0.01187   0.00000  -0.04232   0.11583
  14        2PZ        -0.01177  -0.01498   0.00000   0.02556   0.02391
  15        3S          0.46497  -0.05936   0.00000   0.10609  -0.07288
  16        3PX         0.00000   0.00000   0.01537   0.00000   0.00000
  17        3PY        -0.04782  -0.02604   0.00000   0.09039  -0.24941
  18        3PZ         0.02347   0.03238   0.00000  -0.05506  -0.05221
  19        4S          0.43058  -0.07140   0.00000   0.17937  -0.20992
  20        4PX         0.00000   0.00000   0.01039   0.00000   0.00000
  21        4PY        -0.04643  -0.00449   0.00000   0.02044  -0.11614
  22        4PZ         0.02315   0.01823   0.00000  -0.02115  -0.05000
  23 3   Cl 1S         -0.03203   0.00409  -0.00709   0.01552  -0.01230
  24        2S          0.18831  -0.02439   0.04225  -0.09292   0.07462
  25        2PX        -0.01297  -0.00832   0.00707  -0.03665   0.10031
  26        2PY         0.00165  -0.00254  -0.00832   0.02116  -0.05791
  27        2PZ         0.00589   0.00749  -0.01297   0.02556   0.02391
  28        3S         -0.23248   0.02968  -0.05141   0.10609  -0.07288
  29        3PX         0.02624   0.01793  -0.01569   0.07828  -0.21599
  30        3PY        -0.00238   0.00502   0.01793  -0.04520   0.12470
  31        3PZ        -0.01174  -0.01619   0.02804  -0.05506  -0.05221
  32        4S         -0.21529   0.03570  -0.06183   0.17937  -0.20992
  33        4PX         0.02206   0.00644  -0.00077   0.01770  -0.10058
  34        4PY        -0.00822   0.00667   0.00644  -0.01022   0.05807
  35        4PZ        -0.01157  -0.00912   0.01579  -0.02115  -0.05000
  36 4   Cl 1S         -0.03203   0.00409   0.00709   0.01552  -0.01230
  37        2S          0.18831  -0.02439  -0.04225  -0.09292   0.07462
  38        2PX         0.01297   0.00832   0.00707   0.03665  -0.10031
  39        2PY         0.00165  -0.00254   0.00832   0.02116  -0.05791
  40        2PZ         0.00589   0.00749   0.01297   0.02556   0.02391
  41        3S         -0.23248   0.02968   0.05141   0.10609  -0.07288
  42        3PX        -0.02624  -0.01793  -0.01569  -0.07828   0.21599
  43        3PY        -0.00238   0.00502  -0.01793  -0.04520   0.12470
  44        3PZ        -0.01174  -0.01619  -0.02804  -0.05506  -0.05221
  45        4S         -0.21529   0.03570   0.06183   0.17937  -0.20992
  46        4PX        -0.02206  -0.00644  -0.00077  -0.01770   0.10058
  47        4PY        -0.00822   0.00667  -0.00644  -0.01022   0.05807
  48        4PZ        -0.01157  -0.00912  -0.01579  -0.02115  -0.05000
  49 5   N  1S          0.00000   0.00000   0.00000   0.00749   0.02243
  50        2S         -0.00000  -0.00000   0.00000  -0.00467  -0.01383
  51        2PX         0.00000   0.00000   0.40268   0.00000   0.00000
  52        2PY         0.02614   0.40268   0.00000   0.00000   0.00000
  53        2PZ        -0.00000  -0.00000   0.00000   0.35264   0.18739
  54        3S         -0.00000   0.00000   0.00000  -0.03290  -0.12636
  55        3PX         0.00000   0.00000   0.39898   0.00000   0.00000
  56        3PY         0.02153   0.39898   0.00000  -0.00000   0.00000
  57        3PZ        -0.00000  -0.00000   0.00000   0.36937   0.26254
  58 6   H  1S          0.00645   0.12106   0.20968   0.06597   0.02794
  59        2S          0.00292   0.06769   0.11724   0.05610   0.00810
  60 7   H  1S          0.00645   0.12106  -0.20968   0.06597   0.02794
  61        2S          0.00292   0.06769  -0.11724   0.05610   0.00810
  62 8   H  1S         -0.01291  -0.24211   0.00000   0.06597   0.02794
  63        2S         -0.00583  -0.13538   0.00000   0.05610   0.00810
                          26        27        28        29        30
                        (E)--O    (E)--O    (A1)--O   (E)--O    (E)--O
     Eigenvalues --    -0.54538  -0.54538  -0.46457  -0.46190  -0.46190
   1 1   B  1S          0.00000   0.00000  -0.01706   0.00000   0.00000
   2        2S          0.00000  -0.00000   0.01025   0.00000  -0.00000
   3        2PX         0.25931   0.00000   0.00000   0.07977   0.00000
   4        2PY         0.00000  -0.25931   0.00000   0.00000   0.07977
   5        2PZ         0.00000   0.00000  -0.03484   0.00000   0.00000
   6        3S          0.00000   0.00000   0.09947   0.00000   0.00000
   7        3PX         0.23385   0.00000   0.00000  -0.02612   0.00000
   8        3PY         0.00000  -0.23385   0.00000   0.00000  -0.02612
   9        3PZ         0.00000   0.00000   0.12260   0.00000   0.00000
  10 2   Cl 1S          0.00000   0.01260  -0.00196   0.00000  -0.00281
  11        2S          0.00000  -0.07673   0.01192   0.00000   0.01684
  12        2PX        -0.11553   0.00000   0.00000   0.13352   0.00000
  13        2PY         0.00000  -0.15360   0.00807   0.00000   0.03395
  14        2PZ         0.00000   0.05119  -0.15238   0.00000  -0.17930
  15        3S          0.00000   0.08192  -0.01869   0.00000  -0.03731
  16        3PX         0.25245   0.00000   0.00000  -0.28792   0.00000
  17        3PY         0.00000   0.32947  -0.01683   0.00000  -0.07205
  18        3PZ         0.00000  -0.11115   0.33110   0.00000   0.38667
  19        4S          0.00000   0.22253  -0.01147   0.00000   0.02121
  20        4PX         0.16240   0.00000   0.00000  -0.25524   0.00000
  21        4PY         0.00000   0.19633  -0.01217   0.00000  -0.07412
  22        4PZ         0.00000  -0.05725   0.26503   0.00000   0.34914
  23 3   Cl 1S         -0.01091  -0.00630  -0.00196  -0.00243   0.00140
  24        2S          0.06645   0.03836   0.01192   0.01458  -0.00842
  25        2PX         0.08632   0.11654   0.00699   0.05884   0.04312
  26        2PY        -0.11654   0.04825  -0.00403   0.04312   0.10863
  27        2PZ        -0.04433  -0.02559  -0.15238  -0.15528   0.08965
  28        3S         -0.07095  -0.04096  -0.01869  -0.03231   0.01865
  29        3PX        -0.18399  -0.25198  -0.01458  -0.12602  -0.09348
  30        3PY         0.25198  -0.10697   0.00842  -0.09348  -0.23395
  31        3PZ         0.09626   0.05558   0.33110   0.33486  -0.19333
  32        4S         -0.19272  -0.11127  -0.01147   0.01837  -0.01060
  33        4PX        -0.10665  -0.15534  -0.01054  -0.11940  -0.07843
  34        4PY         0.15534  -0.07272   0.00608  -0.07843  -0.20996
  35        4PZ         0.04958   0.02862   0.26503   0.30236  -0.17457
  36 4   Cl 1S          0.01091  -0.00630  -0.00196   0.00243   0.00140
  37        2S         -0.06645   0.03836   0.01192  -0.01458  -0.00842
  38        2PX         0.08632  -0.11654  -0.00699   0.05884  -0.04312
  39        2PY         0.11654   0.04825  -0.00403  -0.04312   0.10863
  40        2PZ         0.04433  -0.02559  -0.15238   0.15528   0.08965
  41        3S          0.07095  -0.04096  -0.01869   0.03231   0.01865
  42        3PX        -0.18399   0.25198   0.01458  -0.12602   0.09348
  43        3PY        -0.25198  -0.10697   0.00842   0.09348  -0.23395
  44        3PZ        -0.09626   0.05558   0.33110  -0.33486  -0.19333
  45        4S          0.19272  -0.11127  -0.01147  -0.01837  -0.01060
  46        4PX        -0.10665   0.15534   0.01054  -0.11940   0.07843
  47        4PY        -0.15534  -0.07272   0.00608   0.07843  -0.20996
  48        4PZ        -0.04958   0.02862   0.26503  -0.30236  -0.17457
  49 5   N  1S          0.00000  -0.00000   0.04164   0.00000  -0.00000
  50        2S          0.00000   0.00000  -0.02303   0.00000   0.00000
  51        2PX        -0.06478   0.00000   0.00000  -0.03480   0.00000
  52        2PY         0.00000   0.06478  -0.00000   0.00000  -0.03480
  53        2PZ         0.00000  -0.00000   0.14874   0.00000  -0.00000
  54        3S          0.00000   0.00000  -0.27021   0.00000  -0.00000
  55        3PX        -0.08740   0.00000   0.00000  -0.00601   0.00000
  56        3PY         0.00000   0.08740  -0.00000   0.00000  -0.00601
  57        3PZ         0.00000  -0.00000   0.23855   0.00000  -0.00000
  58 6   H  1S         -0.03991   0.02304   0.01733  -0.03023  -0.01745
  59        2S         -0.05091   0.02939   0.01859  -0.03167  -0.01828
  60 7   H  1S          0.03991   0.02304   0.01733   0.03023  -0.01745
  61        2S          0.05091   0.02939   0.01859   0.03167  -0.01828
  62 8   H  1S          0.00000  -0.04608   0.01733   0.00000   0.03491
  63        2S          0.00000  -0.05878   0.01859   0.00000   0.03657
                          31        32        33        34        35
                        (E)--O    (E)--O    (A2)--O   (A1)--V   (A1)--V
     Eigenvalues --    -0.43888  -0.43888  -0.42668   0.17105   0.21414
   1 1   B  1S          0.00000  -0.00000   0.00000  -0.01367  -0.17950
   2        2S          0.00000   0.00000   0.00000  -0.00567   0.15484
   3        2PX        -0.10455   0.00000  -0.00000   0.00000   0.00000
   4        2PY         0.00000  -0.10455   0.00000  -0.00000   0.00000
   5        2PZ         0.00000  -0.00000   0.00000  -0.08771  -0.29266
   6        3S          0.00000  -0.00000   0.00000   0.35535   1.89644
   7        3PX         0.07103   0.00000   0.00000   0.00000   0.00000
   8        3PY         0.00000   0.07103   0.00000  -0.00000   0.00000
   9        3PZ         0.00000   0.00000   0.00000  -0.05635  -0.95138
  10 2   Cl 1S          0.00000   0.00014   0.00000   0.00382  -0.01606
  11        2S          0.00000  -0.00075   0.00000  -0.02260   0.10191
  12        2PX        -0.13449   0.00000  -0.16819   0.00000   0.00000
  13        2PY         0.00000  -0.14054   0.00000  -0.00306  -0.09593
  14        2PZ         0.00000  -0.12782   0.00000  -0.03335  -0.00610
  15        3S          0.00000   0.00780   0.00000   0.09207  -0.09069
  16        3PX         0.29264   0.00000   0.36676   0.00000   0.00000
  17        3PY         0.00000   0.30385   0.00000   0.00337   0.19396
  18        3PZ         0.00000   0.27739   0.00000   0.08239   0.01102
  19        4S          0.00000  -0.04451   0.00000  -0.14289  -0.61885
  20        4PX         0.24640   0.00000   0.31934   0.00000   0.00000
  21        4PY         0.00000   0.28799   0.00000   0.08065   0.69433
  22        4PZ         0.00000   0.23947   0.00000   0.03202   0.04106
  23 3   Cl 1S          0.00012  -0.00007   0.00000   0.00382  -0.01606
  24        2S         -0.00065   0.00037  -0.00000  -0.02260   0.10191
  25        2PX        -0.13903   0.00262   0.08410  -0.00265  -0.08308
  26        2PY         0.00262  -0.13600   0.14566   0.00153   0.04797
  27        2PZ        -0.11069   0.06391  -0.00000  -0.03335  -0.00610
  28        3S          0.00676  -0.00390   0.00000   0.09207  -0.09069
  29        3PX         0.30104  -0.00485  -0.18338   0.00292   0.16798
  30        3PY        -0.00485   0.29544  -0.31763  -0.00168  -0.09698
  31        3PZ         0.24022  -0.13869   0.00000   0.08239   0.01102
  32        4S         -0.03855   0.02225  -0.00000  -0.14289  -0.61885
  33        4PX         0.27760  -0.01801  -0.15967   0.06984   0.60131
  34        4PY        -0.01801   0.25680  -0.27656  -0.04032  -0.34717
  35        4PZ         0.20739  -0.11974   0.00000   0.03202   0.04106
  36 4   Cl 1S         -0.00012  -0.00007  -0.00000   0.00382  -0.01606
  37        2S          0.00065   0.00037   0.00000  -0.02260   0.10191
  38        2PX        -0.13903  -0.00262   0.08410   0.00265   0.08308
  39        2PY        -0.00262  -0.13600  -0.14566   0.00153   0.04797
  40        2PZ         0.11069   0.06391   0.00000  -0.03335  -0.00610
  41        3S         -0.00676  -0.00390  -0.00000   0.09207  -0.09069
  42        3PX         0.30104   0.00485  -0.18338  -0.00292  -0.16798
  43        3PY         0.00485   0.29544   0.31763  -0.00168  -0.09698
  44        3PZ        -0.24022  -0.13869  -0.00000   0.08239   0.01102
  45        4S          0.03855   0.02225   0.00000  -0.14289  -0.61885
  46        4PX         0.27760   0.01801  -0.15967  -0.06984  -0.60131
  47        4PY         0.01801   0.25680   0.27656  -0.04032  -0.34717
  48        4PZ        -0.20739  -0.11974  -0.00000   0.03202   0.04106
  49 5   N  1S          0.00000   0.00000   0.00000  -0.14281   0.01106
  50        2S          0.00000  -0.00000   0.00000   0.06049  -0.01300
  51        2PX        -0.02208   0.00000  -0.00000   0.00000   0.00000
  52        2PY         0.00000  -0.02208   0.00000  -0.00000   0.00000
  53        2PZ         0.00000   0.00000   0.00000   0.12180  -0.00975
  54        3S          0.00000  -0.00000   0.00000   1.46828  -0.08496
  55        3PX        -0.03056   0.00000  -0.00000   0.00000   0.00000
  56        3PY         0.00000  -0.03056   0.00000  -0.00000   0.00000
  57        3PZ         0.00000   0.00000   0.00000   0.39501  -0.07272
  58 6   H  1S         -0.01032  -0.00596  -0.00000  -0.04663   0.00310
  59        2S          0.00264   0.00152   0.00000  -0.78552   0.12636
  60 7   H  1S          0.01032  -0.00596   0.00000  -0.04663   0.00310
  61        2S         -0.00264   0.00152  -0.00000  -0.78552   0.12636
  62 8   H  1S          0.00000   0.01191   0.00000  -0.04663   0.00310
  63        2S          0.00000  -0.00305   0.00000  -0.78552   0.12636
                          36        37        38        39        40
                        (E)--V    (E)--V    (E)--V    (E)--V    (A1)--V
     Eigenvalues --     0.22537   0.22537   0.26497   0.26497   0.33598
   1 1   B  1S          0.00000   0.00000  -0.00000   0.00000  -0.17305
   2        2S         -0.00000   0.00000  -0.00000   0.00000   0.17393
   3        2PX         0.00000   0.33450   0.00000   0.34651   0.00000
   4        2PY         0.33450   0.00000   0.34651   0.00000  -0.00000
   5        2PZ         0.00000   0.00000  -0.00000   0.00000   0.34174
   6        3S         -0.00000   0.00000   0.00000   0.00000   1.84418
   7        3PX         0.00000   1.20344   0.00000   1.55048   0.00000
   8        3PY         1.20344   0.00000   1.55048   0.00000  -0.00000
   9        3PZ         0.00000   0.00000  -0.00000   0.00000   1.45818
  10 2   Cl 1S         -0.01255   0.00000  -0.01524   0.00000  -0.00537
  11        2S          0.08056   0.00000   0.09820   0.00000   0.03496
  12        2PX         0.00000   0.01819   0.00000   0.05633   0.00000
  13        2PY        -0.06727   0.00000  -0.05626   0.00000  -0.01976
  14        2PZ         0.02870   0.00000   0.02861   0.00000   0.04071
  15        3S         -0.03584   0.00000  -0.04376   0.00000  -0.00065
  16        3PX         0.00000  -0.02479   0.00000  -0.12328   0.00000
  17        3PY         0.13432   0.00000   0.10016   0.00000   0.03142
  18        3PZ        -0.05954   0.00000  -0.05661   0.00000  -0.07663
  19        4S         -0.73376   0.00000  -0.93409   0.00000  -0.26657
  20        4PX         0.00000  -0.26261   0.00000  -0.33550   0.00000
  21        4PY         0.58263   0.00000   0.71043   0.00000   0.22665
  22        4PZ        -0.21919   0.00000  -0.28170   0.00000  -0.39165
  23 3   Cl 1S          0.00627  -0.01087   0.00762  -0.01319  -0.00537
  24        2S         -0.04028   0.06977  -0.04910   0.08505   0.03496
  25        2PX         0.03700  -0.04590   0.04875  -0.02811  -0.01712
  26        2PY        -0.00317   0.03700   0.02818   0.04875   0.00988
  27        2PZ        -0.01435   0.02485  -0.01430   0.02478   0.04071
  28        3S          0.01792  -0.03104   0.02188  -0.03789  -0.00065
  29        3PX        -0.06890   0.09454  -0.09675   0.04430   0.02721
  30        3PY         0.01499  -0.06890  -0.06742  -0.09675  -0.01571
  31        3PZ         0.02977  -0.05157   0.02831  -0.04903  -0.07663
  32        4S          0.36688  -0.63546   0.46705  -0.80895  -0.26657
  33        4PX        -0.36600   0.37132  -0.45290   0.44895   0.19628
  34        4PY        -0.05130  -0.36600  -0.07402  -0.45290  -0.11332
  35        4PZ         0.10960  -0.18983   0.14085  -0.24396  -0.39165
  36 4   Cl 1S          0.00627   0.01087   0.00762   0.01319  -0.00537
  37        2S         -0.04028  -0.06977  -0.04910  -0.08505   0.03496
  38        2PX        -0.03700  -0.04590  -0.04875  -0.02811   0.01712
  39        2PY        -0.00317  -0.03700   0.02818  -0.04875   0.00988
  40        2PZ        -0.01435  -0.02485  -0.01430  -0.02478   0.04071
  41        3S          0.01792   0.03104   0.02188   0.03789  -0.00065
  42        3PX         0.06890   0.09454   0.09675   0.04430  -0.02721
  43        3PY         0.01499   0.06890  -0.06742   0.09675  -0.01571
  44        3PZ         0.02977   0.05157   0.02831   0.04903  -0.07663
  45        4S          0.36688   0.63546   0.46705   0.80895  -0.26657
  46        4PX         0.36600   0.37132   0.45290   0.44895  -0.19628
  47        4PY        -0.05130   0.36600  -0.07402   0.45290  -0.11332
  48        4PZ         0.10960   0.18983   0.14085   0.24396  -0.39165
  49 5   N  1S         -0.00000   0.00000   0.00000   0.00000   0.07116
  50        2S          0.00000   0.00000  -0.00000   0.00000  -0.03511
  51        2PX         0.00000   0.19605   0.00000  -0.22604   0.00000
  52        2PY         0.19605   0.00000  -0.22604   0.00000   0.00000
  53        2PZ         0.00000   0.00000  -0.00000   0.00000   0.27488
  54        3S          0.00000   0.00000  -0.00000   0.00000  -0.70126
  55        3PX         0.00000   0.63128   0.00000  -0.75638   0.00000
  56        3PY         0.63128   0.00000  -0.75638   0.00000   0.00000
  57        3PZ         0.00000   0.00000   0.00000   0.00000   0.97062
  58 6   H  1S         -0.05827  -0.10093   0.01246   0.02158  -0.01790
  59        2S         -0.59289  -1.02692   0.39752   0.68853  -0.37629
  60 7   H  1S         -0.05827   0.10093   0.01246  -0.02158  -0.01790
  61        2S         -0.59289   1.02692   0.39752  -0.68853  -0.37629
  62 8   H  1S          0.11654   0.00000  -0.02492   0.00000  -0.01790
  63        2S          1.18578   0.00000  -0.79505   0.00000  -0.37629
                          41        42        43        44        45
                        (A1)--V   (E)--V    (E)--V    (A1)--V   (E)--V
     Eigenvalues --     0.65820   0.65965   0.65965   0.72143   0.78246
   1 1   B  1S         -0.02700   0.00000   0.00000   0.05700   0.00000
   2        2S          0.13092   0.00000  -0.00000  -0.58712   0.00000
   3        2PX         0.00000  -1.04401   0.00000   0.00000   0.00000
   4        2PY        -0.00000   0.00000  -1.04401  -0.00000   0.13654
   5        2PZ        -1.01481   0.00000   0.00000  -0.47753  -0.00000
   6        3S          0.35008   0.00000  -0.00000  -0.25184  -0.00000
   7        3PX         0.00000   1.75457   0.00000   0.00000   0.00000
   8        3PY         0.00000   0.00000   1.75457  -0.00000  -0.41820
   9        3PZ         1.33582   0.00000  -0.00000   1.07650   0.00000
  10 2   Cl 1S          0.01554   0.00000  -0.01617  -0.03214  -0.02909
  11        2S         -0.09457   0.00000   0.10160   0.19515   0.17713
  12        2PX         0.00000   0.08439   0.00000   0.00000   0.00000
  13        2PY         0.00319   0.00000   0.08064   0.04171   0.18541
  14        2PZ         0.06216   0.00000   0.01505   0.01162   0.02675
  15        3S          0.44253   0.00000  -0.37668  -0.93252  -0.80791
  16        3PX         0.00000  -0.26169   0.00000   0.00000   0.00000
  17        3PY        -0.03463   0.00000  -0.21342  -0.11400  -0.64701
  18        3PZ        -0.18652   0.00000  -0.06122  -0.03332  -0.09363
  19        4S         -0.36296   0.00000  -0.39619   1.11253   0.96867
  20        4PX         0.00000  -0.09741   0.00000   0.00000   0.00000
  21        4PY         0.05025   0.00000   0.36901  -0.15567   0.52451
  22        4PZ        -0.09380   0.00000  -0.07970  -0.09647   0.13520
  23 3   Cl 1S          0.01554  -0.01401   0.00809  -0.03214   0.01454
  24        2S         -0.09457   0.08798  -0.05080   0.19515  -0.08857
  25        2PX         0.00276   0.08158   0.00162   0.03612  -0.14957
  26        2PY        -0.00159   0.00162   0.08345  -0.02086  -0.07365
  27        2PZ         0.06216   0.01303  -0.00752   0.01162  -0.01337
  28        3S          0.44253  -0.32622   0.18834  -0.93252   0.40396
  29        3PX        -0.02999  -0.22549  -0.02090  -0.09873   0.51410
  30        3PY         0.01732  -0.02090  -0.24962   0.05700   0.24343
  31        3PZ        -0.18652  -0.05302   0.03061  -0.03332   0.04682
  32        4S         -0.36296  -0.34311   0.19809   1.11253  -0.48433
  33        4PX         0.04352   0.25240  -0.20196  -0.13481  -0.39588
  34        4PY        -0.02513  -0.20196   0.01920   0.07783  -0.16118
  35        4PZ        -0.09380  -0.06902   0.03985  -0.09647  -0.06760
  36 4   Cl 1S          0.01554   0.01401   0.00809  -0.03214   0.01454
  37        2S         -0.09457  -0.08798  -0.05080   0.19515  -0.08857
  38        2PX        -0.00276   0.08158  -0.00162  -0.03612   0.14957
  39        2PY        -0.00159  -0.00162   0.08345  -0.02086  -0.07365
  40        2PZ         0.06216  -0.01303  -0.00752   0.01162  -0.01337
  41        3S          0.44253   0.32622   0.18834  -0.93252   0.40396
  42        3PX         0.02999  -0.22549   0.02090   0.09873  -0.51410
  43        3PY         0.01732   0.02090  -0.24962   0.05700   0.24343
  44        3PZ        -0.18652   0.05302   0.03061  -0.03332   0.04682
  45        4S         -0.36296   0.34311   0.19809   1.11253  -0.48433
  46        4PX        -0.04352   0.25240   0.20196   0.13481   0.39588
  47        4PY        -0.02513   0.20196   0.01920   0.07783  -0.16118
  48        4PZ        -0.09380   0.06902   0.03985  -0.09647  -0.06760
  49 5   N  1S          0.00072   0.00000   0.00000  -0.02236   0.00000
  50        2S          0.05338   0.00000  -0.00000   0.04662  -0.00000
  51        2PX         0.00000   0.02079   0.00000   0.00000   0.00000
  52        2PY         0.00000   0.00000   0.02079   0.00000  -0.03422
  53        2PZ        -0.11588   0.00000   0.00000   0.04979   0.00000
  54        3S         -0.34912   0.00000   0.00000   0.00932   0.00000
  55        3PX         0.00000   0.02105   0.00000   0.00000   0.00000
  56        3PY         0.00000   0.00000   0.02105   0.00000   0.04262
  57        3PZ         0.01644   0.00000  -0.00000   0.01005  -0.00000
  58 6   H  1S          0.09760  -0.11005  -0.06354   0.01895   0.00247
  59        2S         -0.19380  -0.23991  -0.13851  -0.26478   0.04013
  60 7   H  1S          0.09760   0.11005  -0.06354   0.01895   0.00247
  61        2S         -0.19380   0.23991  -0.13851  -0.26478   0.04013
  62 8   H  1S          0.09760   0.00000   0.12708   0.01895  -0.00494
  63        2S         -0.19380   0.00000   0.27702  -0.26478  -0.08025
                          46        47        48        49        50
                        (E)--V    (E)--V    (E)--V    (A1)--V   (A1)--V
     Eigenvalues --     0.78246   0.79924   0.79924   0.80375   0.84611
   1 1   B  1S          0.00000  -0.00000   0.00000  -0.00335  -0.01272
   2        2S          0.00000  -0.00000   0.00000  -0.01214  -0.06528
   3        2PX         0.13654   0.00000   0.20535   0.00000   0.00000
   4        2PY         0.00000   0.20535   0.00000  -0.00000  -0.00000
   5        2PZ         0.00000   0.00000   0.00000   0.17977  -0.27783
   6        3S          0.00000   0.00000   0.00000   1.85893   0.85219
   7        3PX        -0.41820   0.00000  -0.65588   0.00000   0.00000
   8        3PY         0.00000  -0.65588   0.00000   0.00000   0.00000
   9        3PZ         0.00000  -0.00000   0.00000  -0.79203   1.15623
  10 2   Cl 1S          0.00000  -0.01739   0.00000   0.00436   0.00291
  11        2S          0.00000   0.10522   0.00000  -0.02281  -0.01674
  12        2PX        -0.16001   0.00000   0.12074   0.00000   0.00000
  13        2PY         0.00000   0.05059   0.00000   0.20072   0.01075
  14        2PZ         0.00000  -0.21776   0.00000   0.00650  -0.18826
  15        3S          0.00000  -0.49639   0.00000   0.26521   0.13280
  16        3PX         0.54024   0.00000  -0.43049   0.00000   0.00000
  17        3PY         0.00000  -0.18770   0.00000  -0.71698  -0.04656
  18        3PZ         0.00000   0.75660   0.00000  -0.02518   0.68470
  19        4S          0.00000   0.76503   0.00000  -0.76877  -0.19202
  20        4PX        -0.38974   0.00000   0.53598   0.00000   0.00000
  21        4PY         0.00000   0.06563   0.00000   1.11607   0.09494
  22        4PZ         0.00000  -0.65042   0.00000   0.03374  -0.92545
  23 3   Cl 1S         -0.02519   0.00870  -0.01506   0.00436   0.00291
  24        2S          0.15340  -0.05261   0.09112  -0.02281  -0.01674
  25        2PX         0.09905   0.03038   0.06813   0.17383   0.00931
  26        2PY        -0.14957   0.10320   0.03038  -0.10036  -0.00538
  27        2PZ         0.02317   0.10888  -0.18859   0.00650  -0.18826
  28        3S         -0.69967   0.24820  -0.42989   0.26521   0.13280
  29        3PX        -0.35020  -0.10513  -0.24839  -0.62092  -0.04032
  30        3PY         0.51410  -0.36979  -0.10513   0.35849   0.02328
  31        3PZ        -0.08109  -0.37830   0.65523  -0.02518   0.68470
  32        4S          0.83889  -0.38251   0.66254  -0.76877  -0.19202
  33        4PX         0.29595   0.20367   0.18322   0.96655   0.08222
  34        4PY        -0.39588   0.41839   0.20367  -0.55804  -0.04747
  35        4PZ         0.11708   0.32521  -0.56328   0.03374  -0.92545
  36 4   Cl 1S          0.02519   0.00870   0.01506   0.00436   0.00291
  37        2S         -0.15340  -0.05261  -0.09112  -0.02281  -0.01674
  38        2PX         0.09905  -0.03038   0.06813  -0.17383  -0.00931
  39        2PY         0.14957   0.10320  -0.03038  -0.10036  -0.00538
  40        2PZ        -0.02317   0.10888   0.18859   0.00650  -0.18826
  41        3S          0.69967   0.24820   0.42989   0.26521   0.13280
  42        3PX        -0.35020   0.10513  -0.24839   0.62092   0.04032
  43        3PY        -0.51410  -0.36979   0.10513   0.35849   0.02328
  44        3PZ         0.08109  -0.37830  -0.65523  -0.02518   0.68470
  45        4S         -0.83889  -0.38251  -0.66254  -0.76877  -0.19202
  46        4PX         0.29595  -0.20367   0.18322  -0.96655  -0.08222
  47        4PY         0.39588   0.41839  -0.20367  -0.55804  -0.04747
  48        4PZ        -0.11708   0.32521   0.56328   0.03374  -0.92545
  49 5   N  1S          0.00000   0.00000   0.00000   0.00022   0.03168
  50        2S          0.00000   0.00000   0.00000   0.02888   0.02126
  51        2PX        -0.03422   0.00000   0.09598   0.00000   0.00000
  52        2PY         0.00000   0.09598   0.00000  -0.00000   0.00000
  53        2PZ         0.00000  -0.00000   0.00000  -0.10334  -0.14030
  54        3S          0.00000  -0.00000   0.00000  -0.07958  -0.59318
  55        3PX         0.04262   0.00000  -0.11138   0.00000   0.00000
  56        3PY         0.00000  -0.11138   0.00000   0.00000  -0.00000
  57        3PZ         0.00000   0.00000   0.00000   0.09562   0.16927
  58 6   H  1S          0.00427   0.13378   0.23171  -0.00990   0.13712
  59        2S          0.06950  -0.04594  -0.07957   0.07724  -0.09613
  60 7   H  1S         -0.00427   0.13378  -0.23171  -0.00990   0.13712
  61        2S         -0.06950  -0.04594   0.07957   0.07724  -0.09613
  62 8   H  1S          0.00000  -0.26756   0.00000  -0.00990   0.13712
  63        2S          0.00000   0.09188   0.00000   0.07724  -0.09613
                          51        52        53        54        55
                        (E)--V    (E)--V    (A2)--V   (E)--V    (E)--V
     Eigenvalues --     0.85792   0.85792   0.92629   1.03740   1.03740
   1 1   B  1S          0.00000   0.00000   0.00000   0.00000   0.00000
   2        2S         -0.00000   0.00000   0.00000   0.00000   0.00000
   3        2PX         0.00000  -0.44678  -0.00000  -0.03600   0.00000
   4        2PY        -0.44678   0.00000   0.00000   0.00000  -0.03600
   5        2PZ         0.00000   0.00000   0.00000   0.00000   0.00000
   6        3S          0.00000   0.00000   0.00000   0.00000  -0.00000
   7        3PX         0.00000   2.45116  -0.00000  -1.55450   0.00000
   8        3PY         2.45116   0.00000   0.00000   0.00000  -1.55450
   9        3PZ        -0.00000   0.00000   0.00000   0.00000  -0.00000
  10 2   Cl 1S          0.01955   0.00000   0.00000   0.00000  -0.03661
  11        2S         -0.11340   0.00000   0.00000   0.00000   0.21874
  12        2PX         0.00000  -0.17301   0.20246  -0.06634   0.00000
  13        2PY        -0.01430   0.00000   0.00000   0.00000  -0.19865
  14        2PZ        -0.15967   0.00000   0.00000   0.00000  -0.04035
  15        3S          0.75378   0.00000   0.00000   0.00000  -1.32842
  16        3PX         0.00000   0.64495  -0.73531   0.23206   0.00000
  17        3PY         0.05640   0.00000   0.00000   0.00000   0.77125
  18        3PZ         0.57500   0.00000   0.00000   0.00000   0.13734
  19        4S         -1.93429   0.00000   0.00000   0.00000   2.24138
  20        4PX         0.00000  -1.09059   0.81908  -0.03506   0.00000
  21        4PY         0.57258   0.00000   0.00000   0.00000  -1.50559
  22        4PZ        -0.88637   0.00000   0.00000   0.00000   0.06326
  23 3   Cl 1S         -0.00978   0.01693  -0.00000  -0.03171   0.01831
  24        2S          0.05670  -0.09821   0.00000   0.18943  -0.10937
  25        2PX        -0.06873  -0.05398  -0.10123  -0.16558   0.05729
  26        2PY        -0.13333  -0.06873  -0.17533   0.05729  -0.09942
  27        2PZ         0.07984  -0.13828  -0.00000  -0.03495   0.02018
  28        3S         -0.37689   0.65279  -0.00000  -1.15044   0.66421
  29        3PX         0.25485   0.20354   0.36765   0.63645  -0.23348
  30        3PY         0.49781   0.25485   0.63680  -0.23348   0.36686
  31        3PZ        -0.28750   0.49796   0.00000   0.11894  -0.06867
  32        4S          0.96714  -1.67514   0.00000   1.94109  -1.12069
  33        4PX        -0.72017   0.15679  -0.40954  -1.13796   0.63676
  34        4PY        -0.67480  -0.72017  -0.70934   0.63676  -0.40269
  35        4PZ         0.44319  -0.76762  -0.00000   0.05478  -0.03163
  36 4   Cl 1S         -0.00978  -0.01693   0.00000   0.03171   0.01831
  37        2S          0.05670   0.09821  -0.00000  -0.18943  -0.10937
  38        2PX         0.06873  -0.05398  -0.10123  -0.16558  -0.05729
  39        2PY        -0.13333   0.06873   0.17533  -0.05729  -0.09942
  40        2PZ         0.07984   0.13828   0.00000   0.03495   0.02018
  41        3S         -0.37689  -0.65279   0.00000   1.15044   0.66421
  42        3PX        -0.25485   0.20354   0.36765   0.63645   0.23348
  43        3PY         0.49781  -0.25485  -0.63680   0.23348   0.36686
  44        3PZ        -0.28750  -0.49796  -0.00000  -0.11894  -0.06867
  45        4S          0.96714   1.67514  -0.00000  -1.94109  -1.12069
  46        4PX         0.72017   0.15679  -0.40954  -1.13796  -0.63676
  47        4PY        -0.67480   0.72017   0.70934  -0.63676  -0.40269
  48        4PZ         0.44319   0.76762   0.00000  -0.05478  -0.03163
  49 5   N  1S         -0.00000   0.00000   0.00000   0.00000   0.00000
  50        2S          0.00000   0.00000   0.00000   0.00000  -0.00000
  51        2PX         0.00000   0.03764  -0.00000  -0.13396   0.00000
  52        2PY         0.03764   0.00000   0.00000   0.00000  -0.13396
  53        2PZ        -0.00000   0.00000   0.00000   0.00000  -0.00000
  54        3S          0.00000   0.00000   0.00000   0.00000   0.00000
  55        3PX         0.00000  -0.31324   0.00000   0.35698   0.00000
  56        3PY        -0.31324   0.00000   0.00000   0.00000   0.35698
  57        3PZ         0.00000   0.00000   0.00000   0.00000  -0.00000
  58 6   H  1S          0.08106   0.14040  -0.00000  -0.25975  -0.14997
  59        2S         -0.11595  -0.20083   0.00000   0.28395   0.16394
  60 7   H  1S          0.08106  -0.14040   0.00000   0.25975  -0.14997
  61        2S         -0.11595   0.20083  -0.00000  -0.28395   0.16394
  62 8   H  1S         -0.16211   0.00000   0.00000   0.00000   0.29994
  63        2S          0.23190   0.00000   0.00000   0.00000  -0.32788
                          56        57        58        59        60
                        (A1)--V   (E)--V    (E)--V    (A1)--V   (E)--V
     Eigenvalues --     1.18977   1.19579   1.19579   1.39988   1.48096
   1 1   B  1S         -0.03860   0.00000  -0.00000  -0.11734   0.00000
   2        2S         -0.42947   0.00000  -0.00000  -1.86400   0.00000
   3        2PX         0.00000  -0.17905   0.00000   0.00000   0.00000
   4        2PY        -0.00000   0.00000   0.17905   0.00000   0.02695
   5        2PZ         0.17747   0.00000   0.00000  -0.09955   0.00000
   6        3S          0.92463   0.00000   0.00000   5.01811  -0.00000
   7        3PX         0.00000   0.58314   0.00000   0.00000   0.00000
   8        3PY         0.00000   0.00000  -0.58314  -0.00000  -0.43049
   9        3PZ        -0.47112   0.00000  -0.00000  -0.29844   0.00000
  10 2   Cl 1S          0.00130   0.00000   0.01086   0.01432   0.00827
  11        2S         -0.00618   0.00000  -0.06761  -0.07888  -0.05190
  12        2PX         0.00000  -0.01169   0.00000   0.00000   0.00000
  13        2PY         0.00191   0.00000   0.06171   0.00166   0.04407
  14        2PZ         0.02497   0.00000  -0.07840  -0.01154  -0.04575
  15        3S          0.09044   0.00000   0.32343   0.75359   0.25543
  16        3PX         0.00000   0.05364   0.00000   0.00000   0.00000
  17        3PY        -0.00739   0.00000  -0.24511  -0.02596  -0.18056
  18        3PZ        -0.09945   0.00000   0.29898   0.05170   0.18641
  19        4S         -0.33926   0.00000  -0.10237  -1.91460  -0.09204
  20        4PX         0.00000  -0.17953   0.00000   0.00000   0.00000
  21        4PY         0.19837   0.00000   0.20683   0.91664   0.15701
  22        4PZ         0.15249   0.00000  -0.31838  -0.28114  -0.22116
  23 3   Cl 1S          0.00130  -0.00941  -0.00543   0.01432  -0.00414
  24        2S         -0.00618   0.05855   0.03381  -0.07888   0.02595
  25        2PX         0.00165  -0.04920  -0.02166   0.00143  -0.00939
  26        2PY        -0.00095   0.02166   0.02420  -0.00083   0.02781
  27        2PZ         0.02497   0.06790   0.03920  -0.01154   0.02288
  28        3S          0.09044  -0.28010  -0.16171   0.75359  -0.12772
  29        3PX        -0.00640   0.19724   0.08291  -0.02248   0.03621
  30        3PY         0.00369  -0.08291  -0.10150   0.01298  -0.11784
  31        3PZ        -0.09945  -0.25893  -0.14949   0.05170  -0.09321
  32        4S         -0.33926   0.08866   0.05119  -1.91460   0.04602
  33        4PX         0.17179  -0.20001  -0.01182   0.79383   0.02920
  34        4PY        -0.09918   0.01182   0.18636  -0.45832   0.20758
  35        4PZ         0.15249   0.27572   0.15919  -0.28114   0.11058
  36 4   Cl 1S          0.00130   0.00941  -0.00543   0.01432  -0.00414
  37        2S         -0.00618  -0.05855   0.03381  -0.07888   0.02595
  38        2PX        -0.00165  -0.04920   0.02166  -0.00143   0.00939
  39        2PY        -0.00095  -0.02166   0.02420  -0.00083   0.02781
  40        2PZ         0.02497  -0.06790   0.03920  -0.01154   0.02288
  41        3S          0.09044   0.28010  -0.16171   0.75359  -0.12772
  42        3PX         0.00640   0.19724  -0.08291   0.02248  -0.03621
  43        3PY         0.00369   0.08291  -0.10150   0.01298  -0.11784
  44        3PZ        -0.09945   0.25893  -0.14949   0.05170  -0.09321
  45        4S         -0.33926  -0.08866   0.05119  -1.91460   0.04602
  46        4PX        -0.17179  -0.20001   0.01182  -0.79383  -0.02920
  47        4PY        -0.09918  -0.01182   0.18636  -0.45832   0.20758
  48        4PZ         0.15249  -0.27572   0.15919  -0.28114   0.11058
  49 5   N  1S          0.09949   0.00000   0.00000  -0.00375  -0.00000
  50        2S         -0.17702   0.00000  -0.00000   0.06814   0.00000
  51        2PX         0.00000  -0.27192   0.00000   0.00000   0.00000
  52        2PY        -0.00000   0.00000   0.27192  -0.00000  -1.07628
  53        2PZ         0.25135   0.00000   0.00000   0.52917  -0.00000
  54        3S         -0.14590   0.00000  -0.00000  -0.64547   0.00000
  55        3PX         0.00000  -0.30185   0.00000   0.00000   0.00000
  56        3PY        -0.00000   0.00000   0.30185   0.00000   1.69195
  57        3PZ        -0.52190   0.00000  -0.00000  -0.17724   0.00000
  58 6   H  1S          0.74040   0.90761  -0.52401  -0.21479  -0.08180
  59        2S         -0.30596  -0.82812   0.47812   0.05834  -0.33154
  60 7   H  1S          0.74040  -0.90761  -0.52401  -0.21479  -0.08180
  61        2S         -0.30596   0.82812   0.47812   0.05834  -0.33154
  62 8   H  1S          0.74040   0.00000   1.04801  -0.21479   0.16360
  63        2S         -0.30596   0.00000  -0.95624   0.05834   0.66307
                          61        62        63
                        (E)--V    (A1)--V   (A1)--V
     Eigenvalues --     1.48096   1.58267   2.74047
   1 1   B  1S          0.00000  -0.11055   0.09156
   2        2S          0.00000  -1.34038   0.45118
   3        2PX         0.02695   0.00000   0.00000
   4        2PY         0.00000   0.00000  -0.00000
   5        2PZ         0.00000   0.21889  -0.30820
   6        3S          0.00000   4.44813  -2.43250
   7        3PX        -0.43049   0.00000   0.00000
   8        3PY         0.00000  -0.00000   0.00000
   9        3PZ         0.00000   0.49025  -0.48915
  10 2   Cl 1S          0.00000   0.00297  -0.00090
  11        2S          0.00000  -0.01083   0.00141
  12        2PX         0.02238   0.00000   0.00000
  13        2PY         0.00000  -0.02471   0.01482
  14        2PZ         0.00000   0.02392  -0.00796
  15        3S          0.00000   0.32025  -0.17256
  16        3PX        -0.09693   0.00000   0.00000
  17        3PY         0.00000   0.08808  -0.05028
  18        3PZ         0.00000  -0.08968   0.02234
  19        4S          0.00000  -1.20857   0.65307
  20        4PX         0.22444   0.00000   0.00000
  21        4PY         0.00000   0.55274  -0.29416
  22        4PZ         0.00000  -0.13679   0.16920
  23 3   Cl 1S          0.00716   0.00297  -0.00090
  24        2S         -0.04494  -0.01083   0.00141
  25        2PX         0.03865  -0.02140   0.01284
  26        2PY        -0.00939   0.01236  -0.00741
  27        2PZ        -0.03962   0.02392  -0.00796
  28        3S          0.22121   0.32025  -0.17256
  29        3PX        -0.15965   0.07628  -0.04354
  30        3PY         0.03621  -0.04404   0.02514
  31        3PZ         0.16144  -0.08968   0.02234
  32        4S         -0.07971  -1.20857   0.65307
  33        4PX         0.17386   0.47869  -0.25475
  34        4PY         0.02920  -0.27637   0.14708
  35        4PZ        -0.19153  -0.13679   0.16920
  36 4   Cl 1S         -0.00716   0.00297  -0.00090
  37        2S          0.04494  -0.01083   0.00141
  38        2PX         0.03865   0.02140  -0.01284
  39        2PY         0.00939   0.01236  -0.00741
  40        2PZ         0.03962   0.02392  -0.00796
  41        3S         -0.22121   0.32025  -0.17256
  42        3PX        -0.15965  -0.07628   0.04354
  43        3PY        -0.03621  -0.04404   0.02514
  44        3PZ        -0.16144  -0.08968   0.02234
  45        4S          0.07971  -1.20857   0.65307
  46        4PX         0.17386  -0.47869   0.25475
  47        4PY        -0.02920  -0.27637   0.14708
  48        4PZ         0.19153  -0.13679   0.16920
  49 5   N  1S          0.00000   0.04118  -0.00948
  50        2S          0.00000  -0.28463  -1.88807
  51        2PX        -1.07628   0.00000   0.00000
  52        2PY         0.00000  -0.00000  -0.00000
  53        2PZ         0.00000  -0.92340   0.19245
  54        3S          0.00000  -0.00390   3.13331
  55        3PX         1.69195   0.00000   0.00000
  56        3PY         0.00000   0.00000   0.00000
  57        3PZ         0.00000   1.83711  -0.53839
  58 6   H  1S         -0.14168   0.05625  -0.29011
  59        2S         -0.57424  -0.64855  -0.15316
  60 7   H  1S          0.14168   0.05625  -0.29011
  61        2S          0.57424  -0.64855  -0.15316
  62 8   H  1S          0.00000   0.05625  -0.29011
  63        2S          0.00000  -0.64855  -0.15316
     Density Matrix:
                           1         2         3         4         5
   1 1   B  1S          2.02778
   2        2S          0.12347   0.10191
   3        2PX         0.00000   0.00000   0.19769
   4        2PY        -0.00000   0.00000   0.00000   0.19769
   5        2PZ         0.01258  -0.01086   0.00000  -0.00000   0.13279
   6        3S         -0.36754   0.18367   0.00000  -0.00000  -0.10682
   7        3PX         0.00000  -0.00000   0.10182  -0.00000   0.00000
   8        3PY         0.00000   0.00000  -0.00000   0.10182   0.00000
   9        3PZ        -0.00034  -0.00365  -0.00000   0.00000   0.03711
  10 2   Cl 1S         -0.00090   0.00867   0.00000   0.00780  -0.00226
  11        2S          0.00708  -0.02436  -0.00000  -0.04029   0.01090
  12        2PX        -0.00000   0.00000  -0.01467   0.00000  -0.00000
  13        2PY        -0.03896   0.03978   0.00000   0.12298  -0.04111
  14        2PZ         0.00950  -0.00619  -0.00000  -0.03327  -0.00768
  15        3S         -0.02921   0.01814   0.00000   0.04921  -0.01896
  16        3PX         0.00000  -0.00000   0.02775  -0.00000   0.00000
  17        3PY         0.08092  -0.08643  -0.00000  -0.25858   0.08705
  18        3PZ        -0.01917   0.01541   0.00000   0.06916   0.01251
  19        4S          0.08754  -0.03692  -0.00000  -0.01152   0.02675
  20        4PX         0.00000  -0.00000  -0.00608  -0.00000   0.00000
  21        4PY         0.00792  -0.03484  -0.00000  -0.18481   0.04546
  22        4PZ        -0.00108   0.00398   0.00000   0.04206   0.00878
  23 3   Cl 1S         -0.00090   0.00867   0.00676  -0.00390  -0.00226
  24        2S          0.00708  -0.02436  -0.03489   0.02014   0.01090
  25        2PX        -0.03374   0.03445   0.08856  -0.05960  -0.03560
  26        2PY         0.01948  -0.01989  -0.05960   0.01974   0.02055
  27        2PZ         0.00950  -0.00619  -0.02881   0.01663  -0.00768
  28        3S         -0.02921   0.01814   0.04262  -0.02460  -0.01896
  29        3PX         0.07008  -0.07485  -0.18700   0.12398   0.07539
  30        3PY        -0.04046   0.04321   0.12398  -0.04383  -0.04353
  31        3PZ        -0.01917   0.01541   0.05990  -0.03458   0.01251
  32        4S          0.08754  -0.03692  -0.00998   0.00576   0.02675
  33        4PX         0.00686  -0.03017  -0.14013   0.07739   0.03937
  34        4PY        -0.00396   0.01742   0.07739  -0.05077  -0.02273
  35        4PZ        -0.00108   0.00398   0.03643  -0.02103   0.00878
  36 4   Cl 1S         -0.00090   0.00867  -0.00676  -0.00390  -0.00226
  37        2S          0.00708  -0.02436   0.03489   0.02014   0.01090
  38        2PX         0.03374  -0.03445   0.08856   0.05960   0.03560
  39        2PY         0.01948  -0.01989   0.05960   0.01974   0.02055
  40        2PZ         0.00950  -0.00619   0.02881   0.01663  -0.00768
  41        3S         -0.02921   0.01814  -0.04262  -0.02460  -0.01896
  42        3PX        -0.07008   0.07485  -0.18700  -0.12398  -0.07539
  43        3PY        -0.04046   0.04321  -0.12398  -0.04383  -0.04353
  44        3PZ        -0.01917   0.01541  -0.05990  -0.03458   0.01251
  45        4S          0.08754  -0.03692   0.00998   0.00576   0.02675
  46        4PX        -0.00686   0.03017  -0.14013  -0.07739  -0.03937
  47        4PY        -0.00396   0.01742  -0.07739  -0.05077  -0.02273
  48        4PZ        -0.00108   0.00398  -0.03643  -0.02103   0.00878
  49 5   N  1S          0.00667  -0.02031   0.00000  -0.00000  -0.03011
  50        2S         -0.00818   0.01318  -0.00000   0.00000   0.02896
  51        2PX        -0.00000  -0.00000   0.00426   0.00000   0.00000
  52        2PY         0.00000  -0.00000  -0.00000   0.00426   0.00000
  53        2PZ         0.05824  -0.06265  -0.00000   0.00000  -0.17446
  54        3S         -0.00085   0.02842  -0.00000   0.00000   0.15352
  55        3PX         0.00000   0.00000  -0.00245  -0.00000   0.00000
  56        3PY        -0.00000  -0.00000  -0.00000  -0.00245  -0.00000
  57        3PZ         0.02710  -0.04771  -0.00000   0.00000  -0.22094
  58 6   H  1S          0.00682  -0.00547  -0.00371  -0.00214  -0.01895
  59        2S          0.02544  -0.01496  -0.02128  -0.01229  -0.01714
  60 7   H  1S          0.00682  -0.00547   0.00371  -0.00214  -0.01895
  61        2S          0.02544  -0.01496   0.02128  -0.01229  -0.01714
  62 8   H  1S          0.00682  -0.00547   0.00000   0.00428  -0.01895
  63        2S          0.02544  -0.01496   0.00000   0.02457  -0.01714
                           6         7         8         9        10
   6        3S          0.64548
   7        3PX         0.00000   0.12450
   8        3PY        -0.00000   0.00000   0.12450
   9        3PZ        -0.01996  -0.00000   0.00000   0.05204
  10 2   Cl 1S         -0.04259  -0.00000  -0.03225   0.00671   2.14405
  11        2S          0.11691   0.00000   0.09519  -0.02194  -0.57287
  12        2PX         0.00000  -0.06306   0.00000  -0.00000  -0.00000
  13        2PY         0.12056   0.00000   0.03531  -0.00647  -0.00447
  14        2PZ        -0.03054  -0.00000  -0.02741  -0.03390   0.00161
  15        3S         -0.01609  -0.00000  -0.03822   0.01080  -0.03387
  16        3PX        -0.00000   0.17647  -0.00000   0.00000   0.00000
  17        3PY        -0.28496  -0.00000  -0.10905   0.03426   0.01230
  18        3PZ         0.06518   0.00000   0.07276   0.09610  -0.00440
  19        4S         -0.22711  -0.00000  -0.12753   0.03117   0.17389
  20        4PX        -0.00000   0.12397  -0.00000   0.00000  -0.00000
  21        4PY        -0.11027  -0.00000  -0.04452   0.01620  -0.02143
  22        4PZ         0.02644   0.00000   0.04226   0.07534   0.00627
  23 3   Cl 1S         -0.04259  -0.02793   0.01612   0.00671  -0.00002
  24        2S          0.11691   0.08244  -0.04760  -0.02194   0.00017
  25        2PX         0.10441   0.01072  -0.04260  -0.00560  -0.00022
  26        2PY        -0.06028  -0.04260  -0.03847   0.00323   0.00149
  27        2PZ        -0.03054  -0.02374   0.01371  -0.03390  -0.00038
  28        3S         -0.01609  -0.03310   0.01911   0.01080   0.00090
  29        3PX        -0.24678  -0.03767   0.12363   0.02967  -0.00002
  30        3PY         0.14248   0.12363   0.10509  -0.01713  -0.00290
  31        3PZ         0.06518   0.06301  -0.03638   0.09610   0.00095
  32        4S         -0.22711  -0.11044   0.06376   0.03117  -0.00146
  33        4PX        -0.09549  -0.00239   0.07296   0.01403   0.00218
  34        4PY         0.05513   0.07296   0.08185  -0.00810  -0.00069
  35        4PZ         0.02644   0.03660  -0.02113   0.07534  -0.00029
  36 4   Cl 1S         -0.04259   0.02793   0.01612   0.00671  -0.00002
  37        2S          0.11691  -0.08244  -0.04760  -0.02194   0.00017
  38        2PX        -0.10441   0.01072   0.04260   0.00560   0.00022
  39        2PY        -0.06028   0.04260  -0.03847   0.00323   0.00149
  40        2PZ        -0.03054   0.02374   0.01371  -0.03390  -0.00038
  41        3S         -0.01609   0.03310   0.01911   0.01080   0.00090
  42        3PX         0.24678  -0.03767  -0.12363  -0.02967   0.00002
  43        3PY         0.14248  -0.12363   0.10509  -0.01713  -0.00290
  44        3PZ         0.06518  -0.06301  -0.03638   0.09610   0.00095
  45        4S         -0.22711   0.11044   0.06376   0.03117  -0.00146
  46        4PX         0.09549  -0.00239  -0.07296  -0.01403  -0.00218
  47        4PY         0.05513  -0.07296   0.08185  -0.00810  -0.00069
  48        4PZ         0.02644  -0.03660  -0.02113   0.07534  -0.00029
  49 5   N  1S          0.08615   0.00000   0.00000   0.03066   0.00056
  50        2S         -0.01713   0.00000   0.00000  -0.00952  -0.00115
  51        2PX         0.00000  -0.01480   0.00000   0.00000  -0.00000
[...]
  47        4PY        -0.00000   0.00000  -0.00000   0.00000   0.00008
  48        4PZ         0.00000   0.00000   0.00000   0.00000   0.00000
  49 5   N  1S          0.00000   0.00000   0.00000   0.00000   0.00000
  50        2S          0.00000   0.00000  -0.00000  -0.00000  -0.00000
  51        2PX         0.00000   0.00000  -0.00000  -0.00000  -0.00000
  52        2PY        -0.00000   0.00000  -0.00000  -0.00000   0.00000
  53        2PZ         0.00000   0.00000  -0.00000  -0.00001  -0.00000
  54        3S          0.00000   0.00001  -0.00019  -0.00041  -0.00014
  55        3PX         0.00000   0.00001  -0.00015  -0.00001  -0.00024
  56        3PY        -0.00000   0.00000  -0.00005  -0.00024   0.00001
  57        3PZ         0.00001   0.00003  -0.00035  -0.00124  -0.00041
  58 6   H  1S          0.00000   0.00000  -0.00000  -0.00000  -0.00000
  59        2S          0.00000   0.00001   0.00000  -0.00013  -0.00017
  60 7   H  1S         -0.00000  -0.00000   0.00000   0.00000   0.00000
  61        2S         -0.00000  -0.00000  -0.00000   0.00004   0.00001
  62 8   H  1S          0.00000   0.00000  -0.00000  -0.00000   0.00000
  63        2S         -0.00000   0.00001   0.00000  -0.00031   0.00000
                          31        32        33        34        35
  31        3PZ         0.72497
  32        4S          0.00000   0.75561
  33        4PX         0.00000   0.00000   0.34544
  34        4PY         0.00000   0.00000  -0.00000   0.45520
  35        4PZ         0.37186   0.00000   0.00000   0.00000   0.51494
  36 4   Cl 1S          0.00000  -0.00000  -0.00000   0.00000   0.00000
  37        2S          0.00000   0.00001   0.00007   0.00000   0.00000
  38        2PX         0.00000   0.00004   0.00019  -0.00000   0.00000
  39        2PY         0.00000   0.00000   0.00000  -0.00000   0.00000
  40        2PZ         0.00000   0.00000   0.00000   0.00000   0.00000
  41        3S          0.00000  -0.00013  -0.00043  -0.00000   0.00000
  42        3PX         0.00000  -0.00204  -0.00846   0.00000   0.00000
  43        3PY         0.00000  -0.00000  -0.00000   0.00008   0.00000
  44        3PZ        -0.00000   0.00000   0.00000   0.00000  -0.00018
  45        4S          0.00000   0.00064  -0.01013   0.00000   0.00000
  46        4PX         0.00000  -0.01013  -0.04542   0.00000   0.00000
  47        4PY         0.00000   0.00000   0.00000   0.00121   0.00000
  48        4PZ        -0.00018   0.00000   0.00000   0.00000  -0.00196
  49 5   N  1S          0.00000  -0.00002  -0.00001  -0.00000   0.00004
  50        2S         -0.00000   0.00001  -0.00005  -0.00002  -0.00022
  51        2PX        -0.00001  -0.00003  -0.00007  -0.00006  -0.00045
  52        2PY        -0.00000  -0.00001  -0.00006  -0.00000  -0.00015
  53        2PZ        -0.00001  -0.00021  -0.00054  -0.00018  -0.00095
  54        3S         -0.00153   0.00130  -0.00201  -0.00067  -0.01226
  55        3PX        -0.00024   0.00015  -0.00005  -0.00102  -0.00146
  56        3PY        -0.00008   0.00005  -0.00102  -0.00040  -0.00049
  57        3PZ        -0.00204  -0.00066  -0.00553  -0.00184  -0.00999
  58 6   H  1S         -0.00000   0.00004  -0.00002   0.00001  -0.00021
  59        2S         -0.00021   0.00100  -0.00061  -0.00034  -0.00087
  60 7   H  1S          0.00000   0.00001   0.00003   0.00001   0.00007
  61        2S          0.00006  -0.00002   0.00066   0.00022   0.00090
  62 8   H  1S         -0.00000   0.00004  -0.00001   0.00000  -0.00021
  63        2S         -0.00021   0.00100  -0.00098   0.00003  -0.00087
                          36        37        38        39        40
  36 4   Cl 1S          2.14405
  37        2S         -0.14862   2.38655
  38        2PX         0.00000   0.00000   2.02644
  39        2PY         0.00000   0.00000  -0.00000   2.04447
  40        2PZ         0.00000   0.00000   0.00000   0.00000   2.04983
  41        3S         -0.00200  -0.11697   0.00000   0.00000   0.00000
  42        3PX         0.00000   0.00000  -0.03934   0.00000   0.00000
  43        3PY         0.00000   0.00000   0.00000  -0.05225   0.00000
  44        3PZ         0.00000   0.00000   0.00000   0.00000  -0.05572
  45        4S          0.00590  -0.17716   0.00000   0.00000   0.00000
  46        4PX         0.00000   0.00000  -0.01849   0.00000   0.00000
  47        4PY         0.00000   0.00000  -0.00000  -0.02162   0.00000
  48        4PZ         0.00000   0.00000   0.00000   0.00000  -0.02304
  49 5   N  1S          0.00000   0.00000   0.00000   0.00000   0.00000
  50        2S         -0.00000   0.00000   0.00000   0.00000   0.00000
  51        2PX        -0.00000   0.00000   0.00000   0.00000   0.00000
  52        2PY        -0.00000   0.00000   0.00000  -0.00000   0.00000
  53        2PZ        -0.00000   0.00000   0.00000   0.00000   0.00000
  54        3S          0.00000   0.00000   0.00000   0.00000   0.00001
  55        3PX        -0.00000   0.00001   0.00000   0.00000   0.00001
  56        3PY        -0.00000   0.00000   0.00000  -0.00000   0.00000
  57        3PZ        -0.00000   0.00001   0.00002   0.00001   0.00003
  58 6   H  1S          0.00000  -0.00000  -0.00000  -0.00000  -0.00000
  59        2S         -0.00000   0.00000  -0.00000  -0.00000  -0.00000
  60 7   H  1S          0.00000   0.00000   0.00000   0.00000   0.00000
  61        2S          0.00000  -0.00000   0.00000   0.00000   0.00001
  62 8   H  1S          0.00000   0.00000   0.00000   0.00000   0.00000
  63        2S          0.00000  -0.00000   0.00001  -0.00000   0.00001
                          41        42        43        44        45
  41        3S          0.72851
  42        3PX         0.00000   0.62180
  43        3PY         0.00000   0.00000   0.70528
  44        3PZ         0.00000   0.00000   0.00000   0.72497
  45        4S          0.51585   0.00000   0.00000   0.00000   0.75561
  46        4PX         0.00000   0.27059   0.00000   0.00000   0.00000
  47        4PY         0.00000   0.00000   0.34089   0.00000   0.00000
  48        4PZ         0.00000   0.00000   0.00000   0.37186   0.00000
  49 5   N  1S          0.00000   0.00000   0.00000   0.00000  -0.00002
  50        2S         -0.00000  -0.00000  -0.00000  -0.00000   0.00001
  51        2PX        -0.00000  -0.00000  -0.00000  -0.00001  -0.00003
  52        2PY        -0.00000  -0.00000   0.00000  -0.00000  -0.00001
  53        2PZ        -0.00000  -0.00001  -0.00000  -0.00001  -0.00021
  54        3S         -0.00019  -0.00041  -0.00014  -0.00153   0.00130
  55        3PX        -0.00015  -0.00001  -0.00024  -0.00024   0.00015
  56        3PY        -0.00005  -0.00024   0.00001  -0.00008   0.00005
  57        3PZ        -0.00035  -0.00124  -0.00041  -0.00204  -0.00066
  58 6   H  1S          0.00000   0.00000   0.00000   0.00000   0.00001
  59        2S         -0.00000   0.00004   0.00001   0.00006  -0.00002
  60 7   H  1S         -0.00000  -0.00000  -0.00000  -0.00000   0.00004
  61        2S          0.00000  -0.00013  -0.00017  -0.00021   0.00100
  62 8   H  1S         -0.00000  -0.00000   0.00000  -0.00000   0.00004
  63        2S          0.00000  -0.00031   0.00000  -0.00021   0.00100
                          46        47        48        49        50
  46        4PX         0.34544
  47        4PY        -0.00000   0.45520
  48        4PZ         0.00000   0.00000   0.51494
  49 5   N  1S         -0.00001  -0.00000   0.00004   2.04894
  50        2S         -0.00005  -0.00002  -0.00022   0.02108   0.10180
  51        2PX        -0.00007  -0.00006  -0.00045   0.00000   0.00000
  52        2PY        -0.00006  -0.00000  -0.00015   0.00000   0.00000
  53        2PZ        -0.00054  -0.00018  -0.00095   0.00000   0.00000
  54        3S         -0.00201  -0.00067  -0.01226  -0.08605   0.21826
  55        3PX        -0.00005  -0.00102  -0.00146   0.00000   0.00000
  56        3PY        -0.00102  -0.00040  -0.00049   0.00000   0.00000
  57        3PZ        -0.00553  -0.00184  -0.00999   0.00000   0.00000
  58 6   H  1S          0.00003   0.00001   0.00007  -0.00084   0.00711
  59        2S          0.00066   0.00022   0.00090   0.00068   0.00108
  60 7   H  1S         -0.00002   0.00001  -0.00021  -0.00084   0.00711
  61        2S         -0.00061  -0.00034  -0.00087   0.00068   0.00108
  62 8   H  1S         -0.00001   0.00000  -0.00021  -0.00084   0.00711
  63        2S         -0.00098   0.00003  -0.00087   0.00068   0.00108
                          51        52        53        54        55
  51        2PX         0.33747
  52        2PY        -0.00000   0.33747
  53        2PZ         0.00000   0.00000   0.36962
  54        3S          0.00000   0.00000   0.00000   1.21679
  55        3PX         0.17313   0.00000   0.00000   0.00000   0.33656
  56        3PY         0.00000   0.17313   0.00000   0.00000  -0.00000
  57        3PZ         0.00000   0.00000   0.22303   0.00000   0.00000
  58 6   H  1S          0.03505   0.01168   0.00565   0.04715   0.07858
  59        2S          0.01374   0.00458   0.00273  -0.00151   0.04318
  60 7   H  1S          0.03505   0.01168   0.00565   0.04715   0.07858
  61        2S          0.01374   0.00458   0.00273  -0.00151   0.04318
  62 8   H  1S          0.00000   0.04673   0.00565   0.04715   0.00000
  63        2S          0.00000   0.01833   0.00273  -0.00151   0.00000
                          56        57        58        59        60
  56        3PY         0.33656
  57        3PZ         0.00000   0.52559
  58 6   H  1S          0.02619   0.01358   0.15838
  59        2S          0.01439   0.00950   0.05447   0.05432
  60 7   H  1S          0.02619   0.01358  -0.00041  -0.00381   0.15838
  61        2S          0.01439   0.00950  -0.00381  -0.00619   0.05447
  62 8   H  1S          0.10477   0.01358  -0.00041  -0.00381  -0.00041
  63        2S          0.05757   0.00950  -0.00381  -0.00619  -0.00381
                          61        62        63
  61        2S          0.05432
  62 8   H  1S         -0.00381   0.15838
  63        2S         -0.00619   0.05447   0.05432
     Gross orbital populations:
                           1
   1 1   B  1S          1.98949
   2        2S          0.34342
   3        2PX         0.40684
   4        2PY         0.40684
   5        2PZ         0.32751
   6        3S          0.66602
   7        3PX         0.22507
   8        3PY         0.22507
   9        3PZ         0.14043
  10 2   Cl 1S          1.99861
  11        2S          1.95932
  12        2PX         1.97106
  13        2PY         1.96434
  14        2PZ         1.97041
  15        3S          1.11034
  16        3PX         1.08179
  17        3PY         0.89566
  18        3PZ         1.06145
  19        4S          0.90425
  20        4PX         0.86550
  21        4PY         0.55013
  22        4PZ         0.87574
  23 3   Cl 1S          1.99861
  24        2S          1.95932
  25        2PX         1.96602
  26        2PY         1.96938
  27        2PZ         1.97041
  28        3S          1.11034
  29        3PX         0.94220
  30        3PY         1.03526
  31        3PZ         1.06145
  32        4S          0.90425
  33        4PX         0.62897
  34        4PY         0.78665
  35        4PZ         0.87574
  36 4   Cl 1S          1.99861
  37        2S          1.95932
  38        2PX         1.96602
  39        2PY         1.96938
  40        2PZ         1.97041
  41        3S          1.11034
  42        3PX         0.94220
  43        3PY         1.03526
  44        3PZ         1.06145
  45        4S          0.90425
  46        4PX         0.62897
  47        4PY         0.78665
  48        4PZ         0.87574
  49 5   N  1S          1.98788
  50        2S          0.36261
  51        2PX         0.60578
  52        2PY         0.60578
  53        2PZ         0.65022
  54        3S          1.36787
  55        3PX         0.73491
  56        3PY         0.73491
  57        3PZ         0.85196
  58 6   H  1S          0.42281
  59        2S          0.15772
  60 7   H  1S          0.42281
  61        2S          0.15772
  62 8   H  1S          0.42281
  63        2S          0.15772
          Condensed to atoms (all electrons):
               1          2          3          4          5          6
     1  B    4.071968   0.228152   0.228152   0.228152   0.046750  -0.024167
     2  Cl   0.228152  17.202822  -0.087610  -0.087610  -0.046134  -0.001497
     3  Cl   0.228152  -0.087610  17.202822  -0.087610  -0.046134  -0.001497
     4  Cl   0.228152  -0.087610  -0.087610  17.202822  -0.046134   0.001976
     5  N    0.046750  -0.046134  -0.046134  -0.046134   7.055971   0.312533
     6  H   -0.024167  -0.001497  -0.001497   0.001976   0.312533   0.321638
     7  H   -0.024167  -0.001497   0.001976  -0.001497   0.312533  -0.014226
     8  H   -0.024167   0.001976  -0.001497  -0.001497   0.312533  -0.014226
               7          8
     1  B   -0.024167  -0.024167
     2  Cl  -0.001497   0.001976
     3  Cl   0.001976  -0.001497
     4  Cl  -0.001497  -0.001497
     5  N    0.312533   0.312533
     6  H   -0.014226  -0.014226
     7  H    0.321638  -0.014226
     8  H   -0.014226   0.321638
 Mulliken charges:
               1
     1  B    0.269326
     2  Cl  -0.208602
     3  Cl  -0.208602
     4  Cl  -0.208602
     5  N   -0.901920
     6  H    0.419467
     7  H    0.419467
     8  H    0.419467
 Sum of Mulliken charges =   0.00000
 Mulliken charges with hydrogens summed into heavy atoms:
               1
     1  B    0.269326
     2  Cl  -0.208602
     3  Cl  -0.208602
     4  Cl  -0.208602
     5  N    0.356480
 Electronic spatial extent (au):  <R**2>=            870.5643
 Charge=              0.0000 electrons
 Dipole moment (field-independent basis, Debye):
    X=              0.0000    Y=              0.0000    Z=              7.9009  Tot=              7.9009
 Quadrupole moment (field-independent basis, Debye-Ang):
   XX=            -58.2163   YY=            -58.2163   ZZ=            -39.6253
   XY=              0.0000   XZ=             -0.0000   YZ=             -0.0000
 Traceless Quadrupole moment (field-independent basis, Debye-Ang):
   XX=             -6.1970   YY=             -6.1970   ZZ=             12.3941
   XY=              0.0000   XZ=             -0.0000   YZ=             -0.0000
 Octapole moment (field-independent basis, Debye-Ang**2):
  XXX=              0.0000  YYY=             -6.5191  ZZZ=             35.4406  XYY=              0.0000
  XXY=              6.5191  XXZ=              8.6282  XZZ=              0.0000  YZZ=              0.0000
  YYZ=              8.6282  XYZ=             -0.0000
 Hexadecapole moment (field-independent basis, Debye-Ang**3):
 XXXX=           -462.0163 YYYY=           -462.0163 ZZZZ=           -165.1436 XXXY=              0.0000
 XXXZ=             -0.0000 YYYX=              0.0000 YYYZ=             -3.0310 ZZZX=             -0.0000
 ZZZY=             -0.0000 XXYY=           -154.0054 XXZZ=           -103.4576 YYZZ=           -103.4576
 XXYZ=              3.0310 YYXZ=             -0.0000 ZZXY=              0.0000
 N-N= 3.388918826411D+02 E-N=-4.134100301017D+03  KE= 1.451252397198D+03
 Symmetry A'   KE= 9.450316369438D+02
 Symmetry A"   KE= 5.062207602547D+02
 Orbital energies and kinetic energies (alpha):
                                 1                 2
   1         (E)--O         -104.087182        136.077119
   2         (E)--O         -104.087182        136.077119
   3         (A1)--O        -104.086919        136.083632
   4         (A1)--O         -15.647015         21.916198
   5         (E)--O          -10.482596         22.339696
   6         (E)--O          -10.482596         22.339696
   7         (A1)--O         -10.481763         22.360583
   8         (E)--O           -7.945607         20.330672
   9         (E)--O           -7.945607         20.330672
  10         (A1)--O          -7.945402         20.341765
  11         (E)--O           -7.942134         20.362904
  12         (E)--O           -7.942134         20.362904
  13         (A2)--O          -7.942097         20.358392
  14         (A1)--O          -7.942062         20.366036
  15         (E)--O           -7.941861         20.369683
  16         (E)--O           -7.941861         20.369683
  17         (A1)--O          -7.735160         10.822280
  18         (A1)--O          -1.334050          1.852701
  19         (A1)--O          -1.126767          2.593110
  20         (E)--O           -1.077182          2.910132
  21         (E)--O           -1.077182          2.910132
  22         (E)--O           -0.801605          1.375165
  23         (E)--O           -0.801605          1.375165
  24         (A1)--O          -0.764079          1.717855
  25         (A1)--O          -0.606341          1.918052
  26         (E)--O           -0.545384          1.990127
  27         (E)--O           -0.545384          1.990127
  28         (A1)--O          -0.464566          2.220009
  29         (E)--O           -0.461896          2.220496
  30         (E)--O           -0.461896          2.220496
  31         (E)--O           -0.438878          2.347603
  32         (E)--O           -0.438878          2.347603
  33         (A2)--O          -0.426681          2.428391
  34         (A1)--V           0.171046          1.255064
  35         (A1)--V           0.214142          2.182436
  36         (E)--V            0.225372          1.291134
  37         (E)--V            0.225372          1.291134
  38         (E)--V            0.264973          1.440295
  39         (E)--V            0.264973          1.440295
  40         (A1)--V           0.335984          2.007072
  41         (A1)--V           0.658200          2.168987
  42         (E)--V            0.659650          2.224645
  43         (E)--V            0.659650          2.224645
  44         (A1)--V           0.721433          2.731747
  45         (E)--V            0.782456          3.401445
  46         (E)--V            0.782456          3.401445
  47         (E)--V            0.799239          3.264969
  48         (E)--V            0.799239          3.264969
  49         (A1)--V           0.803749          3.546207
  50         (A1)--V           0.846113          3.343758
  51         (E)--V            0.857918          3.090922
  52         (E)--V            0.857918          3.090922
  53         (A2)--V           0.926293          3.567738
  54         (E)--V            1.037399          3.551151
  55         (E)--V            1.037399          3.551151
  56         (A1)--V           1.189771          2.793642
  57         (E)--V            1.195788          2.816141
  58         (E)--V            1.195788          2.816141
  59         (A1)--V           1.399877          2.750591
  60         (E)--V            1.480960          4.036237
  61         (E)--V            1.480960          4.036237
  62         (A1)--V           1.582672          3.701600
  63         (A1)--V           2.740469          4.865807
 Total kinetic energy from orbitals= 1.451252397198D+03
 1\1\GINC-IISERK51\SP\RHF\3-21G\B1Cl3H3N1\GAUSSIAN\16-Jun-2025\0\\# hf/
 3-21g pop=full geom=connectivity\\Title Card Required\\0,1\B,0,0.,0.,0
 .114656\Cl,0,0.,1.810649,-0.372549\Cl,0,1.568068,-0.905324,-0.372549\C
 l,0,-1.568068,-0.905324,-0.372549\N,0,0.,0.,1.740915\H,0,0.829356,0.47
 8829,2.080111\H,0,-0.829356,0.478829,2.080111\H,0,0.,-0.957658,2.08011
 1\\Version=EM64L-G16RevB.01\State=1-A1\HF=-1452.4836198\RMSD=3.253e-09
 \Dipole=0.,0.,3.1084679\Quadrupole=-4.6073399,-4.6073399,9.2146798,0.,
 0.,0.\PG=C03V [C3(B1N1),3SGV(Cl1H1)]\\@


 THERE'S NOTHING WRONG WITH FOLLOWING A TRAIN OF THOUGHT...
 AS LONG AS IT ULTIMATELY PULLS INTO THE STATION.
 Job cpu time:       0 days  0 hours  0 minutes  0.5 seconds.
 Elapsed time:       0 days  0 hours  0 minutes  0.5 seconds.
 File lengths (MBytes):  RWF=      6 Int=      0 D2E=      0 Chk=      1 Scr=      1
 Normal termination of Gaussian 16 at Mon Jun 16 21:39:45 2025.
