 Entering Gaussian System, Link 0=g16
 Input=/home/gaussian/Documents/Summer_Internship/Acid_Base_adduct/Adduct/NH3 - BCl3/NH3_Bcl3_opt.com
 Output=/home/gaussian/Documents/Summer_Internship/Acid_Base_adduct/Adduct/NH3 - BCl3/NH3_Bcl3_opt.log
 Initial command:
 /usr/local/g16/l1.exe "/home/gaussian/tmp/Gau-79328.inp" -scrdir="/home/gaussian/tmp/"
 Entering Link 1 = /usr/local/g16/l1.exe PID=     79331.
  
 Copyright (c) 1988-2017, Gaussian, Inc.  All Rights Reserved.
  
 This is part of the Gaussian(R) 16 program.  It is based on
 the Gaussian(R) 09 system (copyright 2009, Gaussian, Inc.),
 the Gaussian(R) 03 system (copyright 2003, Gaussian, Inc.),
 the Gaussian(R) 98 system (copyright 1998, Gaussian, Inc.),
 the Gaussian(R) 94 system (copyright 1995, Gaussian, Inc.),
 the Gaussian 92(TM) system (copyright 1992, Gaussian, Inc.),
 the Gaussian 90(TM) system (copyright 1990, Gaussian, Inc.),
 the Gaussian 88(TM) system (copyright 1988, Gaussian, Inc.),
 the Gaussian 86(TM) system (copyright 1986, Carnegie Mellon
 University), and the Gaussian 82(TM) system (copyright 1983,
 Carnegie Mellon University). Gaussian is a federally registered
 trademark of Gaussian, Inc.
  
 This software contains proprietary and confidential information,
 including trade secrets, belonging to Gaussian, Inc.
  
 This software is provided under written license and may be
 used, copied, transmitted, or stored only in accord with that
 written license.
  
 The following legend is applicable only to US Government
 contracts under FAR:
  
                    RESTRICTED RIGHTS LEGEND
  
 Use, reproduction and disclosure by the US Government is
 subject to restrictions as set forth in subparagraphs (a)
 and (c) of the Commercial Computer Software - Restricted
 Rights clause in FAR 52.227-19.
  
 Gaussian, Inc.
 340 Quinnipiac St., Bldg. 40, Wallingford CT 06492
  
  
 ---------------------------------------------------------------
 Warning -- This program may not be used in any manner that
 competes with the business of Gaussian, Inc. or will provide
 assistance to any competitor of Gaussian, Inc.  The licensee
 of this program is prohibited from giving any competitor of
 Gaussian, Inc. access to this program.  By using this program,
 the user acknowledges that Gaussian, Inc. is engaged in the
 business of creating and licensing software in the field of
 computational chemistry and represents and warrants to the
 licensee that it is not a competitor of Gaussian, Inc. and that
 it will not use this program in any manner prohibited above.
 ---------------------------------------------------------------
  

 Cite this work as:
 Gaussian 16, Revision B.01,
 M. J. Frisch, G. W. Trucks, H. B. Schlegel, G. E. Scuseria, 
 M. A. Robb, J. R. Cheeseman, G. Scalmani, V. Barone, 
 G. A. Petersson, H. Nakatsuji, X. Li, M. Caricato, A. V. Marenich, 
 J. Bloino, B. G. Janesko, R. Gomperts, B. Mennucci, H. P. Hratchian, 
 J. V. Ortiz, A. F. Izmaylov, J. L. Sonnenberg, D. Williams-Young, 
 F. Ding, F. Lipparini, F. Egidi, J. Goings, B. Peng, A. Petrone, 
 T. Henderson, D. Ranasinghe, V. G. Zakrzewski, J. Gao, N. Rega, 
 G. Zheng, W. Liang, M. Hada, M. Ehara, K. Toyota, R. Fukuda, 
 J. Hasegawa, M. Ishida, T. Nakajima, Y. Honda, O. Kitao, H. Nakai, 
 T. Vreven, K. Throssell, J. A. Montgomery, Jr., J. E. Peralta, 
 F. Ogliaro, M. J. Bearpark, J. J. Heyd, E. N. Brothers, K. N. Kudin, 
 V. N. Staroverov, T. A. Keith, R. Kobayashi, J. Normand, 
 K. Raghavachari, A. P. Rendell, J. C. Burant, S. S. Iyengar, 
 J. Tomasi, M. Cossi, J. M. Millam, M. Klene, C. Adamo, R. Cammi, 
 J. W. Ochterski, R. L. Martin, K. Morokuma, O. Farkas, 
 J. B. Foresman, and D. J. Fox, Gaussian, Inc., Wallingford CT, 2016.
 
 ******************************************
 Gaussian 16:  EM64L-G16RevB.01 20-Dec-2017
                16-Jun-2025 
 ******************************************
 %chk=NH3_Bcl3_opt.chk
 ----------------------------------------------
 # opt freq hf/3-21g pop=full geom=connectivity
 ----------------------------------------------
 1/18=20,19=15,38=1,57=2/1,3;
 2/9=110,12=2,17=6,18=5,40=1/2;
 3/5=5,11=9,25=1,30=1,71=1/1,2,3;
 4//1;
 5/5=2,38=5/2;
 6/7=3,28=1/1;
 7//1,2,3,16;
 1/18=20,19=15/3(2);
 2/9=110/2;
 99//99;
 2/9=110/2;
 3/5=5,11=9,25=1,30=1,71=1/1,2,3;
 4/5=5,16=3,69=1/1;
 5/5=2,38=5/2;
 7//1,2,3,16;
 1/18=20,19=15/3(-5);
 2/9=110/2;
 6/7=3,19=2,28=1/1;
 99/9=1/99;
 -------------------
 Title Card Required
 -------------------
 Symbolic Z-matrix:
 Charge =  0 Multiplicity = 1
 B                    -2.73254  -1.31034   0.40172 
 Cl                   -3.4872   -2.8265    1.1946 
 Cl                   -0.9649   -1.11844   0.98097 
 Cl                   -3.71622   0.2033    0.88975 
 N                    -2.75731  -1.47034  -1.16996 
 H                    -2.23128  -2.27978  -1.43094 
 H                    -3.70257  -1.57296  -1.47972 
 H                    -2.35375  -0.65956  -1.59396 
 

 GradGradGradGradGradGradGradGradGradGradGradGradGradGradGradGradGradGrad
 Berny optimization.
 Initialization pass.
                           ----------------------------
                           !    Initial Parameters    !
                           ! (Angstroms and Degrees)  !
 --------------------------                            --------------------------
 ! Name  Definition              Value          Derivative Info.                !
 --------------------------------------------------------------------------------
 ! R1    R(1,2)                  1.87           estimate D2E/DX2                !
 ! R2    R(1,3)                  1.87           estimate D2E/DX2                !
 ! R3    R(1,4)                  1.87           estimate D2E/DX2                !
 ! R4    R(1,5)                  1.58           estimate D2E/DX2                !
 ! R5    R(5,6)                  1.0            estimate D2E/DX2                !
 ! R6    R(5,7)                  1.0            estimate D2E/DX2                !
 ! R7    R(5,8)                  1.0            estimate D2E/DX2                !
 ! A1    A(2,1,3)              109.4712         estimate D2E/DX2                !
 ! A2    A(2,1,4)              109.4712         estimate D2E/DX2                !
 ! A3    A(2,1,5)              109.4712         estimate D2E/DX2                !
 ! A4    A(3,1,4)              109.4712         estimate D2E/DX2                !
 ! A5    A(3,1,5)              109.4712         estimate D2E/DX2                !
 ! A6    A(4,1,5)              109.4712         estimate D2E/DX2                !
 ! A7    A(1,5,6)              109.4712         estimate D2E/DX2                !
 ! A8    A(1,5,7)              109.4712         estimate D2E/DX2                !
 ! A9    A(1,5,8)              109.4712         estimate D2E/DX2                !
 ! A10   A(6,5,7)              109.4712         estimate D2E/DX2                !
 ! A11   A(6,5,8)              109.4712         estimate D2E/DX2                !
 ! A12   A(7,5,8)              109.4712         estimate D2E/DX2                !
 ! D1    D(2,1,5,6)            -60.0            estimate D2E/DX2                !
 ! D2    D(2,1,5,7)             60.0            estimate D2E/DX2                !
 ! D3    D(2,1,5,8)            180.0            estimate D2E/DX2                !
 ! D4    D(3,1,5,6)             60.0            estimate D2E/DX2                !
 ! D5    D(3,1,5,7)            180.0            estimate D2E/DX2                !
 ! D6    D(3,1,5,8)            -60.0            estimate D2E/DX2                !
 ! D7    D(4,1,5,6)            180.0            estimate D2E/DX2                !
 ! D8    D(4,1,5,7)            -60.0            estimate D2E/DX2                !
 ! D9    D(4,1,5,8)             60.0            estimate D2E/DX2                !
 --------------------------------------------------------------------------------
 Trust Radius=3.00D-01 FncErr=1.00D-07 GrdErr=1.00D-07 EigMax=2.50D+02 EigMin=1.00D-04
 Number of steps in this run=     38 maximum allowed number of steps=    100.
 GradGradGradGradGradGradGradGradGradGradGradGradGradGradGradGradGradGrad

                          Input orientation:                          
 ---------------------------------------------------------------------
 Center     Atomic      Atomic             Coordinates (Angstroms)
 Number     Number       Type             X           Y           Z
 ---------------------------------------------------------------------
      1          5           0       -2.732544   -1.310337    0.401721
      2         17           0       -3.487200   -2.826497    1.194598
      3         17           0       -0.964904   -1.118442    0.980967
      4         17           0       -3.716219    0.203303    0.889755
      5          7           0       -2.757307   -1.470343   -1.169961
      6          1           0       -2.231278   -2.279777   -1.430941
      7          1           0       -3.702569   -1.572961   -1.479717
      8          1           0       -2.353748   -0.659563   -1.593959
 ---------------------------------------------------------------------
                    Distance matrix (angstroms):
                    1          2          3          4          5
     1  B    0.000000
     2  Cl   1.870000   0.000000
     3  Cl   1.870000   3.053697   0.000000
     4  Cl   1.870000   3.053697   3.053697   0.000000
     5  N    1.580000   2.821885   2.821885   2.821885   0.000000
     6  H    2.133010   2.961368   2.961368   3.708958   1.000000
     7  H    2.133010   2.961368   3.708958   2.961368   1.000000
     8  H    2.133010   3.708958   2.961368   2.961368   1.000000
                    6          7          8
     6  H    0.000000
     7  H    1.632993   0.000000
     8  H    1.632993   1.632993   0.000000
 Stoichiometry    BCl3H3N
 Framework group  C3V[C3(BN),3SGV(ClH)]
 Deg. of freedom     5
 Full point group                 C3V     NOp   6
 Largest Abelian subgroup         CS      NOp   2
 Largest concise Abelian subgroup CS      NOp   2
                         Standard orientation:                         
 ---------------------------------------------------------------------
 Center     Atomic      Atomic             Coordinates (Angstroms)
 Number     Number       Type             X           Y           Z
 ---------------------------------------------------------------------
      1          5           0        0.000000    0.000000    0.227121
      2         17           0       -0.000000    1.763053   -0.396212
      3         17           0        1.526849   -0.881526   -0.396212
      4         17           0       -1.526849   -0.881526   -0.396212
      5          7           0        0.000000    0.000000    1.807121
      6          1           0        0.816497    0.471405    2.140455
      7          1           0       -0.816497    0.471405    2.140455
      8          1           0       -0.000000   -0.942809    2.140455
 ---------------------------------------------------------------------
 Rotational constants (GHZ):           2.1004415           2.1004415           1.5371604
 Standard basis: 3-21G (6D, 7F)
 There are    41 symmetry adapted cartesian basis functions of A'  symmetry.
 There are    22 symmetry adapted cartesian basis functions of A"  symmetry.
 There are    41 symmetry adapted basis functions of A'  symmetry.
 There are    22 symmetry adapted basis functions of A"  symmetry.
    63 basis functions,   120 primitive gaussians,    63 cartesian basis functions
    33 alpha electrons       33 beta electrons
       nuclear repulsion energy       342.3820607034 Hartrees.
 NAtoms=    8 NActive=    8 NUniq=    4 SFac= 4.00D+00 NAtFMM=   60 NAOKFM=F Big=F
 Integral buffers will be    131072 words long.
 Raffenetti 1 integral format.
 Two-electron integral symmetry is turned on.
 One-electron integrals computed using PRISM.
 NBasis=    63 RedAO= T EigKep=  9.15D-03  NBF=    41    22
 NBsUse=    63 1.00D-06 EigRej= -1.00D+00 NBFU=    41    22
 ExpMin= 1.24D-01 ExpMax= 1.38D+03 ExpMxC= 1.38D+03 IAcc=3 IRadAn=         5 AccDes= 0.00D+00
 Harris functional with IExCor=  205 and IRadAn=       5 diagonalized for initial guess.
 HarFok:  IExCor=  205 AccDes= 0.00D+00 IRadAn=         5 IDoV= 1 UseB2=F ITyADJ=14
 ICtDFT=  3500011 ScaDFX=  1.000000  1.000000  1.000000  1.000000
 FoFCou: FMM=F IPFlag=           0 FMFlag=      100000 FMFlg1=           0
         NFxFlg=           0 DoJE=T BraDBF=F KetDBF=T FulRan=T
         wScrn=  0.000000 ICntrl=       500 IOpCl=  0 I1Cent=   200000004 NGrid=           0
         NMat0=    1 NMatS0=      1 NMatT0=    0 NMatD0=    1 NMtDS0=    0 NMtDT0=    0
 Petite list used in FoFCou.
 Initial guess orbital symmetries:
       Occupied  (E) (E) (A1) (A1) (E) (E) (A1) (E) (E) (A1) (A2)
                 (E) (E) (A1) (E) (E) (A1) (A1) (A1) (E) (E) (E)
                 (E) (A1) (A1) (E) (E) (A1) (E) (E) (E) (E) (A2)
       Virtual   (A1) (E) (E) (A1) (E) (E) (A1) (A1) (E) (E) (A1)
                 (E) (E) (A1) (E) (E) (A1) (E) (E) (A2) (E) (E)
                 (A1) (E) (E) (A1) (E) (E) (A1) (A1)
 The electronic state of the initial guess is 1-A1.
 Keep R1 ints in memory in symmetry-blocked form, NReq=3066968.
 Requested convergence on RMS density matrix=1.00D-08 within 128 cycles.
 Requested convergence on MAX density matrix=1.00D-06.
 Requested convergence on             energy=1.00D-06.
 No special actions if energy rises.
 SCF Done:  E(RHF) =  -1452.47833383     A.U. after   11 cycles
            NFock= 11  Conv=0.25D-08     -V/T= 2.0007

 **********************************************************************

            Population analysis using the SCF Density.

 **********************************************************************

 Orbital symmetries:
       Occupied  (E) (E) (A1) (A1) (E) (E) (A1) (E) (E) (A1) (E)
                 (E) (A2) (A1) (E) (E) (A1) (A1) (A1) (E) (E) (E)
                 (E) (A1) (A1) (E) (E) (A1) (E) (E) (E) (E) (A2)
       Virtual   (A1) (E) (E) (A1) (E) (E) (A1) (E) (E) (A1) (A1)
                 (E) (E) (E) (E) (A1) (A1) (E) (E) (A2) (E) (E)
                 (E) (E) (A1) (A1) (E) (E) (A1) (A1)
 The electronic state is 1-A1.
 Alpha  occ. eigenvalues -- -104.08067-104.08067-104.08037 -15.65571 -10.47641
 Alpha  occ. eigenvalues --  -10.47641 -10.47546  -7.93937  -7.93937  -7.93923
 Alpha  occ. eigenvalues --   -7.93589  -7.93589  -7.93585  -7.93578  -7.93561
 Alpha  occ. eigenvalues --   -7.93561  -7.72830  -1.35634  -1.12882  -1.07066
 Alpha  occ. eigenvalues --   -1.07066  -0.82197  -0.82197  -0.78017  -0.61312
 Alpha  occ. eigenvalues --   -0.54101  -0.54101  -0.46696  -0.45868  -0.45868
 Alpha  occ. eigenvalues --   -0.42859  -0.42859  -0.41798
 Alpha virt. eigenvalues --    0.16659   0.21977   0.21977   0.24165   0.26093
 Alpha virt. eigenvalues --    0.26093   0.35641   0.65882   0.65882   0.67279
 Alpha virt. eigenvalues --    0.70608   0.78737   0.78737   0.79761   0.79761
 Alpha virt. eigenvalues --    0.80130   0.84869   0.86807   0.86807   0.93275
 Alpha virt. eigenvalues --    1.05745   1.05745   1.19064   1.19064   1.19985
 Alpha virt. eigenvalues --    1.40257   1.46796   1.46796   1.58652   2.74467
     Molecular Orbital Coefficients:
                           1         2         3         4         5
                        (E)--O    (E)--O    (A1)--O   (A1)--O   (E)--O
     Eigenvalues --  -104.08067-104.08067-104.08037 -15.65571 -10.47641
   1 1   B  1S          0.00000   0.00000   0.00022  -0.00074   0.00000
   2        2S          0.00000   0.00000   0.00208  -0.00237   0.00000
   3        2PX         0.00000   0.00020   0.00000   0.00000  -0.00125
   4        2PY         0.00020   0.00000  -0.00000  -0.00000   0.00000
   5        2PZ        -0.00000   0.00000  -0.00023   0.00363   0.00000
   6        3S         -0.00000   0.00000  -0.01114   0.02538   0.00000
   7        3PX         0.00000  -0.00527   0.00000   0.00000   0.03092
   8        3PY        -0.00527   0.00000   0.00000   0.00000   0.00000
   9        3PZ         0.00000   0.00000   0.00220   0.00729   0.00000
  10 2   Cl 1S          0.80496   0.00000   0.56921   0.00000   0.00000
  11        2S          0.04341   0.00000   0.03060   0.00001   0.00000
  12        2PX         0.00000  -0.00003   0.00000   0.00000   0.00011
  13        2PY        -0.00021   0.00000  -0.00006  -0.00008   0.00000
  14        2PZ         0.00007   0.00000   0.00005   0.00001   0.00000
  15        3S         -0.01629   0.00000  -0.01097   0.00173   0.00000
  16        3PX         0.00000   0.00015   0.00000   0.00000  -0.00073
  17        3PY         0.00089   0.00000   0.00018   0.00036   0.00000
  18        3PZ        -0.00027   0.00000  -0.00016   0.00009   0.00000
  19        4S          0.01212   0.00000   0.00853  -0.00629   0.00000
  20        4PX         0.00000   0.00037   0.00000   0.00000  -0.00242
  21        4PY        -0.00334   0.00000  -0.00236   0.00263   0.00000
  22        4PZ         0.00133   0.00000   0.00076  -0.00288   0.00000
  23 3   Cl 1S         -0.40248   0.69712   0.56921   0.00000  -0.21629
  24        2S         -0.02171   0.03759   0.03060   0.00001   0.69483
  25        2PX         0.00008  -0.00017  -0.00005  -0.00007  -0.00434
  26        2PY        -0.00008   0.00008   0.00003   0.00004   0.00257
  27        2PZ        -0.00004   0.00006   0.00005   0.00001   0.00296
  28        3S          0.00814  -0.01411  -0.01097   0.00173   0.10413
  29        3PX        -0.00032   0.00071   0.00015   0.00031  -0.00480
  30        3PY         0.00033  -0.00032  -0.00009  -0.00018   0.00235
  31        3PZ         0.00013  -0.00023  -0.00016   0.00009   0.00191
  32        4S         -0.00606   0.01050   0.00853  -0.00629  -0.06150
  33        4PX         0.00161  -0.00241  -0.00204   0.00228   0.01398
  34        4PY        -0.00055   0.00161   0.00118  -0.00132  -0.00947
  35        4PZ        -0.00066   0.00115   0.00076  -0.00288  -0.00684
  36 4   Cl 1S         -0.40248  -0.69712   0.56921   0.00000   0.21629
  37        2S         -0.02171  -0.03759   0.03060   0.00001  -0.69483
  38        2PX        -0.00008  -0.00017   0.00005   0.00007  -0.00434
  39        2PY        -0.00008  -0.00008   0.00003   0.00004  -0.00257
  40        2PZ        -0.00004  -0.00006   0.00005   0.00001  -0.00296
  41        3S          0.00814   0.01411  -0.01097   0.00173  -0.10413
  42        3PX         0.00032   0.00071  -0.00015  -0.00031  -0.00480
  43        3PY         0.00033   0.00032  -0.00009  -0.00018  -0.00235
  44        3PZ         0.00013   0.00023  -0.00016   0.00009  -0.00191
  45        4S         -0.00606  -0.01050   0.00853  -0.00629   0.06150
  46        4PX        -0.00161  -0.00241   0.00204  -0.00228   0.01398
  47        4PY        -0.00055  -0.00161   0.00118  -0.00132   0.00947
  48        4PZ        -0.00066  -0.00115   0.00076  -0.00288   0.00684
  49 5   N  1S         -0.00000   0.00000  -0.00004   0.98590   0.00000
  50        2S         -0.00000   0.00000  -0.00022   0.10184   0.00000
  51        2PX         0.00000   0.00010   0.00000   0.00000  -0.00045
  52        2PY         0.00010   0.00000  -0.00000   0.00000   0.00000
  53        2PZ        -0.00000   0.00000  -0.00013  -0.00039   0.00000
  54        3S          0.00000   0.00000   0.00151  -0.06021   0.00000
  55        3PX         0.00000  -0.00006   0.00000   0.00000  -0.00001
  56        3PY        -0.00006   0.00000   0.00000  -0.00000   0.00000
  57        3PZ        -0.00000   0.00000  -0.00029   0.00456   0.00000
  58 6   H  1S          0.00002   0.00003   0.00007   0.00222  -0.00003
  59        2S          0.00035   0.00060  -0.00022   0.00570  -0.00343
  60 7   H  1S          0.00002  -0.00003   0.00007   0.00222   0.00003
  61        2S          0.00035  -0.00060  -0.00022   0.00570   0.00343
  62 8   H  1S         -0.00003   0.00000   0.00007   0.00222   0.00000
  63        2S         -0.00069   0.00000  -0.00022   0.00570   0.00000
                           6         7         8         9        10
                        (E)--O    (A1)--O   (E)--O    (E)--O    (A1)--O
     Eigenvalues --   -10.47641 -10.47546  -7.93937  -7.93937  -7.93923
   1 1   B  1S          0.00000  -0.00174   0.00000  -0.00000   0.00111
   2        2S          0.00000  -0.01233   0.00000   0.00000  -0.00102
   3        2PX         0.00000   0.00000   0.00145   0.00000   0.00000
   4        2PY        -0.00125  -0.00000   0.00000   0.00145   0.00000
   5        2PZ        -0.00000   0.00138   0.00000   0.00000  -0.00011
   6        3S         -0.00000   0.06676   0.00000   0.00000  -0.00781
   7        3PX         0.00000   0.00000  -0.00957   0.00000   0.00000
   8        3PY         0.03092   0.00000   0.00000  -0.00957  -0.00000
   9        3PZ         0.00000  -0.01299   0.00000  -0.00000   0.00364
  10 2   Cl 1S         -0.24975  -0.17667   0.00000  -0.00262  -0.00177
  11        2S          0.80232   0.56787   0.00000   0.00916   0.00605
  12        2PX         0.00000   0.00000   0.00951   0.00000   0.00000
  13        2PY        -0.00583  -0.00446   0.00000   0.74493   0.52499
  14        2PZ         0.00342   0.00245   0.00000  -0.27622  -0.20061
  15        3S          0.12024   0.08235   0.00000  -0.00699  -0.00110
  16        3PX         0.00000   0.00000   0.00132   0.00000   0.00000
  17        3PY        -0.00615  -0.00196   0.00000   0.06415   0.04395
  18        3PZ         0.00220   0.00135   0.00000  -0.02365  -0.01705
  19        4S         -0.07101  -0.05088   0.00000   0.01390   0.00250
  20        4PX         0.00000   0.00000  -0.00103   0.00000   0.00000
  21        4PY         0.01945   0.01439   0.00000  -0.02687  -0.01438
  22        4PZ        -0.00790  -0.00460   0.00000   0.00967   0.00587
  23 3   Cl 1S          0.12487  -0.17667  -0.00227   0.00131  -0.00177
  24        2S         -0.40116   0.56787   0.00793  -0.00458   0.00605
  25        2PX         0.00257  -0.00386   0.56107  -0.31845   0.45466
  26        2PY        -0.00137   0.00223  -0.31845   0.19336  -0.26250
  27        2PZ        -0.00171   0.00245  -0.23922   0.13811  -0.20061
  28        3S         -0.06012   0.08235  -0.00605   0.00349  -0.00110
  29        3PX         0.00235  -0.00170   0.04844  -0.02720   0.03806
  30        3PY        -0.00209   0.00098  -0.02720   0.01703  -0.02197
  31        3PZ        -0.00110   0.00135  -0.02048   0.01182  -0.01705
  32        4S          0.03550  -0.05088   0.01204  -0.00695   0.00250
  33        4PX        -0.00947   0.01246  -0.02041   0.01119  -0.01245
  34        4PY         0.00305  -0.00719   0.01119  -0.00749   0.00719
  35        4PZ         0.00395  -0.00460   0.00837  -0.00483   0.00587
  36 4   Cl 1S          0.12487  -0.17667   0.00227   0.00131  -0.00177
  37        2S         -0.40116   0.56787  -0.00793  -0.00458   0.00605
  38        2PX        -0.00257   0.00386   0.56107   0.31845  -0.45466
  39        2PY        -0.00137   0.00223   0.31845   0.19336  -0.26250
  40        2PZ        -0.00171   0.00245   0.23922   0.13811  -0.20061
  41        3S         -0.06012   0.08235   0.00605   0.00349  -0.00110
  42        3PX        -0.00235   0.00170   0.04844   0.02720  -0.03806
  43        3PY        -0.00209   0.00098   0.02720   0.01703  -0.02197
  44        3PZ        -0.00110   0.00135   0.02048   0.01182  -0.01705
  45        4S          0.03550  -0.05088  -0.01204  -0.00695   0.00250
  46        4PX         0.00947  -0.01246  -0.02041  -0.01119   0.01245
  47        4PY         0.00305  -0.00719  -0.01119  -0.00749   0.00719
  48        4PZ         0.00395  -0.00460  -0.00837  -0.00483   0.00587
  49 5   N  1S         -0.00000   0.00023   0.00000  -0.00000   0.00014
  50        2S         -0.00000   0.00125   0.00000  -0.00000   0.00129
  51        2PX         0.00000   0.00000   0.00075   0.00000   0.00000
  52        2PY        -0.00045  -0.00000   0.00000   0.00075   0.00000
  53        2PZ        -0.00000   0.00057   0.00000   0.00000  -0.00103
  54        3S          0.00000  -0.00885   0.00000   0.00000  -0.00158
  55        3PX         0.00000   0.00000  -0.00296   0.00000   0.00000
  56        3PY        -0.00001   0.00000   0.00000  -0.00296  -0.00000
  57        3PZ        -0.00000   0.00213   0.00000  -0.00000   0.00385
  58 6   H  1S         -0.00002  -0.00033   0.00083   0.00048   0.00051
  59        2S         -0.00198   0.00110   0.00128   0.00074  -0.00168
  60 7   H  1S         -0.00002  -0.00033  -0.00083   0.00048   0.00051
  61        2S         -0.00198   0.00110  -0.00128   0.00074  -0.00168
  62 8   H  1S          0.00004  -0.00033   0.00000  -0.00096   0.00051
  63        2S          0.00396   0.00110   0.00000  -0.00148  -0.00168
                          11        12        13        14        15
                        (E)--O    (E)--O    (A2)--O   (A1)--O   (E)--O
     Eigenvalues --    -7.93589  -7.93589  -7.93585  -7.93578  -7.93561
   1 1   B  1S          0.00000  -0.00000   0.00000   0.00016   0.00000
   2        2S          0.00000   0.00000   0.00000   0.00025   0.00000
   3        2PX        -0.00081   0.00000   0.00000   0.00000  -0.00113
   4        2PY         0.00000  -0.00081   0.00000   0.00000   0.00000
   5        2PZ         0.00000  -0.00000   0.00000  -0.00165   0.00000
   6        3S          0.00000  -0.00000   0.00000  -0.00068   0.00000
   7        3PX         0.00454   0.00000  -0.00000   0.00000   0.00838
   8        3PY         0.00000   0.00454   0.00000  -0.00000   0.00000
   9        3PZ         0.00000   0.00000   0.00000   0.01133   0.00000
  10 2   Cl 1S          0.00000   0.00035   0.00000   0.00027   0.00000
  11        2S          0.00000  -0.00114   0.00000  -0.00094   0.00000
  12        2PX         0.18140   0.00000   0.56233   0.00000   0.77452
  13        2PY         0.00000   0.26715   0.00000   0.20087   0.00000
  14        2PZ         0.00000   0.72686   0.00000   0.52542   0.00000
  15        3S          0.00000  -0.00066   0.00000   0.00053   0.00000
  16        3PX         0.01519   0.00000   0.04664   0.00000   0.06262
  17        3PY         0.00000   0.02218   0.00000   0.01607   0.00000
  18        3PZ         0.00000   0.05956   0.00000   0.04279   0.00000
  19        4S          0.00000  -0.00073   0.00000   0.00089   0.00000
  20        4PX        -0.00628   0.00000  -0.01619   0.00000  -0.01930
  21        4PY         0.00000  -0.00699   0.00000  -0.00562   0.00000
  22        4PZ         0.00000  -0.01938   0.00000  -0.01418   0.00000
  23 3   Cl 1S          0.00030  -0.00018   0.00000   0.00027  -0.00008
  24        2S         -0.00099   0.00057  -0.00000  -0.00094   0.00031
  25        2PX         0.24571  -0.03713  -0.28117   0.17395   0.13967
  26        2PY        -0.03713   0.20284  -0.48699  -0.10043   0.36653
  27        2PZ         0.62948  -0.36343   0.00000   0.52542  -0.14458
  28        3S         -0.00058   0.00033   0.00000   0.00053  -0.00063
  29        3PX         0.02043  -0.00303  -0.02332   0.01392   0.01170
  30        3PY        -0.00303   0.01694  -0.04039  -0.00803   0.02940
  31        3PZ         0.05158  -0.02978   0.00000   0.04279  -0.01158
  32        4S         -0.00063   0.00036   0.00000   0.00089  -0.00196
  33        4PX        -0.00681   0.00031   0.00809  -0.00487  -0.00339
  34        4PY         0.00031  -0.00646   0.01402   0.00281  -0.00919
  35        4PZ        -0.01678   0.00969  -0.00000  -0.01418   0.00214
  36 4   Cl 1S         -0.00030  -0.00018  -0.00000   0.00027   0.00008
  37        2S          0.00099   0.00057   0.00000  -0.00094  -0.00031
  38        2PX         0.24571   0.03713  -0.28117  -0.17395   0.13967
  39        2PY         0.03713   0.20284   0.48699  -0.10043  -0.36653
  40        2PZ        -0.62948  -0.36343  -0.00000   0.52542   0.14458
  41        3S          0.00058   0.00033  -0.00000   0.00053   0.00063
  42        3PX         0.02043   0.00303  -0.02332  -0.01392   0.01170
  43        3PY         0.00303   0.01694   0.04039  -0.00803  -0.02940
  44        3PZ        -0.05158  -0.02978  -0.00000   0.04279   0.01158
  45        4S          0.00063   0.00036  -0.00000   0.00089   0.00196
  46        4PX        -0.00681  -0.00031   0.00809   0.00487  -0.00339
  47        4PY        -0.00031  -0.00646  -0.01402   0.00281   0.00919
  48        4PZ         0.01678   0.00969   0.00000  -0.01418  -0.00214
  49 5   N  1S          0.00000   0.00000   0.00000   0.00005   0.00000
  50        2S          0.00000   0.00000   0.00000   0.00024   0.00000
  51        2PX        -0.00043   0.00000  -0.00000   0.00000   0.00052
  52        2PY         0.00000  -0.00043   0.00000  -0.00000   0.00000
  53        2PZ         0.00000   0.00000   0.00000   0.00026   0.00000
  54        3S          0.00000  -0.00000   0.00000  -0.00421   0.00000
  55        3PX         0.00147   0.00000   0.00000   0.00000  -0.00279
  56        3PY         0.00000   0.00147   0.00000   0.00000   0.00000
  57        3PZ         0.00000  -0.00000   0.00000   0.00003   0.00000
  58 6   H  1S         -0.00093  -0.00053  -0.00000  -0.00041   0.00040
  59        2S          0.00079   0.00046  -0.00000   0.00031   0.00051
  60 7   H  1S          0.00093  -0.00053   0.00000  -0.00041  -0.00040
  61        2S         -0.00079   0.00046   0.00000   0.00031  -0.00051
  62 8   H  1S          0.00000   0.00107   0.00000  -0.00041   0.00000
  63        2S          0.00000  -0.00092   0.00000   0.00031   0.00000
                          16        17        18        19        20
                        (E)--O    (A1)--O   (A1)--O   (A1)--O   (E)--O
     Eigenvalues --    -7.93561  -7.72830  -1.35634  -1.12882  -1.07066
   1 1   B  1S          0.00000   0.98994  -0.04520  -0.08983   0.00000
   2        2S          0.00000   0.10044   0.05414   0.09993   0.00000
   3        2PX         0.00000   0.00000   0.00000   0.00000   0.11211
   4        2PY        -0.00113  -0.00000  -0.00000  -0.00000   0.00000
   5        2PZ        -0.00000   0.00041   0.04560  -0.05128   0.00000
   6        3S         -0.00000  -0.09209   0.00049   0.17658   0.00000
   7        3PX         0.00000   0.00000   0.00000   0.00000  -0.00596
   8        3PY         0.00838   0.00000   0.00000   0.00000   0.00000
   9        3PZ         0.00000   0.00715  -0.02407   0.00648   0.00000
  10 2   Cl 1S         -0.00009  -0.00014   0.00397   0.04110   0.00000
  11        2S          0.00035   0.00064  -0.02312  -0.24075   0.00000
  12        2PX         0.00000   0.00000   0.00000   0.00000  -0.00648
  13        2PY        -0.07194  -0.00148   0.00534   0.02845   0.00000
  14        2PZ        -0.16695   0.00043  -0.00411  -0.00956   0.00000
  15        3S         -0.00073  -0.00618   0.02663   0.31044   0.00000
  16        3PX         0.00000   0.00000   0.00000   0.00000   0.01420
  17        3PY        -0.00527   0.00054  -0.01102  -0.05873   0.00000
  18        3PZ        -0.01337  -0.00005   0.00760   0.01925   0.00000
  19        4S         -0.00227   0.02480   0.02433   0.21431   0.00000
  20        4PX         0.00000   0.00000   0.00000   0.00000   0.00371
  21        4PY         0.00191  -0.01173  -0.00427  -0.01170   0.00000
  22        4PZ         0.00247   0.00300   0.01165   0.00651   0.00000
  23 3   Cl 1S          0.00004  -0.00014   0.00397   0.04110   0.05550
  24        2S         -0.00018   0.00064  -0.02312  -0.24075  -0.32638
  25        2PX         0.36653  -0.00128   0.00463   0.02464   0.01544
  26        2PY         0.56291   0.00074  -0.00267  -0.01423  -0.01266
  27        2PZ         0.08348   0.00043  -0.00411  -0.00956  -0.01217
  28        3S          0.00036  -0.00618   0.02663   0.31044   0.40242
  29        3PX         0.02940   0.00047  -0.00954  -0.05086  -0.03024
  30        3PY         0.04565  -0.00027   0.00551   0.02936   0.02565
  31        3PZ         0.00668  -0.00005   0.00760   0.01925   0.02423
  32        4S          0.00113   0.02480   0.02433   0.21431   0.37347
  33        4PX        -0.00919  -0.01016  -0.00370  -0.01014  -0.03235
  34        4PY        -0.01400   0.00586   0.00214   0.00585   0.02082
  35        4PZ        -0.00124   0.00300   0.01165   0.00651   0.02324
  36 4   Cl 1S          0.00004  -0.00014   0.00397   0.04110  -0.05550
  37        2S         -0.00018   0.00064  -0.02312  -0.24075   0.32638
  38        2PX        -0.36653   0.00128  -0.00463  -0.02464   0.01544
  39        2PY         0.56291   0.00074  -0.00267  -0.01423   0.01266
  40        2PZ         0.08348   0.00043  -0.00411  -0.00956   0.01217
  41        3S          0.00036  -0.00618   0.02663   0.31044  -0.40242
  42        3PX        -0.02940  -0.00047   0.00954   0.05086  -0.03024
  43        3PY         0.04565  -0.00027   0.00551   0.02936  -0.02565
  44        3PZ         0.00668  -0.00005   0.00760   0.01925  -0.02423
  45        4S          0.00113   0.02480   0.02433   0.21431  -0.37347
  46        4PX         0.00919   0.01016   0.00370   0.01014  -0.03235
  47        4PY        -0.01400   0.00586   0.00214   0.00585  -0.02082
  48        4PZ        -0.00124   0.00300   0.01165   0.00651  -0.02324
  49 5   N  1S          0.00000   0.00011  -0.22176   0.03462   0.00000
  50        2S          0.00000   0.00120   0.19846  -0.02832   0.00000
  51        2PX         0.00000   0.00000   0.00000   0.00000   0.02845
  52        2PY         0.00052   0.00000  -0.00000  -0.00000   0.00000
  53        2PZ         0.00000   0.00113   0.02318  -0.05107   0.00000
  54        3S         -0.00000   0.00137   0.70390  -0.13185   0.00000
  55        3PX         0.00000   0.00000   0.00000   0.00000   0.02281
  56        3PY        -0.00279  -0.00000   0.00000  -0.00000   0.00000
  57        3PZ         0.00000  -0.00504   0.00372  -0.02183   0.00000
  58 6   H  1S          0.00023   0.00039   0.10590  -0.02437   0.01238
  59        2S          0.00029   0.00515   0.00506  -0.01639   0.00568
  60 7   H  1S          0.00023   0.00039   0.10590  -0.02437  -0.01238
  61        2S          0.00029   0.00515   0.00506  -0.01639  -0.00568
  62 8   H  1S         -0.00047   0.00039   0.10590  -0.02437   0.00000
  63        2S         -0.00059   0.00515   0.00506  -0.01639   0.00000
                          21        22        23        24        25
                        (E)--O    (E)--O    (E)--O    (A1)--O   (A1)--O
     Eigenvalues --    -1.07066  -0.82197  -0.82197  -0.78017  -0.61312
   1 1   B  1S         -0.00000   0.00000   0.00000   0.12295  -0.09387
   2        2S          0.00000   0.00000  -0.00000  -0.13304   0.09732
   3        2PX         0.00000   0.04126   0.00000   0.00000   0.00000
   4        2PY         0.11211   0.00000   0.04126  -0.00000  -0.00000
   5        2PZ        -0.00000   0.00000  -0.00000  -0.14473  -0.21351
   6        3S         -0.00000   0.00000   0.00000  -0.28848   0.44853
   7        3PX         0.00000   0.01930   0.00000   0.00000   0.00000
   8        3PY        -0.00596   0.00000   0.01930  -0.00000   0.00000
   9        3PZ         0.00000   0.00000   0.00000  -0.01592  -0.11997
  10 2   Cl 1S          0.06409   0.00000  -0.00829   0.01454  -0.01394
  11        2S         -0.37687   0.00000   0.04934  -0.08688   0.08457
  12        2PX         0.00000  -0.00594   0.00000   0.00000   0.00000
  13        2PY         0.02274   0.00000   0.00965  -0.03231   0.12000
  14        2PZ        -0.01405   0.00000  -0.01293   0.02532   0.00916
  15        3S          0.46467   0.00000  -0.06014   0.10045  -0.08051
  16        3PX         0.00000   0.01235   0.00000   0.00000   0.00000
  17        3PY        -0.04505   0.00000  -0.02119   0.06890  -0.25812
  18        3PZ         0.02797   0.00000   0.02794  -0.05423  -0.02078
  19        4S          0.43125   0.00000  -0.07037   0.16289  -0.24629
  20        4PX         0.00000   0.00859   0.00000   0.00000   0.00000
  21        4PY        -0.04437   0.00000  -0.00247   0.01158  -0.10845
  22        4PZ         0.02683   0.00000   0.01458  -0.02293  -0.03108
  23 3   Cl 1S         -0.03204  -0.00718   0.00414   0.01454  -0.01394
  24        2S          0.18843   0.04273  -0.02467  -0.08688   0.08457
  25        2PX        -0.01266   0.00576  -0.00675  -0.02798   0.10392
  26        2PY         0.00082  -0.00675  -0.00204   0.01615  -0.06000
  27        2PZ         0.00702  -0.01120   0.00646   0.02532   0.00916
  28        3S         -0.23234  -0.05208   0.03007   0.10045  -0.08051
  29        3PX         0.02565  -0.01280   0.01452   0.05967  -0.22353
  30        3PY        -0.00062   0.01452   0.00397  -0.03445   0.12906
  31        3PZ        -0.01399   0.02419  -0.01397  -0.05423  -0.02078
  32        4S         -0.21563  -0.06094   0.03519   0.16289  -0.24629
  33        4PX         0.02082   0.00030   0.00479   0.01003  -0.09392
  34        4PY        -0.00831   0.00479   0.00583  -0.00579   0.05423
  35        4PZ        -0.01342   0.01263  -0.00729  -0.02293  -0.03108
  36 4   Cl 1S         -0.03204   0.00718   0.00414   0.01454  -0.01394
  37        2S          0.18843  -0.04273  -0.02467  -0.08688   0.08457
  38        2PX         0.01266   0.00576   0.00675   0.02798  -0.10392
  39        2PY         0.00082   0.00675  -0.00204   0.01615  -0.06000
  40        2PZ         0.00702   0.01120   0.00646   0.02532   0.00916
  41        3S         -0.23234   0.05208   0.03007   0.10045  -0.08051
  42        3PX        -0.02565  -0.01280  -0.01452  -0.05967   0.22353
  43        3PY        -0.00062  -0.01452   0.00397  -0.03445   0.12906
  44        3PZ        -0.01399  -0.02419  -0.01397  -0.05423  -0.02078
  45        4S         -0.21563   0.06094   0.03519   0.16289  -0.24629
  46        4PX        -0.02082   0.00030  -0.00479  -0.01003   0.09392
  47        4PY        -0.00831  -0.00479   0.00583  -0.00579   0.05423
  48        4PZ        -0.01342  -0.01263  -0.00729  -0.02293  -0.03108
  49 5   N  1S          0.00000   0.00000   0.00000   0.00861   0.02124
  50        2S         -0.00000   0.00000   0.00000  -0.00397  -0.01386
  51        2PX         0.00000   0.40713   0.00000   0.00000   0.00000
  52        2PY         0.02845   0.00000   0.40713  -0.00000  -0.00000
  53        2PZ        -0.00000   0.00000   0.00000   0.37128   0.16630
  54        3S         -0.00000   0.00000  -0.00000  -0.04556  -0.11614
  55        3PX         0.00000   0.39910   0.00000   0.00000   0.00000
  56        3PY         0.02281   0.00000   0.39910  -0.00000  -0.00000
  57        3PZ        -0.00000   0.00000   0.00000   0.39197   0.23199
  58 6   H  1S          0.00715   0.21191   0.12235   0.06980   0.02415
  59        2S          0.00328   0.10990   0.06345   0.05185   0.00622
  60 7   H  1S          0.00715  -0.21191   0.12235   0.06980   0.02415
  61        2S          0.00328  -0.10990   0.06345   0.05185   0.00622
  62 8   H  1S         -0.01430   0.00000  -0.24470   0.06980   0.02415
  63        2S         -0.00656   0.00000  -0.12690   0.05185   0.00622
                          26        27        28        29        30
                        (E)--O    (E)--O    (A1)--O   (E)--O    (E)--O
     Eigenvalues --    -0.54101  -0.54101  -0.46696  -0.45868  -0.45868
   1 1   B  1S          0.00000   0.00000  -0.01825  -0.00000   0.00000
   2        2S          0.00000   0.00000   0.01431   0.00000   0.00000
   3        2PX         0.00000   0.25650   0.00000   0.00000   0.08676
   4        2PY        -0.25650   0.00000  -0.00000   0.08676   0.00000
   5        2PZ         0.00000   0.00000  -0.03429  -0.00000   0.00000
   6        3S         -0.00000   0.00000   0.11078  -0.00000   0.00000
   7        3PX         0.00000   0.23240   0.00000   0.00000  -0.00361
   8        3PY        -0.23240   0.00000  -0.00000  -0.00361   0.00000
   9        3PZ         0.00000   0.00000   0.14564   0.00000   0.00000
  10 2   Cl 1S          0.01274   0.00000  -0.00205  -0.00304   0.00000
  11        2S         -0.07754   0.00000   0.01244   0.01828   0.00000
  12        2PX         0.00000  -0.11882   0.00000   0.00000   0.13614
  13        2PY        -0.14599   0.00000  -0.00694   0.02303   0.00000
  14        2PZ         0.06459   0.00000  -0.15246  -0.17790   0.00000
  15        3S          0.08434   0.00000  -0.02081  -0.03805   0.00000
  16        3PX         0.00000   0.25906   0.00000   0.00000  -0.29288
  17        3PY         0.31254   0.00000   0.01580  -0.04821   0.00000
  18        3PZ        -0.13997   0.00000   0.33093   0.38321   0.00000
  19        4S          0.21900   0.00000  -0.00394   0.00895   0.00000
  20        4PX         0.00000   0.16921   0.00000   0.00000  -0.26531
  21        4PY         0.19007   0.00000   0.01011  -0.04825   0.00000
  22        4PZ        -0.07279   0.00000   0.26243   0.34408   0.00000
  23 3   Cl 1S         -0.00637  -0.01103  -0.00205   0.00152  -0.00263
  24        2S          0.03877   0.06715   0.01244  -0.00914   0.01583
  25        2PX         0.11467   0.07979  -0.00601   0.04898   0.05131
  26        2PY         0.05262  -0.11467   0.00347   0.10786   0.04898
  27        2PZ        -0.03229  -0.05593  -0.15246   0.08895  -0.15407
  28        3S         -0.04217  -0.07304  -0.02081   0.01903  -0.03295
  29        3PX        -0.24751  -0.16964   0.01369  -0.10595  -0.10938
  30        3PY        -0.11616   0.24751  -0.00790  -0.23172  -0.10595
  31        3PZ         0.06998   0.12121   0.33093  -0.19160   0.33187
  32        4S         -0.10950  -0.18966  -0.00394  -0.00448   0.00775
  33        4PX        -0.15557  -0.10025   0.00876  -0.09399  -0.10252
  34        4PY        -0.07939   0.15557  -0.00506  -0.21105  -0.09399
  35        4PZ         0.03639   0.06303   0.26243  -0.17204   0.29798
  36 4   Cl 1S         -0.00637   0.01103  -0.00205   0.00152   0.00263
  37        2S          0.03877  -0.06715   0.01244  -0.00914  -0.01583
  38        2PX        -0.11467   0.07979   0.00601  -0.04898   0.05131
  39        2PY         0.05262   0.11467   0.00347   0.10786  -0.04898
  40        2PZ        -0.03229   0.05593  -0.15246   0.08895   0.15407
  41        3S         -0.04217   0.07304  -0.02081   0.01903   0.03295
  42        3PX         0.24751  -0.16964  -0.01369   0.10595  -0.10938
  43        3PY        -0.11616  -0.24751  -0.00790  -0.23172   0.10595
  44        3PZ         0.06998  -0.12121   0.33093  -0.19160  -0.33187
  45        4S         -0.10950   0.18966  -0.00394  -0.00448  -0.00775
  46        4PX         0.15557  -0.10025  -0.00876   0.09399  -0.10252
  47        4PY        -0.07939  -0.15557  -0.00506  -0.21105   0.09399
  48        4PZ         0.03639  -0.06303   0.26243  -0.17204  -0.29798
  49 5   N  1S          0.00000   0.00000   0.03826   0.00000   0.00000
  50        2S         -0.00000   0.00000  -0.01949  -0.00000   0.00000
  51        2PX         0.00000  -0.06144   0.00000   0.00000  -0.03208
  52        2PY         0.06144   0.00000   0.00000  -0.03208   0.00000
  53        2PZ        -0.00000   0.00000   0.13392   0.00000   0.00000
  54        3S          0.00000   0.00000  -0.26009  -0.00000   0.00000
  55        3PX         0.00000  -0.08612   0.00000   0.00000  -0.00468
  56        3PY         0.08612   0.00000   0.00000  -0.00468   0.00000
  57        3PZ        -0.00000   0.00000   0.22417   0.00000   0.00000
  58 6   H  1S          0.02221  -0.03847   0.01546  -0.01648  -0.02854
  59        2S          0.02924  -0.05064   0.01009  -0.01808  -0.03131
  60 7   H  1S          0.02221   0.03847   0.01546  -0.01648   0.02854
  61        2S          0.02924   0.05064   0.01009  -0.01808   0.03131
  62 8   H  1S         -0.04442   0.00000   0.01546   0.03295   0.00000
  63        2S         -0.05848   0.00000   0.01009   0.03616   0.00000
                          31        32        33        34        35
                        (E)--O    (E)--O    (A2)--O   (A1)--V   (E)--V
     Eigenvalues --    -0.42859  -0.42859  -0.41798   0.16659   0.21977
   1 1   B  1S         -0.00000   0.00000   0.00000  -0.00477   0.00000
   2        2S          0.00000   0.00000   0.00000  -0.00767   0.00000
   3        2PX         0.00000  -0.10675  -0.00000   0.00000   0.33929
   4        2PY        -0.10675   0.00000   0.00000   0.00000   0.00000
   5        2PZ        -0.00000   0.00000   0.00000  -0.07224   0.00000
   6        3S          0.00000   0.00000   0.00000   0.28162   0.00000
   7        3PX         0.00000   0.06870   0.00000   0.00000   1.20857
   8        3PY         0.06870   0.00000   0.00000   0.00000   0.00000
   9        3PZ        -0.00000   0.00000   0.00000  -0.07654   0.00000
  10 2   Cl 1S         -0.00061   0.00000   0.00000   0.00416   0.00000
  11        2S          0.00383   0.00000   0.00000  -0.02476   0.00000
  12        2PX         0.00000  -0.12862  -0.16877   0.00000   0.01859
  13        2PY        -0.15480   0.00000   0.00000  -0.00030   0.00000
  14        2PZ        -0.11998   0.00000   0.00000  -0.03221   0.00000
  15        3S         -0.00003   0.00000   0.00000   0.09390   0.00000
  16        3PX         0.00000   0.27980   0.36804   0.00000  -0.02682
  17        3PY         0.33555   0.00000   0.00000  -0.00214   0.00000
  18        3PZ         0.26066   0.00000   0.00000   0.07986   0.00000
  19        4S         -0.04755   0.00000   0.00000  -0.13186   0.00000
  20        4PX         0.00000   0.23831   0.32281   0.00000  -0.25689
  21        4PY         0.31527   0.00000   0.00000   0.06461   0.00000
  22        4PZ         0.22363   0.00000   0.00000   0.02734   0.00000
  23 3   Cl 1S          0.00030  -0.00053  -0.00000   0.00416  -0.01093
  24        2S         -0.00192   0.00332   0.00000  -0.02476   0.07014
  25        2PX         0.01134  -0.14826   0.08439  -0.00026  -0.04464
  26        2PY        -0.13516   0.01134   0.14616   0.00015   0.03650
  27        2PZ         0.05999  -0.10391  -0.00000  -0.03221   0.03300
  28        3S          0.00001  -0.00002  -0.00000   0.09390  -0.03136
  29        3PX        -0.02414   0.32161  -0.18402  -0.00185   0.09230
  30        3PY         0.29374  -0.02414  -0.31873   0.00107  -0.06877
  31        3PZ        -0.13033   0.22574   0.00000   0.07986  -0.06804
  32        4S          0.02377  -0.04118  -0.00000  -0.13186  -0.63215
  33        4PX        -0.03332   0.29603  -0.16140   0.05595   0.35140
  34        4PY         0.25755  -0.03332  -0.27956  -0.03231  -0.35119
  35        4PZ        -0.11181   0.19367   0.00000   0.02734  -0.24772
  36 4   Cl 1S          0.00030   0.00053   0.00000   0.00416   0.01093
  37        2S         -0.00192  -0.00332  -0.00000  -0.02476  -0.07014
  38        2PX        -0.01134  -0.14826   0.08439   0.00026  -0.04464
  39        2PY        -0.13516  -0.01134  -0.14616   0.00015  -0.03650
  40        2PZ         0.05999   0.10391   0.00000  -0.03221  -0.03300
  41        3S          0.00001   0.00002   0.00000   0.09390   0.03136
  42        3PX         0.02414   0.32161  -0.18402   0.00185   0.09230
  43        3PY         0.29374   0.02414   0.31873   0.00107   0.06877
  44        3PZ        -0.13033  -0.22574  -0.00000   0.07986   0.06804
  45        4S          0.02377   0.04118   0.00000  -0.13186   0.63215
  46        4PX         0.03332   0.29603  -0.16140  -0.05595   0.35140
  47        4PY         0.25755   0.03332   0.27956  -0.03231   0.35119
  48        4PZ        -0.11181  -0.19367  -0.00000   0.02734   0.24772
  49 5   N  1S          0.00000   0.00000   0.00000  -0.14395   0.00000
  50        2S         -0.00000   0.00000   0.00000   0.05963   0.00000
  51        2PX         0.00000  -0.01665  -0.00000   0.00000   0.18230
  52        2PY        -0.01665   0.00000   0.00000   0.00000   0.00000
  53        2PZ         0.00000   0.00000   0.00000   0.11482   0.00000
  54        3S         -0.00000   0.00000   0.00000   1.51603   0.00000
  55        3PX         0.00000  -0.02531  -0.00000   0.00000   0.61430
  56        3PY        -0.02531   0.00000   0.00000   0.00000   0.00000
  57        3PZ        -0.00000   0.00000   0.00000   0.37854   0.00000
  58 6   H  1S         -0.00402  -0.00696  -0.00000  -0.04332  -0.10754
  59        2S          0.00277   0.00480   0.00000  -0.79057  -1.04044
  60 7   H  1S         -0.00402   0.00696   0.00000  -0.04332   0.10754
  61        2S          0.00277  -0.00480  -0.00000  -0.79057   1.04044
  62 8   H  1S          0.00804   0.00000   0.00000  -0.04332   0.00000
  63        2S         -0.00555   0.00000   0.00000  -0.79057   0.00000
                          36        37        38        39        40
                        (E)--V    (A1)--V   (E)--V    (E)--V    (A1)--V
     Eigenvalues --     0.21977   0.24165   0.26093   0.26093   0.35641
   1 1   B  1S         -0.00000  -0.20205   0.00000   0.00000  -0.14373
   2        2S          0.00000   0.16394  -0.00000   0.00000   0.14435
   3        2PX         0.00000   0.00000   0.00000   0.32117   0.00000
   4        2PY         0.33929  -0.00000   0.32117   0.00000  -0.00000
   5        2PZ        -0.00000  -0.27837   0.00000   0.00000   0.35974
   6        3S          0.00000   2.29951  -0.00000   0.00000   1.55070
   7        3PX         0.00000   0.00000   0.00000   1.49176   0.00000
   8        3PY         1.20857   0.00000   1.49176   0.00000   0.00000
   9        3PZ        -0.00000  -1.05735   0.00000   0.00000   1.71469
  10 2   Cl 1S         -0.01262  -0.01625  -0.01447   0.00000  -0.00417
  11        2S          0.08099   0.10401   0.09322   0.00000   0.02652
  12        2PX         0.00000   0.00000   0.00000   0.05256   0.00000
  13        2PY        -0.06571  -0.09216  -0.05100   0.00000  -0.00821
  14        2PZ         0.03810   0.00758   0.03751   0.00000   0.04441
  15        3S         -0.03621  -0.06300  -0.03993   0.00000  -0.02545
  16        3PX         0.00000   0.00000   0.00000  -0.11578   0.00000
  17        3PY         0.13201   0.18044   0.09083   0.00000   0.01340
  18        3PZ        -0.07857  -0.01718  -0.07506   0.00000  -0.08493
  19        4S         -0.72994  -0.78378  -0.88819   0.00000  -0.06393
  20        4PX         0.00000   0.00000   0.00000  -0.31160   0.00000
  21        4PY         0.55416   0.80028   0.64209   0.00000   0.03801
  22        4PZ        -0.28604  -0.05428  -0.34481   0.00000  -0.40190
  23 3   Cl 1S          0.00631  -0.01625   0.00723  -0.01253  -0.00417
  24        2S         -0.04050   0.10401  -0.04661   0.08073   0.02652
  25        2PX         0.03650  -0.07982   0.04484  -0.02511  -0.00711
  26        2PY        -0.00249   0.04608   0.02667   0.04484   0.00411
  27        2PZ        -0.01905   0.00758  -0.01875   0.03248   0.04441
  28        3S          0.01810  -0.06300   0.01996  -0.03458  -0.02545
  29        3PX        -0.06877   0.15626  -0.08947   0.03918   0.01160
  30        3PY         0.01289  -0.09022  -0.06413  -0.08947  -0.00670
  31        3PZ         0.03929  -0.01718   0.03753  -0.06500  -0.08493
  32        4S          0.36497  -0.78378   0.44410  -0.76920  -0.06393
  33        4PX        -0.35119   0.69307  -0.41296   0.40366   0.03292
  34        4PY        -0.05413  -0.40014  -0.07318  -0.41296  -0.01900
  35        4PZ         0.14302  -0.05428   0.17241  -0.29862  -0.40190
  36 4   Cl 1S          0.00631  -0.01625   0.00723   0.01253  -0.00417
  37        2S         -0.04050   0.10401  -0.04661  -0.08073   0.02652
  38        2PX        -0.03650   0.07982  -0.04484  -0.02511   0.00711
  39        2PY        -0.00249   0.04608   0.02667  -0.04484   0.00411
  40        2PZ        -0.01905   0.00758  -0.01875  -0.03248   0.04441
  41        3S          0.01810  -0.06300   0.01996   0.03458  -0.02545
  42        3PX         0.06877  -0.15626   0.08947   0.03918  -0.01160
  43        3PY         0.01289  -0.09022  -0.06413   0.08947  -0.00670
  44        3PZ         0.03929  -0.01718   0.03753   0.06500  -0.08493
  45        4S          0.36497  -0.78378   0.44410   0.76920  -0.06393
  46        4PX         0.35119  -0.69307   0.41296   0.40366  -0.03292
  47        4PY        -0.05413  -0.40014  -0.07318   0.41296  -0.01900
  48        4PZ         0.14302  -0.05428   0.17241   0.29862  -0.40190
  49 5   N  1S          0.00000   0.01250  -0.00000   0.00000   0.06832
  50        2S         -0.00000  -0.01583   0.00000   0.00000  -0.03494
  51        2PX         0.00000   0.00000   0.00000  -0.23501   0.00000
  52        2PY         0.18230  -0.00000  -0.23501   0.00000  -0.00000
  53        2PZ         0.00000   0.02211  -0.00000   0.00000   0.28957
  54        3S         -0.00000  -0.07049   0.00000   0.00000  -0.68774
  55        3PX         0.00000   0.00000   0.00000  -0.78377   0.00000
  56        3PY         0.61430  -0.00000  -0.78377   0.00000  -0.00000
  57        3PZ         0.00000   0.02701  -0.00000   0.00000   1.02744
  58 6   H  1S         -0.06209  -0.00049   0.00849   0.01470  -0.02288
  59        2S         -0.60070   0.08084   0.41501   0.71882  -0.46349
  60 7   H  1S         -0.06209  -0.00049   0.00849  -0.01470  -0.02288
  61        2S         -0.60070   0.08084   0.41501  -0.71882  -0.46349
  62 8   H  1S          0.12418  -0.00049  -0.01698   0.00000  -0.02288
  63        2S          1.20140   0.08084  -0.83002   0.00000  -0.46349
                          41        42        43        44        45
                        (E)--V    (E)--V    (A1)--V   (A1)--V   (E)--V
     Eigenvalues --     0.65882   0.65882   0.67279   0.70608   0.78737
   1 1   B  1S         -0.00000   0.00000  -0.02285   0.06205  -0.00000
   2        2S          0.00000   0.00000   0.09475  -0.59500   0.00000
   3        2PX         0.00000  -1.06817   0.00000   0.00000   0.00000
   4        2PY        -1.06817   0.00000   0.00000  -0.00000   0.26394
   5        2PZ        -0.00000   0.00000  -0.96254  -0.60360  -0.00000
   6        3S          0.00000   0.00000   0.32882  -0.59343  -0.00000
   7        3PX         0.00000   1.77909   0.00000   0.00000   0.00000
   8        3PY         1.77909   0.00000  -0.00000  -0.00000  -0.93024
   9        3PZ         0.00000   0.00000   1.28123   1.41496   0.00000
  10 2   Cl 1S         -0.01360   0.00000   0.01906  -0.03045  -0.03588
  11        2S          0.08574   0.00000  -0.11622   0.18399   0.21774
  12        2PX         0.00000   0.07160   0.00000   0.00000   0.00000
  13        2PY         0.08266   0.00000   0.00205   0.00789   0.16154
  14        2PZ         0.02358   0.00000   0.07061   0.00480  -0.11843
  15        3S         -0.31199   0.00000   0.53049  -0.90341  -1.01049
  16        3PX         0.00000  -0.21972   0.00000   0.00000   0.00000
  17        3PY        -0.21955   0.00000  -0.03022  -0.00090  -0.57340
  18        3PZ        -0.09306   0.00000  -0.21247  -0.00962   0.40697
  19        4S         -0.45085   0.00000  -0.40476   1.23146   1.37818
  20        4PX         0.00000  -0.13112   0.00000   0.00000   0.00000
  21        4PY         0.34498   0.00000   0.01346  -0.36009   0.38324
  22        4PZ        -0.08744   0.00000  -0.05938  -0.10847  -0.24821
  23 3   Cl 1S          0.00680  -0.01177   0.01906  -0.03045   0.01794
  24        2S         -0.04287   0.07425  -0.11622   0.18399  -0.10887
  25        2PX        -0.00479   0.07990   0.00178   0.00684  -0.06046
  26        2PY         0.07437  -0.00479  -0.00103  -0.00395   0.05683
  27        2PZ        -0.01179   0.02042   0.07061   0.00480   0.05922
  28        3S          0.15599  -0.27019   0.53049  -0.90341   0.50525
  29        3PX        -0.00007  -0.21960  -0.02617  -0.00078   0.20756
  30        3PY        -0.21968  -0.00007   0.01511   0.00045  -0.21390
  31        3PZ         0.04653  -0.08059  -0.21247  -0.00962  -0.20348
  32        4S          0.22542  -0.39044  -0.40476   1.23146  -0.68909
  33        4PX        -0.20616   0.22595   0.01166  -0.31185  -0.04222
  34        4PY        -0.01210  -0.20616  -0.00673   0.18005   0.31011
  35        4PZ         0.04372  -0.07572  -0.05938  -0.10847   0.12411
  36 4   Cl 1S          0.00680   0.01177   0.01906  -0.03045   0.01794
  37        2S         -0.04287  -0.07425  -0.11622   0.18399  -0.10887
  38        2PX         0.00479   0.07990  -0.00178  -0.00684   0.06046
  39        2PY         0.07437   0.00479  -0.00103  -0.00395   0.05683
  40        2PZ        -0.01179  -0.02042   0.07061   0.00480   0.05922
  41        3S          0.15599   0.27019   0.53049  -0.90341   0.50525
  42        3PX         0.00007  -0.21960   0.02617   0.00078  -0.20756
  43        3PY        -0.21968   0.00007   0.01511   0.00045  -0.21390
  44        3PZ         0.04653   0.08059  -0.21247  -0.00962  -0.20348
  45        4S          0.22542   0.39044  -0.40476   1.23146  -0.68909
  46        4PX         0.20616   0.22595  -0.01166   0.31185   0.04222
  47        4PY        -0.01210   0.20616  -0.00673   0.18005   0.31011
  48        4PZ         0.04372   0.07572  -0.05938  -0.10847   0.12411
  49 5   N  1S          0.00000   0.00000   0.00032  -0.02465   0.00000
  50        2S          0.00000   0.00000   0.04598   0.05087  -0.00000
  51        2PX         0.00000   0.02244   0.00000   0.00000   0.00000
  52        2PY         0.02244   0.00000  -0.00000  -0.00000   0.04669
  53        2PZ        -0.00000   0.00000  -0.09434   0.03873   0.00000
  54        3S         -0.00000   0.00000  -0.31342  -0.00743   0.00000
  55        3PX         0.00000   0.03972   0.00000   0.00000   0.00000
  56        3PY         0.03972   0.00000  -0.00000   0.00000  -0.03681
  57        3PZ         0.00000   0.00000  -0.02735  -0.07347  -0.00000
  58 6   H  1S         -0.06658  -0.11532   0.10408   0.05298   0.08929
  59        2S         -0.16201  -0.28061  -0.20722  -0.30629   0.00982
  60 7   H  1S         -0.06658   0.11532   0.10408   0.05298   0.08929
  61        2S         -0.16201   0.28061  -0.20722  -0.30629   0.00982
  62 8   H  1S          0.13316   0.00000   0.10408   0.05298  -0.17857
  63        2S          0.32402   0.00000  -0.20722  -0.30629  -0.01963
                          46        47        48        49        50
                        (E)--V    (E)--V    (E)--V    (A1)--V   (A1)--V
     Eigenvalues --     0.78737   0.79761   0.79761   0.80130   0.84869
   1 1   B  1S          0.00000  -0.00000   0.00000   0.00780  -0.01268
   2        2S          0.00000   0.00000   0.00000  -0.14888  -0.04642
   3        2PX         0.26394   0.00000  -0.03852   0.00000   0.00000
   4        2PY         0.00000  -0.03852   0.00000   0.00000  -0.00000
   5        2PZ         0.00000  -0.00000   0.00000   0.14662  -0.26757
   6        3S          0.00000  -0.00000   0.00000   1.71336   1.23674
   7        3PX        -0.93024   0.00000   0.24213   0.00000   0.00000
   8        3PY         0.00000   0.24213   0.00000  -0.00000   0.00000
   9        3PZ         0.00000   0.00000   0.00000  -0.88025   1.07557
  10 2   Cl 1S          0.00000  -0.00676   0.00000  -0.00114   0.00543
  11        2S          0.00000   0.04185   0.00000   0.01047  -0.03160
  12        2PX         0.02192   0.00000  -0.22839   0.00000   0.00000
  13        2PY         0.00000   0.11092   0.00000   0.20303   0.03974
  14        2PZ         0.00000   0.12932   0.00000   0.03416  -0.18325
  15        3S          0.00000  -0.17566   0.00000   0.08217   0.22784
  16        3PX        -0.09407   0.00000   0.78876   0.00000   0.00000
  17        3PY         0.00000  -0.38071   0.00000  -0.71108  -0.15158
  18        3PZ         0.00000  -0.44822   0.00000  -0.12236   0.66875
  19        4S          0.00000   0.06955   0.00000  -0.57041  -0.34384
  20        4PX         0.28573   0.00000  -0.75041   0.00000   0.00000
  21        4PY         0.00000   0.39875   0.00000   1.04965   0.24285
  22        4PZ         0.00000   0.38922   0.00000   0.10827  -0.92209
  23 3   Cl 1S         -0.03107   0.00338  -0.00586  -0.00114   0.00543
  24        2S          0.18856  -0.02092   0.03624   0.01047  -0.03160
  25        2PX         0.12663  -0.14693   0.02609   0.17583   0.03441
  26        2PY        -0.06046  -0.14357  -0.14693  -0.10152  -0.01987
  27        2PZ        -0.10257  -0.06466   0.11200   0.03416  -0.18325
  28        3S         -0.87511   0.08783  -0.15213   0.08217   0.22784
  29        3PX        -0.45356   0.50640  -0.08835  -0.61581  -0.13127
  30        3PY         0.20756   0.49639   0.50640   0.35554   0.07579
  31        3PZ         0.35244   0.22411  -0.38817  -0.12236   0.66875
  32        4S          1.19354  -0.03478   0.06024  -0.57041  -0.34384
  33        4PX         0.35886  -0.49760   0.11146   0.90902   0.21031
  34        4PY        -0.04222  -0.46312  -0.49760  -0.52483  -0.12142
  35        4PZ        -0.21496  -0.19461   0.33708   0.10827  -0.92209
  36 4   Cl 1S          0.03107   0.00338   0.00586  -0.00114   0.00543
  37        2S         -0.18856  -0.02092  -0.03624   0.01047  -0.03160
  38        2PX         0.12663   0.14693   0.02609  -0.17583  -0.03441
  39        2PY         0.06046  -0.14357   0.14693  -0.10152  -0.01987
  40        2PZ         0.10257  -0.06466  -0.11200   0.03416  -0.18325
  41        3S          0.87511   0.08783   0.15213   0.08217   0.22784
  42        3PX        -0.45356  -0.50640  -0.08835   0.61581   0.13127
  43        3PY        -0.20756   0.49639  -0.50640   0.35554   0.07579
  44        3PZ        -0.35244   0.22411   0.38817  -0.12236   0.66875
  45        4S         -1.19354  -0.03478  -0.06024  -0.57041  -0.34384
  46        4PX         0.35886   0.49760   0.11146  -0.90902  -0.21031
  47        4PY         0.04222  -0.46312   0.49760  -0.52483  -0.12142
  48        4PZ         0.21496  -0.19461  -0.33708   0.10827  -0.92209
  49 5   N  1S          0.00000   0.00000   0.00000  -0.00642   0.03398
  50        2S          0.00000  -0.00000   0.00000   0.02881   0.02313
  51        2PX         0.04669   0.00000  -0.07789   0.00000   0.00000
  52        2PY         0.00000  -0.07789   0.00000   0.00000   0.00000
  53        2PZ         0.00000   0.00000   0.00000  -0.06389  -0.13960
  54        3S          0.00000   0.00000   0.00000   0.01865  -0.63024
  55        3PX        -0.03681   0.00000   0.07027   0.00000   0.00000
  56        3PY         0.00000   0.07027   0.00000  -0.00000  -0.00000
  57        3PZ         0.00000  -0.00000   0.00000   0.08055   0.20989
  58 6   H  1S          0.15465  -0.06221  -0.10776  -0.02549   0.13762
  59        2S          0.01700   0.04376   0.07579   0.04994  -0.12799
  60 7   H  1S         -0.15465  -0.06221   0.10776  -0.02549   0.13762
  61        2S         -0.01700   0.04376  -0.07579   0.04994  -0.12799
  62 8   H  1S          0.00000   0.12443   0.00000  -0.02549   0.13762
  63        2S          0.00000  -0.08752   0.00000   0.04994  -0.12799
                          51        52        53        54        55
                        (E)--V    (E)--V    (A2)--V   (E)--V    (E)--V
     Eigenvalues --     0.86807   0.86807   0.93275   1.05745   1.05745
   1 1   B  1S          0.00000   0.00000   0.00000   0.00000   0.00000
   2        2S         -0.00000   0.00000   0.00000   0.00000   0.00000
   3        2PX         0.00000  -0.37304  -0.00000   0.00000  -0.06415
   4        2PY        -0.37304   0.00000   0.00000  -0.06415   0.00000
   5        2PZ         0.00000   0.00000   0.00000  -0.00000   0.00000
   6        3S         -0.00000   0.00000   0.00000  -0.00000   0.00000
   7        3PX         0.00000   2.15173  -0.00000   0.00000  -1.48251
   8        3PY         2.15173   0.00000   0.00000  -1.48251   0.00000
   9        3PZ        -0.00000   0.00000   0.00000   0.00000   0.00000
  10 2   Cl 1S          0.01502   0.00000   0.00000  -0.03823   0.00000
  11        2S         -0.08649   0.00000   0.00000   0.22862   0.00000
  12        2PX         0.00000  -0.14108   0.20213   0.00000  -0.06589
  13        2PY        -0.01000   0.00000   0.00000  -0.19541   0.00000
  14        2PZ        -0.20962   0.00000   0.00000  -0.02605   0.00000
  15        3S          0.60349   0.00000   0.00000  -1.39367   0.00000
  16        3PX         0.00000   0.52565  -0.73679   0.00000   0.23738
  17        3PY         0.04141   0.00000   0.00000   0.76755   0.00000
  18        3PZ         0.75498   0.00000   0.00000   0.08098   0.00000
  19        4S         -1.62592   0.00000   0.00000   2.29113   0.00000
  20        4PX         0.00000  -0.90405   0.83510   0.00000  -0.08532
  21        4PY         0.46916   0.00000   0.00000  -1.49755   0.00000
  22        4PZ        -1.11013   0.00000   0.00000   0.17928   0.00000
  23 3   Cl 1S         -0.00751   0.01301  -0.00000   0.01911  -0.03311
  24        2S          0.04325  -0.07490   0.00000  -0.11431   0.19799
  25        2PX        -0.05676  -0.04277  -0.10107   0.05608  -0.16303
  26        2PY        -0.10831  -0.05676  -0.17505  -0.09827   0.05608
  27        2PZ         0.10481  -0.18153  -0.00000   0.01303  -0.02256
  28        3S         -0.30174   0.52264  -0.00000   0.69684  -1.20696
  29        3PX         0.20968   0.16247   0.36839  -0.22957   0.63501
  30        3PY         0.40459   0.20968   0.63808   0.36992  -0.22957
  31        3PZ        -0.37749   0.65384   0.00000  -0.04049   0.07013
  32        4S          0.81296  -1.40809   0.00000  -1.14557   1.98418
  33        4PX        -0.59462   0.12585  -0.41755   0.61151  -1.14449
  34        4PY        -0.56075  -0.59462  -0.72321  -0.43838   0.61151
  35        4PZ         0.55507  -0.96140  -0.00000  -0.08964   0.15526
  36 4   Cl 1S         -0.00751  -0.01301   0.00000   0.01911   0.03311
  37        2S          0.04325   0.07490  -0.00000  -0.11431  -0.19799
  38        2PX         0.05676  -0.04277  -0.10107  -0.05608  -0.16303
  39        2PY        -0.10831   0.05676   0.17505  -0.09827  -0.05608
  40        2PZ         0.10481   0.18153   0.00000   0.01303   0.02256
  41        3S         -0.30174  -0.52264   0.00000   0.69684   1.20696
  42        3PX        -0.20968   0.16247   0.36839   0.22957   0.63501
  43        3PY         0.40459  -0.20968  -0.63808   0.36992   0.22957
  44        3PZ        -0.37749  -0.65384  -0.00000  -0.04049  -0.07013
  45        4S          0.81296   1.40809  -0.00000  -1.14557  -1.98418
  46        4PX         0.59462   0.12585  -0.41755  -0.61151  -1.14449
  47        4PY        -0.56075   0.59462   0.72321  -0.43838  -0.61151
  48        4PZ         0.55507   0.96140   0.00000  -0.08964  -0.15526
  49 5   N  1S         -0.00000   0.00000   0.00000  -0.00000   0.00000
  50        2S         -0.00000   0.00000   0.00000  -0.00000   0.00000
  51        2PX         0.00000   0.05752  -0.00000   0.00000  -0.13920
  52        2PY         0.05752   0.00000   0.00000  -0.13920   0.00000
  53        2PZ         0.00000   0.00000   0.00000  -0.00000   0.00000
  54        3S          0.00000   0.00000   0.00000   0.00000   0.00000
  55        3PX         0.00000  -0.32806   0.00000   0.00000   0.37504
  56        3PY        -0.32806   0.00000   0.00000   0.37504   0.00000
  57        3PZ        -0.00000   0.00000   0.00000  -0.00000   0.00000
  58 6   H  1S          0.09561   0.16561  -0.00000  -0.13559  -0.23485
  59        2S         -0.13209  -0.22879   0.00000   0.15365   0.26612
  60 7   H  1S          0.09561  -0.16561   0.00000  -0.13559   0.23485
  61        2S         -0.13209   0.22879  -0.00000   0.15365  -0.26612
  62 8   H  1S         -0.19123   0.00000   0.00000   0.27118   0.00000
  63        2S          0.26419   0.00000   0.00000  -0.30729   0.00000
                          56        57        58        59        60
                        (E)--V    (E)--V    (A1)--V   (A1)--V   (E)--V
     Eigenvalues --     1.19064   1.19064   1.19985   1.40257   1.46796
   1 1   B  1S          0.00000   0.00000  -0.04673  -0.11779   0.00000
   2        2S          0.00000   0.00000  -0.42192  -1.84578   0.00000
   3        2PX        -0.17808   0.00000   0.00000   0.00000   0.00000
   4        2PY         0.00000   0.17808   0.00000   0.00000   0.00964
   5        2PZ         0.00000  -0.00000   0.23980  -0.02207  -0.00000
   6        3S          0.00000  -0.00000   0.96398   4.94732  -0.00000
   7        3PX         0.79198   0.00000   0.00000   0.00000   0.00000
   8        3PY         0.00000  -0.79198  -0.00000  -0.00000  -0.47705
   9        3PZ         0.00000   0.00000  -0.71732  -0.93133   0.00000
  10 2   Cl 1S          0.00000   0.00890   0.00158   0.01360   0.00734
  11        2S          0.00000  -0.05611  -0.00763  -0.07425  -0.04633
  12        2PX        -0.01279   0.00000   0.00000   0.00000   0.00000
  13        2PY         0.00000   0.05575   0.00102  -0.00344   0.04070
  14        2PZ         0.00000  -0.07690   0.02232  -0.01401  -0.04310
  15        3S          0.00000   0.23906   0.10609   0.72768   0.21408
  16        3PX         0.06151   0.00000   0.00000   0.00000   0.00000
  17        3PY         0.00000  -0.22007  -0.00387  -0.00299  -0.16450
  18        3PZ         0.00000   0.28950  -0.09128   0.05500   0.17158
  19        4S          0.00000   0.08693  -0.41627  -1.96859  -0.02308
  20        4PX        -0.23085   0.00000   0.00000   0.00000   0.00000
  21        4PY         0.00000   0.12367   0.23669   0.92631   0.12141
  22        4PZ         0.00000  -0.24751   0.14894  -0.27090  -0.16649
  23 3   Cl 1S         -0.00770  -0.00445   0.00158   0.01360  -0.00367
  24        2S          0.04859   0.02806  -0.00763  -0.07425   0.02317
  25        2PX        -0.04501  -0.01860   0.00088  -0.00298  -0.00812
  26        2PY         0.01860   0.02353  -0.00051   0.00172   0.02663
  27        2PZ         0.06660   0.03845   0.02232  -0.01401   0.02155
  28        3S         -0.20703  -0.11953   0.10609   0.72768  -0.10704
  29        3PX         0.18043   0.06866  -0.00336  -0.00259   0.02959
  30        3PY        -0.06866  -0.10115   0.00194   0.00149  -0.11325
  31        3PZ        -0.25072  -0.14475  -0.09128   0.05500  -0.08579
  32        4S         -0.07529  -0.04347  -0.41627  -1.96859   0.01154
  33        4PX        -0.15047   0.04641   0.20498   0.80221   0.04830
  34        4PY        -0.04641   0.20406  -0.11835  -0.46316   0.20506
  35        4PZ         0.21435   0.12375   0.14894  -0.27090   0.08325
  36 4   Cl 1S          0.00770  -0.00445   0.00158   0.01360  -0.00367
  37        2S         -0.04859   0.02806  -0.00763  -0.07425   0.02317
  38        2PX        -0.04501   0.01860  -0.00088   0.00298   0.00812
  39        2PY        -0.01860   0.02353  -0.00051   0.00172   0.02663
  40        2PZ        -0.06660   0.03845   0.02232  -0.01401   0.02155
  41        3S          0.20703  -0.11953   0.10609   0.72768  -0.10704
  42        3PX         0.18043  -0.06866   0.00336   0.00259  -0.02959
  43        3PY         0.06866  -0.10115   0.00194   0.00149  -0.11325
  44        3PZ         0.25072  -0.14475  -0.09128   0.05500  -0.08579
  45        4S          0.07529  -0.04347  -0.41627  -1.96859   0.01154
  46        4PX        -0.15047  -0.04641  -0.20498  -0.80221  -0.04830
  47        4PY         0.04641   0.20406  -0.11835  -0.46316   0.20506
  48        4PZ        -0.21435   0.12375   0.14894  -0.27090   0.08325
  49 5   N  1S          0.00000  -0.00000   0.10186  -0.01578  -0.00000
  50        2S          0.00000   0.00000  -0.17766   0.08952   0.00000
  51        2PX        -0.22935   0.00000   0.00000   0.00000   0.00000
  52        2PY         0.00000   0.22935  -0.00000  -0.00000  -1.08639
  53        2PZ         0.00000   0.00000   0.28265   0.55509   0.00000
  54        3S          0.00000   0.00000  -0.17294  -0.48779   0.00000
  55        3PX        -0.41889   0.00000   0.00000   0.00000   0.00000
  56        3PY         0.00000   0.41889   0.00000   0.00000   1.70067
  57        3PZ         0.00000  -0.00000  -0.60376  -0.32019  -0.00000
  58 6   H  1S          0.93262  -0.53845   0.73645  -0.23445  -0.05969
  59        2S         -0.82658   0.47723  -0.23609   0.12941  -0.35625
  60 7   H  1S         -0.93262  -0.53845   0.73645  -0.23445  -0.05969
  61        2S          0.82658   0.47723  -0.23609   0.12941  -0.35625
  62 8   H  1S          0.00000   1.07690   0.73645  -0.23445   0.11938
  63        2S          0.00000  -0.95445  -0.23609   0.12941   0.71249
                          61        62        63
                        (E)--V    (A1)--V   (A1)--V
     Eigenvalues --     1.46796   1.58652   2.74467
   1 1   B  1S          0.00000  -0.10971   0.08106
   2        2S          0.00000  -1.39217   0.35248
   3        2PX         0.00964   0.00000   0.00000
   4        2PY         0.00000   0.00000  -0.00000
   5        2PZ         0.00000   0.26004  -0.34992
   6        3S          0.00000   4.76534  -2.33772
   7        3PX        -0.47705   0.00000   0.00000
   8        3PY         0.00000  -0.00000   0.00000
   9        3PZ         0.00000   0.17113  -0.39108
  10 2   Cl 1S          0.00000   0.00356  -0.00093
  11        2S          0.00000  -0.01388   0.00185
  12        2PX         0.02194   0.00000   0.00000
  13        2PY         0.00000  -0.02651   0.01394
  14        2PZ         0.00000   0.02166  -0.00695
  15        3S          0.00000   0.35987  -0.16591
  16        3PX        -0.09616   0.00000   0.00000
  17        3PY         0.00000   0.09480  -0.04804
  18        3PZ         0.00000  -0.07992   0.01621
  19        4S          0.00000  -1.35038   0.62184
  20        4PX         0.23295   0.00000   0.00000
  21        4PY         0.00000   0.59873  -0.26328
  22        4PZ         0.00000  -0.19067   0.19146
  23 3   Cl 1S          0.00636   0.00356  -0.00093
  24        2S         -0.04013  -0.01388   0.00185
  25        2PX         0.03601  -0.02295   0.01208
  26        2PY        -0.00812   0.01325  -0.00697
  27        2PZ        -0.03733   0.02166  -0.00695
  28        3S          0.18540   0.35987  -0.16591
  29        3PX        -0.14742   0.08210  -0.04160
  30        3PY         0.02959  -0.04740   0.02402
  31        3PZ         0.14860  -0.07992   0.01621
  32        4S         -0.01999  -1.35038   0.62184
  33        4PX         0.14930   0.51852  -0.22801
  34        4PY         0.04830  -0.29936   0.13164
  35        4PZ        -0.14419  -0.19067   0.19146
  36 4   Cl 1S         -0.00636   0.00356  -0.00093
  37        2S          0.04013  -0.01388   0.00185
  38        2PX         0.03601   0.02295  -0.01208
  39        2PY         0.00812   0.01325  -0.00697
  40        2PZ         0.03733   0.02166  -0.00695
  41        3S         -0.18540   0.35987  -0.16591
  42        3PX        -0.14742  -0.08210   0.04160
  43        3PY        -0.02959  -0.04740   0.02402
  44        3PZ        -0.14860  -0.07992   0.01621
  45        4S          0.01999  -1.35038   0.62184
  46        4PX         0.14930  -0.51852   0.22801
  47        4PY        -0.04830  -0.29936   0.13164
  48        4PZ         0.14419  -0.19067   0.19146
  49 5   N  1S          0.00000   0.04079  -0.01321
  50        2S          0.00000  -0.28781  -1.89594
  51        2PX        -1.08639   0.00000   0.00000
  52        2PY         0.00000  -0.00000   0.00000
  53        2PZ         0.00000  -0.90374   0.20153
  54        3S          0.00000   0.03405   3.17625
  55        3PX         1.70067   0.00000   0.00000
  56        3PY         0.00000   0.00000  -0.00000
  57        3PZ         0.00000   1.80983  -0.55340
  58 6   H  1S         -0.10338   0.07186  -0.30247
  59        2S         -0.61704  -0.66243  -0.15594
  60 7   H  1S          0.10338   0.07186  -0.30247
  61        2S          0.61704  -0.66243  -0.15594
  62 8   H  1S          0.00000   0.07186  -0.30247
  63        2S          0.00000  -0.66243  -0.15594
     Density Matrix:
                           1         2         3         4         5
   1 1   B  1S          2.02872
   2        2S          0.12455   0.10109
   3        2PX         0.00000  -0.00000   0.19798
   4        2PY         0.00000  -0.00000  -0.00000   0.19798
   5        2PZ         0.01164  -0.00931   0.00000   0.00000   0.14487
   6        3S         -0.37359   0.18228  -0.00000  -0.00000  -0.13340
   7        3PX         0.00000  -0.00000   0.10405  -0.00000   0.00000
   8        3PY         0.00000  -0.00000  -0.00000   0.10405   0.00000
   9        3PZ         0.02851  -0.01453   0.00000   0.00000   0.04297
  10 2   Cl 1S         -0.00089   0.00871   0.00000   0.00770  -0.00271
  11        2S          0.00696  -0.02445  -0.00000  -0.04026   0.01232
  12        2PX        -0.00000   0.00000  -0.01384   0.00000  -0.00000
  13        2PY        -0.03751   0.03686   0.00000   0.11974  -0.04464
  14        2PZ         0.01273  -0.01098  -0.00000  -0.04422  -0.00186
  15        3S         -0.03013   0.01861   0.00000   0.04904  -0.02244
  16        3PX         0.00000  -0.00000   0.02638  -0.00000   0.00000
  17        3PY         0.07755  -0.08098  -0.00000  -0.25201   0.09415
  18        3PZ        -0.02578   0.02454   0.00000   0.09108   0.00046
  19        4S          0.09502  -0.03963  -0.00000  -0.00952   0.03836
  20        4PX         0.00000  -0.00000  -0.00851  -0.00000   0.00000
  21        4PY         0.00202  -0.02941  -0.00000  -0.18346   0.04315
  22        4PZ        -0.00564   0.01084   0.00000   0.05659   0.00232
  23 3   Cl 1S         -0.00089   0.00871   0.00667  -0.00385  -0.00271
  24        2S          0.00696  -0.02445  -0.03486   0.02013   0.01232
  25        2PX        -0.03248   0.03192   0.08635  -0.05784  -0.03866
  26        2PY         0.01875  -0.01843  -0.05784   0.01955   0.02232
  27        2PZ         0.01273  -0.01098  -0.03830   0.02211  -0.00186
  28        3S         -0.03013   0.01861   0.04247  -0.02452  -0.02244
  29        3PX         0.06716  -0.07013  -0.18241   0.12054   0.08154
  30        3PY        -0.03877   0.04049   0.12054  -0.04322  -0.04707
  31        3PZ        -0.02578   0.02454   0.07888  -0.04554   0.00046
  32        4S          0.09502  -0.03963  -0.00825   0.00476   0.03836
  33        4PX         0.00175  -0.02547  -0.13973   0.07576   0.03737
  34        4PY        -0.00101   0.01471   0.07576  -0.05225  -0.02157
  35        4PZ        -0.00564   0.01084   0.04901  -0.02830   0.00232
  36 4   Cl 1S         -0.00089   0.00871  -0.00667  -0.00385  -0.00271
  37        2S          0.00696  -0.02445   0.03486   0.02013   0.01232
  38        2PX         0.03248  -0.03192   0.08635   0.05784   0.03866
  39        2PY         0.01875  -0.01843   0.05784   0.01955   0.02232
  40        2PZ         0.01273  -0.01098   0.03830   0.02211  -0.00186
  41        3S         -0.03013   0.01861  -0.04247  -0.02452  -0.02244
  42        3PX        -0.06716   0.07013  -0.18241  -0.12054  -0.08154
  43        3PY        -0.03877   0.04049  -0.12054  -0.04322  -0.04707
  44        3PZ        -0.02578   0.02454  -0.07888  -0.04554   0.00046
  45        4S          0.09502  -0.03963   0.00825   0.00476   0.03836
  46        4PX        -0.00175   0.02547  -0.13973  -0.07576  -0.03737
  47        4PY        -0.00101   0.01471  -0.07576  -0.05225  -0.02157
  48        4PZ        -0.00564   0.01084  -0.04901  -0.02830   0.00232
  49 5   N  1S          0.00931  -0.01882  -0.00000  -0.00000  -0.03081
  50        2S         -0.00829   0.01335   0.00000   0.00000   0.03015
  51        2PX         0.00000  -0.00000   0.00645  -0.00000  -0.00000
  52        2PY         0.00000  -0.00000  -0.00000   0.00645  -0.00000
  53        2PZ         0.06450  -0.07007  -0.00000  -0.00000  -0.18032
  54        3S         -0.01703   0.03273   0.00000   0.00000   0.15789
  55        3PX         0.00000  -0.00000  -0.00155   0.00000  -0.00000
  56        3PY         0.00000  -0.00000   0.00000  -0.00155  -0.00000
  57        3PZ         0.03825  -0.05778  -0.00000  -0.00000  -0.22528
  58 6   H  1S          0.00765  -0.00676  -0.00294  -0.00170  -0.01941
  59        2S          0.02389  -0.01404  -0.02209  -0.01275  -0.01617
  60 7   H  1S          0.00765  -0.00676   0.00294  -0.00170  -0.01941
  61        2S          0.02389  -0.01404   0.02209  -0.01275  -0.01617
[...]
      7        1           0.000137150    0.000021492    0.000110573
      8        1          -0.000057070   -0.000110030    0.000127023
 -------------------------------------------------------------------
 Cartesian Forces:  Max     0.000514136 RMS     0.000137429
 FormGI is forming the generalized inverse of G from B-inverse, IUseBI=4.

 GradGradGradGradGradGradGradGradGradGradGradGradGradGradGradGradGradGrad
 Berny optimization.
 Internal  Forces:  Max     0.000173905 RMS     0.000099740
 Search for a local minimum.
 Step number   1 out of a maximum of    2
 All quantities printed in internal units (Hartrees-Bohrs-Radians)
 Second derivative matrix not updated -- analytic derivatives used.
 ITU=  0
     Eigenvalues ---    0.00211   0.05241   0.05241   0.06592   0.06592
     Eigenvalues ---    0.12802   0.13790   0.13790   0.14241   0.14241
     Eigenvalues ---    0.16332   0.22228   0.26971   0.26971   0.32986
     Eigenvalues ---    0.46735   0.46735   0.47261
 Angle between quadratic step and forces=  22.84 degrees.
 Linear search not attempted -- first point.
 Iteration  1 RMS(Cart)=  0.00041093 RMS(Int)=  0.00000013
 Iteration  2 RMS(Cart)=  0.00000010 RMS(Int)=  0.00000007
 ClnCor:  largest displacement from symmetrization is 7.15D-09 for atom     8.
 Variable       Old X    -DE/DX   Delta X   Delta X   Delta X     New X
                                 (Linear)    (Quad)   (Total)
    R1        3.54333   0.00015   0.00000   0.00074   0.00074   3.54407
    R2        3.54333   0.00015   0.00000   0.00074   0.00074   3.54407
    R3        3.54333   0.00015   0.00000   0.00074   0.00074   3.54407
    R4        3.07318   0.00017   0.00000   0.00062   0.00062   3.07381
    R5        1.91988  -0.00017   0.00000  -0.00039  -0.00039   1.91949
    R6        1.91988  -0.00017   0.00000  -0.00039  -0.00039   1.91949
    R7        1.91988  -0.00017   0.00000  -0.00039  -0.00039   1.91949
    A1        1.98093  -0.00010   0.00000  -0.00031  -0.00031   1.98062
    A2        1.98093  -0.00010   0.00000  -0.00031  -0.00031   1.98062
    A3        1.83365   0.00012   0.00000   0.00038   0.00038   1.83403
    A4        1.98093  -0.00010   0.00000  -0.00031  -0.00031   1.98062
    A5        1.83365   0.00012   0.00000   0.00038   0.00038   1.83403
    A6        1.83365   0.00012   0.00000   0.00038   0.00038   1.83403
    A7        1.91120  -0.00006   0.00000  -0.00048  -0.00048   1.91072
    A8        1.91120  -0.00006   0.00000  -0.00048  -0.00048   1.91072
    A9        1.91120  -0.00006   0.00000  -0.00048  -0.00048   1.91072
   A10        1.91006   0.00006   0.00000   0.00048   0.00048   1.91055
   A11        1.91006   0.00006   0.00000   0.00048   0.00048   1.91055
   A12        1.91006   0.00006   0.00000   0.00048   0.00048   1.91055
    D1       -1.04720   0.00000   0.00000  -0.00000  -0.00000  -1.04720
    D2        1.04720   0.00000   0.00000  -0.00000  -0.00000   1.04720
    D3        3.14159   0.00000   0.00000  -0.00000   0.00000   3.14159
    D4        1.04720  -0.00000   0.00000  -0.00000  -0.00000   1.04720
    D5        3.14159  -0.00000   0.00000  -0.00000   0.00000   3.14159
    D6       -1.04720  -0.00000   0.00000  -0.00000   0.00000  -1.04720
    D7        3.14159  -0.00000   0.00000  -0.00000   0.00000   3.14159
    D8       -1.04720  -0.00000   0.00000  -0.00000   0.00000  -1.04720
    D9        1.04720   0.00000   0.00000  -0.00000   0.00000   1.04720
         Item               Value     Threshold  Converged?
 Maximum Force            0.000174     0.000450     YES
 RMS     Force            0.000100     0.000300     YES
 Maximum Displacement     0.001238     0.001800     YES
 RMS     Displacement     0.000411     0.001200     YES
 Predicted change in Energy=-5.205784D-07
 Optimization completed.
    -- Stationary point found.
                           ----------------------------
                           !   Optimized Parameters   !
                           ! (Angstroms and Degrees)  !
 --------------------------                            --------------------------
 ! Name  Definition              Value          Derivative Info.                !
 --------------------------------------------------------------------------------
 ! R1    R(1,2)                  1.8751         -DE/DX =    0.0002              !
 ! R2    R(1,3)                  1.8751         -DE/DX =    0.0002              !
 ! R3    R(1,4)                  1.8751         -DE/DX =    0.0002              !
 ! R4    R(1,5)                  1.6263         -DE/DX =    0.0002              !
 ! R5    R(5,6)                  1.016          -DE/DX =   -0.0002              !
 ! R6    R(5,7)                  1.016          -DE/DX =   -0.0002              !
 ! R7    R(5,8)                  1.016          -DE/DX =   -0.0002              !
 ! A1    A(2,1,3)              113.4987         -DE/DX =   -0.0001              !
 ! A2    A(2,1,4)              113.4987         -DE/DX =   -0.0001              !
 ! A3    A(2,1,5)              105.0603         -DE/DX =    0.0001              !
 ! A4    A(3,1,4)              113.4987         -DE/DX =   -0.0001              !
 ! A5    A(3,1,5)              105.0603         -DE/DX =    0.0001              !
 ! A6    A(4,1,5)              105.0603         -DE/DX =    0.0001              !
 ! A7    A(1,5,6)              109.5038         -DE/DX =   -0.0001              !
 ! A8    A(1,5,7)              109.5038         -DE/DX =   -0.0001              !
 ! A9    A(1,5,8)              109.5038         -DE/DX =   -0.0001              !
 ! A10   A(6,5,7)              109.4386         -DE/DX =    0.0001              !
 ! A11   A(6,5,8)              109.4386         -DE/DX =    0.0001              !
 ! A12   A(7,5,8)              109.4386         -DE/DX =    0.0001              !
 ! D1    D(2,1,5,6)            -60.0            -DE/DX =    0.0                 !
 ! D2    D(2,1,5,7)             60.0            -DE/DX =    0.0                 !
 ! D3    D(2,1,5,8)            180.0            -DE/DX =    0.0                 !
 ! D4    D(3,1,5,6)             60.0            -DE/DX =    0.0                 !
 ! D5    D(3,1,5,7)            180.0            -DE/DX =    0.0                 !
 ! D6    D(3,1,5,8)            -60.0            -DE/DX =    0.0                 !
 ! D7    D(4,1,5,6)            180.0            -DE/DX =    0.0                 !
 ! D8    D(4,1,5,7)            -60.0            -DE/DX =    0.0                 !
 ! D9    D(4,1,5,8)             60.0            -DE/DX =    0.0                 !
 --------------------------------------------------------------------------------
 GradGradGradGradGradGradGradGradGradGradGradGradGradGradGradGradGradGrad


 ----------------------------------------------------------------------

 Electric dipole moment (input orientation):
 (Debye = 10**-18 statcoulomb cm , SI units = C m)
                  (au)            (Debye)         (10**-30 SI)
   Tot        0.310847D+01      0.790094D+01      0.263547D+02
   x         -0.487194D-01     -0.123832D+00     -0.413060D+00
   y         -0.314795D+00     -0.800128D+00     -0.266894D+01
   z         -0.309211D+01     -0.785935D+01     -0.262160D+02

 Dipole polarizability, Alpha (input orientation).
 (esu units = cm**3 , SI units = C**2 m**2 J**-1)
 Alpha(0;0):
               (au)            (10**-24 esu)      (10**-40 SI)
   iso        0.390832D+02      0.579153D+01      0.644395D+01
   aniso      0.189825D+02      0.281291D+01      0.312978D+01
   xx         0.454060D+02      0.672848D+01      0.748644D+01
   yx        -0.301292D-01     -0.446469D-02     -0.496764D-02
   yy         0.452160D+02      0.670032D+01      0.745511D+01
   zx        -0.295948D+00     -0.438549D-01     -0.487952D-01
   zy        -0.191223D+01     -0.283364D+00     -0.315285D+00
   zz         0.266276D+02      0.394580D+01      0.439029D+01

 First dipole hyperpolarizability, Beta (input orientation).
 ||, _|_  parallel and perpendicular components, (z) with respect to z axis,
 vector components x,y,z.  Values do not include the 1/n! factor of 1/2.
 (esu units = statvolt**-1 cm**4 , SI units = C**3 m**3 J**-2)
 Beta(0;0,0):
               (au)            (10**-30 esu)      (10**-50 SI)
   || (z)    -0.657990D+02     -0.568452D+00     -0.210975D+00
   _|_(z)    -0.219330D+02     -0.189484D+00     -0.703251D-01
   x         -0.518366D+01     -0.447828D-01     -0.166207D-01
   y         -0.334936D+02     -0.289359D+00     -0.107393D+00
   z         -0.328995D+03     -0.284226D+01     -0.105488D+01
   ||         0.661472D+02      0.571461D+00      0.212092D+00
   xxx       -0.450859D+02     -0.389507D+00     -0.144562D+00
   xxy       -0.136639D+02     -0.118046D+00     -0.438114D-01
   yxy        0.423038D+02      0.365472D+00      0.135641D+00
   yyy       -0.194700D+01     -0.168206D-01     -0.624279D-02
   xxz       -0.362706D+02     -0.313350D+00     -0.116297D+00
   yxz       -0.408468D+01     -0.352884D-01     -0.130969D-01
   yyz       -0.387974D+02     -0.335179D+00     -0.124399D+00
   zxz        0.105421D+01      0.910759D-02      0.338019D-02
   zyz        0.444636D+01      0.384131D-01      0.142566D-01
   zzz       -0.345970D+02     -0.298891D+00     -0.110931D+00

 ----------------------------------------------------------------------

 Dipole orientation:
     5         -5.17305108          2.53621633         -0.56778152
    17         -6.65923941          5.61822787         -1.48846693
    17         -1.76085662          2.28228741         -1.48846693
    17         -7.09905720         -0.29186630         -1.48846693
     7         -5.17305108          2.53621633          2.50540106
     1         -4.15437970          4.03199912          3.14638964
     1         -6.97777266          2.67052022          3.14638964
     1         -4.38700087          0.90612964          3.14638964

 Electric dipole moment (dipole orientation):
 (Debye = 10**-18 statcoulomb cm , SI units = C m)
                  (au)            (Debye)         (10**-30 SI)
   Tot        0.310847D+01      0.790094D+01      0.263547D+02
   x          0.000000D+00      0.000000D+00      0.000000D+00
   y          0.000000D+00      0.000000D+00      0.000000D+00
   z          0.310847D+01      0.790094D+01      0.263547D+02

 Dipole polarizability, Alpha (dipole orientation).
 (esu units = cm**3 , SI units = C**2 m**2 J**-1)
 Alpha(0;0):
               (au)            (10**-24 esu)      (10**-40 SI)
   iso        0.390832D+02      0.579153D+01      0.644395D+01
   aniso      0.189825D+02      0.281291D+01      0.312978D+01
   xx         0.454107D+02      0.672917D+01      0.748721D+01
   yx         0.000000D+00      0.000000D+00      0.000000D+00
   yy         0.454107D+02      0.672917D+01      0.748721D+01
   zx         0.000000D+00      0.000000D+00      0.000000D+00
   zy         0.000000D+00      0.000000D+00      0.000000D+00
   zz         0.264282D+02      0.391626D+01      0.435743D+01

 First dipole hyperpolarizability, Beta (dipole orientation).
 ||, _|_  parallel and perpendicular components, (z) with respect to z axis,
 vector components x,y,z.  Values do not include the 1/n! factor of 1/2.
 (esu units = statvolt**-1 cm**4 , SI units = C**3 m**3 J**-2)
 Beta(0;0,0):
               (au)            (10**-30 esu)      (10**-50 SI)
   || (z)     0.661472D+02      0.571461D+00      0.212092D+00
   _|_(z)     0.220491D+02      0.190487D+00      0.706973D-01
   x          0.000000D+00      0.000000D+00      0.000000D+00
   y          0.000000D+00      0.000000D+00      0.000000D+00
   z          0.330736D+03      0.285730D+01      0.106046D+01
   ||         0.661472D+02      0.571461D+00      0.212092D+00
   xxx       -0.433309D+02     -0.374346D+00     -0.138935D+00
   xxy        0.981909D+01      0.848293D-01      0.314836D-01
   yxy        0.433309D+02      0.374346D+00      0.138935D+00
   yyy       -0.981909D+01     -0.848293D-01     -0.314836D-01
   xxz        0.381711D+02      0.329768D+00      0.122390D+00
   yxz        0.000000D+00      0.000000D+00      0.000000D+00
   yyz        0.381711D+02      0.329768D+00      0.122390D+00
   zxz        0.000000D+00      0.000000D+00      0.000000D+00
   zyz        0.000000D+00      0.000000D+00      0.000000D+00
   zzz        0.339033D+02      0.292898D+00      0.108706D+00

 ----------------------------------------------------------------------
 1\1\GINC-IISERK51\Freq\RHF\3-21G\B1Cl3H3N1\GAUSSIAN\16-Jun-2025\0\\#N 
 Geom=AllCheck Guess=TCheck SCRF=Check GenChk RHF/3-21G Freq\\Title Car
 d Required\\0,1\B,-2.7313466192,-1.3026021801,0.4776950074\Cl,-3.50877
 30068,-2.8751822018,1.1398263224\Cl,-0.9183843295,-1.1210170988,0.9204
 276416\Cl,-3.7439744442,0.2364106775,0.8267536035\N,-2.7568351314,-1.4
 672932833,-1.1400017725\H,-2.2225302751,-2.2895372558,-1.4057026982\H,
 -3.7169947687,-1.5715889576,-1.4552472246\H,-2.3469291378,-0.643804899
 8,-1.5712879541\\Version=EM64L-G16RevB.01\State=1-A1\HF=-1452.4836198\
 RMSD=9.651e-10\RMSF=1.374e-04\ZeroPoint=0.0512939\Thermal=0.0575965\Di
 pole=-0.0487194,-0.3147947,-3.0921062\DipoleDeriv=1.8722812,-0.0007135
 ,-0.0070088,-0.0007136,1.8677811,-0.0452868,-0.0070089,-0.0452868,1.42
 75572,-0.524295,-0.2117615,0.0932951,-0.2154064,-0.8545814,0.1923586,0
 .0404769,0.0824136,-0.4461665,-0.9840905,-0.0574209,-0.1465193,-0.0452
 391,-0.4239794,-0.0108239,-0.0254458,-0.0016721,-0.416973,-0.5970416,0
 .2705185,0.066348,0.2619816,-0.8184403,-0.0967371,-0.0019074,0.0040561
 ,-0.4095611,-0.589294,-0.0008366,-0.0082171,-0.0008366,-0.5945699,-0.0
 530941,-0.0082171,-0.0530941,-1.1106872,0.2695359,-0.0139446,-0.009027
 9,-0.0093319,0.2772396,0.020801,0.0278522,-0.0336601,0.3205781,0.28686
 14,0.003975,0.0199709,-0.0026072,0.2614018,0.0073687,-0.0454481,0.0024
 238,0.3190903,0.2660428,0.0101836,-0.0088408,0.012153,0.2851484,-0.014
 5863,0.0196981,0.0448197,0.3161622\Polar=45.4060348,-0.0301292,45.2160
 212,-0.2959478,-1.9122326,26.6275795\PolarDeriv=-0.976791,-0.4078568,0
 .9103067,-1.9323235,-0.086394,0.0378089,-0.1952863,0.8774091,-0.184203
 3,-0.0863944,-1.9852275,0.1942104,0.1556706,-0.086394,0.1027673,0.0049
 101,-0.0183601,-2.0783652,-5.7116768,-5.7048667,-0.7450831,2.1705471,0
 .3405197,-0.0211389,-0.7408724,-3.2039411,-12.4002532,0.328369,2.72659
 17,-0.0501492,-0.1562782,0.3841215,0.4637432,-2.6590808,-5.3788087,3.9
 379352,14.6723307,0.7870506,0.4951196,1.8476439,-0.0167576,-0.1268421,
 0.2015291,6.2546337,1.193749,0.0219533,1.2587934,-0.0146031,0.3513038,
 0.0341515,-0.3950733,6.0122933,0.6162373,2.4666122,-7.555819,5.7255958
 ,-0.9794371,1.1082135,-0.2064157,0.1035256,0.8240699,-4.1991425,11.987
 5119,-0.2329761,1.2149618,-0.1546765,-0.2063688,-0.3009267,-0.0060705,
 -3.3167172,5.0661957,1.8571265,2.4787102,0.8008529,-2.3105639,2.518560
 7,0.2160444,-0.1261788,0.7458781,-2.3020562,0.211427,0.2160445,2.61248
 06,-0.6861344,1.9785606,0.2160441,2.0724806,-0.1176699,-0.6311594,-1.3
 874447,1.5331055,-1.8094064,1.5097889,-1.4795806,0.6654486,0.8732514,-
 0.9425636,1.993121,-4.00396,0.6469362,-2.209759,-1.1523361,-0.3807938,
 0.5805884,-1.0305894,1.2191829,-1.7949849,-1.1140124,-5.408261,-0.6131
 806,-0.0094599,-2.6469485,-0.2838853,-1.6449666,-0.4172629,-0.9285363,
 -0.3707277,-0.2566926,-1.1727211,-0.036582,-1.3931524,-0.2451308,-0.06
 8961,-2.297676,-0.1966797,-1.4272527,0.9684013,1.2218108,1.1293282,-1.
 5861129,-0.6285598,0.9045402,0.5245092,1.5085121,3.5664564,-0.6372398,
 -2.4451206,1.9002715,-0.348944,-0.5824554,-1.1382989,1.1547581,2.33755
 97,-2.254597\HyperPolar=-45.0858804,-13.6639097,42.3037779,-1.9470011,
 -36.2705842,-4.0846759,-38.7974042,1.0542147,4.4463619,-34.5970411\Qua
 drupole=-4.6039476,-4.4655897,9.0695373,0.0219385,0.2154936,1.3923873\
 PG=C03V [C3(B1N1),3SGV(Cl1H1)]\NImag=0\\0.21851759,0.00001513,0.218612
 99,0.00014860,0.00096021,0.22794708,-0.03500847,-0.02420319,0.01219509
 ,0.05046149,-0.02434753,-0.07196552,0.02452661,0.04500159,0.11854568,0
 .01010360,0.02017300,-0.03541596,-0.02307198,-0.04646092,0.05075847,-0
 .08863158,-0.00703631,-0.02060877,-0.01929327,-0.01298748,-0.00102619,
 0.15077397,-0.00655393,-0.02370066,-0.00227023,-0.01909844,-0.00653668
 ,-0.00099706,0.01321155,0.02948951,-0.01581450,-0.00190784,-0.03005770
 ,0.00546843,0.00288341,0.00341984,0.03913021,0.00410728,0.03950216,-0.
 04340087,0.03135696,0.00956751,0.00420646,-0.00069450,-0.00007764,-0.0
 2379696,0.01724444,0.00205342,0.06610335,0.03101892,-0.07063392,-0.014
 80109,0.00578234,-0.02981862,-0.00025363,0.00991064,-0.00203341,-0.000
 76631,-0.05843983,0.11787394,0.00686473,-0.01080988,-0.02835514,-0.001
 27023,0.00690250,0.00320206,-0.00360565,0.00219546,0.00342025,-0.01828
 495,0.02796593,0.03578836,-0.06415346,-0.00006056,-0.00059484,0.000260
 46,-0.00601241,0.01415554,-0.01643193,-0.00466214,-0.03127348,-0.00216
 823,0.01062551,0.01663622,0.79625309,-0.00006055,-0.06453538,-0.003843
 52,-0.00656341,-0.00812682,0.02778318,-0.00282065,0.00297682,-0.004254
 94,0.00933501,-0.01349899,-0.02664085,-0.00052087,0.79296814,-0.000594
 84,-0.00384351,-0.10189745,0.00617116,0.01116308,-0.02076524,-0.012971
 12,-0.00287149,-0.01517649,0.00631823,-0.01140420,-0.01296438,-0.00511
 633,-0.03305858,0.47161213,0.00486985,0.00068686,0.00267434,-0.0008523
 1,-0.00092679,-0.00054751,-0.00195943,-0.00010883,-0.00028989,0.000868
 07,-0.00041178,-0.00059056,-0.17849527,0.15013167,0.04571710,0.1811317
 1,0.00251101,0.00070126,-0.00559019,-0.00068864,-0.00142661,0.00096150
 ,-0.00039400,-0.00016549,0.00104750,-0.00024175,0.00103037,0.00027281,
 0.15174143,-0.31336147,-0.06862306,-0.16975323,0.33181773,0.01725905,-
 0.02712753,-0.00801164,-0.00143386,0.00078824,0.00144385,0.00022058,0.
 00177583,0.00128984,0.00076882,-0.00173460,-0.00415216,0.05858764,-0.0
 8762909,-0.08959400,-0.05463655,0.08264353,0.08648690,0.00278394,-0.00
 072281,-0.00543754,-0.00054936,-0.00027897,0.00099301,0.00133743,0.000
 14075,0.00087439,-0.00073504,0.00062993,0.00087404,-0.39702588,-0.0337
 5849,-0.09787691,-0.01908717,-0.00467421,-0.00858713,0.42702493,-0.003
 32579,0.00466390,-0.00191993,-0.00054894,-0.00187485,0.00023089,-0.000
 10186,0.00058940,-0.00041885,0.00096698,-0.00145679,0.00055297,-0.0360
 5555,-0.08436663,-0.00934603,0.03759991,0.00787824,0.01360115,0.038603
 83,0.07487671,-0.03130836,-0.00387546,-0.00988837,0.00141828,-0.000555
 64,0.00158914,-0.00153692,-0.00060112,-0.00418055,0.00111552,0.0013898
 9,0.00135675,-0.12070708,-0.01107173,-0.10005824,0.01369683,0.00149435
 ,0.00539834,0.11606270,0.01146240,0.09753470,0.00502298,-0.00003609,0.
 00205562,0.00077499,0.00024608,-0.00052883,-0.00199822,-0.00017339,-0.
 00014858,-0.00107678,0.00088427,-0.00062359,-0.13823878,-0.11574271,0.
 05835272,0.01352455,0.02149939,-0.01217856,-0.01374884,-0.03713857,0.0
 2125903,0.13574010,0.00074274,0.00685731,0.00293814,0.00031868,0.00120
 343,-0.00143696,0.00021812,-0.00061950,-0.00069025,0.00047269,-0.00146
 257,-0.00043894,-0.11505540,-0.31205566,0.11798380,-0.01721782,-0.0264
 7400,0.01768247,0.00005998,-0.00030997,0.00175731,0.13046102,0.3328609
 6,0.01334171,0.02643102,-0.01432083,0.00052310,0.00075272,-0.00423214,
 0.00039787,-0.00133868,0.00178265,-0.00146092,-0.00039597,0.00170427,0
 .06831234,0.13871553,-0.13115631,-0.00602376,-0.01220645,0.00713886,-0
 .00690256,-0.01416260,0.00824823,-0.06818780,-0.13779557,0.13083527\\0
 .00000175,0.00001129,0.00011087,0.00005564,0.00010839,-0.00010754,-0.0
 0013286,-0.00001926,-0.00009157,0.00007275,-0.00011803,-0.00008475,0.0
 0000810,0.00005234,0.00051414,0.00007470,-0.00012327,-0.00010355,-0.00
 013715,-0.00002149,-0.00011057,0.00005707,0.00011003,-0.00012702\\\@


 HERE WE GO......
 SLIDING DOWN THE RAZOR BLADE OF LIFE......
                                 TOM LEHRER
 Job cpu time:       0 days  0 hours  0 minutes  1.6 seconds.
 Elapsed time:       0 days  0 hours  0 minutes  1.6 seconds.
 File lengths (MBytes):  RWF=      7 Int=      0 D2E=      0 Chk=      2 Scr=      1
 Normal termination of Gaussian 16 at Mon Jun 16 21:39:11 2025.
