 Entering Gaussian System, Link 0=g16
 Initial command:
 /home/user/softwares/g16/g16/l1.exe "/home/user/scratch/Gau-341388.inp" -scrdir="/home/user/scratch/"
 Entering Link 1 = /home/user/softwares/g16/g16/l1.exe PID=    341390.
  
 Copyright (c) 1988-2017, Gaussian, Inc.  All Rights Reserved.
  
 This is part of the Gaussian(R) 16 program.  It is based on
 the Gaussian(R) 09 system (copyright 2009, Gaussian, Inc.),
 the Gaussian(R) 03 system (copyright 2003, Gaussian, Inc.),
 the Gaussian(R) 98 system (copyright 1998, Gaussian, Inc.),
 the Gaussian(R) 94 system (copyright 1995, Gaussian, Inc.),
 the Gaussian 92(TM) system (copyright 1992, Gaussian, Inc.),
 the Gaussian 90(TM) system (copyright 1990, Gaussian, Inc.),
 the Gaussian 88(TM) system (copyright 1988, Gaussian, Inc.),
 the Gaussian 86(TM) system (copyright 1986, Carnegie Mellon
 University), and the Gaussian 82(TM) system (copyright 1983,
 Carnegie Mellon University). Gaussian is a federally registered
 trademark of Gaussian, Inc.
  
 This software contains proprietary and confidential information,
 including trade secrets, belonging to Gaussian, Inc.
  
 This software is provided under written license and may be
 used, copied, transmitted, or stored only in accord with that
 written license.
  
 The following legend is applicable only to US Government
 contracts under FAR:
  
                    RESTRICTED RIGHTS LEGEND
  
 Use, reproduction and disclosure by the US Government is
 subject to restrictions as set forth in subparagraphs (a)
 and (c) of the Commercial Computer Software - Restricted
 Rights clause in FAR 52.227-19.
  
 Gaussian, Inc.
 340 Quinnipiac St., Bldg. 40, Wallingford CT 06492
  
  
 ---------------------------------------------------------------
 Warning -- This program may not be used in any manner that
 competes with the business of Gaussian, Inc. or will provide
 assistance to any competitor of Gaussian, Inc.  The licensee
 of this program is prohibited from giving any competitor of
 Gaussian, Inc. access to this program.  By using this program,
 the user acknowledges that Gaussian, Inc. is engaged in the
 business of creating and licensing software in the field of
 computational chemistry and represents and warrants to the
 licensee that it is not a competitor of Gaussian, Inc. and that
 it will not use this program in any manner prohibited above.
 ---------------------------------------------------------------
  

 Cite this work as:
 Gaussian 16, Revision B.01,
 M. J. Frisch, G. W. Trucks, H. B. Schlegel, G. E. Scuseria, 
 M. A. Robb, J. R. Cheeseman, G. Scalmani, V. Barone, 
 G. A. Petersson, H. Nakatsuji, X. Li, M. Caricato, A. V. Marenich, 
 J. Bloino, B. G. Janesko, R. Gomperts, B. Mennucci, H. P. Hratchian, 
 J. V. Ortiz, A. F. Izmaylov, J. L. Sonnenberg, D. Williams-Young, 
 F. Ding, F. Lipparini, F. Egidi, J. Goings, B. Peng, A. Petrone, 
 T. Henderson, D. Ranasinghe, V. G. Zakrzewski, J. Gao, N. Rega, 
 G. Zheng, W. Liang, M. Hada, M. Ehara, K. Toyota, R. Fukuda, 
 J. Hasegawa, M. Ishida, T. Nakajima, Y. Honda, O. Kitao, H. Nakai, 
 T. Vreven, K. Throssell, J. A. Montgomery, Jr., J. E. Peralta, 
 F. Ogliaro, M. J. Bearpark, J. J. Heyd, E. N. Brothers, K. N. Kudin, 
 V. N. Staroverov, T. A. Keith, R. Kobayashi, J. Normand, 
 K. Raghavachari, A. P. Rendell, J. C. Burant, S. S. Iyengar, 
 J. Tomasi, M. Cossi, J. M. Millam, M. Klene, C. Adamo, R. Cammi, 
 J. W. Ochterski, R. L. Martin, K. Morokuma, O. Farkas, 
 J. B. Foresman, and D. J. Fox, Gaussian, Inc., Wallingford CT, 2016.
 
 ******************************************
 Gaussian 16:  EM64L-G16RevB.01 20-Dec-2017
                10-Jun-2025 
 ******************************************
 %nproc=20
 Will use up to   20 processors via shared memory.
 %mem=15GB
 %chk=meth_cyclooctatetraene_isomer.chk
 ---------------------------------------------
 #p hf/3-21g opt freq gfinput gfprint pop=full
 ---------------------------------------------
 1/18=20,19=15,38=1/1,3;
 2/9=110,12=2,17=6,18=5,40=1/2;
 3/5=5,11=9,24=110,25=1,30=1,71=1/1,2,3;
 4//1;
 5/5=2,38=5/2;
 6/7=3,28=1/1;
 7//1,2,3,16;
 1/18=20,19=15/3(2);
 2/9=110/2;
 99//99;
 2/9=110/2;
 3/5=5,11=9,25=1,30=1,71=1/1,2,3;
 4/5=5,16=3,69=1/1;
 5/5=2,38=5/2;
 7//1,2,3,16;
 1/18=20,19=15/3(-5);
 2/9=110/2;
 6/7=3,19=2,28=1/1;
 99/9=1/99;
 Leave Link    1 at Tue Jun 10 01:33:55 2025, MaxMem=  2013265920 cpu:               1.3 elap:               0.1
 (Enter /home/user/softwares/g16/g16/l101.exe)
 ------------
 optimisation
 ------------
 Symbolic Z-matrix:
 Charge =  0 Multiplicity = 1
 C                     0.84534  -0.59355   1.22944 
 C                     2.35945  -0.59355   1.22944 
 C                     1.47337   2.91289   1.22944 
 C                     3.01386   0.48917   2.06748 
 C                     2.98749   2.9129    1.22952 
 C                     3.67874   1.56578   1.22984 
 H                     0.48438  -1.16003   2.13095 
 H                     1.11238   2.84748   2.29126 
 H                     3.3152    3.44965   2.0952 
 H                     2.69763  -1.59645   1.60942 
 H                     3.79701   0.01056   2.71549 
 C                     0.15409   0.75357   1.22909 
 H                     0.04703   1.10456   2.29087 
 C                     0.81897   1.83016   0.39142 
 H                     1.56979   1.37155  -0.30273 
 C                     5.11187   1.78075   1.75094 
 H                     5.56728   2.58966   1.21881 
 H                     5.08066   2.01328   2.7949 
 H                     3.31529   3.44929   0.36365 
 
 ITRead=  0  0  0  0  0  0  0  0  0  0  0  0  0  0  0  0  0  0  0
 MicOpt= -1 -1 -1 -1 -1 -1 -1 -1 -1 -1 -1 -1 -1 -1 -1 -1 -1 -1 -1
 NAtoms=     19 NQM=       19 NQMF=       0 NMMI=      0 NMMIF=      0
                NMic=       0 NMicF=      0.
                    Isotopes and Nuclear Properties:
 (Nuclear quadrupole moments (NQMom) in fm**2, nuclear magnetic moments (NMagM)
  in nuclear magnetons)

  Atom         1           2           3           4           5           6           7           8           9          10
 IAtWgt=          12          12          12          12          12          12           1           1           1           1
 AtmWgt=  12.0000000  12.0000000  12.0000000  12.0000000  12.0000000  12.0000000   1.0078250   1.0078250   1.0078250   1.0078250
 NucSpn=           0           0           0           0           0           0           1           1           1           1
 AtZEff=  -0.0000000  -0.0000000  -0.0000000  -0.0000000  -0.0000000  -0.0000000  -0.0000000  -0.0000000  -0.0000000  -0.0000000
 NQMom=    0.0000000   0.0000000   0.0000000   0.0000000   0.0000000   0.0000000   0.0000000   0.0000000   0.0000000   0.0000000
 NMagM=    0.0000000   0.0000000   0.0000000   0.0000000   0.0000000   0.0000000   2.7928460   2.7928460   2.7928460   2.7928460
 AtZNuc=   6.0000000   6.0000000   6.0000000   6.0000000   6.0000000   6.0000000   1.0000000   1.0000000   1.0000000   1.0000000

  Atom        11          12          13          14          15          16          17          18          19
 IAtWgt=           1          12           1          12           1          12           1           1           1
 AtmWgt=   1.0078250  12.0000000   1.0078250  12.0000000   1.0078250  12.0000000   1.0078250   1.0078250   1.0078250
 NucSpn=           1           0           1           0           1           0           1           1           1
 AtZEff=  -0.0000000  -0.0000000  -0.0000000  -0.0000000  -0.0000000  -0.0000000  -0.0000000  -0.0000000  -0.0000000
 NQMom=    0.0000000   0.0000000   0.0000000   0.0000000   0.0000000   0.0000000   0.0000000   0.0000000   0.0000000
 NMagM=    2.7928460   0.0000000   2.7928460   0.0000000   2.7928460   0.0000000   2.7928460   2.7928460   2.7928460
 AtZNuc=   1.0000000   6.0000000   1.0000000   6.0000000   1.0000000   6.0000000   1.0000000   1.0000000   1.0000000
 Leave Link  101 at Tue Jun 10 01:33:56 2025, MaxMem=  2013265920 cpu:              24.7 elap:               1.2
 (Enter /home/user/softwares/g16/g16/l103.exe)

 GradGradGradGradGradGradGradGradGradGradGradGradGradGradGradGradGradGrad
 Berny optimization.
 Initialization pass.
                           ----------------------------
                           !    Initial Parameters    !
                           ! (Angstroms and Degrees)  !
 --------------------------                            --------------------------
 ! Name  Definition              Value          Derivative Info.                !
 --------------------------------------------------------------------------------
 ! R1    R(1,2)                  1.5141         estimate D2E/DX2                !
 ! R2    R(1,7)                  1.1242         estimate D2E/DX2                !
 ! R3    R(1,12)                 1.5141         estimate D2E/DX2                !
 ! R4    R(2,4)                  1.5175         estimate D2E/DX2                !
 ! R5    R(2,10)                 1.1245         estimate D2E/DX2                !
 ! R6    R(3,5)                  1.5141         estimate D2E/DX2                !
 ! R7    R(3,8)                  1.1234         estimate D2E/DX2                !
 ! R8    R(3,14)                 1.5175         estimate D2E/DX2                !
 ! R9    R(4,6)                  1.5175         estimate D2E/DX2                !
 ! R10   R(4,11)                 1.1235         estimate D2E/DX2                !
 ! R11   R(5,6)                  1.5141         estimate D2E/DX2                !
 ! R12   R(5,9)                  1.07           estimate D2E/DX2                !
 ! R13   R(5,19)                 1.07           estimate D2E/DX2                !
 ! R14   R(6,16)                 1.54           estimate D2E/DX2                !
 ! R15   R(12,13)                1.1234         estimate D2E/DX2                !
 ! R16   R(12,14)                1.5175         estimate D2E/DX2                !
 ! R17   R(14,15)                1.1207         estimate D2E/DX2                !
 ! R18   R(16,17)                1.07           estimate D2E/DX2                !
 ! R19   R(16,18)                1.07           estimate D2E/DX2                !
 ! A1    A(2,1,7)              108.7276         estimate D2E/DX2                !
 ! A2    A(2,1,12)             117.1639         estimate D2E/DX2                !
 ! A3    A(7,1,12)             107.5725         estimate D2E/DX2                !
 ! A4    A(1,2,4)              115.5459         estimate D2E/DX2                !
 ! A5    A(1,2,10)             107.5013         estimate D2E/DX2                !
 ! A6    A(4,2,10)             108.6641         estimate D2E/DX2                !
 ! A7    A(5,3,8)              108.7405         estimate D2E/DX2                !
 ! A8    A(5,3,14)             115.5481         estimate D2E/DX2                !
 ! A9    A(8,3,14)             109.9892         estimate D2E/DX2                !
 ! A10   A(2,4,6)              112.973          estimate D2E/DX2                !
 ! A11   A(2,4,11)             108.3709         estimate D2E/DX2                !
 ! A12   A(6,4,11)             108.3717         estimate D2E/DX2                !
 ! A13   A(3,5,6)              117.1638         estimate D2E/DX2                !
 ! A14   A(3,5,9)              107.8373         estimate D2E/DX2                !
 ! A15   A(3,5,19)             107.8373         estimate D2E/DX2                !
 ! A16   A(6,5,9)              107.8373         estimate D2E/DX2                !
 ! A17   A(6,5,19)             107.8373         estimate D2E/DX2                !
 ! A18   A(9,5,19)             108.0233         estimate D2E/DX2                !
 ! A19   A(4,6,5)              115.5498         estimate D2E/DX2                !
 ! A20   A(4,6,16)             108.6629         estimate D2E/DX2                !
 ! A21   A(5,6,16)             107.5014         estimate D2E/DX2                !
 ! A22   A(1,12,13)            108.739          estimate D2E/DX2                !
 ! A23   A(1,12,14)            115.55           estimate D2E/DX2                !
 ! A24   A(13,12,14)           109.9882         estimate D2E/DX2                !
 ! A25   A(3,14,12)            112.9727         estimate D2E/DX2                !
 ! A26   A(3,14,15)            110.1893         estimate D2E/DX2                !
 ! A27   A(12,14,15)           110.1897         estimate D2E/DX2                !
 ! A28   A(6,16,17)            109.4712         estimate D2E/DX2                !
 ! A29   A(6,16,18)            109.4712         estimate D2E/DX2                !
 ! A30   A(17,16,18)           109.4712         estimate D2E/DX2                !
 ! D1    D(7,1,2,4)            -84.4036         estimate D2E/DX2                !
 ! D2    D(7,1,2,10)            37.1047         estimate D2E/DX2                !
 ! D3    D(12,1,2,4)            37.7555         estimate D2E/DX2                !
 ! D4    D(12,1,2,10)          159.2639         estimate D2E/DX2                !
 ! D5    D(2,1,12,13)          -86.5044         estimate D2E/DX2                !
 ! D6    D(2,1,12,14)           37.7077         estimate D2E/DX2                !
 ! D7    D(7,1,12,13)           36.2501         estimate D2E/DX2                !
 ! D8    D(7,1,12,14)          160.4623         estimate D2E/DX2                !
 ! D9    D(1,2,4,6)           -108.9559         estimate D2E/DX2                !
 ! D10   D(1,2,4,11)           130.9452         estimate D2E/DX2                !
 ! D11   D(10,2,4,6)           130.1628         estimate D2E/DX2                !
 ! D12   D(10,2,4,11)           10.0639         estimate D2E/DX2                !
 ! D13   D(8,3,5,6)             86.4629         estimate D2E/DX2                !
 ! D14   D(8,3,5,9)            -35.326          estimate D2E/DX2                !
 ! D15   D(8,3,5,19)          -151.7483         estimate D2E/DX2                !
 ! D16   D(14,3,5,6)           -37.7504         estimate D2E/DX2                !
 ! D17   D(14,3,5,9)          -159.5392         estimate D2E/DX2                !
 ! D18   D(14,3,5,19)           84.0385         estimate D2E/DX2                !
 ! D19   D(5,3,14,12)          108.953          estimate D2E/DX2                !
 ! D20   D(5,3,14,15)          -14.777          estimate D2E/DX2                !
 ! D21   D(8,3,14,12)          -14.6068         estimate D2E/DX2                !
 ! D22   D(8,3,14,15)         -138.3368         estimate D2E/DX2                !
 ! D23   D(2,4,6,5)            108.9291         estimate D2E/DX2                !
 ! D24   D(2,4,6,16)          -130.1878         estimate D2E/DX2                !
 ! D25   D(11,4,6,5)          -130.9724         estimate D2E/DX2                !
 ! D26   D(11,4,6,16)          -10.0893         estimate D2E/DX2                !
 ! D27   D(3,5,6,4)            -37.7111         estimate D2E/DX2                !
 ! D28   D(3,5,6,16)          -159.2205         estimate D2E/DX2                !
 ! D29   D(9,5,6,4)             84.0778         estimate D2E/DX2                !
 ! D30   D(9,5,6,16)           -37.4317         estimate D2E/DX2                !
 ! D31   D(19,5,6,4)          -159.4999         estimate D2E/DX2                !
 ! D32   D(19,5,6,16)           78.9907         estimate D2E/DX2                !
 ! D33   D(4,6,16,17)         -175.6643         estimate D2E/DX2                !
 ! D34   D(4,6,16,18)          -55.6643         estimate D2E/DX2                !
 ! D35   D(5,6,16,17)          -49.9437         estimate D2E/DX2                !
 ! D36   D(5,6,16,18)           70.0563         estimate D2E/DX2                !
 ! D37   D(1,12,14,3)         -108.929          estimate D2E/DX2                !
 ! D38   D(1,12,14,15)          14.8008         estimate D2E/DX2                !
 ! D39   D(13,12,14,3)          14.6294         estimate D2E/DX2                !
 ! D40   D(13,12,14,15)        138.3592         estimate D2E/DX2                !
 --------------------------------------------------------------------------------
 Trust Radius=3.00D-01 FncErr=1.00D-07 GrdErr=1.00D-07 EigMax=2.50D+02 EigMin=1.00D-04
 Number of steps in this run=     99 maximum allowed number of steps=    114.
 GradGradGradGradGradGradGradGradGradGradGradGradGradGradGradGradGradGrad

 Leave Link  103 at Tue Jun 10 01:33:56 2025, MaxMem=  2013265920 cpu:               0.4 elap:               0.0
 (Enter /home/user/softwares/g16/g16/l202.exe)
                          Input orientation:                          
 ---------------------------------------------------------------------
 Center     Atomic      Atomic             Coordinates (Angstroms)
 Number     Number       Type             X           Y           Z
 ---------------------------------------------------------------------
      1          6           0        0.845338   -0.593547    1.229438
      2          6           0        2.359455   -0.593547    1.229438
      3          6           0        1.473374    2.912893    1.229438
      4          6           0        3.013857    0.489171    2.067483
      5          6           0        2.987489    2.912898    1.229522
      6          6           0        3.678745    1.565775    1.229843
      7          1           0        0.484379   -1.160031    2.130946
      8          1           0        1.112382    2.847480    2.291257
      9          1           0        3.315196    3.449651    2.095203
     10          1           0        2.697632   -1.596448    1.609425
     11          1           0        3.797010    0.010556    2.715489
     12          6           0        0.154086    0.753573    1.229086
     13          1           0        0.047032    1.104560    2.290871
     14          6           0        0.818970    1.830162    0.391416
     15          1           0        1.569787    1.371549   -0.302725
     16          6           0        5.111870    1.780750    1.750937
     17          1           0        5.567279    2.589665    1.218809
     18          1           0        5.080663    2.013283    2.794898
     19          1           0        3.315292    3.449288    0.363651
 ---------------------------------------------------------------------
                    Distance matrix (angstroms):
                    1          2          3          4          5
     1  C    0.000000
     2  C    1.514117   0.000000
     3  C    3.562240   3.616664   0.000000
     4  C    2.564580   1.517511   2.991628   0.000000
     5  C    4.109011   3.562244   1.514115   2.564630   0.000000
     6  C    3.562424   2.530454   2.584258   1.517496   1.514125
     7  H    1.124238   2.156277   4.287136   3.020290   4.864861
     8  H    3.611016   3.810947   1.123412   3.037648   2.155826
     9  H    4.816347   4.243871   2.104749   2.975906   1.070000
    10  H    2.140372   1.124528   4.688001   2.158616   4.534594
    11  H    3.359413   2.154032   4.003897   1.123527   3.359615
    12  C    1.514121   2.584257   2.530451   2.991840   3.562423
    13  H    2.155806   3.059004   2.535973   3.038200   3.611487
    14  C    2.564633   2.991612   1.517508   3.070014   2.564608
    15  H    2.594986   2.613944   2.175445   2.912356   2.594883
    16  C    4.910452   3.672198   3.846084   2.483956   2.463052
    17  H    5.694706   4.519191   4.106659   3.413544   2.599983
    18  H    5.213847   4.080588   4.033918   2.669033   2.764251
    19  H    4.816095   4.243551   2.104749   3.428731   1.070000
                    6          7          8          9         10
     6  C    0.000000
     7  H    4.294878   0.000000
     8  H    3.058690   4.059585   0.000000
     9  H    2.104758   5.409618   2.292038   0.000000
    10  H    3.332615   2.315369   4.767222   5.106905   0.000000
    11  H    2.154028   3.561669   3.928783   3.527644   2.239302
    12  C    3.617028   2.141104   2.535939   4.244009   3.483803
    13  H    3.811540   2.311973   2.042729   4.027236   3.845191
    14  C    2.991851   3.475510   2.174953   3.428816   4.093235
    15  H    2.614229   3.675563   3.019327   3.621467   3.706394
    16  C    1.540000   5.496023   4.174418   2.476244   4.153798
    17  H    2.148263   6.381856   4.589414   2.565058   5.090284
    18  H    2.148263   5.624641   4.086171   2.381092   4.484901
    19  H    2.104758   5.690625   2.988419   1.731552   5.233823
                   11         12         13         14         15
    11  H    0.000000
    12  C    4.004043   0.000000
    13  H    3.929310   1.123405   0.000000
    14  C    4.192971   1.517500   2.174929   0.000000
    15  H    3.990293   2.175442   3.019405   1.120662   0.000000
    16  C    2.406825   5.089896   5.138224   4.503302   4.114769
    17  H    3.467810   5.716117   5.816182   4.879330   4.447338
    18  H    2.380123   5.320695   5.139773   4.896150   4.725816
    19  H    4.193813   4.243710   4.460207   2.975561   2.794252
                   16         17         18         19
    16  C    0.000000
    17  H    1.070000   0.000000
    18  H    1.070000   1.747303   0.000000
    19  H    2.817138   2.557673   3.330105   0.000000
 Stoichiometry    C9H10
 Framework group  C1[X(C9H10)]
 Deg. of freedom    51
 Full point group                 C1      NOp   1
 Largest Abelian subgroup         C1      NOp   1
 Largest concise Abelian subgroup C1      NOp   1
                         Standard orientation:                         
 ---------------------------------------------------------------------
 Center     Atomic      Atomic             Coordinates (Angstroms)
 Number     Number       Type             X           Y           Z
 ---------------------------------------------------------------------
      1          6           0       -2.187637   -0.933363   -0.104597
      2          6           0       -0.857230   -1.597960   -0.388989
      3          6           0       -0.000077    1.852241    0.275587
      4          6           0        0.308016   -1.117982    0.456388
      5          6           0        1.330339    1.187632   -0.008722
      6          6           0        1.309335   -0.291948   -0.329627
      7          1           0       -2.677446   -1.461015    0.758875
      8          1           0       -0.239878    1.728002    1.366052
      9          1           0        1.956649    1.328485    0.847313
     10          1           0       -0.989314   -2.702700   -0.225686
     11          1           0        0.838731   -2.017253    0.871076
     12          6           0       -2.166634    0.546218    0.216277
     13          1           0       -1.989064    0.674059    1.318169
     14          6           0       -1.165328    1.372247   -0.569769
     15          1           0       -0.790089    0.789769   -1.450563
     16          6           0        2.721816   -0.844017   -0.061829
     17          1           0        3.445245   -0.224645   -0.549609
     18          1           0        2.908961   -0.849097    0.991666
     19          1           0        1.780598    1.695991   -0.835606
 ---------------------------------------------------------------------
 Rotational constants (GHZ):           2.6067133           1.5184477           1.0423973
 Leave Link  202 at Tue Jun 10 01:33:56 2025, MaxMem=  2013265920 cpu:               0.0 elap:               0.0
 (Enter /home/user/softwares/g16/g16/l301.exe)
 Standard basis: 3-21G (6D, 7F)
 Ernie: Thresh=  0.10000D-02 Tol=  0.10000D-05 Strict=F.
 AO basis set in the form of general basis input (Overlap normalization):
      1 0
 S   3 1.00       0.000000000000
      0.1722560000D+03  0.6176690738D-01
      0.2591090000D+02  0.3587940429D+00
      0.5533350000D+01  0.7007130837D+00
 SP   2 1.00       0.000000000000
      0.3664980000D+01 -0.3958951621D+00  0.2364599466D+00
      0.7705450000D+00  0.1215834356D+01  0.8606188057D+00
 SP   1 1.00       0.000000000000
      0.1958570000D+00  0.1000000000D+01  0.1000000000D+01
 ****
      2 0
 S   3 1.00       0.000000000000
      0.1722560000D+03  0.6176690738D-01
      0.2591090000D+02  0.3587940429D+00
      0.5533350000D+01  0.7007130837D+00
 SP   2 1.00       0.000000000000
      0.3664980000D+01 -0.3958951621D+00  0.2364599466D+00
      0.7705450000D+00  0.1215834356D+01  0.8606188057D+00
 SP   1 1.00       0.000000000000
      0.1958570000D+00  0.1000000000D+01  0.1000000000D+01
 ****
      3 0
 S   3 1.00       0.000000000000
      0.1722560000D+03  0.6176690738D-01
      0.2591090000D+02  0.3587940429D+00
      0.5533350000D+01  0.7007130837D+00
 SP   2 1.00       0.000000000000
      0.3664980000D+01 -0.3958951621D+00  0.2364599466D+00
      0.7705450000D+00  0.1215834356D+01  0.8606188057D+00
 SP   1 1.00       0.000000000000
      0.1958570000D+00  0.1000000000D+01  0.1000000000D+01
 ****
      4 0
 S   3 1.00       0.000000000000
      0.1722560000D+03  0.6176690738D-01
      0.2591090000D+02  0.3587940429D+00
      0.5533350000D+01  0.7007130837D+00
 SP   2 1.00       0.000000000000
      0.3664980000D+01 -0.3958951621D+00  0.2364599466D+00
      0.7705450000D+00  0.1215834356D+01  0.8606188057D+00
 SP   1 1.00       0.000000000000
      0.1958570000D+00  0.1000000000D+01  0.1000000000D+01
 ****
      5 0
 S   3 1.00       0.000000000000
      0.1722560000D+03  0.6176690738D-01
      0.2591090000D+02  0.3587940429D+00
      0.5533350000D+01  0.7007130837D+00
 SP   2 1.00       0.000000000000
      0.3664980000D+01 -0.3958951621D+00  0.2364599466D+00
      0.7705450000D+00  0.1215834356D+01  0.8606188057D+00
 SP   1 1.00       0.000000000000
      0.1958570000D+00  0.1000000000D+01  0.1000000000D+01
 ****
      6 0
 S   3 1.00       0.000000000000
      0.1722560000D+03  0.6176690738D-01
      0.2591090000D+02  0.3587940429D+00
      0.5533350000D+01  0.7007130837D+00
 SP   2 1.00       0.000000000000
      0.3664980000D+01 -0.3958951621D+00  0.2364599466D+00
      0.7705450000D+00  0.1215834356D+01  0.8606188057D+00
 SP   1 1.00       0.000000000000
      0.1958570000D+00  0.1000000000D+01  0.1000000000D+01
 ****
      7 0
 S   2 1.00       0.000000000000
      0.5447178000D+01  0.1562849787D+00
      0.8245472400D+00  0.9046908767D+00
 S   1 1.00       0.000000000000
      0.1831915800D+00  0.1000000000D+01
 ****
      8 0
 S   2 1.00       0.000000000000
      0.5447178000D+01  0.1562849787D+00
      0.8245472400D+00  0.9046908767D+00
 S   1 1.00       0.000000000000
      0.1831915800D+00  0.1000000000D+01
 ****
      9 0
 S   2 1.00       0.000000000000
      0.5447178000D+01  0.1562849787D+00
      0.8245472400D+00  0.9046908767D+00
 S   1 1.00       0.000000000000
      0.1831915800D+00  0.1000000000D+01
 ****
     10 0
 S   2 1.00       0.000000000000
      0.5447178000D+01  0.1562849787D+00
      0.8245472400D+00  0.9046908767D+00
 S   1 1.00       0.000000000000
      0.1831915800D+00  0.1000000000D+01
 ****
     11 0
 S   2 1.00       0.000000000000
      0.5447178000D+01  0.1562849787D+00
      0.8245472400D+00  0.9046908767D+00
 S   1 1.00       0.000000000000
      0.1831915800D+00  0.1000000000D+01
 ****
     12 0
 S   3 1.00       0.000000000000
      0.1722560000D+03  0.6176690738D-01
      0.2591090000D+02  0.3587940429D+00
      0.5533350000D+01  0.7007130837D+00
 SP   2 1.00       0.000000000000
      0.3664980000D+01 -0.3958951621D+00  0.2364599466D+00
      0.7705450000D+00  0.1215834356D+01  0.8606188057D+00
 SP   1 1.00       0.000000000000
      0.1958570000D+00  0.1000000000D+01  0.1000000000D+01
 ****
     13 0
 S   2 1.00       0.000000000000
      0.5447178000D+01  0.1562849787D+00
      0.8245472400D+00  0.9046908767D+00
 S   1 1.00       0.000000000000
      0.1831915800D+00  0.1000000000D+01
 ****
     14 0
 S   3 1.00       0.000000000000
      0.1722560000D+03  0.6176690738D-01
      0.2591090000D+02  0.3587940429D+00
      0.5533350000D+01  0.7007130837D+00
 SP   2 1.00       0.000000000000
      0.3664980000D+01 -0.3958951621D+00  0.2364599466D+00
      0.7705450000D+00  0.1215834356D+01  0.8606188057D+00
 SP   1 1.00       0.000000000000
      0.1958570000D+00  0.1000000000D+01  0.1000000000D+01
 ****
     15 0
 S   2 1.00       0.000000000000
      0.5447178000D+01  0.1562849787D+00
      0.8245472400D+00  0.9046908767D+00
 S   1 1.00       0.000000000000
      0.1831915800D+00  0.1000000000D+01
 ****
     16 0
 S   3 1.00       0.000000000000
      0.1722560000D+03  0.6176690738D-01
      0.2591090000D+02  0.3587940429D+00
      0.5533350000D+01  0.7007130837D+00
 SP   2 1.00       0.000000000000
      0.3664980000D+01 -0.3958951621D+00  0.2364599466D+00
      0.7705450000D+00  0.1215834356D+01  0.8606188057D+00
 SP   1 1.00       0.000000000000
      0.1958570000D+00  0.1000000000D+01  0.1000000000D+01
 ****
     17 0
 S   2 1.00       0.000000000000
      0.5447178000D+01  0.1562849787D+00
      0.8245472400D+00  0.9046908767D+00
 S   1 1.00       0.000000000000
      0.1831915800D+00  0.1000000000D+01
 ****
     18 0
 S   2 1.00       0.000000000000
      0.5447178000D+01  0.1562849787D+00
      0.8245472400D+00  0.9046908767D+00
 S   1 1.00       0.000000000000
      0.1831915800D+00  0.1000000000D+01
 ****
     19 0
 S   2 1.00       0.000000000000
      0.5447178000D+01  0.1562849787D+00
      0.8245472400D+00  0.9046908767D+00
 S   1 1.00       0.000000000000
      0.1831915800D+00  0.1000000000D+01
 ****

 AO basis set (Overlap normalization):
 Atom C1       Shell     1 S   3     bf    1 -     1         -4.134034563672         -1.763801222192         -0.197659034931
      0.1722560000D+03  0.6176690738D-01
      0.2591090000D+02  0.3587940429D+00
      0.5533350000D+01  0.7007130837D+00
 Atom C1       Shell     2 SP   2    bf    2 -     5         -4.134034563672         -1.763801222192         -0.197659034931
      0.3664980000D+01 -0.3958951621D+00  0.2364599466D+00
      0.7705450000D+00  0.1215834356D+01  0.8606188057D+00
 Atom C1       Shell     3 SP   1    bf    6 -     9         -4.134034563672         -1.763801222192         -0.197659034931
      0.1958570000D+00  0.1000000000D+01  0.1000000000D+01
 Atom C2       Shell     4 S   3     bf   10 -    10         -1.619929906826         -3.019707278351         -0.735082009466
      0.1722560000D+03  0.6176690738D-01
      0.2591090000D+02  0.3587940429D+00
      0.5533350000D+01  0.7007130837D+00
 Atom C2       Shell     5 SP   2    bf   11 -    14         -1.619929906826         -3.019707278351         -0.735082009466
      0.3664980000D+01 -0.3958951621D+00  0.2364599466D+00
      0.7705450000D+00  0.1215834356D+01  0.8606188057D+00
 Atom C2       Shell     6 SP   1    bf   15 -    18         -1.619929906826         -3.019707278351         -0.735082009466
      0.1958570000D+00  0.1000000000D+01  0.1000000000D+01
 Atom C3       Shell     7 S   3     bf   19 -    19         -0.000145027739          3.500228173777          0.520783691638
      0.1722560000D+03  0.6176690738D-01
      0.2591090000D+02  0.3587940429D+00
      0.5533350000D+01  0.7007130837D+00
 Atom C3       Shell     8 SP   2    bf   20 -    23         -0.000145027739          3.500228173777          0.520783691638
      0.3664980000D+01 -0.3958951621D+00  0.2364599466D+00
      0.7705450000D+00  0.1215834356D+01  0.8606188057D+00
 Atom C3       Shell     9 SP   1    bf   24 -    27         -0.000145027739          3.500228173777          0.520783691638
      0.1958570000D+00  0.1000000000D+01  0.1000000000D+01
 Atom C4       Shell    10 S   3     bf   28 -    28          0.582066266953         -2.112680011239          0.862448623214
      0.1722560000D+03  0.6176690738D-01
      0.2591090000D+02  0.3587940429D+00
      0.5533350000D+01  0.7007130837D+00
 Atom C4       Shell    11 SP   2    bf   29 -    32          0.582066266953         -2.112680011239          0.862448623214
      0.3664980000D+01 -0.3958951621D+00  0.2364599466D+00
      0.7705450000D+00  0.1215834356D+01  0.8606188057D+00
 Atom C4       Shell    12 SP   1    bf   33 -    36          0.582066266953         -2.112680011239          0.862448623214
      0.1958570000D+00  0.1000000000D+01  0.1000000000D+01
 Atom C5       Shell    13 S   3     bf   37 -    37          2.513976847317          2.244298302158         -0.016482958390
      0.1722560000D+03  0.6176690738D-01
      0.2591090000D+02  0.3587940429D+00
      0.5533350000D+01  0.7007130837D+00
 Atom C5       Shell    14 SP   2    bf   38 -    41          2.513976847317          2.244298302158         -0.016482958390
      0.3664980000D+01 -0.3958951621D+00  0.2364599466D+00
      0.7705450000D+00  0.1215834356D+01  0.8606188057D+00
 Atom C5       Shell    15 SP   1    bf   42 -    45          2.513976847317          2.244298302158         -0.016482958390
      0.1958570000D+00  0.1000000000D+01  0.1000000000D+01
 Atom C6       Shell    16 S   3     bf   46 -    46          2.474284968865         -0.551700952341         -0.622905148575
      0.1722560000D+03  0.6176690738D-01
      0.2591090000D+02  0.3587940429D+00
      0.5533350000D+01  0.7007130837D+00
 Atom C6       Shell    17 SP   2    bf   47 -    50          2.474284968865         -0.551700952341         -0.622905148575
      0.3664980000D+01 -0.3958951621D+00  0.2364599466D+00
      0.7705450000D+00  0.1215834356D+01  0.8606188057D+00
 Atom C6       Shell    18 SP   1    bf   51 -    54          2.474284968865         -0.551700952341         -0.622905148575
      0.1958570000D+00  0.1000000000D+01  0.1000000000D+01
 Atom H7       Shell    19 S   2     bf   55 -    55         -5.059639466056         -2.760918079139          1.434065796158
      0.5447178000D+01  0.1562849787D+00
      0.8245472400D+00  0.9046908767D+00
 Atom H7       Shell    20 S   1     bf   56 -    56         -5.059639466056         -2.760918079139          1.434065796158
      0.1831915800D+00  0.1000000000D+01
 Atom H8       Shell    21 S   2     bf   57 -    57         -0.453303762046          3.265451091895          2.581463765001
      0.5447178000D+01  0.1562849787D+00
      0.8245472400D+00  0.9046908767D+00
 Atom H8       Shell    22 S   1     bf   58 -    58         -0.453303762046          3.265451091895          2.581463765001
      0.1831915800D+00  0.1000000000D+01
 Atom H9       Shell    23 S   2     bf   59 -    59          3.697531247899          2.510473070723          1.601188868232
      0.5447178000D+01  0.1562849787D+00
      0.8245472400D+00  0.9046908767D+00
 Atom H9       Shell    24 S   1     bf   60 -    60          3.697531247899          2.510473070723          1.601188868232
      0.1831915800D+00  0.1000000000D+01
 Atom H10      Shell    25 S   2     bf   61 -    61         -1.869532163891         -5.107363230116         -0.426484951938
      0.5447178000D+01  0.1562849787D+00
      0.8245472400D+00  0.9046908767D+00
 Atom H10      Shell    26 S   1     bf   62 -    62         -1.869532163891         -5.107363230116         -0.426484951938
      0.1831915800D+00  0.1000000000D+01
 Atom H11      Shell    27 S   2     bf   63 -    63          1.584971427004         -3.812056406288          1.646095001411
      0.5447178000D+01  0.1562849787D+00
      0.8245472400D+00  0.9046908767D+00
 Atom H11      Shell    28 S   1     bf   64 -    64          1.584971427004         -3.812056406288          1.646095001411
      0.1831915800D+00  0.1000000000D+01
 Atom C12      Shell    29 S   3     bf   65 -    65         -4.094344641323          1.032202210574          0.408703996268
      0.1722560000D+03  0.6176690738D-01
      0.2591090000D+02  0.3587940429D+00
      0.5533350000D+01  0.7007130837D+00
 Atom C12      Shell    30 SP   2    bf   66 -    69         -4.094344641323          1.032202210574          0.408703996268
      0.3664980000D+01 -0.3958951621D+00  0.2364599466D+00
      0.7705450000D+00  0.1215834356D+01  0.8606188057D+00
 Atom C12      Shell    31 SP   1    bf   70 -    73         -4.094344641323          1.032202210574          0.408703996268
      0.1958570000D+00  0.1000000000D+01  0.1000000000D+01
 Atom H13      Shell    32 S   2     bf   74 -    74         -3.758786584945          1.273787513762          2.490977594924
      0.5447178000D+01  0.1562849787D+00
      0.8245472400D+00  0.9046908767D+00
 Atom H13      Shell    33 S   1     bf   75 -    75         -3.758786584945          1.273787513762          2.490977594924
      0.1831915800D+00  0.1000000000D+01
 Atom C14      Shell    34 S   3     bf   76 -    76         -2.202151565512          2.593171884252         -1.076707479988
      0.1722560000D+03  0.6176690738D-01
      0.2591090000D+02  0.3587940429D+00
      0.5533350000D+01  0.7007130837D+00
 Atom C14      Shell    35 SP   2    bf   77 -    80         -2.202151565512          2.593171884252         -1.076707479988
      0.3664980000D+01 -0.3958951621D+00  0.2364599466D+00
      0.7705450000D+00  0.1215834356D+01  0.8606188057D+00
 Atom C14      Shell    36 SP   1    bf   81 -    84         -2.202151565512          2.593171884252         -1.076707479988
      0.1958570000D+00  0.1000000000D+01  0.1000000000D+01
 Atom H15      Shell    37 S   2     bf   85 -    85         -1.493052272063          1.492447713931         -2.741167417012
      0.5447178000D+01  0.1562849787D+00
      0.8245472400D+00  0.9046908767D+00
 Atom H15      Shell    38 S   1     bf   86 -    86         -1.493052272063          1.492447713931         -2.741167417012
      0.1831915800D+00  0.1000000000D+01
 Atom C16      Shell    39 S   3     bf   87 -    87          5.143487475464         -1.594961616386         -0.116839443375
      0.1722560000D+03  0.6176690738D-01
      0.2591090000D+02  0.3587940429D+00
      0.5533350000D+01  0.7007130837D+00
 Atom C16      Shell    40 SP   2    bf   88 -    91          5.143487475464         -1.594961616386         -0.116839443375
      0.3664980000D+01 -0.3958951621D+00  0.2364599466D+00
      0.7705450000D+00  0.1215834356D+01  0.8606188057D+00
 Atom C16      Shell    41 SP   1    bf   92 -    95          5.143487475464         -1.594961616386         -0.116839443375
      0.1958570000D+00  0.1000000000D+01  0.1000000000D+01
 Atom H17      Shell    42 S   2     bf   96 -    96          6.510569641616         -0.424518028769         -1.038609666407
      0.5447178000D+01  0.1562849787D+00
      0.8245472400D+00  0.9046908767D+00
 Atom H17      Shell    43 S   1     bf   97 -    97          6.510569641616         -0.424518028769         -1.038609666407
      0.1831915800D+00  0.1000000000D+01
 Atom H18      Shell    44 S   2     bf   98 -    98          5.497140135628         -1.604559884488          1.873976917014
      0.5447178000D+01  0.1562849787D+00
      0.8245472400D+00  0.9046908767D+00
 Atom H18      Shell    45 S   1     bf   99 -    99          5.497140135628         -1.604559884488          1.873976917014
      0.1831915800D+00  0.1000000000D+01
 Atom H19      Shell    46 S   2     bf  100 -   100          3.364842675679          3.204959296986         -1.579067325758
      0.5447178000D+01  0.1562849787D+00
      0.8245472400D+00  0.9046908767D+00
 Atom H19      Shell    47 S   1     bf  101 -   101          3.364842675679          3.204959296986         -1.579067325758
      0.1831915800D+00  0.1000000000D+01
 There are   101 symmetry adapted cartesian basis functions of A   symmetry.
 There are   101 symmetry adapted basis functions of A   symmetry.
   101 basis functions,   165 primitive gaussians,   101 cartesian basis functions
    32 alpha electrons       32 beta electrons
       nuclear repulsion energy       395.6280360761 Hartrees.
 IExCor=    0 DFT=F Ex=HF Corr=None ExCW=0 ScaHFX=  1.000000
 ScaDFX=  1.000000  1.000000  1.000000  1.000000 ScalE2=  1.000000  1.000000
 IRadAn=      5 IRanWt=     -1 IRanGd=            0 ICorTp=0 IEmpDi=  4
 NAtoms=   19 NActive=   19 NUniq=   19 SFac= 1.00D+00 NAtFMM=   60 NAOKFM=F Big=F
 Integral buffers will be    131072 words long.
 Raffenetti 1 integral format.
 Two-electron integral symmetry is turned on.
 Leave Link  301 at Tue Jun 10 01:33:56 2025, MaxMem=  2013265920 cpu:               1.9 elap:               0.1
 (Enter /home/user/softwares/g16/g16/l302.exe)
 NPDir=0 NMtPBC=     1 NCelOv=     1 NCel=       1 NClECP=     1 NCelD=      1
         NCelK=      1 NCelE2=     1 NClLst=     1 CellRange=     0.0.
 One-electron integrals computed using PRISM.
 One-electron integral symmetry used in STVInt
 NBasis=   101 RedAO= T EigKep=  9.04D-03  NBF=   101
 NBsUse=   101 1.00D-06 EigRej= -1.00D+00 NBFU=   101
 Leave Link  302 at Tue Jun 10 01:33:57 2025, MaxMem=  2013265920 cpu:               5.2 elap:               0.3
 (Enter /home/user/softwares/g16/g16/l303.exe)
 DipDrv:  MaxL=1.
 Leave Link  303 at Tue Jun 10 01:33:57 2025, MaxMem=  2013265920 cpu:               1.3 elap:               0.1
 (Enter /home/user/softwares/g16/g16/l401.exe)
 ExpMin= 1.83D-01 ExpMax= 1.72D+02 ExpMxC= 1.72D+02 IAcc=3 IRadAn=         5 AccDes= 0.00D+00
 Harris functional with IExCor=  205 and IRadAn=       5 diagonalized for initial guess.
 HarFok:  IExCor=  205 AccDes= 0.00D+00 IRadAn=         5 IDoV= 1 UseB2=F ITyADJ=14
 ICtDFT=  3500011 ScaDFX=  1.000000  1.000000  1.000000  1.000000
 FoFCou: FMM=F IPFlag=           0 FMFlag=      100000 FMFlg1=           0
         NFxFlg=           0 DoJE=T BraDBF=F KetDBF=T FulRan=T
         wScrn=  0.000000 ICntrl=       500 IOpCl=  0 I1Cent=   200000004 NGrid=           0
         NMat0=    1 NMatS0=      1 NMatT0=    0 NMatD0=    1 NMtDS0=    0 NMtDT0=    0
 Petite list used in FoFCou.
 Harris En= -344.777309862515    
 JPrj=0 DoOrth=F DoCkMO=F.
 Leave Link  401 at Tue Jun 10 01:33:57 2025, MaxMem=  2013265920 cpu:               9.7 elap:               0.5
 (Enter /home/user/softwares/g16/g16/l502.exe)
 Integral symmetry usage will be decided dynamically.
 Closed shell SCF:
 Using DIIS extrapolation, IDIIS=  1040.
 NGot=  2013265920 LenX=  2013241989 LenY=  2013231347
 Requested convergence on RMS density matrix=1.00D-08 within 128 cycles.
 Requested convergence on MAX density matrix=1.00D-06.
 Requested convergence on             energy=1.00D-06.
 No special actions if energy rises.
 Fock matrices will be formed incrementally for  20 cycles.
 Integral accuracy reduced to 1.0D-05 until final iterations.

 Cycle   1  Pass 0  IDiag  1:
 FoFJK:  IHMeth= 1 ICntrl=       0 DoSepK=F KAlg= 0 I1Cent=           0 FoldK=F
 IRaf= 930000000 NMat=       1 IRICut=       1 DoRegI=T DoRafI=F ISym2E= 0 IDoP0=0 IntGTp=1.
 FoFCou: FMM=F IPFlag=           0 FMFlag=      100000 FMFlg1=           0
         NFxFlg=           0 DoJE=F BraDBF=F KetDBF=F FulRan=T
         wScrn=  0.000000 ICntrl=         0 IOpCl=  0 I1Cent=           0 NGrid=           0
         NMat0=    1 NMatS0=      1 NMatT0=    0 NMatD0=    1 NMtDS0=    0 NMtDT0=    0
 Symmetry not used in FoFCou.
 E= -343.845798611842    
 DIIS: error= 3.79D-02 at cycle   1 NSaved=   1.
 NSaved= 1 IEnMin= 1 EnMin= -343.845798611842     IErMin= 1 ErrMin= 3.79D-02
 ErrMax= 3.79D-02  0.00D+00 EMaxC= 1.00D-01 BMatC= 3.39D-01 BMatP= 3.39D-01
 IDIUse=3 WtCom= 6.21D-01 WtEn= 3.79D-01
 Coeff-Com:  0.100D+01
 Coeff-En:   0.100D+01
 Coeff:      0.100D+01
 Gap=     0.229 Goal=   None    Shift=    0.000
 GapD=    0.229 DampG=1.000 DampE=0.500 DampFc=0.5000 IDamp=-1.
 Damping current iteration by 5.00D-01
 RMSDP=7.26D-03 MaxDP=1.32D-01              OVMax= 2.90D-01

 Cycle   2  Pass 0  IDiag  1:
 RMSU=  3.56D-03    CP:  9.84D-01
 E= -343.990738340677     Delta-E=       -0.144939728836 Rises=F Damp=T
 DIIS: error= 1.45D-02 at cycle   2 NSaved=   2.
 NSaved= 2 IEnMin= 2 EnMin= -343.990738340677     IErMin= 2 ErrMin= 1.45D-02
 ErrMax= 1.45D-02  0.00D+00 EMaxC= 1.00D-01 BMatC= 6.62D-02 BMatP= 3.39D-01
 IDIUse=3 WtCom= 8.55D-01 WtEn= 1.45D-01
 Coeff-Com: -0.534D+00 0.153D+01
 Coeff-En:   0.000D+00 0.100D+01
 Coeff:     -0.457D+00 0.146D+01
 Gap=     0.270 Goal=   None    Shift=    0.000
 RMSDP=2.59D-03 MaxDP=2.61D-02 DE=-1.45D-01 OVMax= 1.13D-01

 Cycle   3  Pass 0  IDiag  1:
 RMSU=  2.14D-03    CP:  9.72D-01  1.38D+00
 E= -344.118434899366     Delta-E=       -0.127696558689 Rises=F Damp=F
 DIIS: error= 1.15D-02 at cycle   3 NSaved=   3.
 NSaved= 3 IEnMin= 3 EnMin= -344.118434899366     IErMin= 3 ErrMin= 1.15D-02
 ErrMax= 1.15D-02  0.00D+00 EMaxC= 1.00D-01 BMatC= 6.15D-03 BMatP= 6.62D-02
 IDIUse=3 WtCom= 8.85D-01 WtEn= 1.15D-01
 Coeff-Com: -0.204D+00 0.433D+00 0.771D+00
 Coeff-En:   0.000D+00 0.000D+00 0.100D+01
 Coeff:     -0.181D+00 0.384D+00 0.797D+00
 Gap=     0.249 Goal=   None    Shift=    0.000
 RMSDP=1.33D-03 MaxDP=1.95D-02 DE=-1.28D-01 OVMax= 7.45D-02

 Cycle   4  Pass 0  IDiag  1:
 RMSU=  1.04D-03    CP:  9.74D-01  1.56D+00  7.46D-01
 E= -344.126201926069     Delta-E=       -0.007767026702 Rises=F Damp=F
 DIIS: error= 2.78D-03 at cycle   4 NSaved=   4.
 NSaved= 4 IEnMin= 4 EnMin= -344.126201926069     IErMin= 4 ErrMin= 2.78D-03
 ErrMax= 2.78D-03  0.00D+00 EMaxC= 1.00D-01 BMatC= 1.12D-03 BMatP= 6.15D-03
 IDIUse=3 WtCom= 9.72D-01 WtEn= 2.78D-02
 Coeff-Com:  0.148D-02-0.271D-01 0.286D+00 0.740D+00
 Coeff-En:   0.000D+00 0.000D+00 0.000D+00 0.100D+01
 Coeff:      0.144D-02-0.263D-01 0.278D+00 0.747D+00
 Gap=     0.253 Goal=   None    Shift=    0.000
 RMSDP=4.65D-04 MaxDP=4.88D-03 DE=-7.77D-03 OVMax= 2.05D-02

 Cycle   5  Pass 0  IDiag  1:
 RMSU=  3.33D-04    CP:  9.73D-01  1.54D+00  8.94D-01  9.77D-01
 E= -344.128139340439     Delta-E=       -0.001937414370 Rises=F Damp=F
 DIIS: error= 1.67D-03 at cycle   5 NSaved=   5.
 NSaved= 5 IEnMin= 5 EnMin= -344.128139340439     IErMin= 5 ErrMin= 1.67D-03
 ErrMax= 1.67D-03  0.00D+00 EMaxC= 1.00D-01 BMatC= 8.16D-05 BMatP= 1.12D-03
 IDIUse=3 WtCom= 9.83D-01 WtEn= 1.67D-02
 Coeff-Com:  0.150D-01-0.244D-01-0.937D-01-0.226D+00 0.133D+01
 Coeff-En:   0.000D+00 0.000D+00 0.000D+00 0.000D+00 0.100D+01
 Coeff:      0.148D-01-0.240D-01-0.921D-01-0.222D+00 0.132D+01
 Gap=     0.257 Goal=   None    Shift=    0.000
 RMSDP=4.37D-04 MaxDP=4.48D-03 DE=-1.94D-03 OVMax= 2.56D-02

 Cycle   6  Pass 0  IDiag  1:
 RMSU=  1.42D-04    CP:  9.72D-01  1.55D+00  9.49D-01  1.20D+00  1.96D+00
 E= -344.128979760070     Delta-E=       -0.000840419630 Rises=F Damp=F
 DIIS: error= 1.04D-03 at cycle   6 NSaved=   6.
 NSaved= 6 IEnMin= 6 EnMin= -344.128979760070     IErMin= 6 ErrMin= 1.04D-03
 ErrMax= 1.04D-03  0.00D+00 EMaxC= 1.00D-01 BMatC= 4.30D-05 BMatP= 8.16D-05
 IDIUse=3 WtCom= 9.90D-01 WtEn= 1.04D-02
 Coeff-Com:  0.603D-02-0.290D-02-0.937D-01-0.322D+00 0.229D+00 0.118D+01
 Coeff-En:   0.000D+00 0.000D+00 0.000D+00 0.000D+00 0.000D+00 0.100D+01
 Coeff:      0.597D-02-0.287D-02-0.928D-01-0.319D+00 0.227D+00 0.118D+01
 Gap=     0.261 Goal=   None    Shift=    0.000
 RMSDP=3.99D-04 MaxDP=3.84D-03 DE=-8.40D-04 OVMax= 2.18D-02

 Cycle   7  Pass 0  IDiag  1:
 RMSU=  7.60D-05    CP:  9.72D-01  1.56D+00  9.89D-01  1.36D+00  2.95D+00
                    CP:  1.60D+00
 E= -344.129432874793     Delta-E=       -0.000453114724 Rises=F Damp=F
 DIIS: error= 5.55D-04 at cycle   7 NSaved=   7.
 NSaved= 7 IEnMin= 7 EnMin= -344.129432874793     IErMin= 7 ErrMin= 5.55D-04
 ErrMax= 5.55D-04  0.00D+00 EMaxC= 1.00D-01 BMatC= 1.28D-05 BMatP= 4.30D-05
 IDIUse=3 WtCom= 9.94D-01 WtEn= 5.55D-03
 Coeff-Com: -0.461D-02 0.463D-02 0.805D-01 0.148D+00-0.558D+00-0.245D+00
 Coeff-Com:  0.157D+01
 Coeff-En:   0.000D+00 0.000D+00 0.000D+00 0.000D+00 0.000D+00 0.000D+00
 Coeff-En:   0.100D+01
 Coeff:     -0.459D-02 0.460D-02 0.801D-01 0.147D+00-0.554D+00-0.244D+00
 Coeff:      0.157D+01
 Gap=     0.264 Goal=   None    Shift=    0.000
 RMSDP=3.17D-04 MaxDP=2.76D-03 DE=-4.53D-04 OVMax= 1.73D-02

 Cycle   8  Pass 0  IDiag  1:
 RMSU=  2.46D-04    CP:  9.71D-01  1.56D+00  1.01D+00  1.45D+00  3.00D+00
                    CP:  2.42D+00  1.87D+00
 E= -344.129590194468     Delta-E=       -0.000157319675 Rises=F Damp=F
 DIIS: error= 1.95D-04 at cycle   8 NSaved=   8.
 NSaved= 8 IEnMin= 8 EnMin= -344.129590194468     IErMin= 8 ErrMin= 1.95D-04
 ErrMax= 1.95D-04  0.00D+00 EMaxC= 1.00D-01 BMatC= 2.53D-06 BMatP= 1.28D-05
 IDIUse=3 WtCom= 9.98D-01 WtEn= 1.95D-03
 Coeff-Com: -0.201D-02 0.675D-03 0.492D-01 0.110D+00-0.227D+00-0.320D+00
 Coeff-Com:  0.489D+00 0.901D+00
 Coeff-En:   0.000D+00 0.000D+00 0.000D+00 0.000D+00 0.000D+00 0.000D+00
 Coeff-En:   0.000D+00 0.100D+01
 Coeff:     -0.201D-02 0.673D-03 0.491D-01 0.109D+00-0.226D+00-0.319D+00
 Coeff:      0.488D+00 0.901D+00
 Gap=     0.265 Goal=   None    Shift=    0.000
 RMSDP=1.01D-04 MaxDP=8.67D-04 DE=-1.57D-04 OVMax= 5.17D-03

 Cycle   9  Pass 0  IDiag  1:
 RMSU=  1.97D-05    CP:  9.71D-01  1.56D+00  1.02D+00  1.48D+00  3.00D+00
                    CP:  2.68D+00  2.29D+00  1.33D+00
 E= -344.129607898393     Delta-E=       -0.000017703925 Rises=F Damp=F
 DIIS: error= 9.54D-05 at cycle   9 NSaved=   9.
 NSaved= 9 IEnMin= 9 EnMin= -344.129607898393     IErMin= 9 ErrMin= 9.54D-05
 ErrMax= 9.54D-05  0.00D+00 EMaxC= 1.00D-01 BMatC= 4.90D-07 BMatP= 2.53D-06
 IDIUse=1 WtCom= 1.00D+00 WtEn= 0.00D+00
 Coeff-Com:  0.155D-02-0.216D-02-0.143D-01-0.332D-01 0.113D+00 0.780D-01
 Coeff-Com: -0.362D+00-0.598D-02 0.122D+01
 Coeff:      0.155D-02-0.216D-02-0.143D-01-0.332D-01 0.113D+00 0.780D-01
 Coeff:     -0.362D+00-0.598D-02 0.122D+01
 Gap=     0.265 Goal=   None    Shift=    0.000
 RMSDP=3.71D-05 MaxDP=3.78D-04 DE=-1.77D-05 OVMax= 1.96D-03

 Cycle  10  Pass 0  IDiag  1:
 RMSU=  1.64D-05    CP:  9.71D-01  1.56D+00  1.02D+00  1.49D+00  3.00D+00
                    CP:  2.76D+00  2.46D+00  1.43D+00  1.31D+00
 E= -344.129610922901     Delta-E=       -0.000003024508 Rises=F Damp=F
 DIIS: error= 3.01D-05 at cycle  10 NSaved=  10.
 NSaved=10 IEnMin=10 EnMin= -344.129610922901     IErMin=10 ErrMin= 3.01D-05
 ErrMax= 3.01D-05  0.00D+00 EMaxC= 1.00D-01 BMatC= 1.26D-07 BMatP= 4.90D-07
 IDIUse=1 WtCom= 1.00D+00 WtEn= 0.00D+00
 Coeff-Com:  0.102D-02-0.104D-02-0.142D-01-0.355D-01 0.783D-01 0.107D+00
 Coeff-Com: -0.216D+00-0.181D+00 0.307D+00 0.954D+00
 Coeff:      0.102D-02-0.104D-02-0.142D-01-0.355D-01 0.783D-01 0.107D+00
 Coeff:     -0.216D+00-0.181D+00 0.307D+00 0.954D+00
 Gap=     0.265 Goal=   None    Shift=    0.000
 RMSDP=1.20D-05 MaxDP=1.39D-04 DE=-3.02D-06 OVMax= 5.75D-04

 Cycle  11  Pass 0  IDiag  1:
 RMSU=  4.20D-06    CP:  9.71D-01  1.56D+00  1.02D+00  1.49D+00  3.00D+00
                    CP:  2.78D+00  2.50D+00  1.45D+00  1.62D+00  1.45D+00
 E= -344.129611521840     Delta-E=       -0.000000598939 Rises=F Damp=F
 DIIS: error= 1.96D-05 at cycle  11 NSaved=  11.
 NSaved=11 IEnMin=11 EnMin= -344.129611521840     IErMin=11 ErrMin= 1.96D-05
 ErrMax= 1.96D-05  0.00D+00 EMaxC= 1.00D-01 BMatC= 2.91D-08 BMatP= 1.26D-07
 IDIUse=1 WtCom= 1.00D+00 WtEn= 0.00D+00
 Coeff-Com: -0.302D-03 0.349D-03 0.424D-02 0.784D-02-0.326D-01-0.880D-02
 Coeff-Com:  0.710D-01 0.218D-01-0.302D+00-0.141D+00 0.138D+01
 Coeff:     -0.302D-03 0.349D-03 0.424D-02 0.784D-02-0.326D-01-0.880D-02
 Coeff:      0.710D-01 0.218D-01-0.302D+00-0.141D+00 0.138D+01
 Gap=     0.265 Goal=   None    Shift=    0.000
 RMSDP=1.01D-05 MaxDP=1.04D-04 DE=-5.99D-07 OVMax= 5.50D-04

 Cycle  12  Pass 0  IDiag  1:
 RMSU=  3.10D-06    CP:  9.71D-01  1.57D+00  1.02D+00  1.49D+00  3.00D+00
                    CP:  2.79D+00  2.52D+00  1.47D+00  1.83D+00  1.82D+00
                    CP:  1.67D+00
 E= -344.129611737953     Delta-E=       -0.000000216113 Rises=F Damp=F
 DIIS: error= 8.78D-06 at cycle  12 NSaved=  12.
 NSaved=12 IEnMin=12 EnMin= -344.129611737953     IErMin=12 ErrMin= 8.78D-06
 ErrMax= 8.78D-06  0.00D+00 EMaxC= 1.00D-01 BMatC= 1.03D-08 BMatP= 2.91D-08
 IDIUse=1 WtCom= 1.00D+00 WtEn= 0.00D+00
 Coeff-Com: -0.216D-03 0.179D-03 0.391D-02 0.866D-02-0.228D-01-0.175D-01
 Coeff-Com:  0.425D-01 0.600D-01-0.816D-01-0.337D+00 0.324D+00 0.102D+01
 Coeff:     -0.216D-03 0.179D-03 0.391D-02 0.866D-02-0.228D-01-0.175D-01
 Coeff:      0.425D-01 0.600D-01-0.816D-01-0.337D+00 0.324D+00 0.102D+01
 Gap=     0.265 Goal=   None    Shift=    0.000
 RMSDP=3.80D-06 MaxDP=3.91D-05 DE=-2.16D-07 OVMax= 1.91D-04

 Initial convergence to 1.0D-05 achieved.  Increase integral accuracy.
 Cycle  13  Pass 1  IDiag  1:
 E= -344.129612750522     Delta-E=       -0.000001012569 Rises=F Damp=F
 DIIS: error= 6.83D-06 at cycle   1 NSaved=   1.
 NSaved= 1 IEnMin= 1 EnMin= -344.129612750522     IErMin= 1 ErrMin= 6.83D-06
 ErrMax= 6.83D-06  0.00D+00 EMaxC= 1.00D-01 BMatC= 3.50D-09 BMatP= 3.50D-09
 IDIUse=1 WtCom= 1.00D+00 WtEn= 0.00D+00
 Coeff-Com:  0.100D+01
 Coeff:      0.100D+01
 Gap=     0.265 Goal=   None    Shift=    0.000
 RMSDP=3.80D-06 MaxDP=3.91D-05 DE=-1.01D-06 OVMax= 5.57D-05

 Cycle  14  Pass 1  IDiag  1:
 RMSU=  1.46D-06    CP:  1.00D+00
 E= -344.129612762981     Delta-E=       -0.000000012460 Rises=F Damp=F
 DIIS: error= 6.90D-06 at cycle   2 NSaved=   2.
 NSaved= 2 IEnMin= 2 EnMin= -344.129612762981     IErMin= 1 ErrMin= 6.83D-06
 ErrMax= 6.90D-06  0.00D+00 EMaxC= 1.00D-01 BMatC= 1.02D-09 BMatP= 3.50D-09
 IDIUse=1 WtCom= 1.00D+00 WtEn= 0.00D+00
 Coeff-Com: -0.203D+00 0.120D+01
 Coeff:     -0.203D+00 0.120D+01
 Gap=     0.265 Goal=   None    Shift=    0.000
 RMSDP=1.19D-06 MaxDP=1.94D-05 DE=-1.25D-08 OVMax= 7.07D-05

 Cycle  15  Pass 1  IDiag  1:
 RMSU=  6.25D-07    CP:  1.00D+00  1.69D+00
 E= -344.129612771042     Delta-E=       -0.000000008061 Rises=F Damp=F
 DIIS: error= 3.40D-06 at cycle   3 NSaved=   3.
 NSaved= 3 IEnMin= 3 EnMin= -344.129612771042     IErMin= 3 ErrMin= 3.40D-06
 ErrMax= 3.40D-06  0.00D+00 EMaxC= 1.00D-01 BMatC= 1.02D-09 BMatP= 1.02D-09
 IDIUse=1 WtCom= 1.00D+00 WtEn= 0.00D+00
 Coeff-Com: -0.543D+00 0.459D+00 0.108D+01
 Coeff:     -0.543D+00 0.459D+00 0.108D+01
 Gap=     0.265 Goal=   None    Shift=    0.000
 RMSDP=1.33D-06 MaxDP=1.69D-05 DE=-8.06D-09 OVMax= 6.65D-05

 Cycle  16  Pass 1  IDiag  1:
 RMSU=  3.03D-07    CP:  1.00D+00  2.53D+00  1.69D+00
 E= -344.129612777209     Delta-E=       -0.000000006167 Rises=F Damp=F
 DIIS: error= 2.69D-06 at cycle   4 NSaved=   4.
 NSaved= 4 IEnMin= 4 EnMin= -344.129612777209     IErMin= 4 ErrMin= 2.69D-06
 ErrMax= 2.69D-06  0.00D+00 EMaxC= 1.00D-01 BMatC= 2.24D-10 BMatP= 1.02D-09
 IDIUse=1 WtCom= 1.00D+00 WtEn= 0.00D+00
 Coeff-Com:  0.144D-01-0.335D+00-0.499D+00 0.182D+01
 Coeff:      0.144D-01-0.335D+00-0.499D+00 0.182D+01
 Gap=     0.265 Goal=   None    Shift=    0.000
 RMSDP=1.54D-06 MaxDP=2.27D-05 DE=-6.17D-09 OVMax= 8.24D-05

 Cycle  17  Pass 1  IDiag  1:
 RMSU=  6.76D-07    CP:  1.00D+00  3.00D+00  2.72D+00  2.07D+00
 E= -344.129612780306     Delta-E=       -0.000000003096 Rises=F Damp=F
 DIIS: error= 6.22D-07 at cycle   5 NSaved=   5.
 NSaved= 5 IEnMin= 5 EnMin= -344.129612780306     IErMin= 5 ErrMin= 6.22D-07
 ErrMax= 6.22D-07  0.00D+00 EMaxC= 1.00D-01 BMatC= 3.62D-11 BMatP= 2.24D-10
 IDIUse=1 WtCom= 1.00D+00 WtEn= 0.00D+00
 Coeff-Com:  0.625D-01-0.118D+00-0.363D+00 0.633D+00 0.785D+00
 Coeff:      0.625D-01-0.118D+00-0.363D+00 0.633D+00 0.785D+00
 Gap=     0.265 Goal=   None    Shift=    0.000
 RMSDP=2.53D-07 MaxDP=2.90D-06 DE=-3.10D-09 OVMax= 1.41D-05

 Cycle  18  Pass 1  IDiag  1:
 RMSU=  8.40D-08    CP:  1.00D+00  3.00D+00  2.89D+00  2.35D+00  1.29D+00
 E= -344.129612780459     Delta-E=       -0.000000000154 Rises=F Damp=F
 DIIS: error= 2.39D-07 at cycle   6 NSaved=   6.
 NSaved= 6 IEnMin= 6 EnMin= -344.129612780459     IErMin= 6 ErrMin= 2.39D-07
 ErrMax= 2.39D-07  0.00D+00 EMaxC= 1.00D-01 BMatC= 6.25D-12 BMatP= 3.62D-11
 IDIUse=1 WtCom= 1.00D+00 WtEn= 0.00D+00
 Coeff-Com: -0.540D-02 0.965D-01 0.898D-01-0.430D+00-0.108D+00 0.136D+01
 Coeff:     -0.540D-02 0.965D-01 0.898D-01-0.430D+00-0.108D+00 0.136D+01
 Gap=     0.265 Goal=   None    Shift=    0.000
 RMSDP=1.55D-07 MaxDP=2.14D-06 DE=-1.54D-10 OVMax= 7.27D-06

 Cycle  19  Pass 1  IDiag  1:
 RMSU=  5.97D-08    CP:  1.00D+00  3.00D+00  2.98D+00  2.53D+00  1.46D+00
                    CP:  1.43D+00
 E= -344.129612780505     Delta-E=       -0.000000000045 Rises=F Damp=F
 DIIS: error= 1.92D-07 at cycle   7 NSaved=   7.
 NSaved= 7 IEnMin= 7 EnMin= -344.129612780505     IErMin= 7 ErrMin= 1.92D-07
 ErrMax= 1.92D-07  0.00D+00 EMaxC= 1.00D-01 BMatC= 1.72D-12 BMatP= 6.25D-12
 IDIUse=1 WtCom= 1.00D+00 WtEn= 0.00D+00
 Coeff-Com: -0.173D-01 0.690D-01 0.117D+00-0.288D+00-0.252D+00 0.463D+00
 Coeff-Com:  0.908D+00
 Coeff:     -0.173D-01 0.690D-01 0.117D+00-0.288D+00-0.252D+00 0.463D+00
 Coeff:      0.908D+00
 Gap=     0.265 Goal=   None    Shift=    0.000
 RMSDP=4.61D-08 MaxDP=5.24D-07 DE=-4.51D-11 OVMax= 1.48D-06

 Cycle  20  Pass 1  IDiag  1:
 RMSU=  1.86D-08    CP:  1.00D+00  3.00D+00  2.99D+00  2.56D+00  1.46D+00
                    CP:  1.74D+00  1.52D+00
 E= -344.129612780516     Delta-E=       -0.000000000011 Rises=F Damp=F
 DIIS: error= 7.05D-08 at cycle   8 NSaved=   8.
 NSaved= 8 IEnMin= 8 EnMin= -344.129612780516     IErMin= 8 ErrMin= 7.05D-08
 ErrMax= 7.05D-08  0.00D+00 EMaxC= 1.00D-01 BMatC= 2.84D-13 BMatP= 1.72D-12
 IDIUse=1 WtCom= 1.00D+00 WtEn= 0.00D+00
 Coeff-Com:  0.406D-02-0.299D-01-0.390D-01 0.130D+00 0.576D-01-0.332D+00
 Coeff-Com: -0.138D+00 0.135D+01
 Coeff:      0.406D-02-0.299D-01-0.390D-01 0.130D+00 0.576D-01-0.332D+00
 Coeff:     -0.138D+00 0.135D+01
 Gap=     0.265 Goal=   None    Shift=    0.000
 RMSDP=2.90D-08 MaxDP=3.64D-07 DE=-1.09D-11 OVMax= 1.05D-06

 Cycle  21  Pass 1  IDiag  1:
 RMSU=  1.42D-08    CP:  1.00D+00  3.00D+00  3.00D+00  2.57D+00  1.47D+00
                    CP:  1.89D+00  1.81D+00  1.43D+00
 E= -344.129612780517     Delta-E=       -0.000000000001 Rises=F Damp=F
 DIIS: error= 4.63D-08 at cycle   9 NSaved=   9.
 NSaved= 9 IEnMin= 9 EnMin= -344.129612780517     IErMin= 9 ErrMin= 4.63D-08
 ErrMax= 4.63D-08  0.00D+00 EMaxC= 1.00D-01 BMatC= 6.26D-14 BMatP= 2.84D-13
 IDIUse=1 WtCom= 1.00D+00 WtEn= 0.00D+00
 Coeff-Com:  0.398D-02-0.170D-01-0.280D-01 0.713D-01 0.610D-01-0.135D+00
 Coeff-Com: -0.166D+00 0.544D-01 0.116D+01
 Coeff:      0.398D-02-0.170D-01-0.280D-01 0.713D-01 0.610D-01-0.135D+00
 Coeff:     -0.166D+00 0.544D-01 0.116D+01
 Gap=     0.265 Goal=   None    Shift=    0.000
 RMSDP=1.38D-08 MaxDP=2.38D-07 DE=-1.25D-12 OVMax= 6.03D-07

 Cycle  22  Pass 1  IDiag  1:
 RMSU=  4.00D-09    CP:  1.00D+00  3.00D+00  3.00D+00  2.58D+00  1.48D+00
                    CP:  1.93D+00  1.92D+00  1.71D+00  1.60D+00
 E= -344.129612780518     Delta-E=       -0.000000000001 Rises=F Damp=F
 DIIS: error= 1.86D-08 at cycle  10 NSaved=  10.
 NSaved=10 IEnMin=10 EnMin= -344.129612780518     IErMin=10 ErrMin= 1.86D-08
 ErrMax= 1.86D-08  0.00D+00 EMaxC= 1.00D-01 BMatC= 2.98D-14 BMatP= 6.26D-14
 IDIUse=1 WtCom= 1.00D+00 WtEn= 0.00D+00
 Coeff-Com: -0.663D-03 0.732D-02 0.874D-02-0.312D-01-0.560D-02 0.738D-01
 Coeff-Com:  0.329D-01-0.533D+00 0.321D+00 0.113D+01
 Coeff:     -0.663D-03 0.732D-02 0.874D-02-0.312D-01-0.560D-02 0.738D-01
 Coeff:      0.329D-01-0.533D+00 0.321D+00 0.113D+01
 Gap=     0.265 Goal=   None    Shift=    0.000
 RMSDP=1.00D-08 MaxDP=1.51D-07 DE=-1.02D-12 OVMax= 3.71D-07

 SCF Done:  E(RHF) =  -344.129612781     A.U. after   22 cycles
            NFock= 22  Conv=0.10D-07     -V/T= 2.0054
 KE= 3.422781277157D+02 PE=-1.589788199088D+03 EE= 5.077524225155D+02
 Leave Link  502 at Tue Jun 10 01:33:59 2025, MaxMem=  2013265920 cpu:              35.9 elap:               1.8
 (Enter /home/user/softwares/g16/g16/l601.exe)
 Copying SCF densities to generalized density rwf, IOpCl= 0 IROHF=0.

 **********************************************************************

            Population analysis using the SCF Density.

 **********************************************************************

 Orbital symmetries:
       Occupied  (A) (A) (A) (A) (A) (A) (A) (A) (A) (A) (A) (A)
                 (A) (A) (A) (A) (A) (A) (A) (A) (A) (A) (A) (A)
                 (A) (A) (A) (A) (A) (A) (A) (A)
       Virtual   (A) (A) (A) (A) (A) (A) (A) (A) (A) (A) (A) (A)
                 (A) (A) (A) (A) (A) (A) (A) (A) (A) (A) (A) (A)
                 (A) (A) (A) (A) (A) (A) (A) (A) (A) (A) (A) (A)
                 (A) (A) (A) (A) (A) (A) (A) (A) (A) (A) (A) (A)
                 (A) (A) (A) (A) (A) (A) (A) (A) (A) (A) (A) (A)
                 (A) (A) (A) (A) (A) (A) (A) (A) (A)
 The electronic state is 1-A.
 Alpha  occ. eigenvalues --  -11.24325 -11.23906 -11.23071 -11.22954 -11.22798
 Alpha  occ. eigenvalues --  -11.22245 -11.21033 -11.20700 -11.16913  -1.13566
 Alpha  occ. eigenvalues --   -1.07329  -1.04882  -0.94683  -0.92472  -0.84137
 Alpha  occ. eigenvalues --   -0.78004  -0.74525  -0.68806  -0.64578  -0.63306
 Alpha  occ. eigenvalues --   -0.58138  -0.57562  -0.56405  -0.53551  -0.51983
 Alpha  occ. eigenvalues --   -0.51154  -0.49732  -0.46858  -0.40117  -0.36788
 Alpha  occ. eigenvalues --   -0.29089  -0.24652
 Alpha virt. eigenvalues --    0.01856   0.02919   0.08694   0.10574   0.24774
 Alpha virt. eigenvalues --    0.25873   0.27684   0.30013   0.30965   0.34572
 Alpha virt. eigenvalues --    0.34609   0.36496   0.37500   0.38525   0.40422
 Alpha virt. eigenvalues --    0.44277   0.45679   0.47454   0.48636   0.51111
 Alpha virt. eigenvalues --    0.52237   0.54578   0.55938   0.90835   0.92575
 Alpha virt. eigenvalues --    0.94165   0.95570   0.97599   0.98346   0.99715
 Alpha virt. eigenvalues --    1.00620   1.01012   1.01523   1.02126   1.03133
 Alpha virt. eigenvalues --    1.04646   1.06403   1.07045   1.08315   1.10366
 Alpha virt. eigenvalues --    1.11135   1.14054   1.17595   1.19947   1.20883
 Alpha virt. eigenvalues --    1.22876   1.26229   1.27811   1.29676   1.31523
 Alpha virt. eigenvalues --    1.33504   1.34794   1.35127   1.38709   1.38842
 Alpha virt. eigenvalues --    1.42568   1.44930   1.46839   1.49235   1.50540
 Alpha virt. eigenvalues --    1.72531   1.89839   1.97377   2.17225   2.22527
 Alpha virt. eigenvalues --    2.26722   2.34007   2.43182   2.66602
     Molecular Orbital Coefficients:
                           1         2         3         4         5
                           O         O         O         O         O
     Eigenvalues --   -11.24325 -11.23906 -11.23071 -11.22954 -11.22798
   1 1   C  1S         -0.01139   0.00005  -0.01761  -0.02154   0.00890
   2        2S         -0.00421   0.00003  -0.00469  -0.00315   0.00133
   3        2PX        -0.00003  -0.00005   0.00010  -0.00053   0.00039
   4        2PY         0.00001   0.00030   0.00037  -0.00109  -0.00023
   5        2PZ        -0.00022  -0.00007   0.00002   0.00018   0.00011
   6        3S          0.02494   0.00065   0.02615   0.00255   0.00000
   7        3PX         0.01339  -0.00004   0.00412  -0.00039  -0.00123
   8        3PY        -0.00660  -0.00082   0.01180   0.00407   0.00210
   9        3PZ         0.00137  -0.00007   0.00309  -0.00004  -0.00046
  10 2   C  1S          0.98614   0.05466   0.00949   0.00828  -0.00155
  11        2S          0.10062   0.00356   0.00063   0.00015   0.00010
  12        2PX        -0.00071  -0.00067   0.00044  -0.00001  -0.00010
  13        2PY        -0.00006  -0.00033  -0.00096  -0.00104   0.00042
  14        2PZ         0.00229  -0.00007  -0.00033  -0.00014  -0.00012
  15        3S         -0.08261   0.00294  -0.00603  -0.00066  -0.00060
  16        3PX         0.00424   0.00282   0.00019  -0.00150  -0.00176
  17        3PY        -0.00322   0.00107  -0.00077   0.00231  -0.00340
  18        3PZ        -0.01663   0.00274  -0.00116   0.00035   0.00007
  19 3   C  1S          0.00400  -0.00589  -0.10137  -0.10872   0.97635
  20        2S          0.00100  -0.00037  -0.01230  -0.01418   0.09909
  21        2PX         0.00022  -0.00049   0.00105  -0.00003  -0.00023
  22        2PY        -0.00017   0.00039   0.00108   0.00018  -0.00253
  23        2PZ        -0.00004   0.00046   0.00016  -0.00020   0.00021
  24        3S         -0.00249  -0.00412   0.00962   0.03267  -0.07762
  25        3PX         0.00141   0.00029  -0.00032  -0.01120  -0.00222
  26        3PY         0.00082   0.00336  -0.00254  -0.00855   0.01609
  27        3PZ         0.00035  -0.00214   0.00034  -0.00480   0.00214
  28 4   C  1S         -0.00192  -0.00252  -0.00601  -0.00591  -0.00855
  29        2S         -0.00145  -0.00188  -0.00154  -0.00140  -0.00206
  30        2PX        -0.00000   0.00026   0.00068   0.00035   0.00063
  31        2PY         0.00020   0.00047  -0.00076  -0.00060  -0.00122
  32        2PZ        -0.00021  -0.00047   0.00012   0.00067   0.00029
  33        3S          0.01555   0.02190   0.00378   0.00147   0.00415
  34        3PX        -0.01543   0.01489  -0.00293  -0.00045  -0.00211
  35        3PY        -0.00791   0.00900   0.00339   0.00096   0.00492
  36        3PZ        -0.00262  -0.00212  -0.00236  -0.00241  -0.00294
  37 5   C  1S          0.00138  -0.00562   0.00492  -0.00525  -0.00842
  38        2S          0.00071  -0.00360   0.00167  -0.00089  -0.00363
  39        2PX        -0.00031   0.00047  -0.00031   0.00113   0.00023
  40        2PY         0.00021  -0.00028  -0.00038  -0.00030  -0.00004
  41        2PZ        -0.00014  -0.00083   0.00003   0.00042  -0.00020
  42        3S         -0.00273   0.02812  -0.00474  -0.00398   0.02538
  43        3PX         0.00152  -0.00173   0.00195   0.00056  -0.01393
  44        3PY         0.00095  -0.01704   0.00097   0.00281   0.00202
  45        3PZ         0.00038   0.00554  -0.00077  -0.00210   0.00337
  46 6   C  1S         -0.05513   0.98675  -0.00532   0.00703   0.00662
  47        2S         -0.00779   0.10451  -0.00038   0.00038   0.00098
  48        2PX         0.00079   0.00076  -0.00075   0.00074   0.00086
  49        2PY         0.00038   0.00012   0.00055  -0.00025  -0.00066
  50        2PZ        -0.00021   0.00289   0.00003  -0.00007  -0.00035
  51        3S          0.01222  -0.09822   0.00168  -0.00057  -0.00865
  52        3PX        -0.00370  -0.00606   0.00529  -0.00185  -0.00072
  53        3PY        -0.00166  -0.00250  -0.00076   0.00306  -0.00057
  54        3PZ         0.00395  -0.02251   0.00002   0.00073  -0.00148
  55 7   H  1S         -0.00200  -0.00014  -0.00115  -0.00005   0.00001
  56        2S          0.00033  -0.00019  -0.00026   0.00148   0.00086
  57 8   H  1S          0.00005   0.00097  -0.00051  -0.00172   0.00083
  58        2S          0.00074   0.00018  -0.00241  -0.00286   0.01341
  59 9   H  1S          0.00010  -0.00217   0.00019   0.00024  -0.00103
  60        2S         -0.00067  -0.00218   0.00044   0.00195  -0.00017
  61 10  H  1S          0.00119  -0.00048   0.00010   0.00002  -0.00036
  62        2S          0.01388   0.00124   0.00151   0.00180  -0.00142
  63 11  H  1S         -0.00086  -0.00114   0.00034  -0.00005   0.00029
  64        2S         -0.00034  -0.00200   0.00190   0.00121   0.00272
  65 12  C  1S         -0.01057   0.00306   0.97243   0.12750   0.11494
  66        2S         -0.00159   0.00067   0.09954   0.01046   0.00903
  67        2PX        -0.00025  -0.00008   0.00238   0.00066  -0.00089
  68        2PY         0.00066  -0.00019  -0.00071   0.00004  -0.00060
  69        2PZ         0.00051  -0.00002   0.00034  -0.00014   0.00010
  70        3S         -0.00109  -0.00268  -0.08263   0.01207  -0.00235
  71        3PX        -0.00209  -0.00118  -0.01609   0.00882   0.00184
  72        3PY        -0.00034  -0.00044   0.00683   0.00792   0.00252
  73        3PZ        -0.00166   0.00060   0.00242  -0.00391  -0.00004
  74 13  H  1S          0.00066   0.00000   0.00125  -0.00124  -0.00069
  75        2S         -0.00021   0.00052   0.01401   0.00069   0.00038
  76 14  C  1S         -0.00656  -0.00881  -0.13976   0.97311   0.09319
  77        2S         -0.00147  -0.00166  -0.01648   0.09915   0.00666
  78        2PX        -0.00015  -0.00012  -0.00061   0.00095   0.00049
  79        2PY         0.00041   0.00041   0.00004  -0.00186   0.00007
  80        2PZ        -0.00036  -0.00027  -0.00009   0.00115   0.00030
  81        3S          0.00252   0.00315   0.02911  -0.07935   0.01506
  82        3PX         0.00113  -0.00020  -0.00682  -0.00806   0.00984
  83        3PY        -0.00049  -0.00181  -0.01085   0.00920   0.00116
  84        3PZ         0.00307   0.00262   0.00617  -0.01248   0.00464
  85 15  H  1S         -0.00093  -0.00081  -0.00156   0.00101  -0.00162
  86        2S          0.00280   0.00176  -0.00191   0.01240   0.00053
  87 16  C  1S         -0.00035  -0.00040   0.00049  -0.00081  -0.00143
  88        2S         -0.00013  -0.00238   0.00049  -0.00054  -0.00118
  89        2PX         0.00034  -0.00108   0.00018   0.00007  -0.00006
  90        2PY        -0.00004   0.00053  -0.00001  -0.00007  -0.00012
  91        2PZ        -0.00010   0.00005  -0.00012   0.00008   0.00004
  92        3S         -0.00120   0.02600  -0.00380   0.00237   0.00453
  93        3PX        -0.00043  -0.01280   0.00144  -0.00143  -0.00177
  94        3PY        -0.00021   0.00634  -0.00126   0.00047   0.00187
  95        3PZ        -0.00010   0.00079   0.00119  -0.00072   0.00001
  96 17  H  1S          0.00007  -0.00120   0.00037  -0.00017  -0.00057
  97        2S          0.00065  -0.00024   0.00023  -0.00002   0.00024
  98 18  H  1S         -0.00022  -0.00193   0.00003  -0.00006  -0.00026
  99        2S          0.00101  -0.00012  -0.00025   0.00018  -0.00053
 100 19  H  1S          0.00008  -0.00057   0.00005   0.00003  -0.00133
 101        2S          0.00033   0.00396  -0.00017  -0.00181   0.00265
                           6         7         8         9        10
                           O         O         O         O         O
     Eigenvalues --   -11.22245 -11.21033 -11.20700 -11.16913  -1.13566
   1 1   C  1S          0.98705   0.01597   0.00419  -0.00007  -0.05093
   2        2S          0.10000   0.00021  -0.00038   0.00011   0.05499
   3        2PX         0.00163  -0.00069  -0.00007  -0.00006   0.02695
   4        2PY         0.00028   0.00009  -0.00001   0.00005   0.01275
   5        2PZ         0.00180   0.00001  -0.00001  -0.00009   0.00752
   6        3S         -0.07871   0.00296   0.00367  -0.00123   0.09682
   7        3PX        -0.01134   0.00304   0.00198  -0.00090   0.00253
   8        3PY        -0.00492  -0.00406   0.00073   0.00049   0.00385
   9        3PZ        -0.01000  -0.00232  -0.00010   0.00058   0.01255
  10 2   C  1S          0.01092   0.00197  -0.00082   0.00032  -0.05851
  11        2S         -0.00169  -0.00134   0.00024  -0.00024   0.06251
  12        2PX        -0.00033  -0.00014   0.00001   0.00021   0.00492
  13        2PY        -0.00009   0.00034   0.00047  -0.00022   0.01918
  14        2PZ        -0.00014  -0.00005  -0.00005  -0.00007   0.02162
  15        3S          0.01985   0.01836  -0.00054   0.00133   0.12284
  16        3PX        -0.00938   0.01620   0.00160  -0.00160  -0.01366
  17        3PY         0.00634   0.00151  -0.00275   0.00113   0.00818
  18        3PZ         0.00408   0.00588   0.00027   0.00053   0.00682
  19 3   C  1S         -0.01285   0.00638   0.00773   0.00116  -0.08396
  20        2S         -0.00054  -0.00007  -0.00166  -0.00070   0.08917
  21        2PX        -0.00024  -0.00015   0.00050   0.00000   0.01307
  22        2PY        -0.00029   0.00060   0.00006  -0.00006  -0.04226
  23        2PZ         0.00004  -0.00013  -0.00001   0.00034  -0.01613
  24        3S         -0.00096   0.00007   0.02103   0.00500   0.17081
  25        3PX        -0.00017   0.00117   0.01130   0.00358  -0.00677
  26        3PY         0.00142  -0.00031  -0.00739  -0.00097  -0.02333
  27        3PZ        -0.00033   0.00104  -0.00227  -0.00192   0.00639
  28 4   C  1S         -0.01655   0.98618   0.05294   0.00355  -0.07471
  29        2S         -0.00289   0.10108   0.00422  -0.00093   0.08076
  30        2PX         0.00158   0.00110  -0.00049  -0.00080   0.00924
  31        2PY        -0.00010  -0.00151  -0.00104  -0.00009   0.01830
  32        2PZ         0.00030  -0.00240   0.00004   0.00041  -0.02993
  33        3S          0.00086  -0.08388  -0.00305   0.00160   0.15707
  34        3PX        -0.00308  -0.00448   0.00068   0.00171   0.00160
  35        3PY         0.00129   0.00644   0.00129   0.00099  -0.02352
  36        3PZ        -0.00074   0.01697   0.00012  -0.00170  -0.01625
  37 5   C  1S         -0.00350  -0.05336   0.98644   0.00522  -0.11269
  38        2S         -0.00108  -0.00712   0.10466  -0.00130   0.11290
  39        2PX         0.00006   0.00048  -0.00029  -0.00115  -0.02294
  40        2PY        -0.00000   0.00066  -0.00031   0.00117  -0.02469
  41        2PZ         0.00009  -0.00016  -0.00009   0.00020   0.00262
  42        3S          0.00402   0.01074  -0.09483   0.00138   0.26073
  43        3PX        -0.00169   0.00087   0.00557   0.00623  -0.00497
  44        3PY        -0.00143  -0.00546   0.00311  -0.00539   0.01535
  45        3PZ        -0.00080  -0.00157  -0.00019  -0.00168  -0.00877
  46 6   C  1S         -0.00068   0.00179   0.00513  -0.00017  -0.10466
  47        2S          0.00008  -0.00076  -0.00154  -0.00102   0.10324
  48        2PX        -0.00050  -0.00021   0.00020   0.00024  -0.00767
  49        2PY         0.00031   0.00050   0.00039  -0.00006   0.02397
  50        2PZ        -0.00005  -0.00003  -0.00015   0.00006   0.03380
  51        3S         -0.00054   0.01422   0.01951   0.01233   0.25276
  52        3PX         0.00318  -0.01033  -0.00325   0.01021   0.01605
  53        3PY        -0.00334  -0.01548   0.01313  -0.00446   0.01263
  54        3PZ         0.00023   0.00439   0.00306   0.00153   0.03870
  55 7   H  1S          0.00093  -0.00008  -0.00017   0.00000   0.02176
  56        2S          0.01414   0.00003   0.00029  -0.00023  -0.00530
  57 8   H  1S          0.00050  -0.00039  -0.00143   0.00006   0.03762
  58        2S         -0.00049  -0.00004   0.00098   0.00054  -0.00247
  59 9   H  1S         -0.00012  -0.00019   0.00086  -0.00121   0.05543
  60        2S          0.00056  -0.00128   0.01540   0.00103  -0.00414
  61 10  H  1S         -0.00097  -0.00109  -0.00024   0.00005   0.02433
  62        2S          0.00051  -0.00012  -0.00115   0.00026  -0.00176
  63 11  H  1S          0.00036   0.00134   0.00001  -0.00076   0.03029
  64        2S          0.00105   0.01460   0.00121   0.00179  -0.01080
  65 12  C  1S          0.01805   0.00788  -0.00246  -0.00012  -0.05722
  66        2S         -0.00097  -0.00040   0.00044   0.00015   0.06151
  67        2PX        -0.00008  -0.00054   0.00027  -0.00008   0.03092
  68        2PY        -0.00009   0.00040   0.00000  -0.00009  -0.00782
  69        2PZ         0.00003  -0.00011   0.00006   0.00001  -0.00983
  70        3S          0.02047   0.00272  -0.00224  -0.00128   0.11969
  71        3PX         0.00209   0.00013  -0.00129  -0.00022   0.01535
  72        3PY        -0.01371  -0.00276   0.00087   0.00000  -0.00488
  73        3PZ        -0.00076   0.00069  -0.00026   0.00000   0.00039
  74 13  H  1S         -0.00188  -0.00061   0.00036   0.00001   0.02811
  75        2S          0.00131   0.00011   0.00008   0.00032   0.00056
  76 14  C  1S          0.01768   0.00553   0.00690   0.00091  -0.06940
  77        2S          0.00101  -0.00023  -0.00037  -0.00039   0.07492
  78        2PX         0.00083  -0.00004  -0.00103  -0.00020   0.02058
  79        2PY         0.00068   0.00031  -0.00024   0.00010  -0.01951
  80        2PZ        -0.00023  -0.00025  -0.00036  -0.00024   0.02825
  81        3S         -0.00087   0.00237   0.00035   0.00044   0.14612
  82        3PX        -0.00242   0.00002   0.00063  -0.00027   0.00918
  83        3PY         0.00022  -0.00020   0.00120  -0.00025  -0.01310
  84        3PZ         0.00113   0.00082   0.00147   0.00158   0.00319
  85 15  H  1S         -0.00046   0.00001  -0.00044  -0.00027   0.03747
  86        2S          0.00241  -0.00067   0.00174   0.00157  -0.00581
  87 16  C  1S          0.00021  -0.00350  -0.00583   0.98729  -0.04547
  88        2S          0.00024  -0.00146  -0.00244   0.09871   0.05131
  89        2PX         0.00021   0.00095   0.00046  -0.00062  -0.02957
  90        2PY         0.00005   0.00025  -0.00046   0.00255   0.02293
  91        2PZ        -0.00007  -0.00013   0.00003   0.00102   0.00335
  92        3S         -0.00258   0.00144   0.00544  -0.07002   0.07311
  93        3PX         0.00079  -0.00165  -0.00139   0.00503   0.01033
  94        3PY        -0.00064   0.00081   0.00079  -0.01171   0.00722
  95        3PZ         0.00084   0.00080  -0.00024  -0.00395   0.00141
  96 17  H  1S          0.00014  -0.00012  -0.00039  -0.00024   0.02241
  97        2S          0.00052   0.00144  -0.00079   0.01458  -0.00429
  98 18  H  1S          0.00001  -0.00017  -0.00007  -0.00022   0.02597
  99        2S         -0.00018  -0.00107  -0.00180   0.01570   0.00316
 100 19  H  1S         -0.00015  -0.00057   0.00078  -0.00021   0.04916
 101        2S         -0.00027   0.00041   0.01537  -0.00219  -0.01599
                          11        12        13        14        15
                           O         O         O         O         O
     Eigenvalues --    -1.07329  -1.04882  -0.94683  -0.92472  -0.84137
   1 1   C  1S         -0.11342  -0.03710  -0.00352  -0.11298  -0.01587
   2        2S          0.11693   0.03929   0.00222   0.10958   0.01508
   3        2PX         0.04348   0.03418  -0.03442   0.00623   0.04440
   4        2PY         0.02685  -0.03618   0.07185   0.00370  -0.09793
   5        2PZ         0.02137   0.00104   0.01543   0.03440  -0.02149
   6        3S          0.26054   0.07936   0.02087   0.33588   0.05407
   7        3PX         0.01723   0.00183  -0.00385   0.02289   0.02465
   8        3PY         0.00885   0.01138   0.00867  -0.00195  -0.03624
   9        3PZ         0.02391   0.00658   0.01009   0.03403  -0.01279
  10 2   C  1S         -0.07969  -0.09866   0.08900   0.00134  -0.07378
  11        2S          0.08145   0.10146  -0.08544   0.00022   0.06956
  12        2PX        -0.04192   0.01894  -0.00853  -0.11062  -0.06999
  13        2PY         0.02278   0.00790   0.01586   0.00746  -0.04357
  14        2PZ         0.02541   0.03707  -0.03140  -0.01247   0.00835
  15        3S          0.20822   0.23955  -0.26824  -0.01178   0.25425
  16        3PX        -0.00730  -0.02142   0.01030  -0.02042  -0.02036
  17        3PY        -0.00315  -0.00621   0.00216  -0.00586  -0.02506
  18        3PZ         0.02801   0.02732  -0.04078  -0.00717   0.03092
  19 3   C  1S          0.00958   0.10457   0.06459   0.04320  -0.07818
  20        2S         -0.01054  -0.10788  -0.06219  -0.03996   0.07402
  21        2PX        -0.05241   0.01376  -0.06253   0.09039  -0.03863
  22        2PY         0.00424   0.03759   0.01664   0.01388  -0.00302
  23        2PZ        -0.00182   0.01743  -0.00448   0.01525   0.00106
  24        3S         -0.01467  -0.24852  -0.18810  -0.13893   0.24984
  25        3PX         0.00416  -0.00383  -0.01034   0.02059  -0.01723
  26        3PY         0.00014   0.02383   0.02167   0.02188  -0.01883
  27        3PZ        -0.00590   0.00148   0.00279   0.00535   0.00253
  28 4   C  1S         -0.00415  -0.10704   0.03571   0.10578   0.06127
  29        2S          0.00440   0.10534  -0.03195  -0.10049  -0.05808
  30        2PX        -0.05763  -0.00134   0.06559  -0.02815  -0.06348
  31        2PY        -0.02432  -0.01877   0.03001   0.02078  -0.03888
  32        2PZ        -0.00424  -0.03770   0.01419   0.03040   0.01852
  33        3S          0.01790   0.26879  -0.11416  -0.31949  -0.20259
  34        3PX         0.02689   0.01088  -0.00600  -0.01903  -0.01076
  35        3PY         0.00274  -0.01082  -0.00506   0.02328   0.00733
  36        3PZ         0.00233  -0.04122   0.01736   0.03388   0.02459
  37 5   C  1S          0.08955   0.04995   0.06877  -0.09861   0.04050
  38        2S         -0.08620  -0.04473  -0.06061   0.08640  -0.03501
  39        2PX        -0.00969   0.03974   0.04140   0.05453  -0.03084
  40        2PY         0.02693  -0.04486  -0.06046   0.00665   0.04869
  41        2PZ        -0.00091  -0.00611  -0.01304  -0.00201   0.01217
  42        3S         -0.24344  -0.15746  -0.22762   0.35399  -0.13476
  43        3PX         0.00540  -0.00336   0.00989   0.01760  -0.00709
  44        3PY        -0.00769   0.01239  -0.01024  -0.00988   0.01905
  45        3PZ         0.01163  -0.00242  -0.00938  -0.00058   0.01311
  46 6   C  1S          0.08040  -0.06366  -0.05980   0.01076   0.05705
[...]
 0076,0.55118557,-0.01008419,-0.00688623,0.00658839,-0.03105763,0.01435
 948,-0.09431246,-0.00148950,0.00426377,0.00036638,0.12289343,-0.171196
 44,0.34178700,0.00374942,-0.00190557,0.00343689,-0.00489338,-0.0021718
 4,-0.00064212,-0.20073288,-0.07341201,0.00128188,0.01000702,-0.0022957
 6,-0.00563845,0.48933132,0.00079328,0.00330865,-0.00182199,0.00126851,
 0.00110189,0.00218941,-0.05462377,-0.09777368,0.00497628,0.01472373,-0
 .01812727,0.00189049,0.10283505,0.53330013,-0.00035373,-0.00014146,0.0
 0151985,-0.00172757,-0.00095663,-0.00098396,-0.00750291,-0.00190751,-0
 .11100156,-0.00515980,0.01399185,0.00133837,-0.02184425,0.00040043,0.6
 7587264,0.00010661,0.00025722,0.00405758,-0.00310118,-0.02316786,0.014
 09040,-0.04994937,0.02693160,-0.00712713,-0.11632586,-0.02401137,0.020
 88929,-0.10654780,0.03727888,0.00173941,0.82279414,0.00612355,-0.00672
 235,0.00290458,-0.01362495,-0.00493206,0.00326686,0.00801972,0.0090288
 2,0.00185743,-0.00839784,-0.16814729,0.04548068,0.01760628,-0.13322932
 ,0.00877194,-0.03204688,0.47000969,-0.00068344,-0.00289188,-0.00749810
 ,0.00915276,0.00105092,0.00532285,-0.00726214,0.00148440,-0.00229536,0
 .00335797,0.04590655,-0.10855846,0.01053041,-0.00572604,-0.08261690,-0
 .23115503,-0.08839779,0.34122709,-0.13626045,-0.12846732,0.02031623,-0
 .01878575,-0.02940194,0.00236579,0.00006851,-0.00101803,0.00067328,-0.
 00155102,0.00199869,-0.00341654,-0.00031592,0.00048429,0.00000342,0.00
 002379,-0.00004447,-0.00025273,0.14489017,-0.12694768,-0.27902219,0.04
 725289,0.00330911,0.00046923,0.00459586,0.00063641,0.00097490,0.000572
 28,-0.00001736,0.00147923,-0.00036861,0.00001546,-0.00021974,0.0001665
 8,0.00029566,-0.00001260,0.00000324,0.13820785,0.29596750,0.01821570,0
 .04669852,-0.06914878,-0.01425067,-0.01477951,0.00468131,-0.00014584,0
 .00191631,-0.00122399,-0.00246134,0.00155556,-0.00071156,0.00038199,-0
 .00166002,0.00044516,0.00049323,0.00110822,-0.00002727,-0.00919674,-0.
 06096858,0.06099786,0.00067046,0.00075584,0.00089108,0.00039768,0.0011
 8025,-0.00018107,-0.11381575,-0.02882121,0.11538206,-0.00088261,0.0002
 8219,-0.00017923,-0.01192242,-0.01203894,0.02725012,0.00094152,-0.0008
 4278,-0.00000829,-0.00005853,-0.00015794,-0.00029177,0.11856215,-0.000
 23804,-0.00218875,-0.00073906,0.00065175,-0.00260130,-0.00055574,-0.03
 875358,-0.06807767,0.05824417,0.00044746,-0.00001752,-0.00013007,-0.00
 693976,0.00095027,0.01595391,-0.00107953,-0.00089789,0.00029259,-0.000
 07867,0.00024811,0.00055024,0.04558950,0.06014024,-0.00018725,-0.00017
 846,0.00067615,-0.00018770,0.00059759,0.00045526,0.11224291,0.04768058
 ,-0.30492010,0.00032427,0.00090206,-0.00004403,-0.00481556,-0.00217161
 ,0.00414198,0.00038810,0.00018857,-0.00042517,0.00008433,0.00000259,0.
 00008000,-0.11941379,-0.05306398,0.32896091,-0.00027497,-0.00000543,-0
 .00003124,0.00036295,0.00040642,-0.00029919,-0.00581320,-0.02087911,-0
 .03781259,-0.00069481,-0.00089370,0.00051853,-0.06367298,-0.02363589,-
 0.03199142,0.00084018,0.01513796,0.02045614,0.00002255,-0.00005910,0.0
 0004704,0.00117769,0.00125932,0.00056380,0.07403916,0.00007123,-0.0000
 5955,0.00022211,-0.00064317,-0.00011758,0.00012964,-0.00144270,-0.0052
 2836,-0.00907981,0.00136122,0.00072417,-0.00012731,-0.02681276,-0.1397
 7806,-0.12553802,-0.00189359,-0.01903549,-0.02530896,-0.00001747,-0.00
 002617,0.00003090,-0.00021162,0.00024841,0.00020320,0.02663487,0.15067
 692,-0.00000684,-0.00002549,0.00003697,-0.00007726,-0.00005963,0.00000
 212,0.00095887,0.00298669,0.00000120,-0.00015216,-0.00039959,-0.000265
 30,-0.03829615,-0.12426651,-0.25600382,0.00200118,0.00075043,0.0036652
 1,0.00000875,-0.00004282,0.00001766,-0.00024747,-0.00009558,0.00118918
 ,0.04090293,0.13935464,0.27407638,-0.00776471,0.02731875,-0.02562210,-
 0.06167086,0.01827622,-0.01878269,-0.00023638,0.00036143,0.00015200,-0
 .00437696,-0.03453441,0.01692882,-0.00089651,-0.00043227,0.00066524,-0
 .00019273,-0.00404355,-0.00505954,-0.00005573,0.00057199,-0.00010768,0
 .00003876,0.00007423,-0.00020208,0.00004868,-0.00002013,-0.00003344,0.
 08182791,-0.00459284,0.00042781,0.00112326,0.01478130,-0.25168051,0.14
 354284,0.00027206,-0.00032933,0.00017973,-0.00187060,-0.01987621,0.017
 69647,0.00035253,0.00061203,-0.00047269,-0.00475282,0.00606803,0.00402
 079,0.00037315,0.00174913,-0.00124814,-0.00004212,-0.00004070,0.000291
 38,0.00000718,-0.00008715,0.00000238,-0.00527428,0.26621586,-0.0046302
 8,0.01790398,-0.00722161,-0.01628829,0.14341471,-0.15602663,-0.0000288
 5,-0.00015830,-0.00039984,-0.00350601,0.00208048,0.00560301,0.00088268
 ,0.00059852,-0.00098700,-0.00440981,0.00580136,0.00935695,0.00001146,-
 0.00080289,-0.00009549,0.00007580,-0.00020337,0.00015748,0.00005131,-0
 .00002351,0.00007194,0.02924269,-0.16015184,0.15584225,0.00178341,-0.0
 0478105,-0.00172291,-0.02715769,0.00924995,-0.02301913,-0.00076292,0.0
 0070686,-0.00049384,-0.21209933,0.07900874,-0.12357997,-0.00083396,-0.
 00118222,0.00065647,0.00762151,-0.00818570,0.00611131,-0.00124916,-0.0
 0023692,-0.00063126,0.00009682,-0.00011827,-0.00014733,-0.00003046,0.0
 0009764,0.00003519,-0.00187251,0.00180131,0.00325380,0.23422659,-0.004
 13505,0.00310921,0.00537659,-0.02511065,0.00591229,-0.00890649,-0.0005
 7358,-0.00072297,0.00033742,0.08741240,-0.10017993,0.07655694,-0.00041
 879,-0.00226925,0.00244931,0.01720881,-0.01634440,0.02237529,-0.000201
 27,-0.00030046,-0.00023095,0.00002540,0.00006991,0.00003714,0.00003573
 ,-0.00022775,-0.00010316,-0.00046149,-0.00203716,-0.00656370,-0.074361
 45,0.11460360,-0.00366932,0.00492117,0.00950545,-0.00459566,0.00463381
 ,0.00543607,0.00124565,-0.00105083,0.00043126,-0.12544904,0.07532701,-
 0.15351970,0.00242054,0.00027495,-0.00136403,-0.01550342,0.01131423,-0
 .00244988,0.00017787,-0.00005894,-0.00010331,-0.00006177,-0.00000326,0
 .00009979,0.00007236,0.00003949,-0.00002498,0.00529656,-0.00576508,-0.
 00595810,0.13798726,-0.08919718,0.14889269,-0.19324827,0.11488782,-0.1
 4021836,-0.01148021,0.01871107,-0.02162812,-0.01420387,-0.02459371,-0.
 00809150,0.00031475,0.00383645,-0.00287587,0.00405952,-0.01490425,-0.0
 0086150,0.00340031,0.00459852,0.00108329,0.01202885,-0.01732337,0.0101
 7274,-0.00439349,0.00717336,-0.00119495,-0.00124193,-0.00027115,-0.000
 06455,-0.00452743,-0.00012733,-0.00326062,-0.00041656,-0.00048767,0.00
 028141,0.62176332,0.10270488,-0.32399581,0.19222555,0.01229026,0.01004
 964,0.00804688,-0.03472137,-0.02764767,-0.00622055,-0.00833272,-0.0046
 1960,-0.00196087,0.00453045,0.00350238,-0.00146746,-0.00016787,0.00677
 578,-0.00271838,0.01681582,-0.01986551,0.02428097,0.00339393,-0.003903
 26,0.00264605,0.00004598,0.00017073,0.00007262,-0.00180505,0.00156131,
 -0.00055241,-0.00042072,-0.00049646,0.00028231,0.05083845,0.64220442,-
 0.13504316,0.20862473,-0.27095516,-0.01691965,0.01044870,-0.00949024,-
 0.02331887,-0.02702590,0.00790177,0.00569724,0.00349413,0.00017269,-0.
 00199698,-0.00324323,-0.00453157,-0.00042103,-0.00352043,0.00200840,-0
 .00692364,0.00494145,0.00237203,-0.00285440,-0.00104353,0.00005916,-0.
 00148191,-0.00044897,-0.00017274,-0.00237654,0.00018900,-0.00015805,0.
 00027577,-0.00045813,-0.00083418,0.28152803,-0.21906660,0.51791704,-0.
 00831390,-0.00733012,-0.00986663,0.00482847,-0.00140335,-0.00565790,-0
 .00205155,-0.00178633,0.00063620,-0.00078770,-0.00021375,0.00052632,0.
 00084604,-0.00038244,-0.00059615,0.00038080,0.00039333,-0.00081718,-0.
 00130992,0.00291783,0.00401617,0.00010269,0.00027006,0.00005746,-0.000
 30568,-0.00000384,0.00002754,-0.00069987,0.00014474,-0.00015394,-0.000
 36384,0.00046729,0.00074937,-0.28194255,-0.06078885,-0.12914047,0.2929
 6631,0.02449665,0.00849634,0.01768216,-0.00252834,-0.00018811,0.005528
 50,-0.00286415,-0.00267538,0.00320646,0.00065307,-0.00029063,0.0001897
 1,-0.00016559,-0.00184143,-0.00104311,0.00022415,-0.00084921,0.0004942
 4,0.00220253,-0.00072757,-0.00312724,-0.00075843,0.00111128,-0.0003761
 4,-0.00055541,-0.00023553,-0.00011345,0.00093469,-0.00028984,0.0004054
 6,0.00038756,-0.00017113,-0.00060325,-0.06533723,-0.07728054,-0.027163
 93,0.06754089,0.07755963,-0.02285648,-0.00607349,-0.00062572,-0.003799
 38,0.00579970,0.00630479,0.00145177,0.00218527,0.00129701,0.00089256,0
 .00039135,-0.00095761,-0.00106949,0.00025783,0.00038230,-0.00039889,-0
 .00073172,0.00106371,0.00357340,-0.00286116,-0.00465613,-0.00054125,0.
 00002843,-0.00002504,0.00018180,-0.00006668,-0.00005142,-0.00064617,0.
 00000303,-0.00068708,0.00022238,-0.00077141,-0.00099622,-0.12713962,-0
 .01658448,-0.13230722,0.14826718,0.02136353,0.12294631,0.01116093,0.00
 299992,0.00588860,-0.00325848,0.00396916,0.00007436,-0.15371273,-0.098
 34847,-0.12711056,0.00267916,-0.00008533,0.00033976,-0.02050057,-0.017
 50446,-0.03096523,-0.00443333,-0.00923223,-0.00230024,0.00189574,-0.00
 040983,-0.00619963,0.00886623,0.00417975,0.01442444,-0.00539333,-0.002
 45615,0.00008001,0.00001963,0.00002891,-0.00040918,0.00024783,-0.00029
 891,-0.00064756,-0.13039673,-0.08686685,0.01510089,-0.00316136,-0.0235
 7197,0.00331774,0.39981072,-0.01838796,-0.03873501,0.02652687,-0.00095
 130,-0.00252002,-0.00540233,-0.12299294,-0.20584188,-0.20550489,0.0035
 5612,0.00209537,-0.00128829,-0.01158873,-0.00769521,-0.02138094,0.0029
 9025,-0.00364117,0.00394212,-0.00200570,0.00095876,0.00784229,-0.00231
 310,0.00982123,0.00760624,-0.00495121,-0.00023209,-0.00110655,-0.00097
 992,-0.00017433,-0.00024134,0.00028989,-0.00021745,-0.00032450,-0.0629
 0310,-0.19899419,0.02583169,0.00053133,-0.00260486,-0.00257784,0.25189
 659,0.50860816,0.01183366,0.02959969,0.00263990,0.00208525,-0.00222662
 ,-0.00731730,-0.13015983,-0.19049528,-0.46196653,0.00059097,0.00105575
 ,0.00087639,-0.00209325,-0.00406729,0.00914896,0.00009319,-0.00346592,
 0.00113224,-0.00760273,0.00752822,0.00748251,-0.01761449,-0.01617577,-
 0.02912181,0.00249995,0.00116318,0.00112316,0.00022741,-0.00016135,0.0
 0040294,0.00006407,0.00044301,0.00061549,0.01128222,0.01791191,-0.1121
 4171,-0.00891475,-0.01717295,0.00897982,0.03392793,0.12961519,0.890991
 39,-0.00019115,-0.00214046,0.00173282,-0.00049507,0.00040809,0.0001076
 4,0.01330853,0.00162994,-0.00779967,0.00121338,0.00018217,0.00018401,-
 0.00176487,0.00647102,-0.00058442,-0.00110695,-0.00190045,0.00072731,0
 .00076150,-0.00071023,-0.00015665,0.00516992,-0.00865872,-0.00097034,0
 .00040566,0.00009615,0.00011220,0.00000875,-0.00006723,0.00002227,0.00
 020043,-0.00012342,-0.00026681,-0.00034118,0.00361622,0.01754215,0.000
 00134,-0.00040719,-0.00139915,-0.10374598,-0.03670273,0.10320913,0.085
 67162,-0.00407190,-0.00225325,-0.00209277,-0.00031348,0.00125184,0.000
 68466,0.00563833,0.00668996,-0.02477688,-0.00045473,-0.00036970,0.0005
 8669,0.00333823,-0.00388084,0.00031282,0.00084273,0.00090784,-0.000621
 39,0.00137641,-0.00164635,-0.00141027,-0.00600501,0.00512090,-0.003718
 00,-0.00014846,-0.00005988,0.00011336,0.00005797,0.00004024,0.00001300
 ,0.00002822,0.00008348,0.00004556,-0.01155984,-0.00650714,0.02839226,-
 0.00039654,-0.00038952,-0.00026353,-0.02536839,-0.06129097,0.04663122,
 0.03789720,0.06261834,0.00174500,-0.00081489,0.00102555,-0.00055958,-0
 .00029583,-0.00003041,0.01624920,0.00745498,-0.02386498,0.00043672,0.0
 0033308,-0.00023815,0.00002461,0.00152597,0.00130473,-0.00005504,-0.00
 021777,0.00004662,-0.00003936,0.00008146,-0.00010796,-0.00106461,-0.00
 335487,-0.00228731,0.00022517,-0.00017364,0.00036094,-0.00005987,0.000
 00715,-0.00001921,-0.00000726,-0.00008674,-0.00005268,0.00053513,0.001
 81782,0.00028183,0.00069002,0.00081761,-0.00056227,0.09493698,0.037966
 24,-0.31207829,-0.11201896,-0.04452893,0.33578102,-0.00229280,0.000394
 91,-0.00130607,0.00586774,0.00254968,-0.00074251,-0.00175709,0.0019663
 3,-0.00112165,-0.01851930,-0.01238385,0.01473824,-0.02047819,0.0062567
 6,0.01189210,-0.53195512,0.00975942,0.19516062,-0.00008670,-0.00004296
 ,0.00008159,-0.00011091,-0.00038986,0.00011390,-0.00070900,0.00023662,
 0.00025705,0.00031723,-0.00030166,-0.00027775,0.00011413,0.00133443,0.
 00141933,0.00069735,-0.00126510,0.00061775,-0.00014771,-0.00005113,0.0
 0006748,-0.00057241,0.00148185,0.00077548,0.00009869,-0.00012754,-0.00
 002821,0.84059097,0.00029860,0.00243430,-0.00000925,0.00285149,-0.0046
 1472,0.00447815,0.00118217,-0.00471985,0.00119275,-0.04153892,-0.00494
 200,0.01988537,0.03634592,-0.00387080,-0.01307801,0.00662642,-0.122295
 93,0.01754041,-0.00011991,-0.00002553,-0.00052117,0.00028349,0.0003044
 8,-0.00029730,0.00194836,-0.00084867,-0.00002934,-0.00002679,-0.002224
 54,-0.00156714,-0.00201927,-0.00065806,0.00037300,-0.00243471,-0.00073
 949,0.00040453,0.00006543,0.00030022,-0.00007923,0.00175604,0.00022144
 ,0.00038019,0.00058395,-0.00009459,0.00011602,-0.06199346,0.68277107,0
 .00051481,-0.00061458,0.00042698,-0.00158213,0.00144135,-0.00067686,0.
 00088713,-0.00013953,0.00103416,0.02483424,0.00841371,-0.00205262,0.00
 180838,0.00338446,0.00865895,0.19894692,0.01407177,-0.16904181,0.00017
 942,-0.00001959,0.00004154,-0.00002928,0.00001137,0.00008773,-0.001708
 53,0.00177748,0.00077096,0.00006973,0.00065936,0.00035712,0.00131270,-
 0.00130290,0.00075240,0.00051243,0.00106974,-0.00015234,0.00009389,-0.
 00013419,-0.00004814,-0.00038656,-0.00046431,-0.00098021,-0.00015191,-
 0.00023255,0.00039061,-0.28695914,-0.14804918,0.31881210,-0.00009063,0
 .00060311,-0.00005895,0.00085843,-0.00104829,0.00103746,-0.00045864,0.
 00005971,-0.00049104,-0.00381773,0.00340221,0.00461917,0.00056439,-0.0
 0350685,-0.00198398,-0.01052266,-0.03006629,0.01894461,-0.00003488,-0.
 00001292,-0.00004988,0.00013852,0.00007139,-0.00005235,0.00029090,-0.0
 0029994,-0.00006906,0.00004708,-0.00063111,-0.00063119,0.00049435,-0.0
 0054197,0.00020311,-0.00030503,-0.00038868,0.00007100,-0.00001005,0.00
 006269,-0.00001753,0.00005540,0.00015872,0.00028746,0.00003941,0.00001
 649,-0.00005339,-0.10698263,-0.08441083,0.05447044,0.10985013,-0.00006
 409,0.00025941,-0.00015730,0.00033540,0.00027516,0.00023708,-0.0003055
 4,0.00011717,-0.00057735,0.00085617,0.00184316,0.00271902,0.00052827,-
 0.00048479,-0.00230667,0.00373541,0.00385812,0.00039096,-0.00001851,-0
 .00001804,-0.00001754,0.00007388,0.00005356,0.00001567,0.00012636,-0.0
 0014262,-0.00021056,0.00017366,-0.00011537,-0.00028437,0.00031860,-0.0
 0014846,-0.00042079,-0.00014937,-0.00031016,0.00008404,-0.00004770,0.0
 0004823,0.00003875,-0.00007529,0.00012538,0.00016279,0.00005583,0.0000
 1264,-0.00003503,-0.09263571,-0.27157619,0.11448088,0.09847673,0.28283
 234,-0.00051578,0.00040555,-0.00025035,0.00041161,0.00093111,-0.000740
 59,-0.00107197,0.00018920,-0.00015995,0.00633664,0.00292432,0.00887423
 ,-0.00274772,-0.00392709,-0.00608495,0.00261559,0.01762608,0.00211971,
 0.00005587,-0.00001221,0.00003902,-0.00020204,0.00005136,0.00000182,0.
 00129811,-0.00125450,-0.00034326,0.00058300,-0.00007407,-0.00061452,0.
 00035589,-0.00095642,0.00020033,-0.00005424,-0.00057768,0.00011135,-0.
 00003819,0.00001374,0.00006602,-0.00014202,0.00035876,0.00043539,0.000
 07060,-0.00001326,-0.00002603,0.05872249,0.11032190,-0.10725799,-0.067
 47602,-0.12595494,0.09945619,0.00008876,-0.00041820,0.00043541,-0.0004
 4428,-0.00040357,-0.00003678,0.00097685,0.00049324,0.00019537,-0.00031
 263,-0.00007220,-0.00396742,-0.00186401,0.00055576,0.00617602,-0.01583
 745,0.03170097,0.00051322,-0.00000305,0.00000050,0.00011160,-0.0000268
 1,-0.00008383,0.00004268,-0.00098601,0.00116505,0.00014232,-0.00020196
 ,0.00000881,0.00020573,-0.00027000,-0.00021817,0.00081578,0.00053497,0
 .00044445,-0.00025235,0.00000393,-0.00011058,-0.00004898,-0.00033909,-
 0.00033279,-0.00028092,-0.00017215,0.00007999,-0.00002105,-0.16482720,
 0.13920690,0.00725371,0.01037554,-0.01147947,0.00131789,0.17308854,-0.
 00001222,-0.00000307,-0.00005281,-0.00023811,0.00039015,-0.00011406,0.
 00054067,-0.00039574,-0.00015085,-0.00215934,-0.00061750,-0.00123765,0
 .00093920,0.00276214,0.00325339,-0.00292430,0.00291680,0.00303122,0.00
 001055,0.00001491,-0.00005437,0.00020836,0.00006291,0.00002790,-0.0005
 5161,0.00054781,-0.00005994,0.00005092,0.00010227,0.00009255,-0.000255
 58,0.00093292,-0.00042098,-0.00013872,-0.00005325,0.00004305,0.0000179
 8,0.00002971,0.00000662,0.00027468,-0.00007731,-0.00015027,-0.00001005
 ,-0.00001808,0.00000447,0.14773674,-0.27064987,0.00629708,0.01677720,-
 0.01782417,-0.00055816,-0.15988996,0.28176842,0.00086300,-0.00021150,0
 .00052416,-0.00114741,-0.00061594,0.00006327,0.00233039,-0.00103305,0.
 00124621,-0.00168556,-0.00328590,-0.00546850,0.00448962,0.00634225,0.0
 0796094,0.01172605,-0.01536172,0.00710154,-0.00004367,0.00002256,-0.00
 007281,0.00009300,-0.00006011,-0.00008518,-0.00151421,0.00155944,-0.00
 009386,-0.00030949,0.00016765,0.00040634,-0.00061787,0.00106336,-0.000
 62472,-0.00032946,0.00076522,-0.00032688,0.00008087,-0.00000600,-0.000
 10652,0.00053343,-0.00098900,-0.00057323,-0.00013641,0.00015085,-0.000
 03870,0.00627343,0.01007013,-0.05234240,-0.00801746,0.01226620,0.00424
 277,-0.01254929,-0.00985055,0.03760411,-0.00030327,0.00018208,-0.00008
 882,-0.00000533,0.00020403,-0.00017874,-0.00956885,-0.02007745,0.03529
 824,-0.00243350,0.00192348,0.00065120,-0.07413421,-0.04245620,0.055188
 19,0.00386361,0.01504539,-0.01849907,0.00002002,-0.00003652,-0.0000286
 1,-0.00495191,-0.00337655,-0.00107054,0.00193460,0.00440974,-0.0055791
 0,0.00018763,-0.00011000,-0.00014983,0.00027137,0.00044836,-0.00047567
 ,-0.00030181,0.00007678,-0.00010381,-0.00003544,-0.00015221,-0.0000573
 8,0.00077837,0.00320474,-0.00021076,0.00093811,-0.00082968,-0.00093549
 ,0.00075296,0.00139514,-0.00006623,-0.00049189,0.00009536,0.00048029,0
 .00021606,-0.00037642,-0.00003897,0.08326347,0.00033574,-0.00012780,-0
 .00000072,-0.00028391,-0.00006143,0.00014474,0.00061252,-0.00411435,0.
 00806068,0.00403492,-0.00161679,-0.00043315,-0.04078059,-0.13636711,0.
 12299228,-0.00634691,-0.02345738,0.02513174,-0.00009600,0.00000238,0.0
 0003478,-0.00060169,-0.00040421,-0.00039347,0.00607772,0.01371086,-0.0
 1676751,-0.00024196,0.00007845,0.00023881,-0.00032760,-0.00093792,0.00
 063329,0.00018478,0.00014882,-0.00048289,0.00000405,-0.00000167,-0.000
 06497,-0.00088713,0.00019413,-0.00057568,-0.00022010,-0.00021493,-0.00
 061711,-0.00252548,0.00122873,-0.00065037,0.00127863,0.00119462,0.0005
 0631,-0.00064692,0.00011095,-0.00099388,0.04042993,0.15063467,-0.00010
 812,-0.00011025,0.00009714,-0.00008877,0.00003269,-0.00002390,0.002003
 36,-0.00254542,0.00278339,0.00018098,-0.00065763,0.00052195,0.05388699
 ,0.12504321,-0.24720009,0.00202939,-0.00144680,-0.00013137,0.00002557,
 -0.00003231,-0.00000978,-0.00100261,0.00029324,0.00099917,0.00802197,0
 .01754131,-0.02436033,0.00003415,-0.00000983,-0.00003051,-0.00005526,-
 0.00006199,-0.00000569,0.00032353,0.00002935,0.00024581,0.00004019,0.0
 0003884,-0.00001660,-0.00046318,-0.00040941,0.00035090,-0.00022382,0.0
 0072717,0.00011469,0.00031588,-0.00113181,0.00121984,-0.00073241,-0.00
 043083,-0.00006918,-0.00005294,-0.00010664,0.00058346,-0.06413490,-0.1
 3676288,0.26493110\\0.00000144,-0.00000430,-0.00000003,0.00000269,0.00
 000639,0.00000247,-0.00000948,0.00000179,-0.00001604,-0.00000274,-0.00
 000765,-0.00000471,-0.00000270,0.00000041,-0.00000381,0.00000216,-0.00
 000165,0.00001005,0.00000002,-0.00000032,0.00000092,0.00000022,-0.0000
 0207,-0.00000117,-0.00000075,-0.00000211,-0.00000074,0.00000140,-0.000
 00046,-0.00000092,-0.00000133,0.00000036,0.00000053,0.00000197,0.00000
 283,0.00000026,-0.00000037,0.00000007,0.00000044,0.00000619,0.00000557
 ,0.00001598,0.00000032,0.00000162,-0.00000038,0.00000201,0.00000165,-0
 .00000203,-0.00000020,-0.00000022,0.00000049,-0.00000065,-0.00000152,-
 0.00000119,-0.00000018,-0.00000038,-0.00000008\\\@


 ACCORDING TO HEN3RY, LIFE IS MUCH LIKE A SEWER........
 YOU GET OUT OF IT JUST WHAT YOU PUT INTO IT...........
                         TOM LEHRER - (THE 3 IS SILENT)
 Job cpu time:       0 days  0 hours  2 minutes 29.1 seconds.
 Elapsed time:       0 days  0 hours  0 minutes  7.6 seconds.
 File lengths (MBytes):  RWF=     34 Int=      0 D2E=      0 Chk=      2 Scr=      1
 Normal termination of Gaussian 16 at Tue Jun 10 01:35:29 2025.
