 Entering Gaussian System, Link 0=g16
 Initial command:
 /home/user/softwares/g16/g16/l1.exe "/home/user/scratch/Gau-328806.inp" -scrdir="/home/user/scratch/"
 Entering Link 1 = /home/user/softwares/g16/g16/l1.exe PID=    328808.
  
 Copyright (c) 1988-2017, Gaussian, Inc.  All Rights Reserved.
  
 This is part of the Gaussian(R) 16 program.  It is based on
 the Gaussian(R) 09 system (copyright 2009, Gaussian, Inc.),
 the Gaussian(R) 03 system (copyright 2003, Gaussian, Inc.),
 the Gaussian(R) 98 system (copyright 1998, Gaussian, Inc.),
 the Gaussian(R) 94 system (copyright 1995, Gaussian, Inc.),
 the Gaussian 92(TM) system (copyright 1992, Gaussian, Inc.),
 the Gaussian 90(TM) system (copyright 1990, Gaussian, Inc.),
 the Gaussian 88(TM) system (copyright 1988, Gaussian, Inc.),
 the Gaussian 86(TM) system (copyright 1986, Carnegie Mellon
 University), and the Gaussian 82(TM) system (copyright 1983,
 Carnegie Mellon University). Gaussian is a federally registered
 trademark of Gaussian, Inc.
  
 This software contains proprietary and confidential information,
 including trade secrets, belonging to Gaussian, Inc.
  
 This software is provided under written license and may be
 used, copied, transmitted, or stored only in accord with that
 written license.
  
 The following legend is applicable only to US Government
 contracts under FAR:
  
                    RESTRICTED RIGHTS LEGEND
  
 Use, reproduction and disclosure by the US Government is
 subject to restrictions as set forth in subparagraphs (a)
 and (c) of the Commercial Computer Software - Restricted
 Rights clause in FAR 52.227-19.
  
 Gaussian, Inc.
 340 Quinnipiac St., Bldg. 40, Wallingford CT 06492
  
  
 ---------------------------------------------------------------
 Warning -- This program may not be used in any manner that
 competes with the business of Gaussian, Inc. or will provide
 assistance to any competitor of Gaussian, Inc.  The licensee
 of this program is prohibited from giving any competitor of
 Gaussian, Inc. access to this program.  By using this program,
 the user acknowledges that Gaussian, Inc. is engaged in the
 business of creating and licensing software in the field of
 computational chemistry and represents and warrants to the
 licensee that it is not a competitor of Gaussian, Inc. and that
 it will not use this program in any manner prohibited above.
 ---------------------------------------------------------------
  

 Cite this work as:
 Gaussian 16, Revision B.01,
 M. J. Frisch, G. W. Trucks, H. B. Schlegel, G. E. Scuseria, 
 M. A. Robb, J. R. Cheeseman, G. Scalmani, V. Barone, 
 G. A. Petersson, H. Nakatsuji, X. Li, M. Caricato, A. V. Marenich, 
 J. Bloino, B. G. Janesko, R. Gomperts, B. Mennucci, H. P. Hratchian, 
 J. V. Ortiz, A. F. Izmaylov, J. L. Sonnenberg, D. Williams-Young, 
 F. Ding, F. Lipparini, F. Egidi, J. Goings, B. Peng, A. Petrone, 
 T. Henderson, D. Ranasinghe, V. G. Zakrzewski, J. Gao, N. Rega, 
 G. Zheng, W. Liang, M. Hada, M. Ehara, K. Toyota, R. Fukuda, 
 J. Hasegawa, M. Ishida, T. Nakajima, Y. Honda, O. Kitao, H. Nakai, 
 T. Vreven, K. Throssell, J. A. Montgomery, Jr., J. E. Peralta, 
 F. Ogliaro, M. J. Bearpark, J. J. Heyd, E. N. Brothers, K. N. Kudin, 
 V. N. Staroverov, T. A. Keith, R. Kobayashi, J. Normand, 
 K. Raghavachari, A. P. Rendell, J. C. Burant, S. S. Iyengar, 
 J. Tomasi, M. Cossi, J. M. Millam, M. Klene, C. Adamo, R. Cammi, 
 J. W. Ochterski, R. L. Martin, K. Morokuma, O. Farkas, 
 J. B. Foresman, and D. J. Fox, Gaussian, Inc., Wallingford CT, 2016.
 
 ******************************************
 Gaussian 16:  EM64L-G16RevB.01 20-Dec-2017
                10-Jun-2025 
 ******************************************
 %nproc=20
 Will use up to   20 processors via shared memory.
 %mem=15GB
 %chk=toluene_isomer.chk
 ---------------------------------------------
 #p hf/3-21g opt freq gfinput gfprint pop=full
 ---------------------------------------------
 1/18=20,19=15,38=1/1,3;
 2/9=110,12=2,17=6,18=5,40=1/2;
 3/5=5,11=9,24=110,25=1,30=1,71=1/1,2,3;
 4//1;
 5/5=2,38=5/2;
 6/7=3,28=1/1;
 7//1,2,3,16;
 1/18=20,19=15/3(2);
 2/9=110/2;
 99//99;
 2/9=110/2;
 3/5=5,11=9,25=1,30=1,71=1/1,2,3;
 4/5=5,16=3,69=1/1;
 5/5=2,38=5/2;
 7//1,2,3,16;
 1/18=20,19=15/3(-5);
 2/9=110/2;
 6/7=3,19=2,28=1/1;
 99/9=1/99;
 Leave Link    1 at Tue Jun 10 01:13:41 2025, MaxMem=  2013265920 cpu:               0.6 elap:               0.0
 (Enter /home/user/softwares/g16/g16/l101.exe)
 ------------
 optimisation
 ------------
 Symbolic Z-matrix:
 Charge =  0 Multiplicity = 1
 C                    -2.68334   1.32464   4.82388 
 C                    -1.54929   1.28516   5.5753 
 C                    -0.26858   2.02168   5.13616 
 C                    -0.28732   2.82351   4.04937 
 C                    -1.54873   2.89519   3.17909 
 C                    -2.68178   1.87384   3.38007 
 H                    -3.59774   0.95681   5.24038 
 H                    -1.54926   0.73824   6.49497 
 H                     0.63202   1.9117    5.70336 
 H                     0.57078   3.41274   3.80166 
 C                    -1.66061   3.85179   2.2257 
 H                    -0.87102   4.55963   2.08279 
 H                    -2.53852   3.89924   1.61584 
 H                    -2.54826   1.06214   2.69581 
 H                    -3.62072   2.34791   3.18374 
 
 ITRead=  0  0  0  0  0  0  0  0  0  0  0  0  0  0  0
 MicOpt= -1 -1 -1 -1 -1 -1 -1 -1 -1 -1 -1 -1 -1 -1 -1
 NAtoms=     15 NQM=       15 NQMF=       0 NMMI=      0 NMMIF=      0
                NMic=       0 NMicF=      0.
                    Isotopes and Nuclear Properties:
 (Nuclear quadrupole moments (NQMom) in fm**2, nuclear magnetic moments (NMagM)
  in nuclear magnetons)

  Atom         1           2           3           4           5           6           7           8           9          10
 IAtWgt=          12          12          12          12          12          12           1           1           1           1
 AtmWgt=  12.0000000  12.0000000  12.0000000  12.0000000  12.0000000  12.0000000   1.0078250   1.0078250   1.0078250   1.0078250
 NucSpn=           0           0           0           0           0           0           1           1           1           1
 AtZEff=  -0.0000000  -0.0000000  -0.0000000  -0.0000000  -0.0000000  -0.0000000  -0.0000000  -0.0000000  -0.0000000  -0.0000000
 NQMom=    0.0000000   0.0000000   0.0000000   0.0000000   0.0000000   0.0000000   0.0000000   0.0000000   0.0000000   0.0000000
 NMagM=    0.0000000   0.0000000   0.0000000   0.0000000   0.0000000   0.0000000   2.7928460   2.7928460   2.7928460   2.7928460
 AtZNuc=   6.0000000   6.0000000   6.0000000   6.0000000   6.0000000   6.0000000   1.0000000   1.0000000   1.0000000   1.0000000

  Atom        11          12          13          14          15
 IAtWgt=          12           1           1           1           1
 AtmWgt=  12.0000000   1.0078250   1.0078250   1.0078250   1.0078250
 NucSpn=           0           1           1           1           1
 AtZEff=  -0.0000000  -0.0000000  -0.0000000  -0.0000000  -0.0000000
 NQMom=    0.0000000   0.0000000   0.0000000   0.0000000   0.0000000
 NMagM=    0.0000000   2.7928460   2.7928460   2.7928460   2.7928460
 AtZNuc=   6.0000000   1.0000000   1.0000000   1.0000000   1.0000000
 Leave Link  101 at Tue Jun 10 01:13:43 2025, MaxMem=  2013265920 cpu:              25.5 elap:               1.3
 (Enter /home/user/softwares/g16/g16/l103.exe)

 GradGradGradGradGradGradGradGradGradGradGradGradGradGradGradGradGradGrad
 Berny optimization.
 Initialization pass.
                           ----------------------------
                           !    Initial Parameters    !
                           ! (Angstroms and Degrees)  !
 --------------------------                            --------------------------
 ! Name  Definition              Value          Derivative Info.                !
 --------------------------------------------------------------------------------
 ! R1    R(1,2)                  1.361          estimate D2E/DX2                !
 ! R2    R(1,6)                  1.5447         estimate D2E/DX2                !
 ! R3    R(1,7)                  1.07           estimate D2E/DX2                !
 ! R4    R(2,3)                  1.5413         estimate D2E/DX2                !
 ! R5    R(2,8)                  1.07           estimate D2E/DX2                !
 ! R6    R(3,4)                  1.3507         estimate D2E/DX2                !
 ! R7    R(3,9)                  1.07           estimate D2E/DX2                !
 ! R8    R(4,5)                  1.5342         estimate D2E/DX2                !
 ! R9    R(4,10)                 1.07           estimate D2E/DX2                !
 ! R10   R(5,6)                  1.5386         estimate D2E/DX2                !
 ! R11   R(5,11)                 1.3552         estimate D2E/DX2                !
 ! R12   R(6,14)                 1.07           estimate D2E/DX2                !
 ! R13   R(6,15)                 1.07           estimate D2E/DX2                !
 ! R14   R(11,12)                1.07           estimate D2E/DX2                !
 ! R15   R(11,13)                1.07           estimate D2E/DX2                !
 ! A1    A(2,1,6)              121.7029         estimate D2E/DX2                !
 ! A2    A(2,1,7)              119.1568         estimate D2E/DX2                !
 ! A3    A(6,1,7)              119.1374         estimate D2E/DX2                !
 ! A4    A(1,2,3)              121.414          estimate D2E/DX2                !
 ! A5    A(1,2,8)              119.3009         estimate D2E/DX2                !
 ! A6    A(3,2,8)              119.2829         estimate D2E/DX2                !
 ! A7    A(2,3,4)              120.0926         estimate D2E/DX2                !
 ! A8    A(2,3,9)              119.9493         estimate D2E/DX2                !
 ! A9    A(4,3,9)              119.9487         estimate D2E/DX2                !
 ! A10   A(3,4,5)              119.7079         estimate D2E/DX2                !
 ! A11   A(3,4,10)             120.1357         estimate D2E/DX2                !
 ! A12   A(5,4,10)             120.154          estimate D2E/DX2                !
 ! A13   A(4,5,6)              120.0241         estimate D2E/DX2                !
 ! A14   A(4,5,11)             119.9956         estimate D2E/DX2                !
 ! A15   A(6,5,11)             119.9782         estimate D2E/DX2                !
 ! A16   A(1,6,5)              111.0291         estimate D2E/DX2                !
 ! A17   A(1,6,14)             109.1557         estimate D2E/DX2                !
 ! A18   A(1,6,15)             109.1557         estimate D2E/DX2                !
 ! A19   A(5,6,14)             109.1557         estimate D2E/DX2                !
 ! A20   A(5,6,15)             109.1557         estimate D2E/DX2                !
 ! A21   A(14,6,15)            109.163          estimate D2E/DX2                !
 ! A22   A(5,11,12)            120.0            estimate D2E/DX2                !
 ! A23   A(5,11,13)            120.0            estimate D2E/DX2                !
 ! A24   A(12,11,13)           120.0            estimate D2E/DX2                !
 ! D1    D(6,1,2,3)             11.7162         estimate D2E/DX2                !
 ! D2    D(6,1,2,8)           -168.8309         estimate D2E/DX2                !
 ! D3    D(7,1,2,3)           -168.9018         estimate D2E/DX2                !
 ! D4    D(7,1,2,8)             10.5511         estimate D2E/DX2                !
 ! D5    D(2,1,6,5)            -26.4784         estimate D2E/DX2                !
 ! D6    D(2,1,6,14)            93.8995         estimate D2E/DX2                !
 ! D7    D(2,1,6,15)          -146.8564         estimate D2E/DX2                !
 ! D8    D(7,1,6,5)            154.1394         estimate D2E/DX2                !
 ! D9    D(7,1,6,14)           -85.4826         estimate D2E/DX2                !
 ! D10   D(7,1,6,15)            33.7615         estimate D2E/DX2                !
 ! D11   D(1,2,3,4)              5.9895         estimate D2E/DX2                !
 ! D12   D(1,2,3,9)           -175.1267         estimate D2E/DX2                !
 ! D13   D(8,2,3,4)           -173.4634         estimate D2E/DX2                !
 ! D14   D(8,2,3,9)              5.4204         estimate D2E/DX2                !
 ! D15   D(2,3,4,5)             -5.7344         estimate D2E/DX2                !
 ! D16   D(2,3,4,10)           173.7152         estimate D2E/DX2                !
 ! D17   D(9,3,4,5)            175.3818         estimate D2E/DX2                !
 ! D18   D(9,3,4,10)            -5.1686         estimate D2E/DX2                !
 ! D19   D(3,4,5,6)            -11.5018         estimate D2E/DX2                !
 ! D20   D(3,4,5,11)           169.0261         estimate D2E/DX2                !
 ! D21   D(10,4,5,6)           169.0487         estimate D2E/DX2                !
 ! D22   D(10,4,5,11)          -10.4234         estimate D2E/DX2                !
 ! D23   D(4,5,6,1)             26.1333         estimate D2E/DX2                !
 ! D24   D(4,5,6,14)           -94.2447         estimate D2E/DX2                !
 ! D25   D(4,5,6,15)           146.5112         estimate D2E/DX2                !
 ! D26   D(11,5,6,1)          -154.3945         estimate D2E/DX2                !
 ! D27   D(11,5,6,14)           85.2275         estimate D2E/DX2                !
 ! D28   D(11,5,6,15)          -34.0166         estimate D2E/DX2                !
 ! D29   D(4,5,11,12)           -0.2638         estimate D2E/DX2                !
 ! D30   D(4,5,11,13)          179.7362         estimate D2E/DX2                !
 ! D31   D(6,5,11,12)         -179.7362         estimate D2E/DX2                !
 ! D32   D(6,5,11,13)            0.2638         estimate D2E/DX2                !
 --------------------------------------------------------------------------------
 Trust Radius=3.00D-01 FncErr=1.00D-07 GrdErr=1.00D-07 EigMax=2.50D+02 EigMin=1.00D-04
 Number of steps in this run=     81 maximum allowed number of steps=    100.
 GradGradGradGradGradGradGradGradGradGradGradGradGradGradGradGradGradGrad

 Leave Link  103 at Tue Jun 10 01:13:43 2025, MaxMem=  2013265920 cpu:               0.2 elap:               0.0
 (Enter /home/user/softwares/g16/g16/l202.exe)
                          Input orientation:                          
 ---------------------------------------------------------------------
 Center     Atomic      Atomic             Coordinates (Angstroms)
 Number     Number       Type             X           Y           Z
 ---------------------------------------------------------------------
      1          6           0       -2.683341    1.324636    4.823882
      2          6           0       -1.549290    1.285156    5.575303
      3          6           0       -0.268577    2.021684    5.136160
      4          6           0       -0.287323    2.823506    4.049374
      5          6           0       -1.548731    2.895190    3.179090
      6          6           0       -2.681779    1.873843    3.380072
      7          1           0       -3.597741    0.956807    5.240383
      8          1           0       -1.549261    0.738242    6.494969
      9          1           0        0.632025    1.911697    5.703363
     10          1           0        0.570781    3.412738    3.801661
     11          6           0       -1.660605    3.851792    2.225695
     12          1           0       -0.871024    4.559635    2.082794
     13          1           0       -2.538517    3.899237    1.615843
     14          1           0       -2.548260    1.062145    2.695807
     15          1           0       -3.620720    2.347912    3.183736
 ---------------------------------------------------------------------
                    Distance matrix (angstroms):
                    1          2          3          4          5
     1  C    0.000000
     2  C    1.360979   0.000000
     3  C    2.532682   1.541280   0.000000
     4  C    2.930422   2.507497   1.350694   0.000000
     5  C    2.541519   2.886875   2.496383   1.534171   0.000000
     6  C    1.544738   2.539315   2.988184   2.661436   1.538616
     7  H    1.070000   2.101461   3.496878   3.982704   3.493523
     8  H    2.102981   1.070000   2.265775   3.452788   3.955689
     9  H    3.479910   2.273123   1.070000   2.100541   3.477773
    10  H    3.999302   3.488139   2.102484   1.070000   2.268872
    11  C    3.766043   4.221361   3.709157   2.503813   1.355200
    12  H    4.611212   4.835275   4.015866   2.687432   2.105120
    13  H    4.115952   4.846578   4.590258   3.485275   2.105120
    14  H    2.148453   3.056006   3.474621   3.169601   2.143053
    15  H    2.148453   3.337644   3.892974   3.476644   2.143053
                    6          7          8          9         10
     6  C    0.000000
     7  H    2.267311   0.000000
     8  H    3.503537   2.412059   0.000000
     9  H    4.047271   4.360858   2.600316   0.000000
    10  H    3.622855   5.047583   4.347576   2.423498   0.000000
    11  C    2.507522   4.606710   5.285196   4.595029   2.766862
    12  H    3.489304   5.512325   5.876252   4.730671   2.519659
    13  H    2.689842   4.787186   5.897151   5.541703   3.831738
    14  H    1.070000   2.754519   3.941642   4.458850   4.059140
    15  H    1.070000   2.483042   4.224482   4.962322   4.368566
                   11         12         13         14         15
    11  C    0.000000
    12  H    1.070000   0.000000
    13  H    1.070000   1.853294   0.000000
    14  H    2.964974   3.927002   3.035706   0.000000
    15  H    2.649821   3.696569   2.456840   1.743973   0.000000
 Stoichiometry    C7H8
 Framework group  C1[X(C7H8)]
 Deg. of freedom    39
 Full point group                 C1      NOp   1
 Largest Abelian subgroup         C1      NOp   1
 Largest concise Abelian subgroup C1      NOp   1
                         Standard orientation:                         
 ---------------------------------------------------------------------
 Center     Atomic      Atomic             Coordinates (Angstroms)
 Number     Number       Type             X           Y           Z
 ---------------------------------------------------------------------
      1          6           0       -1.192352   -1.203292   -0.141895
      2          6           0       -1.856785   -0.015880   -0.112792
      3          6           0       -1.107793    1.319700    0.062655
      4          6           0        0.242680    1.342880    0.070397
      5          6           0        1.025935    0.024145    0.036764
      6          6           0        0.295154   -1.311242    0.260460
      7          1           0       -1.716347   -2.086655   -0.441892
      8          1           0       -2.921099   -0.008541   -0.222708
      9          1           0       -1.658271    2.231998    0.160557
     10          1           0        0.763807    2.277173    0.090974
     11          6           0        2.363731    0.036043   -0.179402
     12          1           0        2.872966    0.964836   -0.330808
     13          1           0        2.910754   -0.883356   -0.198672
     14          1           0        0.360685   -1.578428    1.294490
     15          1           0        0.764083   -2.071153   -0.329066
 ---------------------------------------------------------------------
 Rotational constants (GHZ):           4.6926043           2.6456848           1.7377476
 Leave Link  202 at Tue Jun 10 01:13:43 2025, MaxMem=  2013265920 cpu:               0.0 elap:               0.0
 (Enter /home/user/softwares/g16/g16/l301.exe)
 Standard basis: 3-21G (6D, 7F)
 Ernie: Thresh=  0.10000D-02 Tol=  0.10000D-05 Strict=F.
 AO basis set in the form of general basis input (Overlap normalization):
      1 0
 S   3 1.00       0.000000000000
      0.1722560000D+03  0.6176690738D-01
      0.2591090000D+02  0.3587940429D+00
      0.5533350000D+01  0.7007130837D+00
 SP   2 1.00       0.000000000000
      0.3664980000D+01 -0.3958951621D+00  0.2364599466D+00
      0.7705450000D+00  0.1215834356D+01  0.8606188057D+00
 SP   1 1.00       0.000000000000
      0.1958570000D+00  0.1000000000D+01  0.1000000000D+01
 ****
      2 0
 S   3 1.00       0.000000000000
      0.1722560000D+03  0.6176690738D-01
      0.2591090000D+02  0.3587940429D+00
      0.5533350000D+01  0.7007130837D+00
 SP   2 1.00       0.000000000000
      0.3664980000D+01 -0.3958951621D+00  0.2364599466D+00
      0.7705450000D+00  0.1215834356D+01  0.8606188057D+00
 SP   1 1.00       0.000000000000
      0.1958570000D+00  0.1000000000D+01  0.1000000000D+01
 ****
      3 0
 S   3 1.00       0.000000000000
      0.1722560000D+03  0.6176690738D-01
      0.2591090000D+02  0.3587940429D+00
      0.5533350000D+01  0.7007130837D+00
 SP   2 1.00       0.000000000000
      0.3664980000D+01 -0.3958951621D+00  0.2364599466D+00
      0.7705450000D+00  0.1215834356D+01  0.8606188057D+00
 SP   1 1.00       0.000000000000
      0.1958570000D+00  0.1000000000D+01  0.1000000000D+01
 ****
      4 0
 S   3 1.00       0.000000000000
      0.1722560000D+03  0.6176690738D-01
      0.2591090000D+02  0.3587940429D+00
      0.5533350000D+01  0.7007130837D+00
 SP   2 1.00       0.000000000000
      0.3664980000D+01 -0.3958951621D+00  0.2364599466D+00
      0.7705450000D+00  0.1215834356D+01  0.8606188057D+00
 SP   1 1.00       0.000000000000
      0.1958570000D+00  0.1000000000D+01  0.1000000000D+01
 ****
      5 0
 S   3 1.00       0.000000000000
      0.1722560000D+03  0.6176690738D-01
      0.2591090000D+02  0.3587940429D+00
      0.5533350000D+01  0.7007130837D+00
 SP   2 1.00       0.000000000000
      0.3664980000D+01 -0.3958951621D+00  0.2364599466D+00
      0.7705450000D+00  0.1215834356D+01  0.8606188057D+00
 SP   1 1.00       0.000000000000
      0.1958570000D+00  0.1000000000D+01  0.1000000000D+01
 ****
      6 0
 S   3 1.00       0.000000000000
      0.1722560000D+03  0.6176690738D-01
      0.2591090000D+02  0.3587940429D+00
      0.5533350000D+01  0.7007130837D+00
 SP   2 1.00       0.000000000000
      0.3664980000D+01 -0.3958951621D+00  0.2364599466D+00
      0.7705450000D+00  0.1215834356D+01  0.8606188057D+00
 SP   1 1.00       0.000000000000
      0.1958570000D+00  0.1000000000D+01  0.1000000000D+01
 ****
      7 0
 S   2 1.00       0.000000000000
      0.5447178000D+01  0.1562849787D+00
      0.8245472400D+00  0.9046908767D+00
 S   1 1.00       0.000000000000
      0.1831915800D+00  0.1000000000D+01
 ****
      8 0
 S   2 1.00       0.000000000000
      0.5447178000D+01  0.1562849787D+00
      0.8245472400D+00  0.9046908767D+00
 S   1 1.00       0.000000000000
      0.1831915800D+00  0.1000000000D+01
 ****
      9 0
 S   2 1.00       0.000000000000
      0.5447178000D+01  0.1562849787D+00
      0.8245472400D+00  0.9046908767D+00
 S   1 1.00       0.000000000000
      0.1831915800D+00  0.1000000000D+01
 ****
     10 0
 S   2 1.00       0.000000000000
      0.5447178000D+01  0.1562849787D+00
      0.8245472400D+00  0.9046908767D+00
 S   1 1.00       0.000000000000
      0.1831915800D+00  0.1000000000D+01
 ****
     11 0
 S   3 1.00       0.000000000000
      0.1722560000D+03  0.6176690738D-01
      0.2591090000D+02  0.3587940429D+00
      0.5533350000D+01  0.7007130837D+00
 SP   2 1.00       0.000000000000
      0.3664980000D+01 -0.3958951621D+00  0.2364599466D+00
      0.7705450000D+00  0.1215834356D+01  0.8606188057D+00
 SP   1 1.00       0.000000000000
      0.1958570000D+00  0.1000000000D+01  0.1000000000D+01
 ****
     12 0
 S   2 1.00       0.000000000000
      0.5447178000D+01  0.1562849787D+00
      0.8245472400D+00  0.9046908767D+00
 S   1 1.00       0.000000000000
      0.1831915800D+00  0.1000000000D+01
 ****
     13 0
 S   2 1.00       0.000000000000
      0.5447178000D+01  0.1562849787D+00
      0.8245472400D+00  0.9046908767D+00
 S   1 1.00       0.000000000000
      0.1831915800D+00  0.1000000000D+01
 ****
     14 0
 S   2 1.00       0.000000000000
      0.5447178000D+01  0.1562849787D+00
      0.8245472400D+00  0.9046908767D+00
 S   1 1.00       0.000000000000
      0.1831915800D+00  0.1000000000D+01
 ****
     15 0
 S   2 1.00       0.000000000000
      0.5447178000D+01  0.1562849787D+00
      0.8245472400D+00  0.9046908767D+00
 S   1 1.00       0.000000000000
      0.1831915800D+00  0.1000000000D+01
 ****

 AO basis set (Overlap normalization):
 Atom C1       Shell     1 S   3     bf    1 -     1         -2.253217852566         -2.273891656875         -0.268142270441
      0.1722560000D+03  0.6176690738D-01
      0.2591090000D+02  0.3587940429D+00
      0.5533350000D+01  0.7007130837D+00
 Atom C1       Shell     2 SP   2    bf    2 -     5         -2.253217852566         -2.273891656875         -0.268142270441
      0.3664980000D+01 -0.3958951621D+00  0.2364599466D+00
      0.7705450000D+00  0.1215834356D+01  0.8606188057D+00
 Atom C1       Shell     3 SP   1    bf    6 -     9         -2.253217852566         -2.273891656875         -0.268142270441
      0.1958570000D+00  0.1000000000D+01  0.1000000000D+01
 Atom C2       Shell     4 S   3     bf   10 -    10         -3.508815350853         -0.030009458558         -0.213146846303
      0.1722560000D+03  0.6176690738D-01
      0.2591090000D+02  0.3587940429D+00
      0.5533350000D+01  0.7007130837D+00
 Atom C2       Shell     5 SP   2    bf   11 -    14         -3.508815350853         -0.030009458558         -0.213146846303
      0.3664980000D+01 -0.3958951621D+00  0.2364599466D+00
      0.7705450000D+00  0.1215834356D+01  0.8606188057D+00
 Atom C2       Shell     6 SP   1    bf   15 -    18         -3.508815350853         -0.030009458558         -0.213146846303
      0.1958570000D+00  0.1000000000D+01  0.1000000000D+01
 Atom C3       Shell     7 S   3     bf   19 -    19         -2.093425064103          2.493871159139          0.118400691113
      0.1722560000D+03  0.6176690738D-01
      0.2591090000D+02  0.3587940429D+00
      0.5533350000D+01  0.7007130837D+00
 Atom C3       Shell     8 SP   2    bf   20 -    23         -2.093425064103          2.493871159139          0.118400691113
      0.3664980000D+01 -0.3958951621D+00  0.2364599466D+00
      0.7705450000D+00  0.1215834356D+01  0.8606188057D+00
 Atom C3       Shell     9 SP   1    bf   24 -    27         -2.093425064103          2.493871159139          0.118400691113
      0.1958570000D+00  0.1000000000D+01  0.1000000000D+01
 Atom C4       Shell    10 S   3     bf   28 -    28          0.458597900851          2.537675129277          0.133031747523
      0.1722560000D+03  0.6176690738D-01
      0.2591090000D+02  0.3587940429D+00
      0.5533350000D+01  0.7007130837D+00
 Atom C4       Shell    11 SP   2    bf   29 -    32          0.458597900851          2.537675129277          0.133031747523
      0.3664980000D+01 -0.3958951621D+00  0.2364599466D+00
      0.7705450000D+00  0.1215834356D+01  0.8606188057D+00
 Atom C4       Shell    12 SP   1    bf   33 -    36          0.458597900851          2.537675129277          0.133031747523
      0.1958570000D+00  0.1000000000D+01  0.1000000000D+01
 Atom C5       Shell    13 S   3     bf   37 -    37          1.938736371630          0.045628269482          0.069474656413
      0.1722560000D+03  0.6176690738D-01
      0.2591090000D+02  0.3587940429D+00
      0.5533350000D+01  0.7007130837D+00
 Atom C5       Shell    14 SP   2    bf   38 -    41          1.938736371630          0.045628269482          0.069474656413
      0.3664980000D+01 -0.3958951621D+00  0.2364599466D+00
      0.7705450000D+00  0.1215834356D+01  0.8606188057D+00
 Atom C5       Shell    15 SP   1    bf   42 -    45          1.938736371630          0.045628269482          0.069474656413
      0.1958570000D+00  0.1000000000D+01  0.1000000000D+01
 Atom C6       Shell    16 S   3     bf   46 -    46          0.557761074287         -2.477888077326          0.492198650645
      0.1722560000D+03  0.6176690738D-01
      0.2591090000D+02  0.3587940429D+00
      0.5533350000D+01  0.7007130837D+00
 Atom C6       Shell    17 SP   2    bf   47 -    50          0.557761074287         -2.477888077326          0.492198650645
      0.3664980000D+01 -0.3958951621D+00  0.2364599466D+00
      0.7705450000D+00  0.1215834356D+01  0.8606188057D+00
 Atom C6       Shell    18 SP   1    bf   51 -    54          0.557761074287         -2.477888077326          0.492198650645
      0.1958570000D+00  0.1000000000D+01  0.1000000000D+01
 Atom H7       Shell    19 S   2     bf   55 -    55         -3.243425123904         -3.943206634736         -0.835054309929
      0.5447178000D+01  0.1562849787D+00
      0.8245472400D+00  0.9046908767D+00
 Atom H7       Shell    20 S   1     bf   56 -    56         -3.243425123904         -3.943206634736         -0.835054309929
      0.1831915800D+00  0.1000000000D+01
 Atom H8       Shell    21 S   2     bf   57 -    57         -5.520077652536         -0.016139684846         -0.420857545409
      0.5447178000D+01  0.1562849787D+00
      0.8245472400D+00  0.9046908767D+00
 Atom H8       Shell    22 S   1     bf   58 -    58         -5.520077652536         -0.016139684846         -0.420857545409
      0.1831915800D+00  0.1000000000D+01
 Atom H9       Shell    23 S   2     bf   59 -    59         -3.133678188277          4.217865862978          0.303408253481
      0.5447178000D+01  0.1562849787D+00
      0.8245472400D+00  0.9046908767D+00
 Atom H9       Shell    24 S   1     bf   60 -    60         -3.133678188277          4.217865862978          0.303408253481
      0.1831915800D+00  0.1000000000D+01
 Atom H10      Shell    25 S   2     bf   61 -    61          1.443385232080          4.303232861778          0.171915247706
      0.5447178000D+01  0.1562849787D+00
      0.8245472400D+00  0.9046908767D+00
 Atom H10      Shell    26 S   1     bf   62 -    62          1.443385232080          4.303232861778          0.171915247706
      0.1831915800D+00  0.1000000000D+01
 Atom C11      Shell    27 S   3     bf   63 -    63          4.466803943038          0.068111630961         -0.339021134466
      0.1722560000D+03  0.6176690738D-01
      0.2591090000D+02  0.3587940429D+00
      0.5533350000D+01  0.7007130837D+00
 Atom C11      Shell    28 SP   2    bf   64 -    67          4.466803943038          0.068111630961         -0.339021134466
      0.3664980000D+01 -0.3958951621D+00  0.2364599466D+00
      0.7705450000D+00  0.1215834356D+01  0.8606188057D+00
 Atom C11      Shell    29 SP   1    bf   68 -    71          4.466803943038          0.068111630961         -0.339021134466
      0.1958570000D+00  0.1000000000D+01  0.1000000000D+01
 Atom H12      Shell    30 S   2     bf   72 -    72          5.429119088515          1.823275470205         -0.625135689318
      0.5447178000D+01  0.1562849787D+00
      0.8245472400D+00  0.9046908767D+00
 Atom H12      Shell    31 S   1     bf   73 -    73          5.429119088515          1.823275470205         -0.625135689318
      0.1831915800D+00  0.1000000000D+01
 Atom H13      Shell    32 S   2     bf   74 -    74          5.500527976253         -1.669300468458         -0.375435031341
      0.5447178000D+01  0.1562849787D+00
      0.8245472400D+00  0.9046908767D+00
 Atom H13      Shell    33 S   1     bf   75 -    75          5.500527976253         -1.669300468458         -0.375435031341
      0.1831915800D+00  0.1000000000D+01
 Atom H14      Shell    34 S   2     bf   76 -    76          0.681595770205         -2.982797535279          2.446231298941
      0.5447178000D+01  0.1562849787D+00
      0.8245472400D+00  0.9046908767D+00
 Atom H14      Shell    35 S   1     bf   77 -    77          0.681595770205         -2.982797535279          2.446231298941
      0.1831915800D+00  0.1000000000D+01
 Atom H15      Shell    36 S   2     bf   78 -    78          1.443906763965         -3.913911848245         -0.621845191044
      0.5447178000D+01  0.1562849787D+00
      0.8245472400D+00  0.9046908767D+00
 Atom H15      Shell    37 S   1     bf   79 -    79          1.443906763965         -3.913911848245         -0.621845191044
      0.1831915800D+00  0.1000000000D+01
 There are    79 symmetry adapted cartesian basis functions of A   symmetry.
 There are    79 symmetry adapted basis functions of A   symmetry.
    79 basis functions,   129 primitive gaussians,    79 cartesian basis functions
    25 alpha electrons       25 beta electrons
       nuclear repulsion energy       264.4901089360 Hartrees.
 IExCor=    0 DFT=F Ex=HF Corr=None ExCW=0 ScaHFX=  1.000000
 ScaDFX=  1.000000  1.000000  1.000000  1.000000 ScalE2=  1.000000  1.000000
 IRadAn=      5 IRanWt=     -1 IRanGd=            0 ICorTp=0 IEmpDi=  4
 NAtoms=   15 NActive=   15 NUniq=   15 SFac= 1.00D+00 NAtFMM=   60 NAOKFM=F Big=F
 Integral buffers will be    131072 words long.
 Raffenetti 1 integral format.
 Two-electron integral symmetry is turned on.
 Leave Link  301 at Tue Jun 10 01:13:43 2025, MaxMem=  2013265920 cpu:               1.9 elap:               0.1
 (Enter /home/user/softwares/g16/g16/l302.exe)
 NPDir=0 NMtPBC=     1 NCelOv=     1 NCel=       1 NClECP=     1 NCelD=      1
         NCelK=      1 NCelE2=     1 NClLst=     1 CellRange=     0.0.
 One-electron integrals computed using PRISM.
 One-electron integral symmetry used in STVInt
 NBasis=    79 RedAO= T EigKep=  3.88D-03  NBF=    79
 NBsUse=    79 1.00D-06 EigRej= -1.00D+00 NBFU=    79
 Leave Link  302 at Tue Jun 10 01:13:43 2025, MaxMem=  2013265920 cpu:               5.0 elap:               0.3
 (Enter /home/user/softwares/g16/g16/l303.exe)
 DipDrv:  MaxL=1.
 Leave Link  303 at Tue Jun 10 01:13:43 2025, MaxMem=  2013265920 cpu:               1.3 elap:               0.1
 (Enter /home/user/softwares/g16/g16/l401.exe)
 ExpMin= 1.83D-01 ExpMax= 1.72D+02 ExpMxC= 1.72D+02 IAcc=3 IRadAn=         5 AccDes= 0.00D+00
 Harris functional with IExCor=  205 and IRadAn=       5 diagonalized for initial guess.
 HarFok:  IExCor=  205 AccDes= 0.00D+00 IRadAn=         5 IDoV= 1 UseB2=F ITyADJ=14
 ICtDFT=  3500011 ScaDFX=  1.000000  1.000000  1.000000  1.000000
 FoFCou: FMM=F IPFlag=           0 FMFlag=      100000 FMFlg1=           0
         NFxFlg=           0 DoJE=T BraDBF=F KetDBF=T FulRan=T
         wScrn=  0.000000 ICntrl=       500 IOpCl=  0 I1Cent=   200000004 NGrid=           0
         NMat0=    1 NMatS0=      1 NMatT0=    0 NMatD0=    1 NMtDS0=    0 NMtDT0=    0
 Petite list used in FoFCou.
 Harris En= -268.612932386209    
 JPrj=0 DoOrth=F DoCkMO=F.
 Leave Link  401 at Tue Jun 10 01:13:43 2025, MaxMem=  2013265920 cpu:               8.7 elap:               0.4
 (Enter /home/user/softwares/g16/g16/l502.exe)
 Integral symmetry usage will be decided dynamically.
 Closed shell SCF:
 Using DIIS extrapolation, IDIIS=  1040.
 NGot=  2013265920 LenX=  2013250637 LenY=  2013243955
 Requested convergence on RMS density matrix=1.00D-08 within 128 cycles.
 Requested convergence on MAX density matrix=1.00D-06.
 Requested convergence on             energy=1.00D-06.
 No special actions if energy rises.
 Fock matrices will be formed incrementally for  20 cycles.
 Integral accuracy reduced to 1.0D-05 until final iterations.

 Cycle   1  Pass 0  IDiag  1:
 FoFJK:  IHMeth= 1 ICntrl=       0 DoSepK=F KAlg= 0 I1Cent=           0 FoldK=F
 IRaf= 950000000 NMat=       1 IRICut=       1 DoRegI=T DoRafI=F ISym2E= 0 IDoP0=0 IntGTp=1.
 FoFCou: FMM=F IPFlag=           0 FMFlag=      100000 FMFlg1=           0
         NFxFlg=           0 DoJE=F BraDBF=F KetDBF=F FulRan=T
         wScrn=  0.000000 ICntrl=         0 IOpCl=  0 I1Cent=           0 NGrid=           0
         NMat0=    1 NMatS0=      1 NMatT0=    0 NMatD0=    1 NMtDS0=    0 NMtDT0=    0
 Symmetry not used in FoFCou.
 E= -267.930402860473    
 DIIS: error= 5.19D-02 at cycle   1 NSaved=   1.
 NSaved= 1 IEnMin= 1 EnMin= -267.930402860473     IErMin= 1 ErrMin= 5.19D-02
 ErrMax= 5.19D-02  0.00D+00 EMaxC= 1.00D-01 BMatC= 2.87D-01 BMatP= 2.87D-01
 IDIUse=3 WtCom= 4.81D-01 WtEn= 5.19D-01
 Coeff-Com:  0.100D+01
 Coeff-En:   0.100D+01
 Coeff:      0.100D+01
 Gap=     0.385 Goal=   None    Shift=    0.000
 GapD=    0.385 DampG=1.000 DampE=0.500 DampFc=0.5000 IDamp=-1.
 Damping current iteration by 5.00D-01
 RMSDP=7.51D-03 MaxDP=8.13D-02              OVMax= 1.14D-01

 Cycle   2  Pass 0  IDiag  1:
 RMSU=  3.63D-03    CP:  9.79D-01
 E= -268.056238963161     Delta-E=       -0.125836102688 Rises=F Damp=T
 DIIS: error= 2.07D-02 at cycle   2 NSaved=   2.
 NSaved= 2 IEnMin= 2 EnMin= -268.056238963161     IErMin= 2 ErrMin= 2.07D-02
 ErrMax= 2.07D-02  0.00D+00 EMaxC= 1.00D-01 BMatC= 5.75D-02 BMatP= 2.87D-01
 IDIUse=3 WtCom= 7.93D-01 WtEn= 2.07D-01
 Coeff-Com: -0.681D+00 0.168D+01
 Coeff-En:   0.000D+00 0.100D+01
 Coeff:     -0.540D+00 0.154D+01
 Gap=     0.387 Goal=   None    Shift=    0.000
 RMSDP=3.29D-03 MaxDP=3.48D-02 DE=-1.26D-01 OVMax= 2.22D-02

 Cycle   3  Pass 0  IDiag  1:
 RMSU=  1.99D-03    CP:  9.65D-01  1.70D+00
 E= -268.166735144598     Delta-E=       -0.110496181437 Rises=F Damp=F
 DIIS: error= 1.45D-03 at cycle   3 NSaved=   3.
 NSaved= 3 IEnMin= 3 EnMin= -268.166735144598     IErMin= 3 ErrMin= 1.45D-03
 ErrMax= 1.45D-03  0.00D+00 EMaxC= 1.00D-01 BMatC= 1.90D-04 BMatP= 5.75D-02
 IDIUse=3 WtCom= 9.85D-01 WtEn= 1.45D-02
 Coeff-Com:  0.306D-01-0.103D+00 0.107D+01
 Coeff-En:   0.000D+00 0.000D+00 0.100D+01
 Coeff:      0.301D-01-0.101D+00 0.107D+01
 Gap=     0.388 Goal=   None    Shift=    0.000
 RMSDP=3.74D-04 MaxDP=3.13D-03 DE=-1.10D-01 OVMax= 8.99D-03

 Cycle   4  Pass 0  IDiag  1:
 RMSU=  2.33D-04    CP:  9.65D-01  1.74D+00  1.12D+00
 E= -268.167089350889     Delta-E=       -0.000354206291 Rises=F Damp=F
 DIIS: error= 4.45D-04 at cycle   4 NSaved=   4.
 NSaved= 4 IEnMin= 4 EnMin= -268.167089350889     IErMin= 4 ErrMin= 4.45D-04
 ErrMax= 4.45D-04  0.00D+00 EMaxC= 1.00D-01 BMatC= 1.52D-05 BMatP= 1.90D-04
 IDIUse=3 WtCom= 9.96D-01 WtEn= 4.45D-03
 Coeff-Com:  0.702D-02-0.146D-01-0.255D-01 0.103D+01
 Coeff-En:   0.000D+00 0.000D+00 0.000D+00 0.100D+01
 Coeff:      0.699D-02-0.145D-01-0.254D-01 0.103D+01
 Gap=     0.389 Goal=   None    Shift=    0.000
 RMSDP=1.11D-04 MaxDP=1.18D-03 DE=-3.54D-04 OVMax= 3.30D-03

 Cycle   5  Pass 0  IDiag  1:
 RMSU=  8.15D-05    CP:  9.65D-01  1.75D+00  1.15D+00  1.20D+00
 E= -268.167129366285     Delta-E=       -0.000040015396 Rises=F Damp=F
 DIIS: error= 3.37D-04 at cycle   5 NSaved=   5.
 NSaved= 5 IEnMin= 5 EnMin= -268.167129366285     IErMin= 5 ErrMin= 3.37D-04
 ErrMax= 3.37D-04  0.00D+00 EMaxC= 1.00D-01 BMatC= 3.64D-06 BMatP= 1.52D-05
 IDIUse=3 WtCom= 9.97D-01 WtEn= 3.37D-03
 Coeff-Com: -0.168D-02 0.889D-02-0.153D+00 0.253D+00 0.892D+00
 Coeff-En:   0.000D+00 0.000D+00 0.000D+00 0.000D+00 0.100D+01
 Coeff:     -0.167D-02 0.886D-02-0.152D+00 0.252D+00 0.893D+00
 Gap=     0.390 Goal=   None    Shift=    0.000
 RMSDP=5.22D-05 MaxDP=5.73D-04 DE=-4.00D-05 OVMax= 1.97D-03

 Cycle   6  Pass 0  IDiag  1:
 RMSU=  2.69D-05    CP:  9.65D-01  1.75D+00  1.16D+00  1.38D+00  1.04D+00
 E= -268.167138210454     Delta-E=       -0.000008844169 Rises=F Damp=F
 DIIS: error= 9.60D-05 at cycle   6 NSaved=   6.
 NSaved= 6 IEnMin= 6 EnMin= -268.167138210454     IErMin= 6 ErrMin= 9.60D-05
 ErrMax= 9.60D-05  0.00D+00 EMaxC= 1.00D-01 BMatC= 2.71D-07 BMatP= 3.64D-06
 IDIUse=1 WtCom= 1.00D+00 WtEn= 0.00D+00
 Coeff-Com: -0.407D-03 0.959D-03-0.159D-02-0.726D-01 0.245D-01 0.105D+01
 Coeff:     -0.407D-03 0.959D-03-0.159D-02-0.726D-01 0.245D-01 0.105D+01
 Gap=     0.390 Goal=   None    Shift=    0.000
 RMSDP=1.77D-05 MaxDP=1.94D-04 DE=-8.84D-06 OVMax= 6.86D-04

 Cycle   7  Pass 0  IDiag  1:
 RMSU=  8.92D-06    CP:  9.65D-01  1.75D+00  1.16D+00  1.41D+00  1.17D+00
                    CP:  1.28D+00
 E= -268.167139254594     Delta-E=       -0.000001044140 Rises=F Damp=F
 DIIS: error= 4.28D-05 at cycle   7 NSaved=   7.
 NSaved= 7 IEnMin= 7 EnMin= -268.167139254594     IErMin= 7 ErrMin= 4.28D-05
 ErrMax= 4.28D-05  0.00D+00 EMaxC= 1.00D-01 BMatC= 6.13D-08 BMatP= 2.71D-07
 IDIUse=1 WtCom= 1.00D+00 WtEn= 0.00D+00
 Coeff-Com:  0.382D-03-0.183D-02 0.300D-01-0.573D-01-0.173D+00 0.132D+00
 Coeff-Com:  0.107D+01
 Coeff:      0.382D-03-0.183D-02 0.300D-01-0.573D-01-0.173D+00 0.132D+00
 Coeff:      0.107D+01
 Gap=     0.390 Goal=   None    Shift=    0.000
 RMSDP=9.74D-06 MaxDP=1.03D-04 DE=-1.04D-06 OVMax= 3.77D-04

 Initial convergence to 1.0D-05 achieved.  Increase integral accuracy.
 Cycle   8  Pass 1  IDiag  1:
 E= -268.167138421978     Delta-E=        0.000000832616 Rises=F Damp=F
 DIIS: error= 1.54D-05 at cycle   1 NSaved=   1.
 NSaved= 1 IEnMin= 1 EnMin= -268.167138421978     IErMin= 1 ErrMin= 1.54D-05
 ErrMax= 1.54D-05  0.00D+00 EMaxC= 1.00D-01 BMatC= 7.23D-09 BMatP= 7.23D-09
 IDIUse=1 WtCom= 1.00D+00 WtEn= 0.00D+00
 Coeff-Com:  0.100D+01
 Coeff:      0.100D+01
 Gap=     0.390 Goal=   None    Shift=    0.000
 RMSDP=9.74D-06 MaxDP=1.03D-04 DE= 8.33D-07 OVMax= 8.42D-05

 Cycle   9  Pass 1  IDiag  1:
 RMSU=  2.44D-06    CP:  1.00D+00
 E= -268.167138446784     Delta-E=       -0.000000024807 Rises=F Damp=F
 DIIS: error= 1.02D-05 at cycle   2 NSaved=   2.
 NSaved= 2 IEnMin= 2 EnMin= -268.167138446784     IErMin= 2 ErrMin= 1.02D-05
 ErrMax= 1.02D-05  0.00D+00 EMaxC= 1.00D-01 BMatC= 2.33D-09 BMatP= 7.23D-09
 IDIUse=1 WtCom= 1.00D+00 WtEn= 0.00D+00
 Coeff-Com: -0.531D+00 0.153D+01
 Coeff:     -0.531D+00 0.153D+01
 Gap=     0.390 Goal=   None    Shift=    0.000
 RMSDP=2.12D-06 MaxDP=2.80D-05 DE=-2.48D-08 OVMax= 8.51D-05

 Cycle  10  Pass 1  IDiag  1:
 RMSU=  9.57D-07    CP:  1.00D+00  1.77D+00
 E= -268.167138458781     Delta-E=       -0.000000011996 Rises=F Damp=F
 DIIS: error= 4.15D-06 at cycle   3 NSaved=   3.
 NSaved= 3 IEnMin= 3 EnMin= -268.167138458781     IErMin= 3 ErrMin= 4.15D-06
 ErrMax= 4.15D-06  0.00D+00 EMaxC= 1.00D-01 BMatC= 6.34D-10 BMatP= 2.33D-09
 IDIUse=1 WtCom= 1.00D+00 WtEn= 0.00D+00
 Coeff-Com: -0.414D+00 0.368D+00 0.105D+01
 Coeff:     -0.414D+00 0.368D+00 0.105D+01
 Gap=     0.390 Goal=   None    Shift=    0.000
 RMSDP=1.22D-06 MaxDP=1.40D-05 DE=-1.20D-08 OVMax= 4.68D-05

 Cycle  11  Pass 1  IDiag  1:
 RMSU=  4.07D-07    CP:  1.00D+00  2.22D+00  1.35D+00
 E= -268.167138461424     Delta-E=       -0.000000002643 Rises=F Damp=F
 DIIS: error= 1.06D-06 at cycle   4 NSaved=   4.
 NSaved= 4 IEnMin= 4 EnMin= -268.167138461424     IErMin= 4 ErrMin= 1.06D-06
 ErrMax= 1.06D-06  0.00D+00 EMaxC= 1.00D-01 BMatC= 3.39D-11 BMatP= 6.34D-10
 IDIUse=1 WtCom= 1.00D+00 WtEn= 0.00D+00
 Coeff-Com:  0.209D-01-0.143D+00 0.736D-01 0.105D+01
 Coeff:      0.209D-01-0.143D+00 0.736D-01 0.105D+01
 Gap=     0.390 Goal=   None    Shift=    0.000
 RMSDP=2.99D-07 MaxDP=4.17D-06 DE=-2.64D-09 OVMax= 1.22D-05

 Cycle  12  Pass 1  IDiag  1:
 RMSU=  8.92D-08    CP:  1.00D+00  2.32D+00  1.51D+00  1.20D+00
 E= -268.167138461575     Delta-E=       -0.000000000151 Rises=F Damp=F
 DIIS: error= 2.53D-07 at cycle   5 NSaved=   5.
 NSaved= 5 IEnMin= 5 EnMin= -268.167138461575     IErMin= 5 ErrMin= 2.53D-07
 ErrMax= 2.53D-07  0.00D+00 EMaxC= 1.00D-01 BMatC= 4.11D-12 BMatP= 3.39D-11
 IDIUse=1 WtCom= 1.00D+00 WtEn= 0.00D+00
 Coeff-Com:  0.299D-01-0.363D-01-0.740D-01 0.172D+00 0.908D+00
 Coeff:      0.299D-01-0.363D-01-0.740D-01 0.172D+00 0.908D+00
 Gap=     0.390 Goal=   None    Shift=    0.000
 RMSDP=5.62D-08 MaxDP=1.02D-06 DE=-1.51D-10 OVMax= 1.38D-06

 Cycle  13  Pass 1  IDiag  1:
 RMSU=  3.47D-08    CP:  1.00D+00  2.32D+00  1.52D+00  1.29D+00  1.19D+00
 E= -268.167138461588     Delta-E=       -0.000000000013 Rises=F Damp=F
 DIIS: error= 1.08D-07 at cycle   6 NSaved=   6.
 NSaved= 6 IEnMin= 6 EnMin= -268.167138461588     IErMin= 6 ErrMin= 1.08D-07
 ErrMax= 1.08D-07  0.00D+00 EMaxC= 1.00D-01 BMatC= 5.88D-13 BMatP= 4.11D-12
 IDIUse=1 WtCom= 1.00D+00 WtEn= 0.00D+00
 Coeff-Com: -0.430D-02 0.284D-01-0.255D-01-0.177D+00-0.621D-01 0.124D+01
 Coeff:     -0.430D-02 0.284D-01-0.255D-01-0.177D+00-0.621D-01 0.124D+01
 Gap=     0.390 Goal=   None    Shift=    0.000
 RMSDP=3.55D-08 MaxDP=4.24D-07 DE=-1.33D-11 OVMax= 8.51D-07

 Cycle  14  Pass 1  IDiag  1:
 RMSU=  1.01D-08    CP:  1.00D+00  2.32D+00  1.52D+00  1.34D+00  1.45D+00
                    CP:  1.32D+00
 E= -268.167138461589     Delta-E=       -0.000000000001 Rises=F Damp=F
 DIIS: error= 3.61D-08 at cycle   7 NSaved=   7.
 NSaved= 7 IEnMin= 7 EnMin= -268.167138461589     IErMin= 7 ErrMin= 3.61D-08
 ErrMax= 3.61D-08  0.00D+00 EMaxC= 1.00D-01 BMatC= 4.20D-14 BMatP= 5.88D-13
 IDIUse=1 WtCom= 1.00D+00 WtEn= 0.00D+00
 Coeff-Com: -0.178D-02 0.485D-02-0.335D-03-0.126D-01-0.598D-01 0.956D-01
 Coeff-Com:  0.974D+00
 Coeff:     -0.178D-02 0.485D-02-0.335D-03-0.126D-01-0.598D-01 0.956D-01
 Coeff:      0.974D+00
 Gap=     0.390 Goal=   None    Shift=    0.000
 RMSDP=5.74D-09 MaxDP=7.14D-08 DE=-9.09D-13 OVMax= 1.77D-07

 SCF Done:  E(RHF) =  -268.167138462     A.U. after   14 cycles
            NFock= 14  Conv=0.57D-08     -V/T= 2.0038
 KE= 2.671493788585D+02 PE=-1.151976790570D+03 EE= 3.521701643142D+02
 Leave Link  502 at Tue Jun 10 01:13:45 2025, MaxMem=  2013265920 cpu:              23.1 elap:               1.2
 (Enter /home/user/softwares/g16/g16/l601.exe)
 Copying SCF densities to generalized density rwf, IOpCl= 0 IROHF=0.

 **********************************************************************

            Population analysis using the SCF Density.

 **********************************************************************

 Orbital symmetries:
       Occupied  (A) (A) (A) (A) (A) (A) (A) (A) (A) (A) (A) (A)
                 (A) (A) (A) (A) (A) (A) (A) (A) (A) (A) (A) (A)
                 (A)
       Virtual   (A) (A) (A) (A) (A) (A) (A) (A) (A) (A) (A) (A)
                 (A) (A) (A) (A) (A) (A) (A) (A) (A) (A) (A) (A)
                 (A) (A) (A) (A) (A) (A) (A) (A) (A) (A) (A) (A)
                 (A) (A) (A) (A) (A) (A) (A) (A) (A) (A) (A) (A)
                 (A) (A) (A) (A) (A) (A)
 The electronic state is 1-A.
 Alpha  occ. eigenvalues --  -11.19812 -11.18573 -11.18423 -11.18352 -11.18279
 Alpha  occ. eigenvalues --  -11.17855 -11.16010  -1.12282  -1.03435  -1.01555
 Alpha  occ. eigenvalues --   -0.91983  -0.81469  -0.76700  -0.68411  -0.66097
 Alpha  occ. eigenvalues --   -0.62789  -0.60015  -0.58535  -0.55681  -0.53487
 Alpha  occ. eigenvalues --   -0.48824  -0.46157  -0.43724  -0.37149  -0.28758
 Alpha virt. eigenvalues --    0.10235   0.20141   0.27116   0.27475   0.30546
 Alpha virt. eigenvalues --    0.30875   0.33384   0.35131   0.36014   0.36849
 Alpha virt. eigenvalues --    0.39641   0.40993   0.45151   0.50902   0.52901
 Alpha virt. eigenvalues --    0.57239   0.66497   0.72398   0.85042   0.92833
 Alpha virt. eigenvalues --    0.95164   0.95789   0.98583   1.00510   1.03538
 Alpha virt. eigenvalues --    1.05454   1.08171   1.09325   1.09774   1.11196
 Alpha virt. eigenvalues --    1.13861   1.15131   1.18143   1.27166   1.31695
 Alpha virt. eigenvalues --    1.31804   1.35108   1.36679   1.37965   1.41290
 Alpha virt. eigenvalues --    1.43312   1.44766   1.50042   1.58040   1.63215
 Alpha virt. eigenvalues --    1.68830   1.70956   1.77133   1.82035   1.83707
 Alpha virt. eigenvalues --    2.01908   2.15475   2.30021   2.56496
     Molecular Orbital Coefficients:
                           1         2         3         4         5
                           O         O         O         O         O
     Eigenvalues --   -11.19812 -11.18573 -11.18423 -11.18352 -11.18279
   1 1   C  1S         -0.00699  -0.02471  -0.05452   0.96880   0.17892
   2        2S         -0.00120  -0.00213  -0.00567   0.09738   0.01361
   3        2PX        -0.00073   0.00032  -0.00023   0.00050   0.00047
   4        2PY        -0.00031  -0.00089   0.00002   0.00099  -0.00173
   5        2PZ         0.00012  -0.00005  -0.00006   0.00032  -0.00017
   6        3S         -0.00149  -0.00872   0.00867  -0.08377   0.01651
   7        3PX         0.00054  -0.00373   0.00200  -0.00404  -0.00263
   8        3PY        -0.00120  -0.00458   0.00195  -0.01749   0.01589
   9        3PZ        -0.00023  -0.00103   0.00110  -0.00364   0.00138
  10 2   C  1S         -0.00305  -0.06717  -0.05585  -0.18427   0.96577
  11        2S         -0.00071  -0.00943  -0.00531  -0.02261   0.09534
  12        2PX        -0.00030  -0.00061  -0.00052  -0.00171   0.00069
  13        2PY         0.00005   0.00017  -0.00089   0.00139   0.00009
  14        2PZ         0.00007  -0.00002  -0.00003  -0.00007   0.00007
  15        3S          0.00345   0.02874  -0.00320   0.04510  -0.07253
  16        3PX         0.00213   0.01641  -0.00452   0.01855  -0.01341
  17        3PY         0.00041   0.00783   0.00171  -0.01202   0.00222
  18        3PZ         0.00013   0.00198  -0.00058   0.00140  -0.00108
  19 3   C  1S         -0.00498   0.98220   0.06488   0.01507   0.07389
  20        2S         -0.00064   0.09882   0.00203   0.00202   0.00442
  21        2PX        -0.00068   0.00082  -0.00188   0.00038  -0.00032
  22        2PY         0.00015  -0.00105   0.00053   0.00072   0.00060
  23        2PZ         0.00009  -0.00010   0.00002   0.00019   0.00005
  24        3S         -0.00299  -0.08746   0.02813  -0.01045   0.01746
  25        3PX        -0.00012  -0.01495   0.01864  -0.00319   0.00105
  26        3PY         0.00352   0.01655  -0.00796   0.00614  -0.01493
  27        3PZ        -0.00001   0.00168  -0.00032   0.00001  -0.00145
  28 4   C  1S         -0.01302  -0.07094   0.98187   0.04197   0.05983
  29        2S         -0.00360  -0.01181   0.09806   0.00383   0.00547
  30        2PX         0.00006   0.00200  -0.00057  -0.00029   0.00102
  31        2PY         0.00046   0.00073  -0.00097   0.00027   0.00024
  32        2PZ        -0.00004   0.00002  -0.00003   0.00004   0.00012
  33        3S          0.01905   0.04241  -0.08244   0.00211  -0.00959
  34        3PX         0.00413  -0.01927   0.01134  -0.00201   0.00129
  35        3PY        -0.01190  -0.01164   0.01514  -0.00177   0.00490
  36        3PZ        -0.00019  -0.00074   0.00039   0.00020  -0.00005
  37 5   C  1S          0.98728   0.00387   0.01205   0.00690   0.00516
  38        2S          0.09924   0.00096  -0.00098   0.00041  -0.00017
  39        2PX         0.00008   0.00075   0.00066   0.00102   0.00063
  40        2PY        -0.00007  -0.00040  -0.00026   0.00036   0.00007
  41        2PZ         0.00003  -0.00010  -0.00011   0.00036   0.00002
  42        3S         -0.08262  -0.01169   0.01716  -0.00658   0.00327
  43        3PX        -0.00231   0.00307  -0.01600  -0.00242  -0.00545
  44        3PY        -0.00081  -0.00326   0.01135   0.00136   0.00085
  45        3PZ         0.00060   0.00044   0.00117  -0.00110   0.00049
  46 6   C  1S         -0.00452  -0.00598  -0.00845  -0.01635  -0.02219
  47        2S         -0.00201  -0.00134  -0.00060  -0.00361  -0.00242
  48        2PX         0.00023  -0.00009  -0.00011  -0.00033   0.00096
  49        2PY        -0.00024  -0.00007  -0.00078  -0.00031  -0.00048
  50        2PZ         0.00035   0.00004  -0.00011   0.00021  -0.00002
  51        3S          0.01455   0.00577  -0.00443   0.01985  -0.00154
  52        3PX         0.00422  -0.00205   0.00384  -0.00997  -0.00095
  53        3PY         0.00972   0.00190  -0.00194   0.00540  -0.00223
  54        3PZ        -0.00325  -0.00137   0.00116  -0.00395   0.00091
  55 7   H  1S         -0.00010  -0.00021   0.00010  -0.00193  -0.00075
  56        2S          0.00034  -0.00086  -0.00006   0.00809   0.00533
  57 8   H  1S         -0.00001   0.00023  -0.00029   0.00015  -0.00231
  58        2S          0.00072   0.00360  -0.00106   0.00257   0.00883
  59 9   H  1S         -0.00030  -0.00237  -0.00030  -0.00042  -0.00026
  60        2S         -0.00018   0.00664   0.00493  -0.00090   0.00477
  61 10  H  1S         -0.00046  -0.00005  -0.00234  -0.00003  -0.00053
  62        2S          0.00149   0.00368   0.00745   0.00101   0.00024
  63 11  C  1S         -0.00180  -0.00198  -0.00432  -0.00142  -0.00157
  64        2S         -0.00400  -0.00082  -0.00130  -0.00063  -0.00053
  65        2PX         0.00172   0.00011   0.00033  -0.00001   0.00005
  66        2PY        -0.00002  -0.00030  -0.00021   0.00002   0.00001
  67        2PZ        -0.00027  -0.00008   0.00008  -0.00019  -0.00003
  68        3S          0.02584   0.00214   0.00750   0.00380   0.00346
  69        3PX        -0.01317  -0.00228  -0.00375  -0.00248  -0.00175
  70        3PY         0.00030   0.00307  -0.00246  -0.00080  -0.00038
  71        3PZ         0.00205   0.00022   0.00062   0.00137   0.00044
  72 12  H  1S         -0.00109  -0.00059   0.00009  -0.00004  -0.00004
  73        2S         -0.00002  -0.00043   0.00072   0.00064   0.00022
  74 13  H  1S         -0.00099   0.00024  -0.00045  -0.00033  -0.00012
  75        2S          0.00029   0.00160  -0.00026   0.00033  -0.00003
  76 14  H  1S         -0.00129  -0.00013   0.00017  -0.00150  -0.00015
  77        2S          0.00364   0.00026  -0.00068   0.00325  -0.00032
  78 15  H  1S         -0.00088  -0.00022   0.00005  -0.00083  -0.00004
  79        2S          0.00058  -0.00020   0.00002   0.00085   0.00091
                           6         7         8         9        10
                           O         O         O         O         O
     Eigenvalues --   -11.17855 -11.16010  -1.12282  -1.03435  -1.01555
   1 1   C  1S          0.01866   0.00135  -0.08765   0.08295  -0.10449
   2        2S         -0.00051  -0.00032   0.09875  -0.08774   0.11230
   3        2PX         0.00020  -0.00014   0.01160   0.04894   0.01805
   4        2PY        -0.00033  -0.00010   0.04388  -0.05759   0.00650
   5        2PZ        -0.00001  -0.00012   0.00836   0.00150   0.00836
   6        3S          0.02317   0.00202   0.15704  -0.19643   0.23138
   7        3PX         0.01743   0.00131  -0.01126  -0.00327  -0.00810
   8        3PY         0.00434   0.00139   0.00199  -0.01416   0.00247
   9        3PZ         0.00478   0.00062  -0.00200  -0.00364   0.00076
  10 2   C  1S          0.01797   0.00099  -0.08403   0.11406  -0.02743
  11        2S          0.00158  -0.00001   0.09247  -0.12321   0.02987
  12        2PX        -0.00045  -0.00018   0.04419  -0.03055   0.00547
  13        2PY         0.00073  -0.00005  -0.01822   0.02942  -0.08743
  14        2PZ        -0.00018  -0.00003   0.00322  -0.00062  -0.00453
  15        3S         -0.00553  -0.00128   0.17023  -0.25062   0.06402
  16        3PX        -0.00599  -0.00081   0.01503  -0.00097   0.00433
  17        3PY        -0.00333   0.00034   0.00007   0.00660  -0.00743
  18        3PZ        -0.00086  -0.00014   0.00165   0.00055  -0.00097
  19 3   C  1S          0.00811   0.00224  -0.08798   0.07189   0.11680
  20        2S         -0.00007  -0.00047   0.09869  -0.07572  -0.12565
  21        2PX         0.00003  -0.00019   0.04403   0.00877  -0.08639
  22        2PY         0.00016   0.00016  -0.02824   0.02870  -0.02324
  23        2PZ        -0.00016  -0.00004  -0.00242   0.00376  -0.00156
  24        3S          0.01089   0.00346   0.15703  -0.17546  -0.27653
  25        3PX         0.00327   0.00277  -0.00078  -0.01057  -0.01631
  26        3PY        -0.00400  -0.00145  -0.00006   0.01202   0.00131
  27        3PZ         0.00004   0.00004   0.00010   0.00107   0.00116
  28 4   C  1S          0.01013   0.00427  -0.09556  -0.00165   0.12881
  29        2S          0.00102  -0.00009   0.10529   0.00059  -0.13928
  30        2PX        -0.00022  -0.00075  -0.03333   0.07232   0.07396
  31        2PY         0.00039   0.00023  -0.03460  -0.02450  -0.01129
  32        2PZ        -0.00015   0.00007  -0.00136  -0.00065   0.00106
  33        3S         -0.00426  -0.00164   0.19640   0.01206  -0.29378
  34        3PX         0.00863   0.00261  -0.02054   0.00115   0.00820
  35        3PY         0.00360  -0.00046  -0.01438  -0.00588  -0.00321
  36        3PZ        -0.00008   0.00013  -0.00037  -0.00102  -0.00050
  37 5   C  1S          0.00427   0.00146  -0.10822  -0.11960   0.00490
  38        2S         -0.00153  -0.00344   0.11864   0.12725  -0.00322
  39        2PX         0.00051  -0.00244  -0.00675   0.08781   0.00167
  40        2PY         0.00048   0.00002  -0.00333  -0.00952  -0.08265
  41        2PZ        -0.00008   0.00037  -0.00057  -0.01008   0.00480
  42        3S          0.01987   0.02481   0.21595   0.26752  -0.02269
  43        3PX        -0.01694   0.01594   0.02538   0.01934   0.01129
  44        3PY        -0.01903  -0.00016   0.01325  -0.00033  -0.00486
  45        3PZ         0.00329  -0.00263  -0.00242  -0.00163   0.00077
  46 6   C  1S          0.98772   0.00628  -0.09638  -0.03455  -0.11104
  47        2S          0.10590   0.00003   0.09020   0.03193   0.10140
  48        2PX        -0.00023  -0.00065  -0.00819   0.05841  -0.02686
  49        2PY         0.00011  -0.00035   0.03325   0.02137  -0.01103
  50        2PZ        -0.00013   0.00009  -0.00958   0.00014  -0.00649
  51        3S         -0.10411  -0.00050   0.26261   0.10254   0.33057
  52        3PX         0.00369   0.00086  -0.00662   0.00551  -0.00636
  53        3PY        -0.01077   0.00092   0.01343   0.00294   0.00345
  54        3PZ         0.00380   0.00039  -0.00386  -0.00007  -0.00331
  55 7   H  1S         -0.00028   0.00005   0.03456  -0.04111   0.05797
  56        2S          0.00349   0.00083  -0.00730  -0.00685   0.00849
  57 8   H  1S         -0.00072  -0.00010   0.03311  -0.05702   0.01459
  58        2S         -0.00071   0.00004  -0.00234  -0.00447   0.00267
  59 9   H  1S         -0.00014   0.00004   0.03419  -0.03613  -0.06223
  60        2S          0.00132   0.00106  -0.00661  -0.00759  -0.01020
  61 10  H  1S         -0.00086  -0.00007   0.03941   0.00696  -0.06901
  62        2S         -0.00209  -0.00051   0.00288   0.00777  -0.00862
  63 11  C  1S         -0.00652   0.98681  -0.05809  -0.12103   0.00311
  64        2S         -0.00166   0.09664   0.06727   0.13162  -0.00345
  65        2PX         0.00038  -0.00017  -0.04964  -0.07545   0.00240
  66        2PY         0.00041   0.00002  -0.00108  -0.00328  -0.01684
  67        2PZ        -0.00007   0.00009   0.00802   0.01296   0.00096
  68        3S          0.00821  -0.07097   0.09014   0.26761  -0.01057
  69        3PX        -0.00442   0.00914   0.00931  -0.01377   0.00160
  70        3PY         0.00383  -0.00002  -0.00554  -0.00037  -0.00654
  71        3PZ         0.00061  -0.00152  -0.00221   0.00347  -0.00122
  72 12  H  1S         -0.00062  -0.00147   0.02499   0.05757  -0.00707
  73        2S         -0.00054   0.01252  -0.00073   0.00430  -0.00412
  74 13  H  1S          0.00025  -0.00149   0.02466   0.05940   0.00411
  75        2S          0.00119   0.01242  -0.00428   0.00624   0.00387
  76 14  H  1S          0.00109  -0.00012   0.04314   0.01838   0.06003
  77        2S          0.01502  -0.00003  -0.01248  -0.00221  -0.00370
  78 15  H  1S          0.00098  -0.00018   0.04167   0.02388   0.06164
  79        2S          0.01509   0.00041  -0.00902   0.00435   0.00192
                          11        12        13        14        15
                           O         O         O         O         O
     Eigenvalues --    -0.91983  -0.81469  -0.76700  -0.68411  -0.66097
   1 1   C  1S          0.03314   0.08471   0.07690  -0.03589  -0.04646
   2        2S         -0.03455  -0.08656  -0.07554   0.03810   0.04586
   3        2PX         0.11521   0.05241  -0.01315   0.07016  -0.04890
   4        2PY        -0.07056   0.01169   0.12187   0.07520  -0.14748
   5        2PZ         0.01923   0.01649   0.01170   0.01612  -0.06112
   6        3S         -0.09700  -0.26947  -0.25821   0.12070   0.17092
   7        3PX         0.02181   0.00926  -0.00817   0.04885  -0.04595
   8        3PY        -0.01660  -0.00112   0.05714   0.05203  -0.10845
   9        3PZ         0.00323   0.00173   0.00557   0.01274  -0.04498
  10 2   C  1S          0.10579  -0.03431  -0.07180   0.04416   0.04903
  11        2S         -0.11110   0.03319   0.07310  -0.04147  -0.05298
  12        2PX         0.01490  -0.02614  -0.02946   0.22632  -0.01390
  13        2PY         0.04961   0.15207   0.04186  -0.00772   0.00932
  14        2PZ         0.00790   0.01297   0.00047   0.02217  -0.01403
  15        3S         -0.28085   0.11093   0.23924  -0.17489  -0.15475
  16        3PX         0.00497  -0.00540  -0.00237   0.14762   0.01394
  17        3PY         0.01693   0.06238   0.02054   0.00023   0.00567
  18        3PZ         0.00299   0.00806   0.00132   0.01406  -0.00838
  19 3   C  1S         -0.02153  -0.10441   0.03841  -0.03372  -0.04722
  20        2S          0.02334   0.10583  -0.04032   0.03814   0.04785
  21        2PX         0.07489  -0.11722  -0.06261   0.08419  -0.08422
  22        2PY         0.04229   0.00860  -0.11607  -0.09405   0.13125
  23        2PZ         0.00689  -0.00071  -0.01102  -0.00401   0.00849
  24        3S          0.05188   0.33389  -0.12341   0.10168   0.16553
  25        3PX         0.02147  -0.03865  -0.02411   0.04880  -0.06408
  26        3PY         0.01018  -0.00157  -0.05957  -0.05800   0.10789
  27        3PZ         0.00192  -0.00106  -0.00445  -0.00242   0.00564
  28 4   C  1S         -0.05344   0.09848   0.01820   0.03692   0.04582
  29        2S          0.05591  -0.10059  -0.01901  -0.03407  -0.04818
  30        2PX        -0.04840  -0.10650   0.08177  -0.14877  -0.01621
  31        2PY         0.00947   0.01092  -0.13271  -0.15234  -0.03201
  32        2PZ         0.00429   0.00082  -0.00249  -0.00544  -0.00544
  33        3S          0.14367  -0.31249  -0.06041  -0.14554  -0.15449
  34        3PX        -0.02275  -0.03011   0.03142  -0.08674  -0.02385
  35        3PY        -0.00528   0.01270  -0.06130  -0.11193  -0.03447
  36        3PZ         0.00175   0.00109  -0.00192  -0.00433  -0.00513
  37 5   C  1S          0.01728   0.03059  -0.09966  -0.00649  -0.07801
  38        2S         -0.01734  -0.03101   0.10059   0.00734   0.08081
  39        2PX        -0.13948   0.05426  -0.07527  -0.06427   0.10103
  40        2PY        -0.04198  -0.12637  -0.00235  -0.02254  -0.03975
  41        2PZ         0.02704   0.00264   0.01750  -0.00570  -0.03230
  42        3S         -0.05888  -0.09888   0.33001   0.02197   0.27324
  43        3PX        -0.01937   0.02394  -0.05089  -0.03738   0.06663
  44        3PY        -0.00025  -0.05946  -0.00452  -0.01979  -0.03317
  45        3PZ         0.00547   0.00016   0.01084  -0.00216  -0.01945
  46 6   C  1S         -0.12500  -0.05507   0.00640   0.02875   0.03779
  47        2S          0.11150   0.04911  -0.00462  -0.02371  -0.03404
  48        2PX         0.00455   0.07040   0.08063  -0.08553   0.01796
  49        2PY        -0.01852  -0.03143   0.11206   0.11171   0.04861
  50        2PZ         0.01114   0.01693   0.01370  -0.03761  -0.09941
  51        3S          0.42143   0.20550  -0.02967  -0.12383  -0.15340
  52        3PX        -0.00546   0.02667   0.03608  -0.05431  -0.00067
  53        3PY         0.00575  -0.01027   0.05415   0.07386   0.03227
  54        3PZ         0.00106   0.00764   0.00766  -0.02659  -0.07227
  55 7   H  1S         -0.02334  -0.08459  -0.11437  -0.02612   0.14412
  56        2S         -0.00690  -0.04258  -0.06367  -0.02083   0.09294
  57 8   H  1S         -0.07761   0.04003   0.07459  -0.17423  -0.03757
  58        2S         -0.02479   0.02217   0.04061  -0.11359  -0.01130
  59 9   H  1S          0.01316   0.11437  -0.06606  -0.04148   0.14080
  60        2S          0.00454   0.05733  -0.03396  -0.03593   0.08746
  61 10  H  1S          0.02961  -0.09808  -0.05449  -0.15538  -0.06861
  62        2S          0.00867  -0.04817  -0.03496  -0.09836  -0.04024
  63 11  C  1S          0.12319  -0.04257   0.08276  -0.02170   0.03210
  64        2S         -0.12965   0.04425  -0.08334   0.02037  -0.02689
  65        2PX         0.02406   0.02747  -0.11493   0.05426  -0.21363
  66        2PY        -0.01088  -0.05085  -0.00310  -0.02258  -0.04119
  67        2PZ        -0.00264  -0.00006   0.02012  -0.01373   0.02930
  68        3S         -0.33214   0.12918  -0.26905   0.07939  -0.15424
  69        3PX         0.01260   0.01153  -0.04922   0.03259  -0.10656
  70        3PY        -0.00871  -0.02609   0.00067  -0.01348  -0.02563
  71        3PZ        -0.00208   0.00065   0.00914  -0.01067   0.01166
  72 12  H  1S         -0.08101   0.01645  -0.09950   0.02087  -0.11809
  73        2S         -0.02143   0.00175  -0.05587   0.00859  -0.09148
  74 13  H  1S         -0.07302   0.06182  -0.09743   0.04524  -0.07675
  75        2S         -0.01890   0.03228  -0.05267   0.02838  -0.05984
  76 14  H  1S          0.08213   0.05018  -0.00943  -0.06370  -0.09654
  77        2S          0.01374   0.02095  -0.00702  -0.04047  -0.06581
  78 15  H  1S          0.07873   0.06088  -0.03449  -0.08111  -0.01250
  79        2S          0.01372   0.02778  -0.02503  -0.05350  -0.00384
                          16        17        18        19        20
                           O         O         O         O         O
     Eigenvalues --    -0.62789  -0.60015  -0.58535  -0.55681  -0.53487
   1 1   C  1S         -0.00798  -0.02145  -0.01276   0.00580   0.00822
   2        2S          0.00512   0.02390   0.01560  -0.00255  -0.00331
   3        2PX         0.11577  -0.04877   0.11322  -0.09875  -0.09200
   4        2PY        -0.07605   0.12899   0.20098   0.08459   0.11565
   5        2PZ         0.03976   0.07801   0.01337   0.00170  -0.03358
   6        3S          0.03102   0.06238   0.01549  -0.04011  -0.05108
   7        3PX         0.07025  -0.02316   0.09643  -0.06844  -0.06257
   8        3PY        -0.04748   0.08861   0.15306   0.05049   0.09234
   9        3PZ         0.02602   0.05876   0.01475  -0.00213  -0.02595
  10 2   C  1S          0.01150   0.00988  -0.01785  -0.01665   0.00925
  11        2S         -0.01461  -0.00650   0.01995   0.01962  -0.00588
  12        2PX         0.01880   0.07577   0.15392   0.12958  -0.07962
  13        2PY         0.13306  -0.13412  -0.04010  -0.06455  -0.20565
  14        2PZ         0.02890   0.04076  -0.00289   0.00835  -0.04539
  15        3S         -0.02870  -0.05282   0.04155   0.03827  -0.03102
  16        3PX         0.02244   0.05413   0.11720   0.10096  -0.06528
  17        3PY         0.07678  -0.07843  -0.01747  -0.04018  -0.13495
  18        3PZ         0.02177   0.03810  -0.00839   0.01155  -0.03858
  19 3   C  1S         -0.01929  -0.00156   0.01275  -0.01993   0.00437
  20        2S          0.01559   0.00062  -0.01558   0.02448   0.00059
  21        2PX        -0.17999  -0.05644  -0.13235   0.13861   0.10639
  22        2PY        -0.01761   0.13966   0.04073  -0.08467   0.19306
  23        2PZ         0.00204   0.04377  -0.01495  -0.01366   0.01688
  24        3S          0.08132   0.02547  -0.02622   0.03672  -0.01889
  25        3PX        -0.11502  -0.04213  -0.08264   0.08846   0.06163
  26        3PY        -0.00102   0.11505   0.03453  -0.07027   0.18128
  27        3PZ         0.00254   0.03638  -0.01207  -0.01393   0.01467
  28 4   C  1S          0.02914   0.01902   0.01053   0.00630   0.01395
  29        2S         -0.03165  -0.02043  -0.01333  -0.00279  -0.01288
  30        2PX         0.13492   0.03777   0.14305  -0.14021  -0.12498
  31        2PY        -0.09087   0.10616   0.16839   0.02989  -0.02307
  32        2PZ        -0.00142   0.03867  -0.01946  -0.01183  -0.00123
  33        3S         -0.09678  -0.04812  -0.01008  -0.02925  -0.04264
  34        3PX         0.06318   0.02990   0.09986  -0.10169  -0.07583
  35        3PY        -0.06257   0.07505   0.14403   0.01079  -0.06217
  36        3PZ         0.00044   0.03350  -0.01898  -0.00597  -0.00709
  37 5   C  1S         -0.00602  -0.01226   0.01169   0.01564  -0.01227
  38        2S          0.00653   0.01192  -0.00930  -0.00920   0.01025
  39        2PX        -0.00479   0.06026   0.05597   0.25587  -0.11142
  40        2PY         0.16883  -0.06094  -0.04200   0.03344  -0.09007
  41        2PZ        -0.00064   0.07257  -0.06470  -0.03587   0.00414
  42        3S          0.02279   0.05388  -0.04020  -0.05653   0.03221
  43        3PX         0.00573   0.03912   0.02208   0.20667  -0.07517
  44        3PY         0.12849  -0.05715  -0.02683   0.01556  -0.11696
  45        3PZ        -0.00255   0.05266  -0.04375  -0.02795   0.00580
  46 6   C  1S         -0.01021   0.00459  -0.01023   0.00547  -0.01967
  47        2S          0.00597  -0.00243   0.00973  -0.00442   0.01754
  48        2PX        -0.14194  -0.03890  -0.03418   0.08528   0.12016
  49        2PY        -0.04306   0.12437   0.00033  -0.19735   0.08868
  50        2PZ         0.06011   0.24698  -0.19994   0.06713  -0.06575
  51        3S          0.05485  -0.03653   0.02557  -0.00016   0.06249
  52        3PX        -0.09724  -0.03906  -0.01565   0.05973   0.08305
  53        3PY        -0.01797   0.09162  -0.01050  -0.15744   0.05513
  54        3PZ         0.04702   0.21197  -0.17141   0.05610  -0.06035
  55 7   H  1S          0.00553  -0.04878  -0.14200  -0.02278  -0.04161
  56        2S          0.00385  -0.04206  -0.11235  -0.02233  -0.03460
  57 8   H  1S         -0.02402  -0.06514  -0.08613  -0.07609   0.05037
  58        2S         -0.01237  -0.05042  -0.06938  -0.06791   0.04352
  59 9   H  1S          0.07063   0.10364   0.05682  -0.08299   0.07786
  60        2S          0.05043   0.07474   0.04827  -0.07533   0.05524
  61 10  H  1S         -0.03237   0.05379   0.13835  -0.03786  -0.07316
  62        2S         -0.01064   0.04215   0.10700  -0.02988  -0.04901
  63 11  C  1S         -0.00175  -0.00070   0.00459  -0.00750   0.00483
  64        2S          0.00221   0.00298  -0.00369   0.01615  -0.00784
  65        2PX        -0.00894  -0.05312  -0.05098  -0.22128   0.08167
  66        2PY         0.25572  -0.03939   0.01016   0.10852   0.21672
  67        2PZ        -0.01213   0.04795  -0.02090   0.03134  -0.03956
  68        3S         -0.00122  -0.01152  -0.01648  -0.03793   0.00226
  69        3PX        -0.00007  -0.02373  -0.04227  -0.12730   0.05104
  70        3PY         0.18272  -0.01618   0.01004   0.09370   0.21847
  71        3PZ        -0.00818   0.04078  -0.02247   0.01665  -0.03564
  72 12  H  1S          0.14176  -0.04200  -0.00915  -0.00491   0.16502
  73        2S          0.10507  -0.03917  -0.00271  -0.01771   0.13223
  74 13  H  1S         -0.14327   0.00085  -0.02809  -0.13630  -0.11118
  75        2S         -0.11072  -0.00221  -0.02088  -0.11935  -0.08154
  76 14  H  1S          0.04757   0.13739  -0.12627   0.07988  -0.03926
  77        2S          0.03346   0.10266  -0.10512   0.07224  -0.04296
  78 15  H  1S         -0.03970  -0.16995   0.07507   0.09454   0.03423
  79        2S         -0.03395  -0.13421   0.05145   0.08342   0.01989
                          21        22        23        24        25
                           O         O         O         O         O
     Eigenvalues --    -0.48824  -0.46157  -0.43724  -0.37149  -0.28758
   1 1   C  1S         -0.00955  -0.00814  -0.00151   0.00948   0.00497
   2        2S          0.00178   0.00826   0.00244  -0.00736  -0.00350
   3        2PX         0.23014   0.04315  -0.00069  -0.11196   0.04301
   4        2PY        -0.04093   0.11939  -0.03007  -0.05235   0.03063
   5        2PZ         0.08618   0.08828   0.08500   0.17736  -0.19776
   6        3S          0.06006   0.01349  -0.00290  -0.05009  -0.02919
   7        3PX         0.20501   0.07417  -0.00542  -0.13132   0.03453
   8        3PY         0.02660   0.12219  -0.03614  -0.07451   0.03901
   9        3PZ         0.08355   0.09679   0.10151   0.20945  -0.26723
  10 2   C  1S          0.00578   0.00609  -0.00406  -0.00025  -0.00209
  11        2S         -0.00468  -0.00262   0.00257  -0.00096   0.00097
  12        2PX        -0.18261  -0.06887  -0.01390  -0.00100   0.01356
  13        2PY         0.03913  -0.16784   0.01101  -0.00397   0.01810
  14        2PZ         0.00746   0.03353   0.16159   0.22522  -0.15696
  15        3S         -0.03116  -0.01740   0.02630   0.00491   0.01756
  16        3PX        -0.22578  -0.07894  -0.01587   0.01123   0.03042
  17        3PY         0.01430  -0.13715  -0.00043  -0.01365   0.04041
  18        3PZ        -0.00296   0.03280   0.16879   0.26513  -0.20873
  19 3   C  1S          0.00543   0.01207  -0.00309  -0.00267   0.00341
  20        2S         -0.00311  -0.00821   0.00256   0.00147  -0.00201
  21        2PX         0.17050   0.01976   0.01260  -0.02608  -0.00337
  22        2PY         0.01670   0.16365  -0.05606  -0.03524  -0.01802
  23        2PZ        -0.00861   0.05351   0.23457   0.04986   0.20383
  24        3S         -0.01743  -0.07194   0.01630   0.01283  -0.03412
  25        3PX         0.13907  -0.02746   0.01370  -0.02683   0.00147
  26        3PY        -0.03829   0.18127  -0.05896  -0.03545  -0.01219
  27        3PZ        -0.01323   0.05133   0.25044   0.05497   0.27392
  28 4   C  1S          0.00248  -0.01937   0.00055   0.00018   0.00040
  29        2S          0.00339   0.01633  -0.00020  -0.00172  -0.00266
  30        2PX        -0.17471   0.02091  -0.01866   0.01350   0.00404
  31        2PY         0.09476  -0.19388   0.01833   0.01793   0.00237
  32        2PZ        -0.01837   0.01132   0.23620  -0.06015   0.21114
  33        3S         -0.03119   0.07269  -0.00164   0.01632   0.00772
  34        3PX        -0.12283  -0.04855  -0.00495   0.01659  -0.00362
  35        3PY         0.07969  -0.21585   0.01356   0.02410  -0.00922
  36        3PZ        -0.01721   0.01476   0.25252  -0.06530   0.27235
  37 5   C  1S          0.00540   0.00003   0.00028  -0.00643   0.00721
  38        2S         -0.00018   0.00289   0.00217   0.00713  -0.00733
  39        2PX         0.14371   0.00519   0.02800  -0.06595   0.00501
  40        2PY        -0.07938   0.23878  -0.03133  -0.05915   0.00910
  41        2PZ        -0.06028  -0.04538   0.13889  -0.21634  -0.13846
  42        3S         -0.01858  -0.01397  -0.01749   0.01999  -0.03456
  43        3PX         0.13344   0.04245   0.02865  -0.06737   0.00319
  44        3PY        -0.07200   0.25432  -0.03061  -0.06878   0.00528
  45        3PZ        -0.05262  -0.04527   0.15450  -0.25029  -0.19369
  46 6   C  1S         -0.01427   0.00841   0.00249   0.00235  -0.00052
  47        2S          0.01319  -0.00916  -0.00284  -0.00253  -0.00228
  48        2PX        -0.22817  -0.10493   0.02116   0.06109  -0.02091
  49        2PY         0.08509  -0.18722   0.00171   0.02667  -0.00861
  50        2PZ        -0.03121  -0.02142  -0.11763   0.01588   0.06993
  51        3S          0.03049  -0.00638  -0.01856  -0.01093   0.02061
  52        3PX        -0.20343  -0.05901   0.01607   0.04056  -0.04767
  53        3PY         0.08005  -0.15765   0.01334   0.03910   0.01015
  54        3PZ        -0.02202  -0.02784  -0.11502   0.02041   0.08553
  55 7   H  1S         -0.07242  -0.11485   0.00579   0.03864  -0.00075
  56        2S         -0.04985  -0.10208   0.00913   0.04087  -0.00819
  57 8   H  1S          0.14214   0.04626   0.00154  -0.02574   0.00986
  58        2S          0.11209   0.03906  -0.00053  -0.02635   0.01650
  59 9   H  1S         -0.06935   0.10070  -0.02750  -0.00890  -0.00059
  60        2S         -0.05103   0.08368  -0.02855  -0.01156  -0.00180
  61 10  H  1S         -0.00742  -0.11624   0.01131   0.02272   0.00807
  62        2S         -0.01198  -0.09641   0.01315   0.02214   0.01199
  63 11  C  1S         -0.02171  -0.00328  -0.00074   0.00561  -0.00618
  64        2S          0.02706   0.00426   0.00014  -0.00611   0.00715
  65        2PX        -0.14320  -0.01674   0.00891  -0.01298  -0.05221
  66        2PY         0.01974  -0.10861   0.03651  -0.00435  -0.02009
  67        2PZ        -0.00533  -0.00878   0.10212  -0.22282  -0.20426
  68        3S          0.03816  -0.01107   0.00702  -0.01814   0.02077
  69        3PX        -0.08468  -0.00097   0.00720  -0.02862  -0.05247
  70        3PY         0.02861  -0.14553   0.03955  -0.00049  -0.02453
  71        3PZ        -0.01761  -0.01288   0.10959  -0.26478  -0.26787
  72 12  H  1S         -0.01538  -0.08741   0.01953   0.01561  -0.00751
  73        2S         -0.02793  -0.08276   0.01905   0.02241  -0.01698
  74 13  H  1S         -0.05354   0.08052  -0.02359  -0.00666   0.00193
  75        2S         -0.06461   0.06999  -0.02202  -0.00335  -0.00447
  76 14  H  1S         -0.03616   0.00671  -0.10059   0.00852   0.08029
  77        2S         -0.04461   0.01580  -0.09772   0.00948   0.11018
  78 15  H  1S         -0.10294   0.07667   0.06055  -0.00210  -0.04752
  79        2S         -0.10835   0.08426   0.06781   0.01539  -0.04356
                          26        27        28        29        30
                           V         V         V         V         V
     Eigenvalues --     0.10235   0.20141   0.27116   0.27475   0.30546
   1 1   C  1S         -0.00397  -0.01271   0.03462   0.02633   0.03690
   2        2S          0.00895   0.01550  -0.01729  -0.02941  -0.01933
   3        2PX        -0.04380   0.09094   0.05418   0.02538   0.00061
   4        2PY        -0.02796   0.04008   0.05638   0.05604   0.07107
   5        2PZ         0.19493  -0.19216   0.07046  -0.07531   0.04942
   6        3S         -0.00130   0.07214  -0.46726  -0.25516  -0.50115
   7        3PX        -0.11130   0.22833   0.20779   0.11692   0.10958
   8        3PY        -0.08220   0.00113   0.22534   0.24212   0.26453
   9        3PZ         0.38520  -0.46337   0.19638  -0.12050   0.14586
  10 2   C  1S         -0.00444  -0.00153   0.04080   0.00768  -0.01431
  11        2S          0.00456  -0.00142  -0.02131  -0.00293   0.00100
  12        2PX         0.02094  -0.01653   0.09979   0.02850  -0.00726
  13        2PY         0.01317  -0.01073   0.00169   0.00792   0.04443
  14        2PZ        -0.13252   0.21000  -0.07236   0.17266  -0.04655
  15        3S          0.04367   0.07042  -0.49205  -0.17701   0.19090
  16        3PX         0.03647  -0.02161   0.37047   0.09324  -0.05273
  17        3PY         0.03068  -0.05393  -0.02903   0.04288   0.03769
  18        3PZ        -0.26366   0.51480  -0.15795   0.42087  -0.12999
  19 3   C  1S         -0.00382   0.00231   0.03364   0.02779  -0.03501
  20        2S          0.00311   0.00112  -0.01296  -0.01376   0.00447
  21        2PX        -0.00355   0.02121   0.06468   0.02500  -0.03649
  22        2PY         0.01478   0.02997  -0.08325   0.01192   0.11866
  23        2PZ        -0.20275  -0.08132   0.07014  -0.21579   0.03841
  24        3S          0.03265  -0.03116  -0.46689  -0.36271   0.62162
  25        3PX         0.00294  -0.00267   0.21683   0.09831  -0.12679
  26        3PY         0.05692   0.06400  -0.25975  -0.02995   0.38818
  27        3PZ        -0.40079  -0.14982   0.18122  -0.58293   0.13404
  28 4   C  1S          0.00018  -0.00576   0.04910   0.02017  -0.00426
  29        2S         -0.00272   0.00293  -0.02926  -0.00820  -0.01213
  30        2PX         0.00239  -0.00286  -0.04560  -0.02897   0.02223
  31        2PY        -0.00324   0.01433  -0.06904  -0.00840   0.15686
  32        2PZ         0.20489  -0.07181  -0.08485   0.20389  -0.01705
  33        3S          0.01823   0.06928  -0.58280  -0.26420   0.27008
  34        3PX         0.02288  -0.01732  -0.16424  -0.16561   0.21777
  35        3PY        -0.02173   0.05682  -0.32980  -0.00297   0.47503
  36        3PZ         0.41039  -0.17044  -0.21057   0.55381  -0.03232
  37 5   C  1S         -0.00931   0.01227   0.01286  -0.00421  -0.00230
  38        2S          0.00831  -0.00812  -0.00160  -0.01571  -0.00402
  39        2PX         0.00461   0.05848   0.01262  -0.03334  -0.00695
  40        2PY        -0.00887   0.05250   0.00049   0.01256   0.08766
  41        2PZ         0.12517   0.24960   0.05834  -0.15170  -0.02854
  42        3S          0.06333  -0.13029  -0.26669   0.12646   0.01545
  43        3PX         0.03484   0.13267  -0.05783  -0.14378  -0.05757
  44        3PY        -0.04775   0.16440  -0.03304   0.05797   0.04833
  45        3PZ         0.23625   0.54713   0.13143  -0.29379  -0.06966
[...]
 (esu units = statvolt**-1 cm**4 , SI units = C**3 m**3 J**-2)
 Beta(0;0,0):
               (au)            (10**-30 esu)      (10**-50 SI)
   || (z)     0.783392D+01      0.676789D-01      0.251184D-01
   _|_(z)     0.261131D+01      0.225596D-01      0.837279D-02
   x          0.551866D+02      0.476769D+00      0.176948D+00
   y          0.190560D+02      0.164629D+00      0.611005D-01
   z          0.391696D+02      0.338395D+00      0.125592D+00
   ||         0.140612D+02      0.121478D+00      0.450854D-01
   xxx        0.123726D+02      0.106889D+00      0.396709D-01
   xxy        0.247658D+02      0.213957D+00      0.794082D-01
   yxy       -0.189814D+01     -0.163985D-01     -0.608613D-02
   yyy       -0.102508D+02     -0.885593D-01     -0.328679D-01
   xxz        0.111047D+02      0.959359D-01      0.356057D-01
   yxz        0.729294D+01      0.630053D-01      0.233838D-01
   yyz        0.237099D+02      0.204835D+00      0.760226D-01
   zxz        0.792111D+01      0.684323D-01      0.253980D-01
   zyz       -0.816296D+01     -0.705217D-01     -0.261734D-01
   zzz       -0.217581D+02     -0.187973D+00     -0.697643D-01

 ----------------------------------------------------------------------
 1\1\GINC-USER-HP-Z2-G9-WS\Freq\RHF\3-21G\C7H8\USER\10-Jun-2025\0\\#P G
 eom=AllCheck Guess=TCheck SCRF=Check GenChk RHF/3-21G Freq\\optimisati
 on\\0,1\C,-2.6189445438,1.2604857023,4.8059419243\C,-1.5369015662,1.30
 19916843,5.5618077686\C,-0.3452337969,2.0526909643,5.1397793827\C,-0.3
 505847192,2.7971668246,4.0423624171\C,-1.5429987907,2.9154641874,3.186
 8751453\C,-2.6882509204,1.9382381235,3.4529826229\H,-3.4873373772,0.71
 01144707,5.1146340627\H,-1.5029703656,0.7917016313,6.5044356264\H,0.52
 92523068,1.9988406902,5.7579906257\H,0.5131028128,3.3672725363,3.75810
 00487\C,-1.6069146382,3.8144543272,2.2174823973\H,-0.7858331719,4.4738
 331706,2.0077058822\H,-2.4785032143,3.9250269014,1.6001465779\H,-2.663
 5462782,1.1630121246,2.6880351569\H,-3.636698727,2.4539249815,3.349852
 8813\\Version=EM64L-G16RevB.01\State=1-A\HF=-268.1820743\RMSD=8.338e-1
 0\RMSF=6.516e-06\ZeroPoint=0.137224\Thermal=0.1429181\Dipole=-0.115921
 8,-0.1344692,0.0210998\DipoleDeriv=-0.0026606,0.0579915,0.0395586,0.05
 62614,-0.1448013,-0.1269964,0.1581929,-0.0048554,-0.0143691,-0.1441592
 ,0.0213249,-0.017091,0.1164237,-0.0205884,-0.157656,-0.1710058,-0.2735
 071,0.1130953,0.2361818,0.2573278,-0.0757011,0.0567845,-0.1000158,-0.0
 596943,0.1455995,0.0266232,-0.1157646,-0.0254639,-0.0547533,0.1091405,
 0.0398296,-0.1147415,-0.0790239,0.036081,-0.0240505,-0.0803085,-0.0045
 899,0.0028527,0.0685051,0.0270857,0.1285171,-0.092269,-0.0017195,-0.12
 01584,0.0740259,0.0384379,-0.1049551,0.0011805,-0.1367954,0.0543707,0.
 1493539,-0.0426242,-0.0127097,0.1536063,-0.0402679,-0.1112428,0.041016
 7,-0.0987115,0.0690074,0.0706324,0.0180613,0.0776324,0.0331069,0.06479
 04,-0.0343353,-0.0244967,-0.0344336,0.0877445,0.1220044,-0.0133504,0.1
 31581,-0.0636556,-0.0539982,-0.0244709,-0.0934323,-0.0208832,0.1178048
 ,0.0499432,-0.0976785,0.0502095,0.0273645,-0.0436958,-0.0603908,-0.026
 7408,-0.1068554,0.069848,0.0634698,0.0249829,0.0775559,0.0676765,0.047
 7561,0.1818679,0.045588,0.1281085,-0.278757,-0.0643194,0.128906,-0.013
 8589,-0.3281074,-0.0332122,-0.1194961,0.0017435,-0.0869872,0.047262,0.
 0881301,-0.0275871,0.0592706,0.1042014,-0.042068,-0.0028761,-0.1160631
 ,-0.0393508,0.1057334,0.0417618,-0.0762546,0.0798968,0.0337875,0.07557
 51,-0.0449095,0.0440649,0.0064459,-0.0495255,-0.0481544,-0.0471642,-0.
 0806446,-0.0474012,-0.0726255,0.036065,0.0027272,0.0930779,0.0281416,0
 .0428178,-0.0344394,0.0270152,0.0427419\Polar=63.1509943,11.5519016,56
 .1806867,10.4385071,-32.7562073,73.4926624\PolarDeriv=-10.1186207,-1.7
 876472,-0.823815,-0.0988826,1.1638145,-0.7398889,5.6041792,-2.9395463,
 -3.5172502,-2.3541288,-1.8091647,-1.6760535,-5.1265343,-5.9385561,-3.5
 991566,-2.4563042,-1.9508602,0.01363,14.9564468,8.2184224,6.291399,-4.
 1005539,-3.9610045,0.7369732,-0.7151529,6.9760696,6.1925738,-0.9615672
 ,-0.1700158,2.842553,3.3435181,3.1384546,0.7177195,3.6152958,3.2762999
 ,-1.134642,-6.406719,-5.7799034,-1.2828883,4.3932985,1.091532,-2.31106
 11,-3.2717142,-4.3669314,-17.4320653,1.7765339,11.3695167,-2.7482535,2
 .9692954,5.1844498,5.7994331,-6.1106499,-10.3923135,16.4885665,0.06890
 16,0.4657463,-9.9847472,-1.7626259,9.0360894,-7.689238,-0.4363164,0.50
 87446,13.3339617,2.1109125,-8.9836455,2.7858088,-2.9743935,-2.0820708,
 -7.5823793,3.0663066,14.4807622,-23.3007303,0.8419475,-0.7074447,10.19
 08155,1.6964292,-8.8913212,8.3540611,1.4384754,2.6574111,-13.5717173,-
 3.2847057,9.7361268,-4.6460529,0.3057085,0.0644752,6.4359722,0.6263937
 ,-14.184577,22.6580018,3.4719995,-2.356228,-0.4877615,0.1317342,-0.017
 2831,-0.7372637,-5.0049318,1.1922451,4.7689618,0.6626318,1.9193253,1.3
 187966,1.0909881,1.6106839,4.3920896,1.5247216,3.2938047,0.0456119,-6.
 5319235,-3.8452617,-2.3190608,2.1166776,1.1509885,-1.3152526,-3.050673
 5,-2.835229,-3.3245062,1.2963561,1.6784335,-0.3062224,1.0591379,1.1998
 843,0.9579033,-2.1735245,-1.2452599,1.3893707,0.7103401,-0.2341441,0.4
 108768,1.5684756,-0.0352086,-0.01217,0.3884274,-0.1479448,-3.3320943,-
 0.560838,2.9810164,-2.9313385,0.5938979,-0.5259679,1.5109617,0.4521761
 ,-3.7878488,8.7663089,6.376289,-1.2897153,-0.2393343,4.2388774,-0.2906
 68,3.070172,-0.645164,1.3431227,0.3876902,0.4429414,1.2120877,-0.90462
 25,2.6268188,-0.0722632,1.2798367,3.4470038,-1.0354552,4.0397296,6.494
 3004,2.6240742,1.4980755,-1.0527428,-0.2482218,-0.1644767,2.5034263,2.
 6728566,1.9128781,-0.4716597,-0.7469023,1.58508,-1.2339649,-0.2138986,
 -0.6690514,1.1609626,0.9043045,-0.1994691,0.05801,-0.1289967,-5.698170
 2,0.1399724,1.1218853,4.1355527,-1.1419166,-3.518443,14.8934749,3.1311
 536,-9.4502772,2.7749816,1.1865544,-1.280521,-1.9278578,1.9290447,9.86
 41211,-18.7078426,3.5813653,2.977661,3.0890654,-2.1557302,-1.4330127,0
 .2791655,1.1769396,2.9419527,4.1807069,-0.9261408,-2.0654536,2.1600907
 ,-1.003446,-0.0790608,-1.7199003,0.9204614,2.399449,-1.4898531,-4.0177
 475,1.9396709,-0.2188604,-3.3842324,1.2838183,-3.4028827,0.8236464,-0.
 8446225,1.0516761,-0.1562365,-2.119998,1.3826199,-1.2985762,0.6332366,
 -1.7253849,-3.0367325,1.80664,-4.4297934,-1.440361,-1.5908798,0.108736
 ,-1.356667,-0.1400962,0.2801466,-0.0154495,-1.3541111,-6.5950155,-0.61
 33259,-3.1018507,-1.6941879,-0.8586682,-1.233196,-3.199385,-0.9700616,
 -3.5988127,-4.1108069,-8.0442286,1.4946459,-0.5343304,-0.3740302,0.168
 6883,-0.483837,2.3462244,-2.2855743,1.0507252,-0.0919268,-0.4491987,0.
 0568006,-0.6803358,-0.4056502,-0.6708007,-1.9950935,0.1697459,-0.02808
 2\HyperPolar=-2.2451167,22.4433136,2.3652408,-8.855462,0.9794554,-2.67
 8301,-11.9901236,0.1222236,-28.2935319,29.256243\Quadrupole=1.794281,-
 1.7630961,-0.0311849,1.8891804,1.5214179,-2.2615617\PG=C01 [X(C7H8)]\N
 Imag=0\\0.86962226,0.18631479,0.34161702,0.20056841,-0.13579593,0.5997
 3189,-0.45058595,-0.03051877,-0.23452549,0.74619705,-0.02666862,-0.101
 25414,0.01580655,0.11711599,0.34197718,-0.23771321,0.01349788,-0.28766
 115,0.23366177,-0.21498875,0.73092497,-0.04660860,-0.02567572,-0.00043
 797,-0.19439473,-0.05981635,0.02550584,0.63886649,-0.01974629,0.007157
 65,-0.00487156,-0.05301925,-0.12701465,0.03771438,0.08841611,0.4243684
 5,-0.01153593,-0.01030515,0.02055581,0.01135198,0.03215036,-0.12934710
 ,0.15317030,-0.32040778,0.74574784,-0.00211267,-0.00173652,0.00178914,
 0.00406174,-0.02495291,0.03305529,-0.13829696,-0.01986553,-0.00996907,
 0.62322950,0.00462764,0.00107286,0.00369971,-0.01627560,-0.01257672,0.
 02598006,-0.01456155,-0.24740460,0.23844690,0.17331385,0.49515646,-0.0
 0992028,0.00038388,-0.00563090,0.02260103,0.02157276,-0.00491554,-0.01
 985231,0.22959326,-0.43417864,0.02843287,-0.35751555,0.69288460,0.0058
 2197,0.00059957,0.00771222,-0.00712961,0.00149931,-0.00167851,0.009915
 97,0.01086078,-0.01228296,-0.20083212,-0.01257683,-0.05492836,0.510284
 92,-0.01321627,-0.01434911,0.00571053,0.00295544,-0.00429816,-0.005846
 10,0.02536213,0.00281954,0.02407253,-0.00868404,-0.10163099,0.01581050
 ,0.07637826,0.57871875,0.03555732,0.02457459,-0.00428561,-0.00423001,-
 0.00778846,-0.00227194,-0.03317818,0.01765579,-0.03006146,-0.05711169,
 0.01346489,-0.13475298,0.10911569,-0.34536866,0.63785469,-0.10890737,-
 0.00656567,-0.00089700,0.00378516,0.01401418,-0.03601164,0.00157482,0.
 00431866,0.00191924,-0.02424430,-0.02071234,0.00433277,-0.14820715,-0.
 04482517,0.00168504,0.59285544,-0.00346693,-0.11302771,0.04817803,0.00
 053642,0.01143129,0.00204497,0.00381203,-0.00796352,-0.00283074,-0.001
 28133,0.00707124,-0.00033428,-0.04139719,-0.12839432,0.01696324,-0.053
 72628,0.55219664,-0.01060402,0.04205317,-0.17534688,-0.00942852,0.0139
 4940,-0.02343715,0.00600831,-0.00055561,-0.00438644,-0.01445031,-0.011
 40785,0.01088246,0.00300943,0.01585250,-0.10023857,0.02453296,0.023753
 72,0.53484799,-0.26448092,-0.12996621,0.06500626,-0.02029389,-0.020281
 12,0.01155890,-0.00036134,-0.00219238,-0.00645832,0.00024856,0.0005829
 5,0.00007235,0.00076960,0.00064710,-0.00181011,0.00507562,0.00263009,-
 0.00376477,0.27936896,-0.13351123,-0.13508359,0.05047620,-0.00030999,0
 .00848803,0.00492957,-0.00372321,0.00940726,0.00462070,0.00074119,-0.0
 0035863,-0.00070998,0.00143906,0.00096856,0.00350916,-0.01288337,-0.00
 419091,0.00392403,0.14608918,0.12842934,0.07026407,0.05354343,-0.09143
 461,-0.02244933,-0.01046218,0.01244897,-0.00456774,0.00542985,0.000179
 50,-0.00036976,-0.00041051,-0.00037834,-0.00325955,0.00105752,-0.00551
 780,0.02613261,0.01746986,-0.00435038,-0.06826146,-0.06204527,0.088438
 81,0.00403167,0.01589248,-0.03299710,-0.06924379,-0.00201334,-0.009391
 97,0.00495998,-0.01551810,0.02820438,-0.00565915,-0.00269245,-0.000246
 02,-0.00055735,-0.00013541,0.00011093,-0.00219395,-0.00521913,-0.00298
 332,-0.00025814,0.00297067,0.00184007,0.06799655,-0.00318701,0.0083400
 2,-0.00099454,-0.00031285,-0.12577257,0.13521692,0.00218951,-0.0042833
 8,0.01670876,-0.00348568,-0.00009519,0.00020435,-0.00019312,0.00037212
 ,-0.00077021,-0.00503544,0.00973325,0.00427288,0.00333610,-0.00603951,
 -0.00398872,0.00598311,0.11894998,0.00148367,0.01379057,-0.01466426,-0
 .01199755,0.13407923,-0.30040265,-0.00420666,0.00280173,-0.00371564,0.
 00147477,0.00068712,0.00093218,-0.00013824,-0.00055351,0.00038219,-0.0
 0501949,0.00424201,0.00379298,0.00135863,-0.00431572,-0.00102443,0.016
 30264,-0.15082332,0.31559924,-0.00299629,-0.00359757,0.00334643,-0.017
 32604,0.00329741,-0.01942971,-0.27208875,0.00799979,-0.14694238,0.0055
 2974,-0.00341749,0.00188254,0.00232087,-0.00421014,-0.00118896,0.00039
 691,0.00024788,0.00056374,-0.00104154,-0.00004615,-0.00089413,0.000709
 87,-0.00000397,0.00076043,0.28419688,-0.00277177,-0.00134393,0.0026238
 4,-0.01705903,0.00557136,-0.01140606,0.00590129,-0.05907625,0.01586960
 ,0.01840446,0.00708182,0.01701179,-0.00482923,0.00635649,0.00827915,0.
 00032338,-0.00035388,0.00006196,-0.00070314,-0.00027781,-0.00067219,0.
 00074875,-0.00008848,-0.00025603,-0.00362408,0.04800918,0.00186229,0.0
 0207373,-0.00071770,0.01154082,0.00124146,0.01029738,-0.14417778,0.017
 52508,-0.16686311,-0.03090129,0.00244182,-0.01201637,0.00023783,0.0085
 9941,0.00122202,0.00051274,-0.00006197,-0.00003132,0.00050054,0.000019
 04,0.00035941,-0.00038155,-0.00082413,0.00052915,0.16018334,-0.0266182
 1,0.17058632,0.00036513,0.00083492,-0.00060859,0.00254810,-0.00269342,
 -0.00266347,0.00540704,0.00063461,-0.00423770,-0.26452719,-0.13365794,
 0.06102386,-0.01973304,-0.01911067,0.00965044,-0.00162840,0.00207252,-
 0.00307200,-0.00017161,0.00037930,0.00034899,0.00018109,0.00011224,-0.
 00009329,0.00018604,0.00261684,0.00213151,0.27663148,0.00070037,-0.000
 44995,-0.00017822,-0.00142611,0.00687054,0.00809257,-0.02107065,-0.002
 69679,0.00578917,-0.13232870,-0.14346283,0.05280435,0.00139870,0.00493
 637,0.00066559,0.00068001,0.00198424,0.00107646,0.00036852,-0.00101499
 ,-0.00057059,-0.00102620,-0.00055934,0.00021135,0.00285526,-0.00522112
 ,-0.00401114,0.14864064,0.13927992,0.00039768,-0.00020689,-0.00039968,
 -0.00446270,0.00720858,-0.00021271,0.02784847,0.02118863,-0.00302327,0
 .05958997,0.05015761,-0.08314392,-0.02065973,-0.01055983,0.00665114,-0
 .00300758,0.00248492,-0.00174857,0.00045340,-0.00075287,-0.00024781,0.
 00113964,0.00060620,-0.00034895,0.00161148,-0.00440433,-0.00193023,-0.
 06231658,-0.06327905,0.08347628,-0.00560900,-0.00317576,-0.00184372,0.
 00001134,-0.00085765,0.00219790,-0.00908051,-0.00194972,-0.00405794,0.
 00353862,0.02763058,-0.03603013,-0.13214734,0.00135266,-0.03109596,0.0
 0358384,-0.02611684,0.02306426,0.00032874,-0.00097090,0.00189450,0.000
 33136,0.00019405,0.00002040,0.00012760,0.00083815,-0.00154224,0.000919
 20,0.00131088,-0.00009365,0.64960866,-0.00254130,-0.00148512,0.0001194
 9,-0.00280132,-0.00128516,0.00049037,-0.00030823,0.00506821,-0.0051424
 3,0.00672864,0.00012026,0.01734394,-0.00223734,-0.32881212,0.26083426,
 -0.00513295,-0.01780775,0.02098080,0.00004880,-0.00030972,0.00118603,0
 .00011490,-0.00006119,0.00005852,0.00024756,-0.00011691,-0.00047722,-0
 .00005657,-0.00026930,-0.00215911,0.13553584,0.57512869,-0.00192659,-0
 .00003205,-0.00111490,0.00263417,0.00088726,0.00099913,-0.00543840,-0.
 00489838,0.00450691,-0.01394347,0.02933201,-0.02881642,-0.02663971,0.2
 6398403,-0.36520440,0.00157429,0.00898512,0.00252458,0.00018331,-0.000
 13277,0.00020222,0.00014783,0.00004888,-0.00010071,0.00005369,-0.00018
 483,-0.00084076,0.00074914,-0.00059953,0.00070802,0.15298616,-0.368458
 08,0.61332783,0.00055282,0.00013162,-0.00033778,-0.00012235,0.00009649
 ,0.00031808,0.00045522,-0.00001971,0.00006921,-0.00025229,0.00389776,0
 .00149532,0.00445042,0.00229676,-0.00439966,0.00198929,-0.00158109,-0.
 00294762,0.00009488,-0.00018448,-0.00015489,0.00003091,0.00000638,0.00
 004386,0.00012050,-0.00032824,-0.00007328,0.00047203,-0.00010439,0.000
 21313,-0.24508895,-0.15055108,0.04000067,0.25346978,-0.00204592,-0.000
 70965,-0.00075943,0.00055867,-0.00015630,-0.00018390,-0.00029934,-0.00
 010378,0.00024385,0.00099600,-0.00376108,-0.00603356,-0.02374894,-0.01
 136701,0.00609107,-0.00001087,0.00355407,0.00861005,-0.00002494,0.0000
 2364,0.00076211,0.00008989,0.00006373,0.00005043,-0.00014379,0.0004558
 7,0.00029904,0.00111270,0.00061237,0.00060934,-0.14440397,-0.16953335,
 0.04682121,0.16413159,0.17424067,0.00016618,0.00036402,0.00011882,0.00
 054068,-0.00010014,-0.00031070,-0.00046717,-0.00031077,0.00046088,0.00
 353587,-0.00415678,-0.00396739,0.02365159,0.02047914,0.00078693,-0.004
 19112,0.00588864,0.00252212,-0.00017426,0.00037407,-0.00004373,-0.0000
 8131,0.00001346,0.00001164,-0.00020711,0.00044991,0.00026686,-0.000786
 96,0.00030404,-0.00001699,0.03343142,0.04372146,-0.07018347,-0.0401867
 5,-0.05660119,0.06360058,-0.00004532,0.00007628,-0.00032306,0.00032032
 ,-0.00025131,-0.00004417,-0.00038997,-0.00000419,0.00020738,0.00257125
 ,-0.00317587,-0.00322300,0.00268943,-0.00445909,0.00079434,-0.00002208
 ,0.00130474,0.00292866,-0.00002762,0.00010197,0.00010625,0.00004518,0.
 00003540,-0.00000963,-0.00016311,0.00053523,0.00025919,0.00051092,0.00
 003184,0.00033091,-0.26766656,0.02000939,-0.14803432,-0.01626588,0.003
 43887,-0.01579305,0.27763072,0.00040175,-0.00000294,0.00026918,-0.0004
 4416,0.00053710,-0.00001718,0.00195654,0.00037024,0.00032188,-0.004844
 21,0.00313406,0.00850259,0.02225045,0.00458613,0.01783212,0.00243345,-
 0.00231010,-0.00428793,0.00005430,-0.00012921,-0.00028378,-0.00006544,
 -0.00002662,-0.00001316,0.00032102,-0.00106514,-0.00017133,0.00021845,
 -0.00019762,-0.00007024,0.01422556,-0.06272296,0.02539174,-0.01746914,
 0.00573558,-0.01138113,-0.01880399,0.05324271,0.00092781,0.00000035,-0
 .00021210,-0.00054843,0.00007126,0.00089934,-0.00118590,-0.00019324,-0
 .00087433,-0.00097489,0.00913339,0.00387222,-0.02771518,0.00353735,-0.
 01022891,0.00050364,-0.00364609,-0.00255787,0.00010463,-0.00015880,-0.
 00014447,0.00007280,0.00006490,-0.00000209,0.00040633,-0.00071931,-0.0
 0088434,-0.00009676,-0.00035294,-0.00001273,-0.14190925,0.02860254,-0.
 15698969,0.00604367,0.00068556,0.00725133,0.16309343,-0.03671780,0.159
 87055,0.00024539,-0.00137730,-0.00409764,0.00054487,0.00050994,-0.0003
 4151,0.00004487,0.00054014,0.00006151,-0.00106961,-0.00009576,0.001908
 52,-0.00095836,-0.02584957,-0.02004969,-0.05440704,0.00407234,0.005721
 09,-0.00006015,-0.00025781,-0.00011802,-0.00020530,0.00027809,0.000054
 32,0.00007582,-0.00018334,-0.00014434,-0.00017400,-0.00025916,-0.00041
 266,-0.00054300,0.00078742,-0.00040461,-0.00081385,0.00133447,0.001381
 69,0.00073779,-0.00083954,-0.00067971,0.05811628,0.00036334,0.01705835
 ,0.01426655,0.00134824,-0.00113179,0.00208854,-0.00165311,0.00018729,0
 .00059660,-0.00030008,-0.00122343,0.00039628,-0.00272427,-0.02110837,-
 0.01415320,0.00698669,-0.19026567,-0.13296506,-0.00007542,-0.00018209,
 -0.00116382,0.00075291,-0.00136058,-0.00063149,0.00004104,-0.00002769,
 -0.00006284,-0.00021425,-0.00012178,-0.00030836,-0.00253227,0.00144433
 ,0.00019509,-0.00063307,0.00104520,0.00144304,0.00086433,-0.00130318,-
 0.00065343,-0.00388119,0.21184226,-0.00264084,-0.02311541,-0.03268846,
 0.00258975,0.00330773,-0.00217996,0.00098688,-0.00151312,-0.00006202,-
 0.00022686,-0.00023678,-0.00041948,-0.00081056,0.00690688,0.00594656,0
 .00746497,-0.13754801,-0.18598496,0.00044051,0.00103271,0.00037832,-0.
 00151686,0.00215934,0.00080383,-0.00008688,-0.00001326,0.00000241,-0.0
 0005759,-0.00000685,0.00002526,0.00161780,0.00170481,0.00060659,0.0000
 0570,-0.00024931,-0.00013155,-0.00009241,-0.00007898,-0.00017000,-0.00
 862249,0.14531869,0.21066661,0.00070689,-0.00123614,-0.00235411,0.0016
 2777,0.00100142,0.00097641,-0.00000354,-0.00045491,0.00050030,-0.00218
 512,-0.00288696,0.00245084,-0.02668821,0.01149801,-0.00384950,-0.26965
 080,0.11811277,-0.01857789,0.00080887,0.00016578,-0.00051161,-0.000168
 93,0.00008320,-0.00003387,-0.00004850,0.00013073,-0.00000778,-0.000986
 79,0.00022899,-0.00063177,0.00168600,0.00015624,-0.00194215,0.00090747
 ,-0.00098442,-0.00081968,0.00007492,0.00060498,0.00195783,-0.00153372,
 0.00165710,0.00094887,0.29545367,0.01474746,-0.00753977,0.00144961,-0.
 00034768,-0.00138600,0.00238674,-0.00052943,-0.00083566,-0.00013427,-0
 .00270513,-0.00312323,0.00096967,-0.02671920,0.01120212,-0.00178934,0.
 12013572,-0.12165688,0.01468148,-0.00051382,0.00026963,0.00014825,0.00
 011736,0.00082776,0.00067228,0.00003324,0.00009647,0.00002723,-0.00088
 937,0.00031027,-0.00051461,-0.00108062,0.00064208,-0.00133970,0.000310
 61,-0.00009996,-0.00048776,0.00029640,0.00015194,0.00034626,0.02522127
 ,-0.01485284,0.00233155,-0.12807681,0.13599406,-0.03688656,0.01917380,
 -0.00625026,0.00272183,0.00306494,-0.00483091,-0.00000769,0.00084174,0
 .00106106,0.00006945,0.00038396,-0.00035149,0.00438604,-0.00368227,-0.
 00028186,-0.01953143,0.01441058,-0.05648799,0.00079040,-0.00077008,0.0
 0113434,-0.00022016,-0.00189478,-0.00179248,-0.00005880,-0.00002203,0.
 00002029,0.00002901,0.00005479,0.00022416,0.00136045,0.00119461,0.0003
 7505,-0.00008965,-0.00034528,-0.00036532,-0.00020052,0.00070402,0.0001
 8308,0.02574354,-0.01436659,0.00320689,0.02189410,-0.01874740,0.064155
 42\\-0.00000142,0.00001405,-0.00001305,0.00000292,-0.00000726,0.000005
 84,-0.00000089,0.00001127,0.00000846,-0.00000224,-0.00000619,-0.000005
 95,-0.00001269,0.00001048,0.00001897,0.00000974,-0.00000726,-0.0000006
 6,-0.00000030,-0.00000359,0.00000128,0.00000013,0.00000083,-0.00000326
 ,0.00000401,-0.00000296,-0.00000516,0.00000103,-0.00000126,0.00000198,
 0.00000911,-0.00000978,-0.00000774,-0.00000127,-0.00000088,-0.00000011
 ,-0.00000286,0.00000506,0.00000178,-0.00000333,-0.00000171,0.00000054,
 -0.00000193,-0.00000080,-0.00000292\\\@


 YOU SHOULDN'T LET PEOPLE DRIVE YOU CRAZY
 WHEN YOU KNOW IT'S WITHIN WALKING DISTANCE.
 Job cpu time:       0 days  0 hours  1 minutes 50.6 seconds.
 Elapsed time:       0 days  0 hours  0 minutes  5.6 seconds.
 File lengths (MBytes):  RWF=     18 Int=      0 D2E=      0 Chk=      2 Scr=      1
 Normal termination of Gaussian 16 at Tue Jun 10 01:14:15 2025.
