 Entering Gaussian System, Link 0=g16
 Input=/home/gaussian/Documents/program files/Aromaticity/Methylbenzene/vibration/toluene.com
 Output=/home/gaussian/Documents/program files/Aromaticity/Methylbenzene/vibration/toluene.log
 Initial command:
 /usr/local/g16/l1.exe "/home/gaussian/tmp/Gau-137006.inp" -scrdir="/home/gaussian/tmp/"
 Entering Link 1 = /usr/local/g16/l1.exe PID=    137009.
  
 Copyright (c) 1988-2017, Gaussian, Inc.  All Rights Reserved.
  
 This is part of the Gaussian(R) 16 program.  It is based on
 the Gaussian(R) 09 system (copyright 2009, Gaussian, Inc.),
 the Gaussian(R) 03 system (copyright 2003, Gaussian, Inc.),
 the Gaussian(R) 98 system (copyright 1998, Gaussian, Inc.),
 the Gaussian(R) 94 system (copyright 1995, Gaussian, Inc.),
 the Gaussian 92(TM) system (copyright 1992, Gaussian, Inc.),
 the Gaussian 90(TM) system (copyright 1990, Gaussian, Inc.),
 the Gaussian 88(TM) system (copyright 1988, Gaussian, Inc.),
 the Gaussian 86(TM) system (copyright 1986, Carnegie Mellon
 University), and the Gaussian 82(TM) system (copyright 1983,
 Carnegie Mellon University). Gaussian is a federally registered
 trademark of Gaussian, Inc.
  
 This software contains proprietary and confidential information,
 including trade secrets, belonging to Gaussian, Inc.
  
 This software is provided under written license and may be
 used, copied, transmitted, or stored only in accord with that
 written license.
  
 The following legend is applicable only to US Government
 contracts under FAR:
  
                    RESTRICTED RIGHTS LEGEND
  
 Use, reproduction and disclosure by the US Government is
 subject to restrictions as set forth in subparagraphs (a)
 and (c) of the Commercial Computer Software - Restricted
 Rights clause in FAR 52.227-19.
  
 Gaussian, Inc.
 340 Quinnipiac St., Bldg. 40, Wallingford CT 06492
  
  
 ---------------------------------------------------------------
 Warning -- This program may not be used in any manner that
 competes with the business of Gaussian, Inc. or will provide
 assistance to any competitor of Gaussian, Inc.  The licensee
 of this program is prohibited from giving any competitor of
 Gaussian, Inc. access to this program.  By using this program,
 the user acknowledges that Gaussian, Inc. is engaged in the
 business of creating and licensing software in the field of
 computational chemistry and represents and warrants to the
 licensee that it is not a competitor of Gaussian, Inc. and that
 it will not use this program in any manner prohibited above.
 ---------------------------------------------------------------
  

 Cite this work as:
 Gaussian 16, Revision B.01,
 M. J. Frisch, G. W. Trucks, H. B. Schlegel, G. E. Scuseria, 
 M. A. Robb, J. R. Cheeseman, G. Scalmani, V. Barone, 
 G. A. Petersson, H. Nakatsuji, X. Li, M. Caricato, A. V. Marenich, 
 J. Bloino, B. G. Janesko, R. Gomperts, B. Mennucci, H. P. Hratchian, 
 J. V. Ortiz, A. F. Izmaylov, J. L. Sonnenberg, D. Williams-Young, 
 F. Ding, F. Lipparini, F. Egidi, J. Goings, B. Peng, A. Petrone, 
 T. Henderson, D. Ranasinghe, V. G. Zakrzewski, J. Gao, N. Rega, 
 G. Zheng, W. Liang, M. Hada, M. Ehara, K. Toyota, R. Fukuda, 
 J. Hasegawa, M. Ishida, T. Nakajima, Y. Honda, O. Kitao, H. Nakai, 
 T. Vreven, K. Throssell, J. A. Montgomery, Jr., J. E. Peralta, 
 F. Ogliaro, M. J. Bearpark, J. J. Heyd, E. N. Brothers, K. N. Kudin, 
 V. N. Staroverov, T. A. Keith, R. Kobayashi, J. Normand, 
 K. Raghavachari, A. P. Rendell, J. C. Burant, S. S. Iyengar, 
 J. Tomasi, M. Cossi, J. M. Millam, M. Klene, C. Adamo, R. Cammi, 
 J. W. Ochterski, R. L. Martin, K. Morokuma, O. Farkas, 
 J. B. Foresman, and D. J. Fox, Gaussian, Inc., Wallingford CT, 2016.
 
 ******************************************
 Gaussian 16:  EM64L-G16RevB.01 20-Dec-2017
                12-Jun-2025 
 ******************************************
 %chk=toluene.chk
 ----------------------------------------------
 # opt freq hf/3-21g pop=full geom=connectivity
 ----------------------------------------------
 1/18=20,19=15,38=1,57=2/1,3;
 2/9=110,12=2,17=6,18=5,40=1/2;
 3/5=5,11=9,25=1,30=1,71=1/1,2,3;
 4//1;
 5/5=2,38=5/2;
 6/7=3,28=1/1;
 7//1,2,3,16;
 1/18=20,19=15/3(2);
 2/9=110/2;
 99//99;
 2/9=110/2;
 3/5=5,11=9,25=1,30=1,71=1/1,2,3;
 4/5=5,16=3,69=1/1;
 5/5=2,38=5/2;
 7//1,2,3,16;
 1/18=20,19=15/3(-5);
 2/9=110/2;
 6/7=3,19=2,28=1/1;
 99/9=1/99;
 ------------
 optimisation
 ------------
 Symbolic Z-matrix:
 Charge =  0 Multiplicity = 1
 C                    -1.88981  -0.00045   0.00681 
 C                    -1.18937  -1.19543   0.00674 
 C                     0.19187  -1.19309  -0.00016 
 C                     0.89991   0.00317  -0.01039 
 C                     0.19111   1.1936   -0.01265 
 C                    -1.19545   1.19482  -0.00326 
 H                    -2.9618   -0.00092   0.01212 
 H                    -1.72057  -2.12701   0.01269 
 H                     0.72796  -2.12171  -0.00214 
 H                     0.7213    2.12768  -0.02466 
 H                    -1.72728   2.12604  -0.00733 
 C                     2.41725  -0.00236   0.00849 
 H                     2.78237  -0.17378   1.02578 
 H                     2.80989  -0.79447  -0.63387 
 H                     2.81512   0.9527   -0.34105 
 

 GradGradGradGradGradGradGradGradGradGradGradGradGradGradGradGradGradGrad
 Berny optimization.
 Initialization pass.
                           ----------------------------
                           !    Initial Parameters    !
                           ! (Angstroms and Degrees)  !
 --------------------------                            --------------------------
 ! Name  Definition              Value          Derivative Info.                !
 --------------------------------------------------------------------------------
 ! R1    R(1,2)                  1.3851         estimate D2E/DX2                !
 ! R2    R(1,6)                  1.3824         estimate D2E/DX2                !
 ! R3    R(1,7)                  1.072          estimate D2E/DX2                !
 ! R4    R(2,3)                  1.3813         estimate D2E/DX2                !
 ! R5    R(2,8)                  1.0724         estimate D2E/DX2                !
 ! R6    R(3,4)                  1.3901         estimate D2E/DX2                !
 ! R7    R(3,9)                  1.0723         estimate D2E/DX2                !
 ! R8    R(4,5)                  1.3855         estimate D2E/DX2                !
 ! R9    R(4,12)                 1.5175         estimate D2E/DX2                !
 ! R10   R(5,6)                  1.3866         estimate D2E/DX2                !
 ! R11   R(5,10)                 1.0741         estimate D2E/DX2                !
 ! R12   R(6,11)                 1.0724         estimate D2E/DX2                !
 ! R13   R(12,13)                1.0943         estimate D2E/DX2                !
 ! R14   R(12,14)                1.0928         estimate D2E/DX2                !
 ! R15   R(12,15)                1.0921         estimate D2E/DX2                !
 ! A1    A(2,1,6)              119.4689         estimate D2E/DX2                !
 ! A2    A(2,1,7)              120.3511         estimate D2E/DX2                !
 ! A3    A(6,1,7)              120.1798         estimate D2E/DX2                !
 ! A4    A(1,2,3)              120.2793         estimate D2E/DX2                !
 ! A5    A(1,2,8)              119.9302         estimate D2E/DX2                !
 ! A6    A(3,2,8)              119.7905         estimate D2E/DX2                !
 ! A7    A(2,3,4)              120.7186         estimate D2E/DX2                !
 ! A8    A(2,3,9)              119.901          estimate D2E/DX2                !
 ! A9    A(4,3,9)              119.3798         estimate D2E/DX2                !
 ! A10   A(3,4,5)              118.609          estimate D2E/DX2                !
 ! A11   A(3,4,12)             120.4023         estimate D2E/DX2                !
 ! A12   A(5,4,12)             120.9776         estimate D2E/DX2                !
 ! A13   A(4,5,6)              120.8193         estimate D2E/DX2                !
 ! A14   A(4,5,10)             119.6492         estimate D2E/DX2                !
 ! A15   A(6,5,10)             119.5313         estimate D2E/DX2                !
 ! A16   A(1,6,5)              120.1046         estimate D2E/DX2                !
 ! A17   A(1,6,11)             120.1163         estimate D2E/DX2                !
 ! A18   A(5,6,11)             119.7787         estimate D2E/DX2                !
 ! A19   A(4,12,13)            110.2274         estimate D2E/DX2                !
 ! A20   A(4,12,14)            110.7679         estimate D2E/DX2                !
 ! A21   A(4,12,15)            110.9241         estimate D2E/DX2                !
 ! A22   A(13,12,14)           108.2405         estimate D2E/DX2                !
 ! A23   A(13,12,15)           108.2387         estimate D2E/DX2                !
 ! A24   A(14,12,15)           108.3526         estimate D2E/DX2                !
 ! D1    D(6,1,2,3)              0.1513         estimate D2E/DX2                !
 ! D2    D(6,1,2,8)           -179.8878         estimate D2E/DX2                !
 ! D3    D(7,1,2,3)            179.9978         estimate D2E/DX2                !
 ! D4    D(7,1,2,8)             -0.0413         estimate D2E/DX2                !
 ! D5    D(2,1,6,5)             -0.0322         estimate D2E/DX2                !
 ! D6    D(2,1,6,11)           179.7515         estimate D2E/DX2                !
 ! D7    D(7,1,6,5)           -179.8791         estimate D2E/DX2                !
 ! D8    D(7,1,6,11)            -0.0953         estimate D2E/DX2                !
 ! D9    D(1,2,3,4)             -0.1572         estimate D2E/DX2                !
 ! D10   D(1,2,3,9)           -179.8781         estimate D2E/DX2                !
 ! D11   D(8,2,3,4)            179.8818         estimate D2E/DX2                !
 ! D12   D(8,2,3,9)              0.1609         estimate D2E/DX2                !
 ! D13   D(2,3,4,5)              0.0419         estimate D2E/DX2                !
 ! D14   D(2,3,4,12)           178.8439         estimate D2E/DX2                !
 ! D15   D(9,3,4,5)            179.7643         estimate D2E/DX2                !
 ! D16   D(9,3,4,12)            -1.4337         estimate D2E/DX2                !
 ! D17   D(3,4,5,6)              0.0778         estimate D2E/DX2                !
 ! D18   D(3,4,5,10)          -179.7459         estimate D2E/DX2                !
 ! D19   D(12,4,5,6)          -178.717          estimate D2E/DX2                !
 ! D20   D(12,4,5,10)            1.4593         estimate D2E/DX2                !
 ! D21   D(3,4,12,13)          -79.5576         estimate D2E/DX2                !
 ! D22   D(3,4,12,14)           40.2106         estimate D2E/DX2                !
 ! D23   D(3,4,12,15)          160.576          estimate D2E/DX2                !
 ! D24   D(5,4,12,13)           99.2157         estimate D2E/DX2                !
 ! D25   D(5,4,12,14)         -141.0161         estimate D2E/DX2                !
 ! D26   D(5,4,12,15)          -20.6507         estimate D2E/DX2                !
 ! D27   D(4,5,6,1)             -0.083          estimate D2E/DX2                !
 ! D28   D(4,5,6,11)          -179.8675         estimate D2E/DX2                !
 ! D29   D(10,5,6,1)           179.7409         estimate D2E/DX2                !
 ! D30   D(10,5,6,11)           -0.0436         estimate D2E/DX2                !
 --------------------------------------------------------------------------------
 Trust Radius=3.00D-01 FncErr=1.00D-07 GrdErr=1.00D-07 EigMax=2.50D+02 EigMin=1.00D-04
 Number of steps in this run=     79 maximum allowed number of steps=    100.
 GradGradGradGradGradGradGradGradGradGradGradGradGradGradGradGradGradGrad

                          Input orientation:                          
 ---------------------------------------------------------------------
 Center     Atomic      Atomic             Coordinates (Angstroms)
 Number     Number       Type             X           Y           Z
 ---------------------------------------------------------------------
      1          6           0       -1.889813   -0.000451    0.006806
      2          6           0       -1.189372   -1.195432    0.006738
      3          6           0        0.191870   -1.193092   -0.000155
      4          6           0        0.899912    0.003167   -0.010392
      5          6           0        0.191107    1.193595   -0.012649
      6          6           0       -1.195452    1.194815   -0.003258
      7          1           0       -2.961803   -0.000924    0.012117
      8          1           0       -1.720574   -2.127012    0.012690
      9          1           0        0.727964   -2.121712   -0.002144
     10          1           0        0.721296    2.127676   -0.024656
     11          1           0       -1.727280    2.126037   -0.007330
     12          6           0        2.417252   -0.002355    0.008488
     13          1           0        2.782367   -0.173780    1.025783
     14          1           0        2.809886   -0.794467   -0.633873
     15          1           0        2.815119    0.952697   -0.341050
 ---------------------------------------------------------------------
                    Distance matrix (angstroms):
                    1          2          3          4          5
     1  C    0.000000
     2  C    1.385134   0.000000
     3  C    2.399134   1.381261   0.000000
     4  C    2.789780   2.408743   1.390131   0.000000
     5  C    2.399240   2.759266   2.386720   1.385470   0.000000
     6  C    1.382353   2.390276   2.761661   2.410524   1.386591
     7  H    1.072003   2.137379   3.371508   3.861783   3.371695
     8  H    2.133293   1.072405   2.128336   3.377150   3.831657
     9  H    3.369360   2.129378   1.072257   2.131841   3.358510
    10  H    3.368650   3.833365   3.362795   2.132052   1.074128
    11  H    2.132737   3.364773   3.834033   3.377680   2.132999
    12  C    4.307066   3.798838   2.523936   1.517468   2.527146
    13  H    4.785146   4.225747   2.966854   2.156063   3.108486
    14  H    4.809169   4.070039   2.722959   2.161701   3.346089
    15  H    4.813095   4.557561   3.406179   2.163090   2.655432
                    6          7          8          9         10
     6  C    0.000000
     7  H    2.133079   0.000000
     8  H    3.363115   2.461890   0.000000
     9  H    3.833912   4.255858   2.448589   0.000000
    10  H    2.131809   4.254117   4.905761   4.249453   0.000000
    11  H    1.072395   2.459347   4.253101   4.906284   2.448638
    12  C    3.805914   5.379056   4.651429   2.710255   2.722939
    13  H    4.330707   5.835485   5.011781   3.011917   3.263148
    14  H    4.516376   5.861690   4.766423   2.548541   3.643113
    15  H    4.032047   5.865744   5.493838   3.731362   2.421730
                   11         12         13         14         15
    11  H    0.000000
    12  C    4.659125   0.000000
    13  H    5.166565   1.094342   0.000000
    14  H    5.432106   1.092809   1.772136   0.000000
    15  H    4.703348   1.092062   1.771512   1.771540   0.000000
 Stoichiometry    C7H8
 Framework group  C1[X(C7H8)]
 Deg. of freedom    39
 Full point group                 C1      NOp   1
 Largest Abelian subgroup         C1      NOp   1
 Largest concise Abelian subgroup C1      NOp   1
                         Standard orientation:                         
 ---------------------------------------------------------------------
 Center     Atomic      Atomic             Coordinates (Angstroms)
 Number     Number       Type             X           Y           Z
 ---------------------------------------------------------------------
      1          6           0       -1.889810   -0.003504    0.006478
      2          6           0       -1.187333   -1.197275    0.000672
      3          6           0        0.193903   -1.192547   -0.006191
      4          6           0        0.899905    0.004953   -0.010663
      5          6           0        0.189072    1.194168   -0.007204
      6          6           0       -1.197487    1.192979    0.002174
      7          1           0       -2.961798   -0.005830    0.011772
      8          1           0       -1.716946   -2.129777    0.002135
      9          1           0        0.731580   -2.120232   -0.012640
     10          1           0        0.717668    2.129198   -0.014710
     11          1           0       -1.730902    2.123302    0.002574
     12          6           0        2.417252    0.001926    0.008211
     13          1           0        2.782653   -0.173768    1.024674
     14          1           0        2.811240   -0.786416   -0.637948
     15          1           0        2.813492    0.959326   -0.336723
 ---------------------------------------------------------------------
 Rotational constants (GHZ):           5.6252124           2.5422396           1.7703976
 Standard basis: 3-21G (6D, 7F)
 There are    79 symmetry adapted cartesian basis functions of A   symmetry.
 There are    79 symmetry adapted basis functions of A   symmetry.
    79 basis functions,   129 primitive gaussians,    79 cartesian basis functions
    25 alpha electrons       25 beta electrons
       nuclear repulsion energy       270.7344102179 Hartrees.
 NAtoms=   15 NActive=   15 NUniq=   15 SFac= 1.00D+00 NAtFMM=   60 NAOKFM=F Big=F
 Integral buffers will be    131072 words long.
 Raffenetti 1 integral format.
 Two-electron integral symmetry is turned on.
 One-electron integrals computed using PRISM.
 NBasis=    79 RedAO= T EigKep=  1.50D-03  NBF=    79
 NBsUse=    79 1.00D-06 EigRej= -1.00D+00 NBFU=    79
 ExpMin= 1.83D-01 ExpMax= 1.72D+02 ExpMxC= 1.72D+02 IAcc=3 IRadAn=         5 AccDes= 0.00D+00
 Harris functional with IExCor=  205 and IRadAn=       5 diagonalized for initial guess.
 HarFok:  IExCor=  205 AccDes= 0.00D+00 IRadAn=         5 IDoV= 1 UseB2=F ITyADJ=14
 ICtDFT=  3500011 ScaDFX=  1.000000  1.000000  1.000000  1.000000
 FoFCou: FMM=F IPFlag=           0 FMFlag=      100000 FMFlg1=           0
         NFxFlg=           0 DoJE=T BraDBF=F KetDBF=T FulRan=T
         wScrn=  0.000000 ICntrl=       500 IOpCl=  0 I1Cent=   200000004 NGrid=           0
         NMat0=    1 NMatS0=      1 NMatT0=    0 NMatD0=    1 NMtDS0=    0 NMtDT0=    0
 Petite list used in FoFCou.
 Keep R1 ints in memory in canonical form, NReq=5830665.
 Requested convergence on RMS density matrix=1.00D-08 within 128 cycles.
 Requested convergence on MAX density matrix=1.00D-06.
 Requested convergence on             energy=1.00D-06.
 No special actions if energy rises.
 SCF Done:  E(RHF) =  -268.240038545     A.U. after   12 cycles
            NFock= 12  Conv=0.77D-08     -V/T= 2.0018

 **********************************************************************

            Population analysis using the SCF Density.

 **********************************************************************

 Orbital symmetries:
       Occupied  (A) (A) (A) (A) (A) (A) (A) (A) (A) (A) (A) (A)
                 (A) (A) (A) (A) (A) (A) (A) (A) (A) (A) (A) (A)
                 (A)
       Virtual   (A) (A) (A) (A) (A) (A) (A) (A) (A) (A) (A) (A)
                 (A) (A) (A) (A) (A) (A) (A) (A) (A) (A) (A) (A)
                 (A) (A) (A) (A) (A) (A) (A) (A) (A) (A) (A) (A)
                 (A) (A) (A) (A) (A) (A) (A) (A) (A) (A) (A) (A)
                 (A) (A) (A) (A) (A) (A)
 The electronic state is 1-A.
 Alpha  occ. eigenvalues --  -11.18466 -11.17310 -11.17303 -11.16996 -11.16963
 Alpha  occ. eigenvalues --  -11.16932 -11.16569  -1.15885  -1.04468  -1.01361
 Alpha  occ. eigenvalues --   -0.93397  -0.82738  -0.79986  -0.70194  -0.63867
 Alpha  occ. eigenvalues --   -0.62774  -0.58877  -0.57656  -0.56870  -0.53817
 Alpha  occ. eigenvalues --   -0.49341  -0.48348  -0.48163  -0.33691  -0.32627
 Alpha virt. eigenvalues --    0.15138   0.15503   0.26217   0.29765   0.31321
 Alpha virt. eigenvalues --    0.33168   0.34803   0.35426   0.37945   0.38184
 Alpha virt. eigenvalues --    0.40720   0.44128   0.51631   0.53343   0.54327
 Alpha virt. eigenvalues --    0.57020   0.77598   0.83274   0.89267   0.91471
 Alpha virt. eigenvalues --    0.94451   0.98341   0.98900   0.99133   1.04946
 Alpha virt. eigenvalues --    1.05613   1.08750   1.09210   1.10820   1.12270
 Alpha virt. eigenvalues --    1.15248   1.19235   1.21486   1.21967   1.29702
 Alpha virt. eigenvalues --    1.32011   1.33975   1.36139   1.36873   1.42106
 Alpha virt. eigenvalues --    1.43939   1.45937   1.56615   1.60227   1.62227
 Alpha virt. eigenvalues --    1.72800   1.76332   1.80335   1.82356   1.88518
 Alpha virt. eigenvalues --    2.16516   2.19975   2.23163   2.78177
     Molecular Orbital Coefficients:
                           1         2         3         4         5
                           O         O         O         O         O
     Eigenvalues --   -11.18466 -11.17310 -11.17303 -11.16996 -11.16963
   1 1   C  1S         -0.00512  -0.01683  -0.08833   0.96374   0.14425
   2        2S         -0.00137  -0.00303  -0.01513   0.09697   0.01446
   3        2PX        -0.00027  -0.00037  -0.00178   0.00137  -0.00031
   4        2PY         0.00001  -0.00137   0.00026   0.00009  -0.00106
   5        2PZ         0.00000   0.00000   0.00001  -0.00002   0.00000
   6        3S          0.01182   0.01341   0.06376  -0.08537  -0.02157
   7        3PX         0.00697   0.00707   0.03406  -0.02120  -0.00905
   8        3PY         0.00018   0.01448  -0.00286  -0.00023   0.00097
   9        3PZ        -0.00005  -0.00004  -0.00021   0.00016   0.00005
  10 2   C  1S         -0.00371  -0.54047   0.82174   0.05367   0.01653
  11        2S         -0.00017  -0.05443   0.08400   0.00167   0.00131
  12        2PX        -0.00074  -0.00006   0.00085   0.00053   0.00035
  13        2PY        -0.00007  -0.00143   0.00064  -0.00142  -0.00039
  14        2PZ         0.00000   0.00000  -0.00000  -0.00001  -0.00000
  15        3S         -0.00969   0.03888  -0.09445   0.02655   0.00583
  16        3PX        -0.00205   0.00252  -0.01562  -0.00174  -0.00117
  17        3PY        -0.00746   0.00566  -0.02689   0.01967   0.00579
  18        3PZ         0.00001  -0.00001   0.00002   0.00003   0.00003
  19 3   C  1S         -0.01225   0.01080  -0.05658  -0.08974  -0.28350
  20        2S         -0.00517   0.00275  -0.01018  -0.00911  -0.02879
  21        2PX        -0.00057  -0.00073   0.00147   0.00119   0.00008
  22        2PY        -0.00146   0.00002  -0.00064  -0.00013  -0.00125
  23        2PZ         0.00001  -0.00001  -0.00001  -0.00001   0.00001
  24        3S          0.03299  -0.01217   0.04854  -0.00132   0.01452
  25        3PX         0.00292   0.00629  -0.02052   0.00068   0.00390
  26        3PY         0.01904  -0.00155   0.01846  -0.00465  -0.00113
  27        3PZ        -0.00005  -0.00000   0.00015  -0.00001  -0.00005
  28 4   C  1S          0.98730   0.00061   0.00368   0.00195   0.00844
  29        2S          0.10055   0.00033   0.00153   0.00042  -0.00201
  30        2PX        -0.00046   0.00013   0.00064   0.00020   0.00125
  31        2PY         0.00007  -0.00074   0.00015   0.00014  -0.00175
  32        2PZ         0.00005  -0.00000   0.00001  -0.00000   0.00000
  33        3S         -0.09689  -0.00602  -0.02789   0.00119   0.02480
  34        3PX         0.01323   0.00352   0.01601  -0.00306  -0.01936
  35        3PY        -0.00119  -0.00239   0.00073  -0.00137   0.01785
  36        3PZ         0.00002  -0.00003  -0.00023   0.00002   0.00002
  37 5   C  1S         -0.01225  -0.03671  -0.05247  -0.18025   0.93240
  38        2S         -0.00530  -0.00696  -0.00867  -0.01825   0.09428
  39        2PX        -0.00058   0.00120   0.00101   0.00121  -0.00035
  40        2PY         0.00151   0.00028   0.00059   0.00032  -0.00126
  41        2PZ         0.00001  -0.00000  -0.00001  -0.00001   0.00000
  42        3S          0.03451   0.03068   0.03945   0.00632  -0.08950
  43        3PX         0.00375  -0.01376  -0.01612   0.00033   0.00916
  44        3PY        -0.01998  -0.00901  -0.01620   0.00305   0.02208
  45        3PZ        -0.00005   0.00008   0.00018  -0.00001  -0.00005
  46 6   C  1S         -0.00352   0.82507   0.53510   0.04778   0.05816
  47        2S         -0.00012   0.08357   0.05503   0.00135   0.00126
  48        2PX        -0.00075   0.00040   0.00075   0.00063  -0.00120
  49        2PY         0.00004  -0.00156  -0.00001   0.00144   0.00067
  50        2PZ         0.00000  -0.00001  -0.00000  -0.00001   0.00000
  51        3S         -0.00972  -0.07334  -0.07077   0.02491   0.03345
  52        3PX        -0.00192  -0.00853  -0.01335  -0.00292   0.01688
  53        3PY         0.00793   0.01599   0.02229  -0.01916  -0.01413
  54        3PZ         0.00002   0.00008   0.00006   0.00003  -0.00010
  55 7   H  1S          0.00016   0.00007   0.00040  -0.00234  -0.00070
  56        2S          0.00175   0.00151   0.00719   0.00626   0.00021
  57 8   H  1S         -0.00046   0.00099  -0.00237  -0.00015   0.00013
  58        2S         -0.00113  -0.00417   0.00297   0.00463   0.00149
  59 9   H  1S         -0.00037   0.00023   0.00042  -0.00018   0.00007
  60        2S          0.00269  -0.00061   0.00547  -0.00136  -0.00353
  61 10  H  1S         -0.00042  -0.00004   0.00050  -0.00001  -0.00229
  62        2S          0.00287   0.00274   0.00463  -0.00200   0.00554
  63 11  H  1S         -0.00050  -0.00187  -0.00177  -0.00012  -0.00008
  64        2S         -0.00127   0.00502   0.00104   0.00431   0.00573
  65 12  C  1S         -0.00494  -0.00182  -0.01125   0.00064  -0.02108
  66        2S         -0.00187  -0.00033  -0.00202  -0.00005  -0.00301
  67        2PX         0.00037   0.00009   0.00043  -0.00015   0.00000
  68        2PY        -0.00020  -0.00020   0.00009   0.00002  -0.00025
  69        2PZ         0.00033  -0.00001  -0.00006   0.00001  -0.00001
  70        3S          0.01156  -0.00037  -0.00073   0.00181   0.00889
  71        3PX        -0.00845  -0.00002  -0.00030  -0.00074  -0.00347
  72        3PY         0.00138   0.00180  -0.00073   0.00019  -0.00220
  73        3PZ        -0.00190   0.00009   0.00052  -0.00009  -0.00004
  74 13  H  1S         -0.00116   0.00003  -0.00019  -0.00005  -0.00029
  75        2S          0.00338   0.00003  -0.00043  -0.00000  -0.00042
  76 14  H  1S         -0.00087   0.00023  -0.00022  -0.00004  -0.00042
  77        2S          0.00077   0.00037   0.00009  -0.00008  -0.00051
  78 15  H  1S         -0.00082  -0.00033  -0.00009  -0.00006  -0.00005
  79        2S         -0.00081  -0.00025   0.00059  -0.00013  -0.00011
                           6         7         8         9        10
                           O         O         O         O         O
     Eigenvalues --   -11.16932 -11.16569  -1.15885  -1.04468  -1.01361
   1 1   C  1S          0.13058   0.00619  -0.09079   0.11786   0.00108
   2        2S          0.01312   0.00046   0.10160  -0.12763  -0.00118
   3        2PX        -0.00072  -0.00020   0.05740  -0.03744   0.00011
   4        2PY         0.00059   0.00001   0.00035  -0.00067  -0.10239
   5        2PZ         0.00000  -0.00001  -0.00042   0.00034  -0.00003
   6        3S         -0.02783  -0.00200   0.17193  -0.25646  -0.00243
   7        3PX        -0.01383  -0.00203   0.01668  -0.00715   0.00007
   8        3PY        -0.00059  -0.00043   0.00035   0.00053  -0.00935
   9        3PZ         0.00009   0.00014  -0.00026  -0.00010  -0.00004
  10 2   C  1S          0.06449   0.01084  -0.09252   0.07330  -0.11844
  11        2S          0.00128   0.00008   0.10492  -0.07800   0.12723
  12        2PX        -0.00135  -0.00039   0.03056   0.04050   0.05833
  13        2PY        -0.00084  -0.00016   0.04896  -0.05030  -0.00563
  14        2PZ         0.00000   0.00004  -0.00011  -0.00032  -0.00028
  15        3S          0.04081   0.00476   0.15819  -0.17821   0.27711
  16        3PX         0.01974   0.00402  -0.00070  -0.01125   0.00988
  17        3PY         0.01795   0.00176   0.00548  -0.01401   0.00697
  18        3PZ        -0.00009  -0.00023   0.00021   0.00036  -0.00000
  19 3   C  1S          0.93926   0.02801  -0.09831  -0.03537  -0.11944
  20        2S          0.09496   0.00216   0.10972   0.03776   0.12800
  21        2PX        -0.00054  -0.00085  -0.02348   0.07584  -0.05659
  22        2PY         0.00074  -0.00024   0.05303   0.04045  -0.00576
  23        2PZ         0.00000  -0.00008   0.00020  -0.00015   0.00017
  24        3S         -0.09700  -0.00227   0.19100   0.08880   0.27615
  25        3PX         0.01371   0.00348  -0.01584  -0.00640  -0.01027
  26        3PY        -0.02612   0.00248   0.01662   0.00620   0.00545
  27        3PZ        -0.00001   0.00032  -0.00030  -0.00056  -0.00002
  28 4   C  1S          0.01488   0.00532  -0.10779  -0.12253   0.00058
  29        2S         -0.00355  -0.00120   0.11933   0.13111  -0.00069
  30        2PX         0.00216  -0.00067  -0.05129   0.03203   0.00054
  31        2PY         0.00095  -0.00012   0.00013   0.00057  -0.10553
  32        2PZ         0.00000   0.00007   0.00072   0.00106   0.00002
  33        3S          0.04394   0.01745   0.20072   0.26981  -0.00143
  34        3PX        -0.03410   0.01661   0.00809   0.00386   0.00033
  35        3PY        -0.00996   0.00136  -0.00067  -0.00198  -0.01711
  36        3PZ         0.00005  -0.00017   0.00077   0.00089   0.00004
  37 5   C  1S          0.26070   0.02882  -0.09791  -0.03618   0.11877
  38        2S          0.02625   0.00219   0.10933   0.03870  -0.12729
  39        2PX        -0.00031  -0.00078  -0.02219   0.07589   0.05496
  40        2PY         0.00066   0.00020  -0.05363  -0.04056  -0.00448
  41        2PZ         0.00001  -0.00009   0.00031  -0.00014  -0.00029
  42        3S         -0.03891  -0.00257   0.19018   0.09049  -0.27431
  43        3PX         0.01044   0.00162  -0.01460  -0.00290   0.01015
  44        3PY         0.01451  -0.00130  -0.01705  -0.00762   0.00531
  45        3PZ        -0.00008   0.00034  -0.00022  -0.00054  -0.00011
  46 6   C  1S          0.04413   0.01026  -0.09199   0.07345   0.11836
  47        2S          0.00163   0.00009   0.10425  -0.07832  -0.12708
  48        2PX        -0.00044  -0.00039   0.02989   0.04075  -0.05607
  49        2PY         0.00067   0.00017  -0.04914   0.05107  -0.00445
  50        2PZ        -0.00000   0.00004  -0.00026  -0.00021   0.00047
  51        3S          0.02489   0.00394   0.15776  -0.17667  -0.27701
  52        3PX         0.00963   0.00293  -0.00000  -0.00918  -0.00970
  53        3PY        -0.01315  -0.00236  -0.00532   0.01475   0.00748
  54        3PZ        -0.00004  -0.00023   0.00012   0.00044   0.00019
  55 7   H  1S         -0.00097  -0.00026   0.03111  -0.05585  -0.00058
  56        2S         -0.00058  -0.00023  -0.00362  -0.00621  -0.00005
  57 8   H  1S          0.00002  -0.00001   0.03166  -0.03465   0.06331
  58        2S          0.00706   0.00144  -0.00696  -0.00746   0.01267
  59 9   H  1S         -0.00266  -0.00020   0.03516   0.02282   0.06413
  60        2S          0.00451   0.00085  -0.00072   0.00848   0.01279
  61 10  H  1S         -0.00134  -0.00003   0.03475   0.02265  -0.06362
  62        2S         -0.00048   0.00026  -0.00054   0.00901  -0.01264
  63 11  H  1S          0.00014   0.00003   0.03146  -0.03471  -0.06329
  64        2S          0.00470   0.00150  -0.00688  -0.00742  -0.01279
  65 12  C  1S         -0.03661   0.98659  -0.03763  -0.11374   0.00018
  66        2S         -0.00513   0.10194   0.03956   0.10935  -0.00022
  67        2PX         0.00005  -0.00000  -0.02749  -0.04353  -0.00001
  68        2PY         0.00013  -0.00007   0.00019   0.00031  -0.01351
  69        2PZ        -0.00001   0.00006  -0.00045  -0.00069   0.00000
  70        3S          0.01506  -0.08401   0.07241   0.30542  -0.00016
  71        3PX        -0.00620   0.00644   0.00733  -0.01075   0.00021
  72        3PY         0.00131  -0.00002  -0.00109  -0.00190  -0.00410
  73        3PZ        -0.00014  -0.00011   0.00159   0.00312  -0.00001
  74 13  H  1S         -0.00046   0.00036   0.01618   0.05485   0.00088
  75        2S         -0.00036   0.01440  -0.00639  -0.00533   0.00051
  76 14  H  1S         -0.00038   0.00038   0.01612   0.05481   0.00430
  77        2S         -0.00025   0.01407  -0.00382  -0.00030   0.00312
  78 15  H  1S         -0.00056   0.00035   0.01614   0.05493  -0.00547
  79        2S         -0.00059   0.01410  -0.00220   0.00231  -0.00434
                          11        12        13        14        15
                           O         O         O         O         O
     Eigenvalues --    -0.93397  -0.82738  -0.79986  -0.70194  -0.63867
   1 1   C  1S         -0.09822   0.00114  -0.08987   0.02863  -0.00176
   2        2S          0.10336  -0.00117   0.09288  -0.02438   0.00196
   3        2PX        -0.00832  -0.00029  -0.03848   0.21362  -0.00163
   4        2PY         0.00050   0.18007   0.00044   0.00055   0.22101
   5        2PZ        -0.00000   0.00009   0.00016  -0.00105   0.00018
   6        3S          0.26436  -0.00355   0.29543  -0.12336   0.00514
   7        3PX         0.00709  -0.00015  -0.00092   0.13779  -0.00323
   8        3PY         0.00128   0.06304  -0.00001   0.00045   0.11895
   9        3PZ        -0.00031   0.00005  -0.00009  -0.00065   0.00011
  10 2   C  1S         -0.01484   0.09322   0.06222  -0.01043   0.00615
  11        2S          0.01673  -0.09658  -0.06370   0.01550  -0.00574
  12        2PX        -0.09106   0.09797  -0.09436   0.09463   0.21430
  13        2PY         0.04366  -0.00552   0.11896   0.13035  -0.08499
  14        2PZ         0.00056  -0.00063   0.00065  -0.00013  -0.00115
  15        3S          0.03130  -0.29726  -0.20891   0.01696  -0.02481
  16        3PX        -0.02700   0.02865  -0.03757   0.05908   0.12658
  17        3PY         0.00334  -0.00929   0.04670   0.08453  -0.04589
  18        3PZ         0.00055  -0.00022   0.00021  -0.00011  -0.00078
  19 3   C  1S          0.07226  -0.09059   0.03265   0.02160  -0.01510
  20        2S         -0.07604   0.09373  -0.03267  -0.01803   0.01433
  21        2PX         0.00810   0.10785   0.11855  -0.11992  -0.19317
  22        2PY        -0.02647   0.00772   0.13764   0.11806  -0.10599
  23        2PZ         0.00042  -0.00075  -0.00041   0.00135   0.00090
  24        3S         -0.19044   0.28440  -0.11115  -0.09045   0.06425
  25        3PX         0.00695   0.03057   0.03617  -0.06961  -0.09728
  26        3PY        -0.01810   0.00815   0.05451   0.08356  -0.05140
  27        3PZ        -0.00050  -0.00032  -0.00007   0.00102   0.00087
  28 4   C  1S          0.02808   0.00046  -0.10380   0.02306   0.00222
  29        2S         -0.03002  -0.00067   0.10744  -0.01926  -0.00181
  30        2PX         0.14308   0.00072  -0.05386  -0.08778  -0.00262
  31        2PY        -0.00171  -0.19183  -0.00161  -0.00123   0.21546
  32        2PZ         0.00064   0.00008   0.00053   0.00103  -0.00026
  33        3S         -0.07704  -0.00100   0.34011  -0.09392  -0.00987
  34        3PX         0.02050   0.00113  -0.03183  -0.05976  -0.00501
  35        3PY        -0.00411  -0.08079  -0.00035  -0.00137   0.15341
  36        3PZ         0.00036   0.00004   0.00096   0.00056  -0.00022
  37 5   C  1S          0.07397   0.08929   0.03434   0.02158   0.01222
  38        2S         -0.07805  -0.09252  -0.03420  -0.01815  -0.01110
  39        2PX         0.00647  -0.10873   0.11779  -0.11894   0.19410
  40        2PY         0.02743   0.00919  -0.13800  -0.11663  -0.09987
  41        2PZ         0.00036   0.00078  -0.00045   0.00155  -0.00122
  42        3S         -0.19349  -0.27902  -0.11708  -0.08960  -0.05875
  43        3PX         0.01191  -0.03163   0.03474  -0.06768   0.10457
  44        3PY         0.01565   0.00807  -0.05407  -0.08297  -0.04532
  45        3PZ        -0.00059   0.00029  -0.00010   0.00112  -0.00104
  46 6   C  1S         -0.01522  -0.09371   0.06193  -0.01045  -0.00303
  47        2S          0.01702   0.09719  -0.06324   0.01544   0.00248
  48        2PX        -0.09139  -0.09529  -0.09453   0.09505  -0.20832
  49        2PY        -0.04467  -0.00422  -0.11986  -0.12882  -0.09515
  50        2PZ         0.00057   0.00051   0.00081  -0.00021   0.00125
  51        3S          0.03426   0.29770  -0.20875   0.01797   0.01770
  52        3PX        -0.02425  -0.02805  -0.03853   0.05996  -0.11874
  53        3PY        -0.00205  -0.00871  -0.04720  -0.08350  -0.05495
  54        3PZ         0.00053   0.00007   0.00036  -0.00016   0.00080
  55 7   H  1S          0.06899  -0.00096   0.08924  -0.14684   0.00232
  56        2S          0.02372  -0.00046   0.04591  -0.09185   0.00070
  57 8   H  1S          0.01309  -0.09107  -0.07686  -0.08174  -0.02628
  58        2S          0.00144  -0.04335  -0.03804  -0.05471  -0.01823
  59 9   H  1S         -0.03565   0.09153  -0.05566  -0.11143   0.00861
  60        2S         -0.00956   0.04388  -0.02984  -0.06853   0.00319
  61 10  H  1S         -0.03700  -0.08946  -0.05801  -0.11008  -0.00313
  62        2S         -0.00891  -0.04284  -0.03154  -0.06800  -0.00022
  63 11  H  1S          0.01311   0.09156  -0.07673  -0.08110   0.01627
  64        2S          0.00130   0.04355  -0.03814  -0.05422   0.01220
  65 12  C  1S         -0.15884   0.00022   0.05586  -0.02878  -0.00039
  66        2S          0.14837  -0.00034  -0.05122   0.02306   0.00033
  67        2PX         0.02004  -0.00041  -0.08324   0.09346   0.00528
  68        2PY        -0.00043  -0.04526  -0.00060  -0.00193   0.14584
  69        2PZ         0.00058  -0.00000  -0.00039   0.00468  -0.00021
  70        3S          0.49886  -0.00042  -0.20104   0.12318   0.00346
  71        3PX        -0.00225   0.00028  -0.03590   0.05193   0.00200
  72        3PY        -0.00042  -0.02676  -0.00074  -0.00045   0.10247
  73        3PZ         0.00159   0.00006   0.00012   0.00207  -0.00031
  74 13  H  1S          0.09538   0.00368  -0.05075   0.04158  -0.01409
  75        2S          0.01651   0.00200  -0.02561   0.02548  -0.01073
  76 14  H  1S          0.09574   0.01751  -0.05287   0.03807  -0.06751
  77        2S          0.01806   0.01112  -0.02523   0.02125  -0.05398
  78 15  H  1S          0.09568  -0.02194  -0.05425   0.03640   0.08593
  79        2S          0.01785  -0.01463  -0.02513   0.01873   0.06941
                          16        17        18        19        20
                           O         O         O         O         O
     Eigenvalues --    -0.62774  -0.58877  -0.57656  -0.56870  -0.53817
   1 1   C  1S          0.05804  -0.00016  -0.00150  -0.01206   0.00088
   2        2S         -0.06274   0.00007   0.00142   0.01539  -0.00097
   3        2PX         0.02068  -0.00445  -0.02362   0.26917  -0.00016
   4        2PY         0.00728  -0.10691  -0.00022  -0.00043  -0.12841
   5        2PZ         0.00051  -0.00012   0.03579   0.00199  -0.00026
   6        3S         -0.16709   0.00146   0.00388   0.02364  -0.00179
   7        3PX         0.06547  -0.00387  -0.02177   0.24607  -0.00053
   8        3PY         0.00440  -0.05566  -0.00016   0.00024  -0.08216
   9        3PZ         0.00005  -0.00008   0.03122   0.00165  -0.00018
  10 2   C  1S         -0.05084  -0.01756   0.00334  -0.01831   0.00958
  11        2S          0.05305   0.02205  -0.00315   0.02166  -0.01033
  12        2PX        -0.07219   0.11776   0.00982  -0.05743  -0.10254
  13        2PY        -0.14403   0.19375  -0.00332   0.10377   0.07256
  14        2PZ         0.00120  -0.00015   0.04647   0.00471   0.00094
  15        3S          0.15404   0.02864  -0.01549   0.02723  -0.03156
  16        3PX        -0.08339   0.08677   0.00335  -0.04136  -0.05819
  17        3PY        -0.14475   0.15707   0.00287   0.05322   0.05945
  18        3PZ         0.00114  -0.00021   0.03874   0.00408  -0.00009
  19 3   C  1S          0.05213  -0.02133  -0.00406   0.01999  -0.01714
  20        2S         -0.05441   0.02610   0.00468  -0.02371   0.01556
  21        2PX        -0.03174  -0.11564  -0.00402   0.05772   0.11990
  22        2PY         0.12096   0.18392  -0.00054  -0.11343  -0.01752
  23        2PZ         0.00282   0.00120   0.07759   0.00626  -0.00046
  24        3S         -0.16056   0.03664   0.01383  -0.03399   0.06674
  25        3PX        -0.06570  -0.09045  -0.01013   0.03013   0.08831
  26        3PY         0.12427   0.14106  -0.00489  -0.07742  -0.03827
  27        3PZ         0.00218   0.00123   0.07348   0.00543   0.00171
  28 4   C  1S         -0.07417   0.00005   0.00348  -0.01087  -0.00018
  29        2S          0.07668   0.00003  -0.00508   0.00587   0.00126
  30        2PX         0.03281  -0.00069  -0.01278   0.24740  -0.00826
  31        2PY         0.00730  -0.09966  -0.00006  -0.00170  -0.04153
  32        2PZ         0.00501  -0.00002   0.13908   0.01091  -0.00027
  33        3S          0.23994  -0.00090  -0.00041   0.06596  -0.00733
  34        3PX         0.08179  -0.00100  -0.00938   0.21566  -0.00875
  35        3PY         0.00272  -0.06716   0.00025  -0.00224  -0.03683
  36        3PZ         0.00464  -0.00001   0.10905   0.00912  -0.00024
  37 5   C  1S          0.05264   0.02075  -0.00405   0.02114   0.01816
  38        2S         -0.05496  -0.02548   0.00471  -0.02496  -0.01696
  39        2PX        -0.01593   0.11182  -0.00480   0.05699  -0.11683
  40        2PY        -0.12782   0.18256   0.00026   0.11888  -0.02839
  41        2PZ         0.00290  -0.00162   0.07711   0.00599   0.00027
  42        3S         -0.16088  -0.03536   0.01316  -0.03630  -0.07401
  43        3PX        -0.05497   0.08914  -0.01077   0.03154  -0.07478
  44        3PY        -0.12915   0.13961   0.00477   0.07972  -0.04993
  45        3PZ         0.00225  -0.00154   0.07118   0.00504  -0.00187
  46 6   C  1S         -0.05099   0.01829   0.00324  -0.01820  -0.01012
  47        2S          0.05318  -0.02284  -0.00306   0.02153   0.01000
  48        2PX        -0.08789  -0.11558   0.01058  -0.05718   0.09601
  49        2PY         0.13889   0.19495   0.00310  -0.10073   0.07806
  50        2PZ         0.00132   0.00010   0.04561   0.00459  -0.00129
  51        3S          0.15574  -0.03049  -0.01512   0.02740   0.04365
  52        3PX        -0.09257  -0.08528   0.00398  -0.04090   0.05878
  53        3PY         0.14242   0.15743  -0.00326  -0.04982   0.06595
  54        3PZ         0.00124   0.00013   0.03863   0.00409  -0.00033
  55 7   H  1S         -0.07133   0.00344   0.01836  -0.17655  -0.00072
  56        2S         -0.03108   0.00255   0.01348  -0.13369  -0.00054
  57 8   H  1S          0.15396  -0.13609  -0.00475  -0.02337  -0.02060
  58        2S          0.09254  -0.10621  -0.00245  -0.02681  -0.01229
  59 9   H  1S         -0.12999  -0.12661   0.00198   0.06693   0.06777
  60        2S         -0.07538  -0.10187  -0.00047   0.05836   0.04487
  61 10  H  1S         -0.12933   0.12515   0.00155   0.06879  -0.07274
  62        2S         -0.07499   0.10123  -0.00073   0.06109  -0.04717
  63 11  H  1S          0.15623   0.13529  -0.00509  -0.02136   0.02656
  64        2S          0.09401   0.10576  -0.00266  -0.02534   0.01731
  65 12  C  1S          0.00542   0.00012  -0.00049   0.00486   0.00016
  66        2S         -0.00209  -0.00015   0.00001   0.00176  -0.00027
  67        2PX        -0.11335   0.00081   0.00859  -0.22307   0.00797
  68        2PY         0.00143   0.02985   0.00041   0.00795   0.32973
  69        2PZ         0.01107   0.00019   0.33760   0.01754  -0.00047
  70        3S         -0.06004  -0.00019   0.00281  -0.07014   0.00229
  71        3PX        -0.05320   0.00025   0.00647  -0.14608   0.00486
  72        3PY         0.00204   0.03342  -0.00011   0.00609   0.29659
  73        3PZ         0.00770   0.00007   0.28194   0.01696  -0.00089
  74 13  H  1S         -0.02036  -0.00359   0.22198  -0.04333  -0.03764
  75        2S         -0.02262  -0.00336   0.19424  -0.04316  -0.03385
  76 14  H  1S         -0.03693  -0.01790  -0.13872  -0.06894  -0.17385
  77        2S         -0.03662  -0.01718  -0.12143  -0.06302  -0.15922
  78 15  H  1S         -0.03505   0.02228  -0.07293  -0.05632   0.21636
  79        2S         -0.03608   0.02139  -0.06314  -0.05035   0.19742
                          21        22        23        24        25
                           O         O         O         O         O
     Eigenvalues --    -0.49341  -0.48348  -0.48163  -0.33691  -0.32627
   1 1   C  1S          0.00037  -0.00077   0.00271  -0.00001   0.00027
   2        2S         -0.00042   0.00094  -0.00418  -0.00002  -0.00030
   3        2PX         0.00004   0.02302  -0.16200   0.00000  -0.00185
   4        2PY        -0.00067  -0.20582  -0.02846   0.00022   0.00036
   5        2PZ         0.19056  -0.00068   0.00059  -0.00597  -0.26290
   6        3S          0.00012   0.00232  -0.00803   0.00046  -0.00049
   7        3PX        -0.00039   0.02708  -0.19314   0.00018  -0.00278
   8        3PY        -0.00042  -0.14024  -0.01895   0.00183   0.00031
   9        3PZ         0.18604  -0.00058   0.00047  -0.00684  -0.32309
  10 2   C  1S         -0.00011  -0.00537  -0.00454  -0.00004  -0.00003
  11        2S         -0.00017   0.00620   0.00721   0.00004  -0.00015
  12        2PX         0.00035  -0.02799   0.19981  -0.00138  -0.00073
  13        2PY        -0.00086   0.18867   0.01605   0.00029  -0.00005
  14        2PZ         0.18207  -0.00023  -0.00147  -0.23604  -0.11484
  15        3S          0.00375   0.02996  -0.00584  -0.00041   0.00234
  16        3PX         0.00267   0.02720   0.15069  -0.00295   0.00085
  17        3PY        -0.00179   0.19644   0.05670   0.00188  -0.00058
  18        3PZ         0.17979  -0.00023  -0.00069  -0.28415  -0.13841
  19 3   C  1S          0.00011   0.00882   0.00168  -0.00010  -0.00004
  20        2S         -0.00024  -0.01044  -0.00184   0.00040   0.00010
  21        2PX         0.00057  -0.01039  -0.20304  -0.00086   0.00071
  22        2PY         0.00227  -0.19815  -0.05379   0.00132   0.00139
  23        2PZ         0.15998  -0.00116   0.00054  -0.23059   0.15162
  24        3S         -0.00136  -0.02712   0.01920  -0.00393  -0.00077
  25        3PX         0.00486   0.05487  -0.17910  -0.00459   0.00380
  26        3PY         0.00464  -0.20707   0.00618  -0.00190   0.00397
  27        3PZ         0.15297  -0.00227  -0.00093  -0.27938   0.18335
  28 4   C  1S          0.00026   0.00105  -0.00587   0.00005   0.00082
  29        2S          0.00051  -0.00086   0.00313  -0.00001  -0.00025
  30        2PX        -0.00319  -0.02789   0.22786  -0.00010  -0.00123
  31        2PY         0.00050   0.23922   0.03091  -0.00077   0.00015
  32        2PZ         0.12485  -0.00002  -0.00159   0.00979   0.26265
  33        3S         -0.00770  -0.00064   0.01322  -0.00078  -0.00873
  34        3PX        -0.00158  -0.03539   0.28973   0.00027   0.00029
  35        3PY         0.00032   0.19424   0.02115  -0.01092   0.00028
  36        3PZ         0.13265  -0.00021  -0.00023   0.01043   0.32321
  37 5   C  1S          0.00016  -0.00919  -0.00052   0.00016   0.00000
  38        2S         -0.00031   0.01115   0.00043  -0.00053   0.00004
  39        2PX         0.00105   0.06395  -0.19877   0.00143   0.00095
  40        2PY        -0.00274  -0.20133  -0.00108   0.00147  -0.00117
  41        2PZ         0.15985   0.00062   0.00125   0.23724   0.14069
  42        3S         -0.00130   0.02188   0.02924   0.00433  -0.00104
  43        3PX         0.00507  -0.00932  -0.18768   0.00515   0.00406
  44        3PY        -0.00504  -0.19297  -0.06546  -0.00236  -0.00357
  45        3PZ         0.15398   0.00215   0.00001   0.28804   0.17130
  46 6   C  1S         -0.00017   0.00637  -0.00366  -0.00009   0.00006
  47        2S         -0.00009  -0.00764   0.00589   0.00014  -0.00026
  48        2PX         0.00039  -0.02441   0.20502   0.00139  -0.00107
  49        2PY         0.00186   0.18453   0.03270   0.00017  -0.00008
  50        2PZ         0.18182  -0.00006  -0.00155   0.22738  -0.13150
  51        3S          0.00380  -0.02998  -0.00955   0.00048   0.00193
  52        3PX         0.00256  -0.06711   0.14409   0.00288   0.00051
  53        3PY         0.00271   0.20119  -0.00371   0.00226   0.00030
  54        3PZ         0.17921  -0.00025  -0.00070   0.27344  -0.15955
  55 7   H  1S          0.00020  -0.01765   0.13221  -0.00003   0.00014
  56        2S          0.00007  -0.01444   0.10922  -0.00001   0.00006
  57 8   H  1S          0.00066  -0.11844  -0.08813   0.00023   0.00032
  58        2S          0.00054  -0.09666  -0.07563   0.00054   0.00051
  59 9   H  1S         -0.00141   0.13091  -0.04933  -0.00008  -0.00052
  60        2S          0.00047   0.11065  -0.03646  -0.00092   0.00174
  61 10  H  1S         -0.00178  -0.11162  -0.08403   0.00017  -0.00039
  62        2S          0.00006  -0.09710  -0.06527   0.00146   0.00177
  63 11  H  1S          0.00134   0.13548  -0.05666  -0.00032   0.00027
  64        2S          0.00121   0.11122  -0.05024  -0.00074   0.00049
  65 12  C  1S          0.00022   0.00242  -0.02126   0.00002  -0.00001
  66        2S         -0.00007  -0.00291   0.02521  -0.00004  -0.00017
  67        2PX         0.00452   0.02823  -0.22975   0.00012   0.00109
  68        2PY        -0.00021  -0.09262  -0.00405   0.00291  -0.00012
  69        2PZ        -0.14341   0.00210  -0.01270  -0.00070  -0.07799
  70        3S         -0.00090  -0.00142   0.01728  -0.00014   0.00051
  71        3PX         0.00414   0.01901  -0.15296   0.00015   0.00216
  72        3PY         0.00004  -0.10225  -0.00405   0.01688  -0.00031
  73        3PZ        -0.14041   0.00224  -0.01249   0.00569  -0.08307
  74 13  H  1S         -0.10555   0.01877  -0.04587  -0.00215  -0.07792
  75        2S         -0.10187   0.02178  -0.06132  -0.00731  -0.10154
  76 14  H  1S          0.06922   0.06235  -0.03633   0.00101   0.05022
  77        2S          0.06709   0.06974  -0.05157   0.01482   0.06401
  78 15  H  1S          0.03738  -0.06532  -0.04784   0.00119   0.02697
  79        2S          0.03580  -0.06934  -0.06591  -0.00761   0.03418
                          26        27        28        29        30
                           V         V         V         V         V
     Eigenvalues --     0.15138   0.15503   0.26217   0.29765   0.31321
   1 1   C  1S         -0.00041  -0.00094   0.04447   0.01570  -0.00250
   2        2S          0.00030   0.00086  -0.02388   0.00755  -0.00044
   3        2PX        -0.00062  -0.00067   0.09133   0.08409  -0.01373
   4        2PY        -0.00050   0.00056  -0.00096   0.00378  -0.03107
   5        2PZ        -0.13871  -0.22170  -0.01753   0.01116  -0.00122
   6        3S          0.00151   0.00373  -0.49547  -0.48345   0.05807
   7        3PX        -0.00234  -0.00450   0.38577   0.17613  -0.04041
   8        3PY        -0.00589   0.00503  -0.00551   0.01009   0.01765
   9        3PZ        -0.31299  -0.50275  -0.04792   0.03146  -0.00374
  10 2   C  1S         -0.00043   0.00034   0.03732   0.03859  -0.03570
  11        2S          0.00033  -0.00050  -0.01122  -0.02306   0.00635
  12        2PX        -0.00089  -0.00075   0.05939   0.00947  -0.04035
  13        2PY         0.00035  -0.00069   0.07554   0.06069  -0.11513
  14        2PZ        -0.12912   0.23638   0.01419  -0.01005   0.01403
  15        3S          0.00771  -0.00369  -0.54782  -0.44847   0.64451
  16        3PX         0.00305  -0.00387   0.16217   0.07329  -0.16970
  17        3PY        -0.00535   0.00689   0.20752   0.40935  -0.39046
  18        3PZ        -0.29105   0.53378   0.03438  -0.02830   0.03013
  19 3   C  1S         -0.00021  -0.00159   0.04935  -0.01076  -0.01180
  20        2S         -0.00155   0.00154  -0.03239   0.02255  -0.00618
  21        2PX         0.00105   0.00218  -0.04883   0.02761   0.03655
  22        2PY        -0.00517  -0.00208   0.06884  -0.00235  -0.14120
  23        2PZ         0.26154  -0.01668  -0.00338   0.00614  -0.02582
  24        3S          0.02433  -0.00299  -0.48818  -0.03357   0.38775
  25        3PX         0.02083  -0.00849  -0.18745  -0.03896   0.27070
  26        3PY        -0.00308  -0.02712   0.38420  -0.34867  -0.44254
  27        3PZ         0.59332  -0.03620  -0.00085   0.01536  -0.03527
  28 4   C  1S         -0.00092  -0.00167   0.02688   0.00552   0.00130
  29        2S         -0.00067  -0.00097  -0.00939  -0.00725   0.00845
  30        2PX         0.00103   0.00153  -0.03594  -0.00736  -0.00659
  31        2PY        -0.00116   0.00059  -0.00220   0.00165  -0.03977
  32        2PZ        -0.14704  -0.23841  -0.00711  -0.00339  -0.00072
  33        3S          0.01898   0.03223  -0.42157   0.31422  -0.06605
  34        3PX        -0.00509  -0.00752  -0.00077  -0.37017  -0.00110
  35        3PY         0.04723  -0.03145   0.02799  -0.02262   0.00874
  36        3PZ        -0.29757  -0.50417  -0.04136  -0.00237  -0.00608
  37 5   C  1S         -0.00117  -0.00075   0.04833  -0.01465   0.01146
  38        2S          0.00188  -0.00084  -0.02864   0.01929   0.01087
  39        2PX         0.00134   0.00229  -0.04732   0.03128  -0.03685
  40        2PY        -0.00063   0.00612  -0.08309   0.02724  -0.15350
  41        2PZ        -0.12234   0.23243  -0.00145   0.00436   0.02500
  42        3S         -0.01416   0.02019  -0.51789   0.05958  -0.38179
  43        3PX        -0.01664   0.01681  -0.22027   0.02171  -0.27153
  44        3PY         0.02116   0.01469  -0.40864   0.41979  -0.51948
  45        3PZ        -0.28387   0.52718   0.00343   0.01196   0.03507
  46 6   C  1S          0.00025  -0.00031   0.03943   0.03645   0.02877
  47        2S         -0.00039   0.00017  -0.01212  -0.02399  -0.00325
  48        2PX         0.00006  -0.00102   0.05951   0.00328   0.03216
  49        2PY         0.00077  -0.00002  -0.07897  -0.04805  -0.10029
  50        2PZ         0.26544  -0.01070   0.01317  -0.00899  -0.01116
  51        3S         -0.00510   0.00583  -0.58144  -0.39033  -0.54942
  52        3PX        -0.00396   0.00221   0.15216   0.06679   0.13982
  53        3PY        -0.00755   0.00291  -0.22908  -0.36395  -0.31486
  54        3PZ         0.59921  -0.02362   0.03235  -0.02584  -0.02335
  55 7   H  1S         -0.00048  -0.00096   0.04320   0.00515  -0.00133
  56        2S         -0.00313  -0.00665   0.79341   0.45809  -0.08022
  57 8   H  1S         -0.00125  -0.00021   0.03406   0.02086  -0.02146
  58        2S         -0.00703   0.00003   0.68522   0.64730  -0.84938
  59 9   H  1S         -0.00047   0.00067   0.02813   0.03875  -0.01310
  60        2S         -0.01466  -0.02023   0.78521  -0.18601  -0.82246
  61 10  H  1S          0.00088  -0.00011   0.03040   0.03356   0.01440
  62        2S         -0.01059  -0.02182   0.83244  -0.32137   0.87293
  63 11  H  1S          0.00010  -0.00135   0.03650   0.01710   0.01887
  64        2S          0.00224  -0.00722   0.71964   0.56213   0.71033
  65 12  C  1S          0.00006   0.00024   0.02227  -0.14415  -0.02093
  66        2S         -0.00059  -0.00107   0.00035   0.03404   0.00557
  67        2PX         0.00284   0.00482  -0.10418   0.09808   0.01292
  68        2PY        -0.01183   0.00779  -0.01730   0.01225  -0.17444
  69        2PZ        -0.01152  -0.00313   0.02460  -0.01004   0.00519
  70        3S          0.00432   0.00578  -0.41843   2.06288   0.29099
  71        3PX         0.00751   0.01218  -0.41952   0.42758   0.05667
  72        3PY        -0.10530   0.06919  -0.10416   0.05968  -0.78167
  73        3PZ        -0.10904  -0.06299   0.14369  -0.04802   0.02781
  74 13  H  1S          0.03433   0.05565  -0.00373   0.00191  -0.00536
  75        2S          0.17914   0.21607   0.12291  -0.87024  -0.32724
  76 14  H  1S         -0.02627  -0.03464   0.00026  -0.00354  -0.02228
  77        2S         -0.21173  -0.08450   0.31255  -0.93318  -0.84027
  78 15  H  1S         -0.00910  -0.02247   0.00889  -0.00813   0.03037
  79        2S          0.02691  -0.14070   0.45972  -1.02999   0.75036
                          31        32        33        34        35
                           V         V         V         V         V
     Eigenvalues --     0.33168   0.34803   0.35426   0.37945   0.38184
   1 1   C  1S          0.01371   0.04373   0.05135  -0.06165  -0.06723
   2        2S          0.00601  -0.00474  -0.01572   0.04676   0.05218
   3        2PX         0.07791   0.12686   0.10769  -0.04631  -0.05052
   4        2PY        -0.00303   0.00002  -0.00521  -0.05261   0.04118
   5        2PZ         0.12517  -0.07081  -0.02108  -0.03864  -0.04085
   6        3S         -0.38622  -0.82004  -0.79709   0.55206   0.59200
   7        3PX         0.20552   0.47403   0.51947  -0.72417  -0.82135
   8        3PY         0.01092   0.08031  -0.12243  -0.32002   0.24242
   9        3PZ         0.37278  -0.21482  -0.06485  -0.11607  -0.12333
  10 2   C  1S          0.00971  -0.02057  -0.00235   0.10585  -0.00296
  11        2S         -0.00856   0.00232   0.01571  -0.06187  -0.02260
  12        2PX         0.00686  -0.01585   0.06918   0.06689   0.05468
  13        2PY         0.01051  -0.04160   0.09874   0.09397  -0.00548
  14        2PZ        -0.11447   0.05638   0.03213   0.03809   0.04402
  15        3S         -0.06677   0.39244  -0.16927  -1.25437   0.48887
  16        3PX         0.01384  -0.20805   0.21287   0.58119   0.52088
  17        3PY         0.15426  -0.07940   0.31508   0.96771   0.25236
  18        3PZ        -0.32077   0.17617   0.08187   0.11877   0.13207
  19 3   C  1S         -0.02111  -0.05505  -0.00044  -0.06997   0.03751
  20        2S          0.00484   0.01592  -0.00449   0.05168   0.00598
  21        2PX         0.03781   0.10423   0.01511   0.00013  -0.01661
  22        2PY        -0.05795  -0.08573  -0.01187  -0.10201   0.04243
  23        2PZ         0.06634  -0.02803  -0.04350  -0.03850  -0.04956
  24        3S          0.27082   0.85064   0.09691   0.60695  -0.94738
  25        3PX         0.15016   0.40484   0.20715   0.20934   0.20587
  26        3PY        -0.36329  -0.36779   0.00006  -0.98152  -0.02446
  27        3PZ         0.19865  -0.13213  -0.07932  -0.12577  -0.13874
  28 4   C  1S         -0.00482   0.00600   0.01159  -0.00548  -0.00340
  29        2S         -0.02811  -0.01632  -0.00065  -0.02333  -0.02547
  30        2PX         0.04436   0.09157   0.07884   0.02962   0.04397
  31        2PY        -0.00027   0.00535  -0.00860   0.04774  -0.04924
  32        2PZ        -0.05013   0.04607   0.01525   0.04367   0.04724
  33        3S          0.31038   0.02376  -0.24470   0.45326   0.44324
  34        3PX        -0.01202   0.23659   0.33911  -0.25656  -0.23251
  35        3PY        -0.00142   0.01034  -0.03278   0.04813  -0.10003
  36        3PZ        -0.00408   0.08235   0.03140   0.12968   0.14268
  37 5   C  1S         -0.00824  -0.01135  -0.05289   0.03976  -0.07621
  38        2S          0.00286   0.00288   0.01234   0.00213   0.05555
  39        2PX         0.01721   0.03007   0.10723  -0.00790   0.01216
  40        2PY         0.02425   0.02513   0.05880  -0.05648   0.09555
  41        2PZ         0.09667  -0.08134   0.00861  -0.03854  -0.03308
  42        3S          0.05539   0.17206   0.90771  -0.91080   0.66959
  43        3PX         0.07500   0.23115   0.37987   0.14933   0.28903
  44        3PY         0.23745   0.17150   0.11016  -0.09364   0.92993
  45        3PZ         0.22996  -0.18703  -0.02511  -0.12206  -0.12926
  46 6   C  1S          0.01736   0.00820  -0.04022  -0.01645   0.09922
  47        2S         -0.00730   0.00541   0.01285  -0.01617  -0.06454
  48        2PX         0.02906   0.06830  -0.03649   0.02814   0.06159
  49        2PY        -0.05050  -0.09786   0.07407   0.03533  -0.07318
  50        2PZ        -0.12844   0.08074   0.00827   0.03848   0.03724
  51        3S         -0.23629  -0.23050   0.63412   0.66475  -1.06609
  52        3PX         0.11633   0.22503  -0.36269   0.34815   0.57119
  53        3PY        -0.28167  -0.40842   0.31264  -0.05940  -0.91369
  54        3PZ        -0.34802   0.22163   0.03753   0.11786   0.12145
  55 7   H  1S          0.00168   0.00335   0.00480  -0.00360  -0.00263
  56        2S          0.43860   0.94144   0.95742  -0.94807  -1.04912
  57 8   H  1S          0.00392   0.00559  -0.00325  -0.00559   0.01772
  58        2S          0.17720  -0.35293   0.54730   1.66566   0.30537
  59 9   H  1S         -0.00618  -0.02449  -0.01498  -0.01801  -0.03201
  60        2S         -0.54086  -1.04007  -0.17881  -1.27764   0.29272
  61 10  H  1S         -0.00215  -0.01639  -0.02278  -0.02405  -0.02577
  62        2S         -0.26196  -0.37218  -0.83566   0.41998  -1.31868
  63 11  H  1S          0.00671   0.00253   0.00642   0.02095   0.00064
  64        2S          0.45337   0.66302  -0.74503  -0.03523   1.53956
  65 12  C  1S          0.04840   0.04835   0.03392   0.02078   0.02997
  66        2S         -0.01416  -0.01526  -0.01256  -0.00642  -0.01131
  67        2PX        -0.00660   0.02201   0.02726  -0.01546  -0.01809
  68        2PY         0.01397   0.11497  -0.17629  -0.04633  -0.01759
  69        2PZ        -0.20969   0.08860   0.02477   0.00330  -0.00028
  70        3S         -0.63746  -0.62863  -0.45285  -0.21652  -0.33607
  71        3PX        -0.02507   0.12753   0.15703  -0.06936  -0.06537
  72        3PY         0.09603   0.61853  -0.89560  -0.02562  -0.23305
  73        3PZ        -1.02172   0.39522   0.10670  -0.02138  -0.04047
  74 13  H  1S          0.05282  -0.02186  -0.02217   0.00088  -0.01903
  75        2S          1.49694  -0.16541  -0.20144   0.11437   0.13893
  76 14  H  1S         -0.02887   0.04589  -0.04059   0.03870  -0.03703
  77        2S         -0.41804   1.08292  -0.62867   0.11801  -0.05321
  78 15  H  1S         -0.02741  -0.03050   0.05184  -0.03417   0.05141
  79        2S         -0.24493  -0.31629   1.16602   0.16500   0.46158
                          36        37        38        39        40
                           V         V         V         V         V
     Eigenvalues --     0.40720   0.44128   0.51631   0.53343   0.54327
   1 1   C  1S         -0.01662  -0.05608   0.00163  -0.09902   0.00760
   2        2S          0.01495  -0.00063  -0.00024   0.01046   0.01688
   3        2PX        -0.01551   0.09325  -0.00367   0.14676   0.08128
   4        2PY        -0.00055  -0.00139   0.13566  -0.00494  -0.05485
   5        2PZ         0.14620  -0.00241  -0.00002   0.00190   0.00825
   6        3S          0.14661   1.33931  -0.02650   2.25795  -0.65791
   7        3PX        -0.30223   0.84134  -0.02911   1.25443   0.46006
   8        3PY        -0.00526  -0.00808   1.79970   0.01832  -0.23375
   9        3PZ         0.45284  -0.01040   0.00075  -0.00183   0.01911
  10 2   C  1S          0.00733   0.01100  -0.09465   0.02062   0.04137
  11        2S         -0.01200   0.02905   0.00734  -0.02082   0.00197
  12        2PX         0.03877   0.06537   0.00740   0.01925  -0.11769
  13        2PY         0.01005  -0.02141   0.15151  -0.11014   0.05661
  14        2PZ        -0.15147   0.00101   0.00044  -0.00259  -0.00997
  15        3S          0.06572  -0.73582   2.25197  -0.07720  -1.18567
  16        3PX         0.26693   0.25028   0.34309   1.03042  -0.72914
  17        3PY         0.19230  -0.67657   1.09195  -1.07086   0.23705
  18        3PZ        -0.49113   0.00296   0.00167  -0.01601  -0.02592
  19 3   C  1S         -0.01251   0.06706   0.02124   0.04396   0.02187
  20        2S          0.01321  -0.04180  -0.01888   0.00661  -0.00370
  21        2PX         0.01560   0.00689   0.11767   0.11520  -0.10719
  22        2PY        -0.00196  -0.03266  -0.06632  -0.02383  -0.15142
  23        2PZ         0.18788  -0.00170  -0.00102   0.00495   0.02654
  24        3S          0.05593  -0.70591  -0.07718  -1.30888  -0.40880
  25        3PX         0.26299  -0.53252   1.37315   0.78888  -1.34000
  26        3PY        -0.02904   0.11607  -0.19919  -0.67513  -1.47017
  27        3PZ         0.57794  -0.00567  -0.00930   0.01281   0.05117
  28 4   C  1S          0.00916  -0.16119  -0.00123   0.01294  -0.07924
  29        2S          0.00243   0.06072   0.00027   0.00467  -0.01542
  30        2PX         0.04683   0.14277   0.00728  -0.24045  -0.11409
  31        2PY         0.00094  -0.00287   0.13151  -0.00988  -0.08061
  32        2PZ        -0.22457   0.00498   0.00029  -0.00867  -0.02224
  33        3S         -0.16323   2.31687   0.02600  -0.22291   2.19976
  34        3PX         0.13940   1.19304   0.04995  -1.97617  -0.89143
  35        3PY         0.00227  -0.01843   0.86403  -0.11219  -0.78866
  36        3PZ        -0.75754   0.01727   0.00016  -0.02915  -0.07647
  37 5   C  1S         -0.01094   0.06597  -0.02225   0.03073  -0.05169
  38        2S          0.01255  -0.04239   0.01833   0.00894  -0.00027
  39        2PX         0.01553   0.01085  -0.12239   0.10917  -0.13259
  40        2PY         0.00035   0.03203  -0.06744   0.01092   0.07834
  41        2PZ         0.15922  -0.00185   0.00101   0.00242   0.01245
  42        3S          0.03527  -0.66984   0.10333  -1.01898   1.32339
  43        3PX         0.25968  -0.51251  -1.39944   0.74164  -1.30188
  44        3PY         0.02039  -0.12725  -0.22845   0.55803   0.70475
  45        3PZ         0.55753  -0.00619   0.00972   0.01068   0.04968
  46 6   C  1S          0.00618   0.01009   0.09394   0.02758   0.05822
  47        2S         -0.01130   0.02936  -0.00645  -0.02333  -0.01200
  48        2PX         0.03916   0.06485  -0.00924   0.00806  -0.18722
  49        2PY        -0.00998   0.02097   0.14519   0.12359  -0.01621
  50        2PZ        -0.14025   0.00095   0.00002  -0.00178  -0.00526
  51        3S          0.07970  -0.71447  -2.24905  -0.20233  -1.21125
  52        3PX         0.26823   0.23720  -0.37272   0.88898  -1.53235
  53        3PY        -0.18789   0.67432   1.05219   1.15018  -0.13556
  54        3PZ        -0.47199   0.00407   0.00197  -0.01478  -0.01511
  55 7   H  1S          0.00571   0.02899  -0.00015   0.06396  -0.11452
  56        2S         -0.32434   0.37853  -0.01554   0.56316   0.47862
  57 8   H  1S          0.00531  -0.02422   0.07356   0.04127  -0.08539
  58        2S          0.30414  -0.14691   0.47054  -0.34537   0.10478
  59 9   H  1S         -0.02609  -0.02229   0.06294  -0.02643   0.01057
  60        2S         -0.23291   0.54740  -0.66245  -0.53568  -0.42160
  61 10  H  1S         -0.02596  -0.02063  -0.06229  -0.02196   0.05445
  62        2S         -0.21135   0.53152   0.68049  -0.50228  -0.30831
  63 11  H  1S          0.00590  -0.02276  -0.07568   0.04590  -0.03170
  64        2S          0.29590  -0.15226  -0.44954  -0.42153  -0.24277
  65 12  C  1S          0.01552   0.07923   0.00180  -0.04625   0.00767
  66        2S         -0.01156   0.00462   0.00087  -0.03464   0.03049
  67        2PX         0.00832   0.15045   0.00082  -0.02317  -0.14924
  68        2PY        -0.00086  -0.00745   0.06016  -0.00115  -0.01299
  69        2PZ         0.18939   0.01395   0.00000   0.01473   0.08583
  70        3S         -0.17572  -1.30325  -0.03964   1.21844  -0.27070
  71        3PX         0.05936   1.51744   0.03980  -1.27573  -0.32075
  72        3PY        -0.00039  -0.02398  -0.08991   0.03117   0.18893
  73        3PZ         0.95987   0.05822   0.00063   0.02456   0.22317
  74 13  H  1S         -0.00203  -0.04386  -0.00763   0.04281   0.02802
  75        2S         -0.93488  -0.15371   0.00429   0.03032  -0.05743
  76 14  H  1S         -0.00724  -0.04651  -0.02583   0.04923  -0.00122
  77        2S          0.68220  -0.08171   0.02026   0.11913   0.52875
  78 15  H  1S         -0.00529  -0.04669   0.02622   0.06040   0.02603
  79        2S          0.38700  -0.04234  -0.02498   0.08373   0.35770
                          41        42        43        44        45
                           V         V         V         V         V
     Eigenvalues --     0.57020   0.77598   0.83274   0.89267   0.91471
   1 1   C  1S         -0.00469  -0.00801  -0.12037   0.00463   0.02577
   2        2S          0.00789   0.00396   0.01997  -0.00354  -0.05343
   3        2PX         0.03780   0.02046   0.12300  -0.01278  -0.27100
   4        2PY         0.18162  -0.04616  -0.01242  -0.43620   0.02460
   5        2PZ         0.00235  -0.00034  -0.00248  -0.00014   0.01455
   6        3S         -0.07341   0.15071   2.92824  -0.11209  -0.41992
   7        3PX         0.22224   0.14494   2.27941  -0.06643   0.03509
   8        3PY         0.94535  -2.68500   0.12553  -1.16744  -0.04195
   9        3PZ         0.00487  -0.00330  -0.01382  -0.00119  -0.01168
  10 2   C  1S          0.03950   0.02432   0.11686   0.00244  -0.00999
  11        2S         -0.02049  -0.01323  -0.02055  -0.01006  -0.04287
  12        2PX        -0.15122   0.22970  -0.09075  -0.19240  -0.11462
  13        2PY        -0.03985  -0.15310  -0.11345   0.06296  -0.19489
  14        2PZ         0.00357   0.00431   0.00096   0.00333   0.01126
  15        3S         -0.46227  -0.28429  -2.92677   0.06973   0.15894
  16        3PX        -1.67584   1.83020  -1.13726   1.69132   0.25868
  17        3PY         0.00491  -1.35419  -1.93174  -0.87597   0.46732
  18        3PZ         0.00652  -0.01522   0.00313  -0.01176   0.00202
  19 3   C  1S         -0.10018  -0.02284  -0.12131  -0.01393   0.02133
  20        2S          0.00488  -0.02539   0.02952   0.02351  -0.05289
  21        2PX        -0.08612  -0.07567  -0.00235   0.37724   0.16133
  22        2PY         0.06310  -0.00489   0.13613   0.24298  -0.22927
  23        2PZ        -0.01128  -0.02774  -0.00262  -0.01448   0.04521
  24        3S          2.47767   0.70895   2.88799  -0.10220  -0.40237
  25        3PX        -0.59033   2.36195  -1.31556   1.01476  -0.10418
  26        3PY         0.58971   1.54542   1.99111   0.60582   0.06172
  27        3PZ         0.01134   0.00371   0.00720   0.00217  -0.04358
  28 4   C  1S         -0.02681   0.00211   0.12165  -0.00405  -0.00367
  29        2S          0.00029   0.00679  -0.04781  -0.00162  -0.07649
  30        2PX        -0.05110  -0.00436   0.15557  -0.00332   0.20748
  31        2PY         0.22831   0.31562  -0.02416   0.03879   0.01153
  32        2PZ        -0.00695  -0.00048   0.00339   0.00184   0.06566
  33        3S          0.75765  -0.03783  -2.62524   0.13752   0.56445
  34        3PX        -0.41669   0.05264   2.74256  -0.11833  -0.22574
  35        3PY         1.96754   2.98322  -0.11145   1.82499  -0.01169
  36        3PZ        -0.02292  -0.00298  -0.00940   0.00062   0.01295
  37 5   C  1S          0.09093   0.00866  -0.12234   0.02347   0.01917
  38        2S         -0.00138   0.03192   0.02520  -0.02937  -0.05257
  39        2PX         0.01323   0.04243  -0.03652  -0.35643   0.18880
  40        2PY         0.14514  -0.00296  -0.12174   0.26122   0.21119
  41        2PZ         0.02328   0.02870  -0.00687   0.01949   0.05271
  42        3S         -2.24397  -0.43804   2.95316  -0.15043  -0.39100
  43        3PX        -0.25795  -2.53227  -1.07015  -0.96727  -0.15734
  44        3PY         1.42094   1.44996  -2.14519   0.76811  -0.03227
  45        3PZ         0.01381  -0.00019   0.01270  -0.00616  -0.05065
  46 6   C  1S         -0.00009  -0.00623   0.11821  -0.01134  -0.00850
  47        2S          0.01376   0.00885  -0.02091   0.00587  -0.04293
  48        2PX         0.05124  -0.24578  -0.05258   0.18611  -0.15859
  49        2PY        -0.05367  -0.15003   0.13669   0.06902   0.17324
  50        2PZ        -0.00787  -0.00401   0.00031  -0.00298   0.01116
  51        3S         -0.44088  -0.06735  -2.91803   0.14095   0.15977
  52        3PX         0.99469  -1.98559  -1.03061  -1.59030   0.28531
  53        3PY         0.01655  -1.14264   2.00866  -1.04803  -0.44893
  54        3PZ        -0.01728   0.01756   0.00593   0.01339   0.00315
  55 7   H  1S         -0.03983  -0.02173  -0.11929   0.01612   0.35384
  56        2S          0.18639   0.06971   0.86407  -0.03443  -0.18902
  57 8   H  1S          0.06308  -0.00207   0.15103   0.04838   0.28284
  58        2S         -0.50273  -0.08660  -0.86661  -0.01462   0.03481
  59 9   H  1S          0.08212  -0.07468  -0.12770   0.03290   0.33258
  60        2S          0.10431  -0.03715   0.93929   0.01093  -0.15039
  61 10  H  1S         -0.07346   0.04277  -0.13032  -0.00363   0.32518
  62        2S         -0.45670   0.05588   0.93847  -0.10529  -0.15409
  63 11  H  1S         -0.10316  -0.00291   0.15351  -0.04519   0.28775
  64        2S          0.43196  -0.00125  -0.87640   0.07947   0.03183
  65 12  C  1S          0.00093  -0.00088  -0.00695  -0.00001  -0.00303
  66        2S          0.00739   0.00214   0.09390  -0.00444   0.04609
  67        2PX        -0.05692  -0.02200  -0.27297  -0.00985  -0.41252
  68        2PY        -0.10695   0.29091  -0.00782  -0.23341  -0.00756
  69        2PZ         0.03174   0.00434  -0.03788   0.00890   0.11739
  70        3S         -0.03406  -0.02835  -0.93471   0.03222  -0.03224
  71        3PX        -0.17633   0.01877   0.96827  -0.02338   0.50124
  72        3PY        -0.79353  -0.97096   0.05350  -0.07299  -0.00114
  73        3PZ         0.06951   0.00245   0.02460  -0.00925  -0.17337
  74 13  H  1S          0.02243  -0.04349  -0.05595   0.04928   0.02722
  75        2S         -0.11661  -0.04557  -0.03192  -0.05051  -0.01145
  76 14  H  1S          0.05133  -0.16675  -0.05157   0.21344  -0.11705
  77        2S         -0.30409  -0.21643  -0.05610  -0.24491   0.02314
  78 15  H  1S         -0.05014   0.18465  -0.09107  -0.26992  -0.08637
  79        2S          0.73216   0.29953  -0.08998   0.32554   0.04370
                          46        47        48        49        50
                           V         V         V         V         V
     Eigenvalues --     0.94451   0.98341   0.98900   0.99133   1.04946
   1 1   C  1S          0.00267  -0.04026   0.04898   0.01069  -0.05594
   2        2S         -0.00616   0.00739  -0.00890  -0.00492  -0.04313
   3        2PX        -0.03384   0.04215  -0.05991  -0.01561   0.15773
   4        2PY         0.00315   0.00174   0.10636  -0.47425  -0.01729
   5        2PZ        -0.25155   0.35854   0.32025   0.07605   0.02173
   6        3S         -0.09679   0.14038  -0.23896  -0.07592  -0.19590
   7        3PX        -0.01047   0.25319  -0.32016  -0.07843  -0.29766
   8        3PY        -0.02393  -0.01715  -0.22719   0.96238   0.02578
   9        3PZ         0.17114  -0.22088  -0.19325  -0.04540  -0.01554
  10 2   C  1S          0.00219   0.03854  -0.05275   0.04706  -0.00883
  11        2S         -0.01433  -0.03369   0.02817  -0.02284   0.03501
  12        2PX        -0.02806   0.09179  -0.05103  -0.43444   0.51652
  13        2PY        -0.03857  -0.19488   0.17667   0.13219  -0.24941
  14        2PZ        -0.25665   0.34221   0.29981   0.07170   0.01819
  15        3S          0.05916  -0.20985   0.32120   0.08640   0.22108
  16        3PX         0.06317  -0.21093   0.36693  -0.11222  -0.33107
  17        3PY         0.09206   0.00651   0.06168   0.03790   0.31580
  18        3PZ         0.11874  -0.26497  -0.24089  -0.06375  -0.01738
  19 3   C  1S          0.00504   0.00877   0.00597  -0.05567   0.04332
  20        2S         -0.01909  -0.04901   0.03881  -0.02438   0.13840
  21        2PX        -0.02254  -0.26149   0.30743  -0.21137   0.03539
  22        2PY        -0.07548  -0.24285   0.19554   0.01845  -0.00384
  23        2PZ        -0.39520   0.14606   0.10122  -0.02968  -0.00094
  24        3S         -0.10957   0.15726  -0.39187   0.31483  -0.15691
  25        3PX         0.05728   0.17729  -0.04640  -0.21755   0.08074
  26        3PY        -0.03460   0.20359  -0.26019  -0.18505   0.02253
  27        3PZ         0.31814  -0.03460  -0.00797   0.05082   0.00665
  28 4   C  1S         -0.01060  -0.04549   0.03844   0.00537  -0.00787
  29        2S         -0.00198  -0.00477   0.01154   0.00723   0.15450
  30        2PX         0.03936   0.11386  -0.09248  -0.01601  -0.43039
  31        2PY         0.00274  -0.00349  -0.03885   0.21592  -0.02015
  32        2PZ        -0.49728  -0.06781  -0.11281  -0.03228  -0.00519
  33        3S          0.13966  -0.34075   0.50845   0.14459   0.24030
  34        3PX        -0.18906  -0.34114   0.14474  -0.01534   0.45607
  35        3PY         0.01678   0.03088   0.02285  -0.19473  -0.00080
  36        3PZ         0.10286  -0.11039  -0.07894  -0.01557  -0.00585
  37 5   C  1S          0.00463   0.00735  -0.01754   0.05467   0.04054
  38        2S         -0.02045  -0.05406   0.02896   0.02991   0.12378
  39        2PX        -0.02682  -0.27665   0.20418   0.30726   0.06028
  40        2PY         0.07578   0.24558  -0.19598  -0.02525  -0.01142
  41        2PZ        -0.43950   0.09385   0.02269   0.05230  -0.03412
  42        3S         -0.10634   0.14813  -0.19225  -0.46523  -0.12361
  43        3PX         0.02273   0.15428  -0.15536   0.18425   0.05459
  44        3PY         0.05834  -0.17604   0.30508  -0.02794  -0.01409
  45        3PZ         0.36131   0.01733   0.06960  -0.03109   0.03638
  46 6   C  1S          0.00284   0.03972  -0.02896  -0.06299  -0.01086
  47        2S         -0.01487  -0.03679   0.02117   0.02248   0.02243
  48        2PX        -0.03824   0.07524  -0.22433   0.36561   0.49895
  49        2PY         0.03355   0.19026  -0.22357   0.06444   0.24423
  50        2PZ        -0.25275   0.33923   0.29792   0.06838  -0.00170
  51        3S          0.05847  -0.20785   0.32281   0.06694   0.19522
  52        3PX         0.03654  -0.22875   0.26846   0.24653  -0.31653
  53        3PY        -0.10515  -0.01854  -0.06282  -0.03688  -0.29588
  54        3PZ         0.10748  -0.27121  -0.25236  -0.05410  -0.00375
  55 7   H  1S          0.04441  -0.07706   0.12080   0.02845  -0.37793
  56        2S         -0.02250   0.14365  -0.18297  -0.04301   0.03391
  57 8   H  1S          0.04935   0.17623  -0.20536   0.13927  -0.04209
  58        2S          0.01386  -0.13013   0.19314  -0.06679   0.06989
  59 9   H  1S          0.04738   0.08194  -0.01383  -0.28088   0.26789
  60        2S         -0.06596  -0.03511  -0.04393   0.02161  -0.09889
  61 10  H  1S          0.04225   0.06573  -0.12455   0.26198   0.24633
  62        2S         -0.06734  -0.03420  -0.02549  -0.07295  -0.09390
  63 11  H  1S          0.05003   0.17617  -0.13057  -0.20223  -0.06762
  64        2S          0.01331  -0.13063   0.14299   0.15264   0.07535
  65 12  C  1S          0.00015   0.01693  -0.01833  -0.00503  -0.02680
  66        2S         -0.00623  -0.07949   0.07669   0.02114   0.06887
  67        2PX        -0.05129   0.35753  -0.44650  -0.11358  -0.46814
  68        2PY        -0.01046  -0.01520  -0.06918   0.29930  -0.00004
  69        2PZ        -0.37014  -0.31956  -0.33994  -0.07677  -0.02891
  70        3S          0.07062   0.17934  -0.08924   0.00050  -0.11144
  71        3PX         0.02006  -0.47776   0.53049   0.12442   0.64994
  72        3PY         0.00535   0.00902   0.12746  -0.54244   0.01808
  73        3PZ         0.72334   0.63764   0.65318   0.15710   0.03297
  74 13  H  1S         -0.36944  -0.24937  -0.29878  -0.13126  -0.06108
  75        2S         -0.05438  -0.00438  -0.09853  -0.02557  -0.08694
  76 14  H  1S          0.22146   0.22068   0.17444  -0.19531  -0.06817
  77        2S          0.04082   0.05207   0.00422  -0.00095  -0.06071
  78 15  H  1S          0.11159   0.13598  -0.01946   0.28461  -0.09404
  79        2S          0.03270   0.03963  -0.00748   0.00096  -0.06097
                          51        52        53        54        55
                           V         V         V         V         V
     Eigenvalues --     1.05613   1.08750   1.09210   1.10820   1.12270
[...]
 (esu units = statvolt**-1 cm**4 , SI units = C**3 m**3 J**-2)
 Beta(0;0,0):
               (au)            (10**-30 esu)      (10**-50 SI)
   || (z)    -0.582356D+01     -0.503110D-01     -0.186724D-01
   _|_(z)    -0.194119D+01     -0.167703D-01     -0.622415D-02
   x         -0.377718D+01     -0.326319D-01     -0.121110D-01
   y         -0.222470D+02     -0.192197D+00     -0.713321D-01
   z         -0.291178D+02     -0.251555D+00     -0.933622D-01
   ||         0.736762D+01      0.636505D-01      0.236232D-01
   xxx       -0.689478D+01     -0.595655D-01     -0.221071D-01
   xxy       -0.123867D+02     -0.107012D+00     -0.397163D-01
   yxy        0.712697D+01      0.615715D-01      0.228517D-01
   yyy        0.138070D+02      0.119282D+00      0.442703D-01
   xxz        0.263496D+02      0.227640D+00      0.844865D-01
   yxz       -0.287667D+01     -0.248522D-01     -0.922365D-02
   yyz        0.999775D+01      0.863727D-01      0.320564D-01
   zxz       -0.149126D+01     -0.128833D-01     -0.478151D-02
   zyz       -0.883597D+01     -0.763359D-01     -0.283313D-01
   zzz       -0.460533D+02     -0.397865D+00     -0.147664D+00

 ----------------------------------------------------------------------
 1\1\GINC-IISERK51\Freq\RHF\3-21G\C7H8\GAUSSIAN\12-Jun-2025\0\\#N Geom=
 AllCheck Guess=TCheck SCRF=Check GenChk RHF/3-21G Freq\\optimisation\\
 0,1\C,-1.8896455776,0.0000447549,-0.0006182537\C,-1.1887157367,-1.1939
 289925,0.0547620035\C,0.1930707301,-1.1885555289,0.0565716645\C,0.8997
 747056,0.0070459152,0.0031870014\C,0.1897771993,1.1957673185,-0.052017
 5713\C,-1.1960196223,1.1940487932,-0.0539873176\H,-2.9615342774,-0.003
 1447395,-0.002066354\H,-1.7185974399,-2.1252493837,0.0963855105\H,0.72
 94736749,-2.1173875611,0.09965948\H,0.719701502,2.1276325301,-0.093673
 518\H,-1.7289423495,2.1235400265,-0.0971091064\C,2.4171731294,-0.00377
 84911,0.0059017582\H,2.7954006327,-0.4754901181,0.9067773219\H,2.79798
 3353,-0.5546816529,-0.8477027942\H,2.8135790765,1.0028991293,-0.038954
 8248\\Version=EM64L-G16RevB.01\State=1-A\HF=-268.2402233\RMSD=2.592e-0
 9\RMSF=1.874e-06\ZeroPoint=0.1380234\Thermal=0.1437987\Dipole=0.128494
 9,-0.0160453,0.0008955\DipoleDeriv=0.0916366,0.000569,0.0003684,-0.018
 4566,-0.1664064,-0.0004146,0.0012528,-0.0003863,-0.1748985,-0.0223502,
 0.0615548,-0.0026279,0.1005943,0.111772,-0.0113503,-0.0044037,-0.01141
 11,-0.1401815,-0.1602264,-0.0870855,0.003971,-0.1227196,0.0723165,-0.0
 110148,0.0055965,-0.0109658,-0.1652188,0.3001641,-0.013482,0.0011412,-
 0.0286913,-0.1055352,0.0018481,0.0017751,0.0018722,-0.0640894,-0.17724
 46,0.086927,-0.0039756,0.1279029,0.064032,-0.0103842,-0.0058373,-0.010
 4352,-0.1674999,0.0106131,-0.0665361,0.0032456,-0.0889743,0.1124524,-0
 .0114298,0.0042728,-0.0114005,-0.1352229,-0.1138592,-0.0000026,-0.0003
 975,-0.0010086,0.0779592,0.0036111,-0.0003705,0.0036122,0.1571362,0.02
 17539,-0.0804575,0.0034709,-0.085949,-0.063847,0.0096781,0.0037253,0.0
 096939,0.1511018,0.0249176,0.0899996,-0.0042803,0.0822326,-0.0543469,0
 .0091949,-0.0039301,0.0092096,0.1445122,0.0205001,-0.0931601,0.0040492
 ,-0.0800044,-0.0532865,0.0090793,0.0034453,0.0090534,0.1482237,0.02125
 65,0.0795237,-0.0038136,0.0865074,-0.0633206,0.0099,-0.0041304,0.00988
 67,0.1507654,0.0127152,0.00468,-0.0003762,0.0564762,0.1087791,0.000557
 6,-0.0026278,0.0004783,0.1191276,-0.0221717,0.0157775,-0.0469744,0.040
 4621,0.0408033,0.0855344,-0.0776138,0.0706978,-0.0613555,-0.0225845,0.
 020195,0.0454718,0.0475462,0.0259724,-0.0932782,0.0737153,-0.0785324,-
 0.0461585,0.0148794,-0.0185027,0.0007273,-0.1159179,-0.1073442,0.00846
 84,0.0051304,0.0086272,0.0837581\Polar=81.286657,-0.5315704,71.7254671
 ,0.1085364,-2.1765216,24.0468297\PolarDeriv=-3.1829434,-0.0093865,-1.5
 174454,0.0016874,0.0853923,0.3509209,0.2655669,0.4803973,-0.1274837,-0
 .2111062,0.0055341,0.0784674,-0.0037578,-0.2113466,-0.0054585,-4.15451
 66,-0.1013028,-0.0051636,2.6699355,-0.2241198,-1.9989457,0.0159485,0.1
 036921,0.1921936,-3.0337064,0.1550337,-0.2981954,-0.0848132,-0.1029521
 ,0.3027465,0.1462747,-0.0762065,-0.2498118,-1.5975085,-2.845114,0.2411
 584,-3.2203468,1.3734752,2.1437732,-0.0685914,-0.0982584,-0.1412334,-4
 .1445299,0.5731601,-0.3072278,0.0186401,-0.0911861,0.1075663,0.1806048
 ,0.0308007,-0.2043491,1.1187804,-2.4226077,0.219909,7.3191922,-0.69587
 76,1.3665737,0.0381598,-0.0956354,-0.7273048,-0.0342242,-2.0125147,0.3
 516159,0.2412512,-0.0732836,-0.5604268,0.0043202,0.2403067,-0.070991,3
 .2540436,-0.6295119,0.0917492,-3.4560378,-1.3349522,2.1551455,0.054185
 8,-0.1020386,0.0608199,4.3598593,0.4016186,0.5562562,0.0405728,0.09750
 25,-0.1112591,-0.2072458,0.0277112,0.2310031,1.1491304,2.7710977,-0.24
 48134,2.6524961,0.2881729,-2.1086298,-0.0077423,0.0956566,0.072455,2.8
 632497,0.2830567,0.4351978,-0.0692315,0.1027919,-0.3650829,-0.1229499,
 -0.0777867,0.2534491,-1.3338662,3.0253489,-0.2641843,-11.2262021,-0.02
 04303,-0.2257703,-0.0126907,-0.0086997,-0.4155894,-0.0143547,-1.623448
 6,-0.021109,0.0008496,-0.0009612,0.0060144,-0.0113627,0.0008422,0.0010
 505,-1.604186,0.0046185,-0.0062363,-2.8071828,-3.0104431,-2.8014604,0.
 1345115,0.1168354,-0.190745,-2.0620749,-3.7694929,-7.5144039,0.1287948
 ,0.2530086,-0.3715947,0.0924308,0.1290674,0.2040661,-0.8913517,-1.4805
 14,0.1481877,2.1081247,-2.465213,2.4979733,0.1140413,-0.1065252,0.1973
 175,-1.5329689,2.8892474,-7.1942615,-0.1011725,0.254171,-0.3071774,0.0
 708914,-0.1008601,0.2031521,0.7122334,-1.4157379,0.1444521,2.1173563,2
 .3869011,2.3835155,-0.1068745,-0.0985663,0.1911083,1.4604381,2.8253149
 ,7.1184022,-0.0949326,-0.241723,0.3678445,-0.0653978,-0.0950649,-0.196
 7407,0.7095071,1.3684416,-0.1383331,-2.8112737,3.0428276,-2.830711,-0.
 141069,0.1225398,-0.1985016,2.0635477,-3.7633066,7.5203253,0.1311065,-
 0.2666459,0.3748077,-0.0953144,0.1309819,-0.2170508,-0.9459645,1.43174
 58,-0.1496522,-1.6032439,1.0251702,-1.2264084,-0.0372457,-0.0318052,-1
 .8562941,1.4579945,-3.8100254,-2.4608142,-0.0764187,0.4008325,3.439096
 8,-0.0515912,-0.0765123,0.3875719,-5.4178013,3.0556634,-0.4520511,4.35
 31326,-1.5339404,0.424908,3.1668379,-0.3045963,1.046228,-1.8929382,2.2
 248204,-1.4495695,-0.5776218,1.9559947,-1.3483978,2.7759791,-0.6308259
 ,0.4989846,3.5902366,-1.9763401,5.585778,4.3812186,-1.8163887,0.486517
 4,-3.0165716,0.3565096,0.9837814,-2.1397507,2.350991,-1.8728378,0.6886
 423,-2.1169638,-1.4580319,-2.6031807,0.744858,-0.7278931,3.4698788,-2.
 2153011,-5.0558523,2.7057744,2.9942044,1.2509644,-0.134587,-0.0345007,
 0.4348438,2.3838915,2.7951479,5.2641054,-0.0345609,-0.1761197,-0.15457
 3,-0.1097006,-0.0359651,-0.1069824,1.9413845,1.4295137,-0.1149481\Hype
 rPolar=-47.8122615,-0.3162773,12.4064328,11.3443005,-0.1286605,0.59304
 72,-2.0673498,24.8415389,-17.2817528,2.4593712\Quadrupole=2.4770375,2.
 1515537,-4.6285912,-0.046115,0.0125956,-0.3094724\PG=C01 [X(C7H8)]\NIm
 ag=0\\0.85182667,0.00458497,0.72173290,0.00077193,-0.02434823,0.187998
 14,-0.21096773,0.03409371,-0.00172515,0.75869900,0.12299335,-0.2977277
 1,0.00952228,0.05336943,0.81471726,-0.00577362,0.00938972,-0.09296376,
 -0.00158966,-0.02835821,0.19140344,-0.03425138,0.10887295,-0.00503108,
 -0.35628772,-0.04460035,0.00163756,0.77075101,0.03958602,0.05459501,-0
 .00174987,0.04498442,-0.16571593,0.00346988,-0.05870086,0.79626458,-0.
 00187420,-0.00164657,0.01494707,-0.00244224,0.00333730,-0.09111998,0.0
 0353861,-0.02780060,0.18888545,0.00024592,-0.00123657,0.00007380,-0.03
 355516,-0.04082500,0.00178939,-0.20098598,-0.11592509,0.00512113,0.716
 77976,-0.00016149,-0.11349799,0.00464925,-0.11234393,0.05677150,-0.002
 14308,-0.02231385,-0.28535176,0.00862635,-0.00878677,0.72964463,0.0000
 2384,0.00464817,-0.01160438,0.00504642,-0.00203690,0.01345708,0.000858
 58,0.00848700,-0.09555442,0.00112825,-0.02299494,0.22604880,-0.0330887
 4,-0.11023533,0.00494870,-0.08317028,0.04664100,-0.00222988,0.09472706
 ,0.03510167,-0.00147906,-0.20812891,0.02629585,-0.00136903,0.75993134,
 -0.04014908,0.05313159,-0.00180292,0.04459946,-0.02924352,0.00088679,-
 0.03289249,-0.07636667,0.00410668,0.12366761,-0.29241724,0.00925978,0.
 05493648,0.80803134,0.00175843,-0.00190776,0.01493256,-0.00213884,0.00
 089085,-0.01125852,0.00161700,0.00420704,0.01468931,-0.00580330,0.0091
 1465,-0.09359156,-0.00165356,-0.02820490,0.18826999,-0.21333762,-0.037
 78161,0.00154385,0.09735534,-0.03446352,0.00169136,-0.08188326,-0.0457
 0046,0.00197441,-0.03154975,0.11229597,-0.00517973,-0.34459315,-0.0454
 0593,0.00169492,0.75174601,-0.12685633,-0.30606339,0.00953971,0.035217
 73,-0.07818268,0.00428925,-0.04634629,-0.02999940,0.00080087,0.0418217
 3,0.05579715,-0.00188689,0.04384846,-0.16509491,0.00339714,-0.04902860
 ,0.82169244,0.00560032,0.00967290,-0.09295547,-0.00148200,0.00418410,0
 .01464883,0.00200627,0.00080310,-0.01091827,-0.00197103,-0.00178171,0.
 01310447,-0.00236927,0.00326495,-0.09209078,0.00306113,-0.02883115,0.1
 9161348,-0.37550277,-0.00091286,-0.00044018,-0.01327719,-0.00463158,0.
 00018180,0.00053388,0.00315053,-0.00015498,0.00103046,-0.00000162,0.00
 000278,0.00058448,-0.00311091,0.00012957,-0.01320271,0.00449433,-0.000
 23390,0.39938596,-0.00083404,-0.07432253,0.00107683,0.03538561,0.00607
 377,0.00006009,0.00238082,-0.00553898,0.00063569,-0.00003589,-0.001271
 17,0.00002124,-0.00230965,-0.00556063,0.00064994,-0.03558268,0.0059090
 3,-0.00002988,0.00099552,0.07231767,-0.00044563,0.00107668,-0.05069531
 ,-0.00163939,0.00000057,0.00623920,-0.00011998,0.00063662,0.00831787,0
 .00000410,0.00002120,-0.00080443,0.00009296,0.00064905,0.00875486,0.00
 159217,0.00002981,0.00641132,0.00049754,-0.00176970,0.03350206,0.01466
 295,0.01939340,-0.00087145,-0.14770046,-0.12851916,0.00571069,-0.01230
 539,-0.03617994,0.00161900,-0.00634321,0.00158291,-0.00009485,-0.00067
 321,0.00099082,-0.00004502,-0.00163082,0.00386526,-0.00019083,0.000991
 82,-0.00061442,0.00003708,0.15215676,-0.02035523,-0.02163776,0.0012666
 9,-0.12871677,-0.30071837,0.01112859,0.00384465,0.00468957,0.00010747,
 0.00105548,0.00152566,0.00034670,0.00096333,0.00060923,-0.00005960,0.0
 0441125,-0.00357541,0.00055363,0.00056194,0.00101640,-0.00028131,0.139
 71438,0.31822334,0.00093813,0.00132479,0.00677980,0.00572030,0.0111297
 1,-0.05262216,-0.00020418,0.00004798,0.00692051,-0.00007121,0.00034785
 ,0.00909185,-0.00004353,-0.00005959,-0.00072851,-0.00021558,0.00055282
 ,0.00841787,-0.00001642,-0.00028308,-0.00516777,-0.00618689,-0.0127401
 6,0.03445272,-0.00645141,-0.00169935,0.00005454,-0.01286973,0.03614978
 ,-0.00167481,-0.14761590,0.12788606,-0.00596617,0.01302178,-0.01870579
 ,0.00086092,-0.00166167,-0.00399230,0.00016728,-0.00057612,-0.00088845
 ,0.00004066,-0.00076648,0.00153630,-0.00007104,0.00104188,-0.00053827,
 0.00003429,0.15349266,-0.00089120,0.00154686,0.00033385,-0.00407726,0.
 00471101,0.00008343,0.12756968,-0.29577305,0.01131340,0.02077395,-0.02
 366702,0.00141386,-0.00426446,-0.00349082,0.00052100,-0.00104871,0.000
 51190,-0.00005886,-0.00010268,0.00005450,-0.00000369,0.00053196,0.0010
 6114,-0.00029892,-0.13880059,0.31465602,0.00001776,0.00033319,0.008892
 53,0.00015726,0.00014308,0.00667101,-0.00595224,0.01131399,-0.05198291
 ,-0.00093696,0.00135561,0.00664282,0.00018005,0.00052097,0.00806681,0.
 00004749,-0.00005888,-0.00074355,0.00000357,-0.00000125,-0.00002337,-0
 .00001455,-0.00030049,-0.00550732,0.00649883,-0.01302125,0.03380581,-0
 .00644947,0.00164985,-0.00009738,-0.00058728,0.00088586,-0.00004016,-0
 .00155936,0.00403822,-0.00019820,0.01164950,0.01846188,-0.00083406,-0.
 14591056,-0.12878989,0.00572447,-0.01269181,-0.03596990,0.00161022,-0.
 00075939,-0.00153122,0.00006858,0.00001213,-0.00008656,0.00000582,0.00
 062561,0.00078902,-0.00003479,0.15312271,0.00087583,0.00162928,0.00031
 781,0.00113636,0.00047062,-0.00005374,0.00424095,-0.00355284,0.0005357
 8,-0.02038915,-0.02377924,0.00136774,-0.12701103,-0.29841937,0.0110882
 1,0.00388705,0.00458439,0.00008457,0.00010301,0.00005287,-0.00000127,-
 0.00008904,-0.00005064,-0.00005476,-0.00082284,-0.00123946,0.00005149,
 0.13862323,0.31715324,-0.00006209,0.00031838,0.00856441,-0.00005198,-0
 .00005394,-0.00074430,-0.00020727,0.00053590,0.00804768,0.00093511,0.0
 0142534,0.00685350,0.00564279,0.01108501,-0.05132959,-0.00020441,0.000
 02579,0.00631312,-0.00000585,-0.00000368,0.00002205,0.00000590,-0.0000
 5474,-0.00124758,0.00003862,0.00005394,-0.00008380,-0.00613567,-0.0127
 2392,0.03384137,0.01468654,-0.01929194,0.00088996,-0.00157683,-0.00384
 387,0.00015980,-0.00063065,-0.00101333,0.00004646,-0.00636878,-0.00153
 593,0.00004794,-0.01228952,0.03605046,-0.00167013,-0.14862636,0.129204
 23,-0.00602721,0.00100630,0.00060000,-0.00001783,0.00047817,-0.0008218
 2,0.00003820,0.00002294,0.00008984,-0.00000217,0.00099544,-0.00054737,
 0.00003414,0.15304134,0.02053573,-0.02173054,0.00133952,-0.00437807,-0
 .00359589,0.00055744,-0.00097193,0.00057375,-0.00006524,-0.00108303,0.
 00157700,0.00031964,-0.00392268,0.00482856,0.00008453,0.12917252,-0.29
 982238,0.01147826,-0.00055130,0.00102560,-0.00029503,0.00083107,-0.001
 15719,0.00005024,0.00008514,-0.00005347,-0.00005628,0.00054096,0.00103
 572,-0.00028637,-0.14025112,0.31734334,-0.00092425,0.00128088,0.006957
 46,0.00018406,0.00055823,0.00875773,0.00004485,-0.00006517,-0.00082407
 ,0.00002698,0.00031862,0.00861334,0.00014997,0.00014359,0.00680591,-0.
 00602544,0.01147809,-0.05253553,0.00003467,-0.00029325,-0.00542011,-0.
 00003706,0.00004789,-0.00008199,-0.00000192,-0.00005624,-0.00128909,-0
 .00001533,-0.00028795,-0.00525592,0.00656379,-0.01312060,0.03442918,-0
 .00070447,0.00187160,-0.00008508,0.00360799,-0.00200727,0.00008617,-0.
 02521345,-0.00195976,0.00004389,-0.20401601,0.00300173,-0.00030628,-0.
 02075526,0.00004893,-0.00004518,0.00005419,0.00006651,-0.00001768,0.00
 001475,0.00000420,0.00000169,-0.00010640,0.00011888,-0.00000525,0.0012
 9368,0.00112952,-0.00004383,0.00163287,-0.00170599,0.00008934,-0.00012
 356,-0.00014359,0.00000673,0.51400538,0.00137414,0.00003382,-0.0000376
 6,-0.00255288,-0.00698689,0.00062137,-0.03657063,0.00619112,-0.0000850
 0,-0.00316241,-0.10737033,0.00085860,0.03540972,0.00388457,0.00025429,
 0.00072098,-0.00504125,0.00066300,-0.00004212,0.00014542,-0.00005705,-
 0.00157563,0.00000495,-0.00000926,-0.00031575,0.00150772,-0.00022426,0
 .00124046,0.00059601,-0.00028654,0.00132950,-0.00001464,-0.00000526,0.
 00918781,0.65478310,-0.00006090,-0.00003690,-0.00083471,0.00011034,0.0
 0061975,0.00668365,0.00161906,-0.00003450,0.00549434,-0.00002966,0.000
 86724,-0.08846272,-0.00165689,0.00020301,0.00833406,-0.00004808,0.0006
 6454,0.00949239,0.00000353,-0.00005701,-0.00110413,0.00007162,-0.00000
 666,-0.00014563,0.00002149,-0.00022006,-0.00337064,-0.00004535,-0.0002
 9294,-0.00574874,-0.00006067,-0.00000752,-0.00017413,-0.00055105,-0.00
 196250,0.61151614,-0.00039796,0.00005630,-0.00021747,0.00005453,0.0004
 9170,0.00127785,0.00133632,0.00128661,0.00080518,-0.01812147,0.0196071
 3,-0.03411208,-0.00365513,-0.00185397,0.00026685,-0.00041216,0.0004652
 1,0.00173275,-0.00001874,-0.00005878,-0.00015398,-0.00001858,-0.000080
 15,-0.00008319,0.00016981,-0.00093692,-0.00080568,0.00005654,0.0000552
 8,-0.00082218,-0.00033012,0.00004527,0.00001896,-0.08761171,0.03832874
 ,-0.07869194,0.09920155,-0.00031605,0.00095131,-0.00005921,0.00131642,
 -0.00030725,-0.00034400,-0.00222607,-0.00011768,-0.00011520,0.00050009
 ,-0.00000700,-0.00159319,0.00132740,-0.00032422,-0.00003605,-0.0005304
 7,-0.00050219,-0.00039572,0.00003947,0.00002806,0.00014834,0.00004862,
 0.00000271,0.00000475,-0.00005103,-0.00008820,0.00034254,-0.00002049,0
 .00035985,0.00048310,0.00005620,-0.00001053,0.00006004,0.03954865,-0.1
 1081208,0.10194702,-0.04482938,0.11625523,0.00007434,-0.00042932,-0.00
 000738,-0.00057561,-0.00004190,0.00024734,0.00024593,0.00029334,0.0009
 0013,0.00161841,-0.00163082,0.00407958,0.00004611,-0.00013802,-0.00040
 626,0.00041284,0.00011597,-0.00027272,-0.00000870,-0.00003210,-0.00002
 251,-0.00005870,-0.00000168,-0.00000857,-0.00023481,-0.00042732,-0.000
 38060,0.00002717,-0.00006386,0.00012956,-0.00001614,-0.00000288,0.0000
 1627,-0.07895022,0.10199460,-0.25135087,0.08676872,-0.11451932,0.27427
 239,-0.00039892,0.00007497,0.00021049,0.00005687,0.00037347,-0.0013187
 5,0.00133759,0.00120837,-0.00091791,-0.01821577,0.02259031,0.03214148,
 -0.00364876,-0.00187072,-0.00010810,-0.00040603,0.00030431,-0.00176877
 ,-0.00001925,-0.00004455,0.00015875,-0.00001912,-0.00007229,0.00009013
 ,0.00016662,-0.00086019,0.00088946,0.00005415,0.00013000,0.00081391,-0
 .00032980,0.00004337,-0.00002391,-0.08806340,0.04560192,0.07535683,0.0
 0478677,-0.00800735,-0.01015918,0.09969681,-0.00032154,0.00098866,-0.0
 0003256,0.00136301,-0.00026843,0.00039387,-0.00223984,-0.00012651,0.00
 020121,0.00034422,0.00032205,0.00193908,0.00131860,-0.00030980,0.00003
 238,-0.00056801,-0.00047560,0.00041292,0.00004051,0.00001709,-0.000151
 73,0.00005370,0.00000232,-0.00000550,-0.00002826,-0.00008371,-0.000368
 70,-0.00002124,0.00031938,-0.00050097,0.00005752,-0.00001548,-0.000057
 04,0.04683597,-0.13023634,-0.11275099,-0.00710329,0.01008443,0.0147133
 1,-0.05284051,0.13807148,-0.00004694,0.00033801,-0.00004322,0.00045314
 ,0.00009033,0.00020553,-0.00004140,-0.00019631,0.00090476,-0.00171845,
 0.00203777,0.00384792,-0.00017648,0.00012408,-0.00042242,-0.00036169,-
 0.00009650,-0.00030609,0.00000510,0.00002833,-0.00001118,0.00005405,0.
 00000049,-0.00000775,0.00023987,0.00039712,-0.00038298,-0.00002543,0.0
 0004721,0.00017139,0.00001002,0.00000589,0.00002125,0.07549804,-0.1128
 0174,-0.23146520,0.01093436,-0.01808753,-0.02696871,-0.08284068,0.1266
 6914,0.25195027,0.00012840,0.00055991,-0.00002546,0.00021863,-0.002013
 84,0.00009226,-0.00795278,0.00223755,-0.00011593,-0.01544238,-0.039986
 41,0.00178582,0.00233230,-0.00222846,0.00010560,-0.00024574,-0.0001981
 9,0.00000934,-0.00000114,0.00010878,-0.00000502,-0.00054652,0.00000119
 ,-0.00000061,0.00010633,0.00009804,-0.00000419,-0.00019109,0.00151372,
 -0.00007037,0.00004490,0.00004767,-0.00000210,-0.09401461,-0.08897385,
 0.00396167,0.00496035,0.01314397,0.00080983,0.00500223,0.01310915,-0.0
 0198350,0.10560112,-0.00006508,0.00037048,-0.00001548,0.00060276,0.000
 00251,0.00001859,-0.00004675,0.00022879,0.00004786,0.00328083,0.001723
 74,-0.00014989,0.00190064,0.00074188,-0.00003173,-0.00037779,0.0002622
 9,-0.00002010,-0.00003224,0.00005288,-0.00000250,-0.00003393,0.0000040
 5,-0.00000686,0.00018535,0.00034658,-0.00002978,0.00018982,0.00084019,
 -0.00001731,-0.00008235,0.00001616,-0.00000183,-0.09599720,-0.30668516
 ,0.01106753,-0.00547376,-0.01551247,0.00017001,-0.00663109,-0.01828955
 ,0.00144370,0.10258079,0.33589763,0.00000288,-0.00001393,0.00003226,-0
 .00002663,0.00001472,0.00039491,-0.00001170,0.00005162,0.00129253,-0.0
 0016656,-0.00021334,-0.00172186,-0.00008287,-0.00003848,-0.00002586,0.
 00001676,-0.00002057,-0.00017906,0.00000148,-0.00000216,0.00000147,0.0
 0000099,-0.00000682,-0.00014546,-0.00000777,-0.00003026,-0.00031472,-0
 .00000989,-0.00001437,0.00046684,0.00000383,-0.00000159,-0.00002030,0.
 00427871,0.01107741,-0.05886382,0.01308186,0.03216442,-0.00022764,-0.0
 1252375,-0.03049444,0.00250643,-0.00455736,-0.01247221,0.05680427\\0.0
 0000024,-0.00000332,0.00000707,-0.00000089,0.00000030,-0.00000462,-0.0
 0000116,0.00000127,-0.00000017,0.00000183,0.00000178,0.00000455,0.0000
 0030,0.00000240,-0.00000233,0.00000204,0.00000116,-0.00000219,0.000000
 17,-0.00000088,-0.00000126,-0.00000036,-0.00000073,0.00000046,-0.00000
 050,-0.00000100,-0.00000007,0.00000021,-0.00000045,0.00000018,0.000000
 92,-0.00000045,-0.00000007,-0.00000227,0.00000157,-0.00000148,-0.00000
 124,0.00000007,-0.00000091,0.00000078,0.00000019,0.00000080,-0.0000000
 8,-0.00000191,0.00000006\\\@


 THERE'S NOTHING WRONG WITH FOLLOWING A TRAIN OF THOUGHT...
 AS LONG AS IT ULTIMATELY PULLS INTO THE STATION.
 Job cpu time:       0 days  0 hours  0 minutes  3.1 seconds.
 Elapsed time:       0 days  0 hours  0 minutes  3.0 seconds.
 File lengths (MBytes):  RWF=     18 Int=      0 D2E=      0 Chk=      2 Scr=      1
 Normal termination of Gaussian 16 at Thu Jun 12 20:29:40 2025.
