 Entering Gaussian System, Link 0=g16
 Input=/home/gaussian/Documents/Summer_Internship/Acid_Base_adduct/Adduct/PH3-BF3/BF3_only_adduct_sp.com
 Output=/home/gaussian/Documents/Summer_Internship/Acid_Base_adduct/Adduct/PH3-BF3/BF3_only_adduct_sp.log
 Initial command:
 /usr/local/g16/l1.exe "/home/gaussian/tmp/Gau-92959.inp" -scrdir="/home/gaussian/tmp/"
 Entering Link 1 = /usr/local/g16/l1.exe PID=     92962.
  
 Copyright (c) 1988-2017, Gaussian, Inc.  All Rights Reserved.
  
 This is part of the Gaussian(R) 16 program.  It is based on
 the Gaussian(R) 09 system (copyright 2009, Gaussian, Inc.),
 the Gaussian(R) 03 system (copyright 2003, Gaussian, Inc.),
 the Gaussian(R) 98 system (copyright 1998, Gaussian, Inc.),
 the Gaussian(R) 94 system (copyright 1995, Gaussian, Inc.),
 the Gaussian 92(TM) system (copyright 1992, Gaussian, Inc.),
 the Gaussian 90(TM) system (copyright 1990, Gaussian, Inc.),
 the Gaussian 88(TM) system (copyright 1988, Gaussian, Inc.),
 the Gaussian 86(TM) system (copyright 1986, Carnegie Mellon
 University), and the Gaussian 82(TM) system (copyright 1983,
 Carnegie Mellon University). Gaussian is a federally registered
 trademark of Gaussian, Inc.
  
 This software contains proprietary and confidential information,
 including trade secrets, belonging to Gaussian, Inc.
  
 This software is provided under written license and may be
 used, copied, transmitted, or stored only in accord with that
 written license.
  
 The following legend is applicable only to US Government
 contracts under FAR:
  
                    RESTRICTED RIGHTS LEGEND
  
 Use, reproduction and disclosure by the US Government is
 subject to restrictions as set forth in subparagraphs (a)
 and (c) of the Commercial Computer Software - Restricted
 Rights clause in FAR 52.227-19.
  
 Gaussian, Inc.
 340 Quinnipiac St., Bldg. 40, Wallingford CT 06492
  
  
 ---------------------------------------------------------------
 Warning -- This program may not be used in any manner that
 competes with the business of Gaussian, Inc. or will provide
 assistance to any competitor of Gaussian, Inc.  The licensee
 of this program is prohibited from giving any competitor of
 Gaussian, Inc. access to this program.  By using this program,
 the user acknowledges that Gaussian, Inc. is engaged in the
 business of creating and licensing software in the field of
 computational chemistry and represents and warrants to the
 licensee that it is not a competitor of Gaussian, Inc. and that
 it will not use this program in any manner prohibited above.
 ---------------------------------------------------------------
  

 Cite this work as:
 Gaussian 16, Revision B.01,
 M. J. Frisch, G. W. Trucks, H. B. Schlegel, G. E. Scuseria, 
 M. A. Robb, J. R. Cheeseman, G. Scalmani, V. Barone, 
 G. A. Petersson, H. Nakatsuji, X. Li, M. Caricato, A. V. Marenich, 
 J. Bloino, B. G. Janesko, R. Gomperts, B. Mennucci, H. P. Hratchian, 
 J. V. Ortiz, A. F. Izmaylov, J. L. Sonnenberg, D. Williams-Young, 
 F. Ding, F. Lipparini, F. Egidi, J. Goings, B. Peng, A. Petrone, 
 T. Henderson, D. Ranasinghe, V. G. Zakrzewski, J. Gao, N. Rega, 
 G. Zheng, W. Liang, M. Hada, M. Ehara, K. Toyota, R. Fukuda, 
 J. Hasegawa, M. Ishida, T. Nakajima, Y. Honda, O. Kitao, H. Nakai, 
 T. Vreven, K. Throssell, J. A. Montgomery, Jr., J. E. Peralta, 
 F. Ogliaro, M. J. Bearpark, J. J. Heyd, E. N. Brothers, K. N. Kudin, 
 V. N. Staroverov, T. A. Keith, R. Kobayashi, J. Normand, 
 K. Raghavachari, A. P. Rendell, J. C. Burant, S. S. Iyengar, 
 J. Tomasi, M. Cossi, J. M. Millam, M. Klene, C. Adamo, R. Cammi, 
 J. W. Ochterski, R. L. Martin, K. Morokuma, O. Farkas, 
 J. B. Foresman, and D. J. Fox, Gaussian, Inc., Wallingford CT, 2016.
 
 ******************************************
 Gaussian 16:  EM64L-G16RevB.01 20-Dec-2017
                17-Jun-2025 
 ******************************************
 %chk=BF3_only_adduct_sp.chk
 -------------------------------------
 # hf/3-21g pop=full geom=connectivity
 -------------------------------------
 1/38=1,57=2,172=1/1;
 2/12=2,17=6,18=5,40=1/2;
 3/5=5,11=9,25=1,30=1/1,2,3;
 4//1;
 5/5=2,38=5/2;
 6/7=3,28=1/1;
 99/5=1,9=1/99;
 -------------------
 Title Card Required
 -------------------
 Symbolic Z-matrix:
 Charge =  0 Multiplicity = 1
 B                     0.        0.       -1.09458 
 F                     0.        1.33092  -1.1628 
 F                    -1.15261  -0.66546  -1.1628 
 F                     1.15261  -0.66546  -1.1628 
 
                          Input orientation:                          
 ---------------------------------------------------------------------
 Center     Atomic      Atomic             Coordinates (Angstroms)
 Number     Number       Type             X           Y           Z
 ---------------------------------------------------------------------
      1          5           0        0.000000    0.000000   -1.094582
      2          9           0        0.000000    1.330921   -1.162799
      3          9           0       -1.152612   -0.665461   -1.162799
      4          9           0        1.152612   -0.665461   -1.162799
 ---------------------------------------------------------------------
                    Distance matrix (angstroms):
                    1          2          3          4
     1  B    0.000000
     2  F    1.332668   0.000000
     3  F    1.332669   2.305224   0.000000
     4  F    1.332669   2.305224   2.305224   0.000000
 Stoichiometry    BF3
 Framework group  C3V[C3(B),3SGV(F)]
 Deg. of freedom     2
 Full point group                 C3V     NOp   6
 Largest Abelian subgroup         CS      NOp   2
 Largest concise Abelian subgroup CS      NOp   2
                         Standard orientation:                         
 ---------------------------------------------------------------------
 Center     Atomic      Atomic             Coordinates (Angstroms)
 Number     Number       Type             X           Y           Z
 ---------------------------------------------------------------------
      1          5           0       -0.000000    0.000000    0.057558
      2          9           0        0.000000    1.330921   -0.010659
      3          9           0       -1.152612   -0.665461   -0.010659
      4          9           0        1.152612   -0.665461   -0.010659
 ---------------------------------------------------------------------
 Rotational constants (GHZ):          10.0031053          10.0031053           5.0058070
 Standard basis: 3-21G (6D, 7F)
 There are    23 symmetry adapted cartesian basis functions of A'  symmetry.
 There are    13 symmetry adapted cartesian basis functions of A"  symmetry.
 There are    23 symmetry adapted basis functions of A'  symmetry.
 There are    13 symmetry adapted basis functions of A"  symmetry.
    36 basis functions,    60 primitive gaussians,    36 cartesian basis functions
    16 alpha electrons       16 beta electrons
       nuclear repulsion energy       109.3879687973 Hartrees.
 NAtoms=    4 NActive=    4 NUniq=    2 SFac= 4.00D+00 NAtFMM=   60 NAOKFM=F Big=F
 Integral buffers will be    131072 words long.
 Raffenetti 1 integral format.
 Two-electron integral symmetry is turned on.
 One-electron integrals computed using PRISM.
 NBasis=    36 RedAO= T EigKep=  1.05D-01  NBF=    23    13
 NBsUse=    36 1.00D-06 EigRej= -1.00D+00 NBFU=    23    13
 ExpMin= 1.24D-01 ExpMax= 4.14D+02 ExpMxC= 4.14D+02 IAcc=3 IRadAn=         5 AccDes= 0.00D+00
 Harris functional with IExCor=  205 and IRadAn=       5 diagonalized for initial guess.
 HarFok:  IExCor=  205 AccDes= 0.00D+00 IRadAn=         5 IDoV= 1 UseB2=F ITyADJ=14
 ICtDFT=  3500011 ScaDFX=  1.000000  1.000000  1.000000  1.000000
 FoFCou: FMM=F IPFlag=           0 FMFlag=      100000 FMFlg1=           0
         NFxFlg=           0 DoJE=T BraDBF=F KetDBF=T FulRan=T
         wScrn=  0.000000 ICntrl=       500 IOpCl=  0 I1Cent=   200000004 NGrid=           0
         NMat0=    1 NMatS0=      1 NMatT0=    0 NMatD0=    1 NMtDS0=    0 NMtDT0=    0
 Petite list used in FoFCou.
 Initial guess orbital symmetries:
       Occupied  (A1) (E) (E) (A1) (A1) (E) (E) (A1) (E) (E) (A1)
                 (E) (E) (E) (E) (A2)
       Virtual   (A1) (A1) (E) (E) (A1) (E) (E) (A1) (E) (E) (E)
                 (E) (A2) (A1) (A1) (E) (E) (E) (E) (A1)
 The electronic state of the initial guess is 1-A1.
 Keep R1 ints in memory in symmetry-blocked form, NReq=1029955.
 Requested convergence on RMS density matrix=1.00D-08 within 128 cycles.
 Requested convergence on MAX density matrix=1.00D-06.
 Requested convergence on             energy=1.00D-06.
 No special actions if energy rises.
 SCF Done:  E(RHF) =  -321.464413975     A.U. after    9 cycles
            NFock=  9  Conv=0.76D-08     -V/T= 2.0046

 **********************************************************************

            Population analysis using the SCF Density.

 **********************************************************************

 Orbital symmetries:
       Occupied  (A1) (E) (E) (A1) (A1) (E) (E) (A1) (E) (E) (A1)
                 (E) (E) (E) (E) (A2)
       Virtual   (A1) (A1) (E) (E) (A1) (E) (E) (A1) (E) (E) (E)
                 (E) (A2) (A1) (A1) (E) (E) (E) (E) (A1)
 The electronic state is 1-A1.
 Alpha  occ. eigenvalues --  -26.21492 -26.21475 -26.21475  -7.78198  -1.67418
 Alpha  occ. eigenvalues --   -1.62790  -1.62790  -0.83129  -0.78550  -0.78550
 Alpha  occ. eigenvalues --   -0.74871  -0.67263  -0.67263  -0.66456  -0.66456
 Alpha  occ. eigenvalues --   -0.64665
 Alpha virt. eigenvalues --    0.16612   0.26822   0.41250   0.41250   0.55285
 Alpha virt. eigenvalues --    0.77286   0.77286   0.89259   2.16950   2.16950
 Alpha virt. eigenvalues --    2.28368   2.28368   2.29296   2.38149   2.42207
 Alpha virt. eigenvalues --    2.45239   2.45239   3.99807   3.99807   4.04466
     Molecular Orbital Coefficients:
                           1         2         3         4         5
                        (A1)--O   (E)--O    (E)--O    (A1)--O   (A1)--O
     Eigenvalues --   -26.21492 -26.21475 -26.21475  -7.78198  -1.67418
   1 1   B  1S         -0.00018   0.00000   0.00000   0.98752  -0.09708
   2        2S          0.00414   0.00000  -0.00000   0.09284   0.09092
   3        2PX         0.00000  -0.00516   0.00000   0.00000   0.00000
   4        2PY         0.00000   0.00000   0.00516  -0.00000  -0.00000
   5        2PZ        -0.00049   0.00000   0.00000  -0.00067  -0.00459
   6        3S          0.01317   0.00000  -0.00000  -0.02286   0.02723
   7        3PX         0.00000  -0.00998   0.00000   0.00000   0.00000
   8        3PY         0.00000   0.00000   0.00998   0.00000   0.00000
   9        3PZ        -0.00086   0.00000   0.00000  -0.00028   0.00188
  10 2   F  1S          0.56702   0.00000   0.80184  -0.00009  -0.13804
  11        2S          0.05637   0.00000   0.07925   0.00184   0.13092
  12        2PX         0.00000  -0.00091   0.00000   0.00000   0.00000
  13        2PY        -0.00177   0.00000  -0.00207  -0.00111  -0.04234
  14        2PZ         0.00002   0.00000   0.00018   0.00001   0.00184
  15        3S         -0.02120   0.00000  -0.02942  -0.00467   0.43415
  16        3PX         0.00000   0.00350   0.00000   0.00000   0.00000
  17        3PY         0.00441   0.00000   0.00450   0.00852  -0.05935
  18        3PZ         0.00009   0.00000  -0.00044  -0.00026   0.00269
  19 3   F  1S          0.56702   0.69442  -0.40092  -0.00009  -0.13804
  20        2S          0.05637   0.06864  -0.03963   0.00184   0.13092
  21        2PX         0.00154   0.00133  -0.00129   0.00096   0.03666
  22        2PY         0.00089   0.00129   0.00016   0.00055   0.02117
  23        2PZ         0.00002   0.00016  -0.00009   0.00001   0.00184
  24        3S         -0.02120  -0.02548   0.01471  -0.00467   0.43415
  25        3PX        -0.00382  -0.00250   0.00347  -0.00738   0.05140
  26        3PY        -0.00220  -0.00347  -0.00150  -0.00426   0.02968
  27        3PZ         0.00009  -0.00038   0.00022  -0.00026   0.00269
  28 4   F  1S          0.56702  -0.69442  -0.40092  -0.00009  -0.13804
  29        2S          0.05637  -0.06864  -0.03963   0.00184   0.13092
  30        2PX        -0.00154   0.00133   0.00129  -0.00096  -0.03666
  31        2PY         0.00089  -0.00129   0.00016   0.00055   0.02117
  32        2PZ         0.00002  -0.00016  -0.00009   0.00001   0.00184
  33        3S         -0.02120   0.02548   0.01471  -0.00467   0.43415
  34        3PX         0.00382  -0.00250  -0.00347   0.00738  -0.05140
  35        3PY        -0.00220   0.00347  -0.00150  -0.00426   0.02968
  36        3PZ         0.00009   0.00038   0.00022  -0.00026   0.00269
                           6         7         8         9        10
                        (E)--O    (E)--O    (A1)--O   (E)--O    (E)--O
     Eigenvalues --    -1.62790  -1.62790  -0.83129  -0.78550  -0.78550
   1 1   B  1S          0.00000  -0.00000   0.14696   0.00000   0.00000
   2        2S          0.00000   0.00000  -0.24628   0.00000   0.00000
   3        2PX        -0.09991   0.00000   0.00000   0.27676   0.00000
   4        2PY         0.00000   0.09991   0.00000   0.00000  -0.27676
   5        2PZ         0.00000  -0.00000   0.01480   0.00000   0.00000
   6        3S          0.00000  -0.00000  -0.08177   0.00000  -0.00000
   7        3PX         0.00926   0.00000   0.00000   0.03662   0.00000
   8        3PY         0.00000  -0.00926   0.00000   0.00000  -0.03662
   9        3PZ         0.00000  -0.00000  -0.00205   0.00000   0.00000
  10 2   F  1S          0.00000  -0.20352  -0.04861   0.00000  -0.04586
  11        2S          0.00000   0.19621   0.05237   0.00000   0.04276
  12        2PX        -0.00817   0.00000   0.00000   0.23837   0.00000
  13        2PY         0.00000  -0.04950   0.25326   0.00000   0.30447
  14        2PZ         0.00000   0.00308  -0.00243   0.00000  -0.01838
  15        3S          0.00000   0.63961   0.18382   0.00000   0.20935
  16        3PX        -0.00782   0.00000   0.00000   0.25918   0.00000
  17        3PY         0.00000  -0.06088   0.27446   0.00000   0.30343
  18        3PZ         0.00000   0.00424  -0.00246   0.00000  -0.01809
  19 3   F  1S         -0.17626   0.10176  -0.04861  -0.03972   0.02293
  20        2S          0.16992  -0.09810   0.05237   0.03703  -0.02138
  21        2PX         0.03509  -0.02497  -0.21933  -0.16876   0.23506
  22        2PY         0.02497  -0.00625  -0.12663  -0.23506  -0.10266
  23        2PZ         0.00267  -0.00154  -0.00243  -0.01592   0.00919
  24        3S          0.55392  -0.31981   0.18382   0.18130  -0.10468
  25        3PX         0.04371  -0.02975  -0.23769  -0.16278   0.24361
  26        3PY         0.02975  -0.00935  -0.13723  -0.24361  -0.11853
  27        3PZ         0.00367  -0.00212  -0.00246  -0.01567   0.00905
  28 4   F  1S          0.17626   0.10176  -0.04861   0.03972   0.02293
  29        2S         -0.16992  -0.09810   0.05237  -0.03703  -0.02138
  30        2PX         0.03509   0.02497   0.21933  -0.16876  -0.23506
  31        2PY        -0.02497  -0.00625  -0.12663   0.23506  -0.10266
  32        2PZ        -0.00267  -0.00154  -0.00243   0.01592   0.00919
  33        3S         -0.55392  -0.31981   0.18382  -0.18130  -0.10468
  34        3PX         0.04371   0.02975   0.23769  -0.16278  -0.24361
  35        3PY        -0.02975  -0.00935  -0.13723   0.24361  -0.11853
  36        3PZ        -0.00367  -0.00212  -0.00246   0.01567   0.00905
                          11        12        13        14        15
                        (A1)--O   (E)--O    (E)--O    (E)--O    (E)--O
     Eigenvalues --    -0.74871  -0.67263  -0.67263  -0.66456  -0.66456
   1 1   B  1S         -0.00882   0.00000   0.00000   0.00000  -0.00000
   2        2S          0.01306   0.00000  -0.00000   0.00000   0.00000
   3        2PX         0.00000  -0.09751   0.00000   0.00872   0.00000
   4        2PY         0.00000   0.00000  -0.09751   0.00000  -0.00872
   5        2PZ         0.19008   0.00000  -0.00000   0.00000   0.00000
   6        3S          0.01068   0.00000  -0.00000   0.00000  -0.00000
   7        3PX         0.00000   0.13604   0.00000  -0.02918   0.00000
   8        3PY         0.00000   0.00000   0.13604   0.00000   0.02918
   9        3PZ         0.15595   0.00000  -0.00000   0.00000   0.00000
  10 2   F  1S          0.00125   0.00000  -0.00922   0.00000  -0.00003
  11        2S         -0.00236   0.00000   0.02308   0.00000   0.00257
  12        2PX         0.00000   0.34959   0.00000  -0.04273   0.00000
  13        2PY         0.00623   0.00000   0.25213   0.00000   0.06007
  14        2PZ         0.27845   0.00000  -0.06807   0.00000   0.43329
  15        3S         -0.00135   0.00000  -0.01313   0.00000  -0.01064
  16        3PX         0.00000   0.38249   0.00000  -0.04303   0.00000
  17        3PY         0.00397   0.00000   0.28315   0.00000   0.06878
  18        3PZ         0.29001   0.00000  -0.08097   0.00000   0.50088
  19 3   F  1S          0.00125   0.00798   0.00461  -0.00002   0.00001
  20        2S         -0.00236  -0.01998  -0.01154   0.00222  -0.00128
  21        2PX        -0.00540   0.27649  -0.04220  -0.05573   0.00751
  22        2PY        -0.00312  -0.04220   0.32523  -0.00751   0.04706
  23        2PZ         0.27845   0.05895   0.03404   0.37524  -0.21665
  24        3S         -0.00135   0.01137   0.00656  -0.00921   0.00532
  25        3PX        -0.00343   0.30798  -0.04302  -0.06235   0.01115
  26        3PY        -0.00198  -0.04302   0.35765  -0.01115   0.04947
  27        3PZ         0.29001   0.07012   0.04049   0.43377  -0.25044
  28 4   F  1S          0.00125  -0.00798   0.00461   0.00002   0.00001
  29        2S         -0.00236   0.01998  -0.01154  -0.00222  -0.00128
  30        2PX         0.00540   0.27649   0.04220  -0.05573  -0.00751
  31        2PY        -0.00312   0.04220   0.32523   0.00751   0.04706
  32        2PZ         0.27845  -0.05895   0.03404  -0.37524  -0.21665
  33        3S         -0.00135  -0.01137   0.00656   0.00921   0.00532
  34        3PX         0.00343   0.30798   0.04302  -0.06235  -0.01115
  35        3PY        -0.00198   0.04302   0.35765   0.01115   0.04947
  36        3PZ         0.29001  -0.07012   0.04049  -0.43377  -0.25044
                          16        17        18        19        20
                        (A2)--O   (A1)--V   (A1)--V   (E)--V    (E)--V
     Eigenvalues --    -0.64665   0.16612   0.26822   0.41250   0.41250
   1 1   B  1S          0.00000  -0.05416  -0.15252   0.00000  -0.00000
   2        2S          0.00000  -0.01478  -0.11360   0.00000   0.00000
   3        2PX        -0.00000   0.00000   0.00000   0.10910   0.00000
   4        2PY         0.00000  -0.00000  -0.00000   0.00000   0.10910
   5        2PZ         0.00000   0.43917  -0.13628   0.00000  -0.00000
   6        3S          0.00000   0.46762   1.50742   0.00000   0.00000
   7        3PX        -0.00000   0.00000   0.00000   1.42786   0.00000
   8        3PY         0.00000  -0.00000  -0.00000   0.00000   1.42786
   9        3PZ         0.00000   0.68030  -0.30000   0.00000   0.00000
  10 2   F  1S          0.00000   0.01737   0.06258   0.00000   0.07871
  11        2S          0.00000  -0.01046  -0.03923   0.00000  -0.03204
  12        2PX         0.32153   0.00000   0.00000  -0.17658   0.00000
  13        2PY         0.00000   0.03552   0.13037   0.00000   0.05308
  14        2PZ         0.00000  -0.17077   0.05168   0.00000  -0.01531
  15        3S          0.00000  -0.13080  -0.49214   0.00000  -0.76942
  16        3PX         0.35520   0.00000   0.00000  -0.29241   0.00000
  17        3PY         0.00000   0.06492   0.25075   0.00000   0.15562
  18        3PZ         0.00000  -0.25750   0.07633   0.00000  -0.02398
  19 3   F  1S          0.00000   0.01737   0.06258  -0.06817  -0.03936
  20        2S          0.00000  -0.01046  -0.03923   0.02775   0.01602
  21        2PX        -0.16077  -0.03076  -0.11291  -0.00433   0.09945
  22        2PY         0.27846  -0.01776  -0.06519   0.09945  -0.11916
  23        2PZ        -0.00000  -0.17077   0.05168   0.01326   0.00766
  24        3S         -0.00000  -0.13080  -0.49214   0.66634   0.38471
  25        3PX        -0.17760  -0.05622  -0.21716   0.04361   0.19400
  26        3PY         0.30761  -0.03246  -0.12538   0.19400  -0.18041
  27        3PZ        -0.00000  -0.25750   0.07633   0.02077   0.01199
  28 4   F  1S         -0.00000   0.01737   0.06258   0.06817  -0.03936
  29        2S         -0.00000  -0.01046  -0.03923  -0.02775   0.01602
  30        2PX        -0.16077   0.03076   0.11291  -0.00433  -0.09945
  31        2PY        -0.27846  -0.01776  -0.06519  -0.09945  -0.11916
  32        2PZ         0.00000  -0.17077   0.05168  -0.01326   0.00766
  33        3S          0.00000  -0.13080  -0.49214  -0.66634   0.38471
  34        3PX        -0.17760   0.05622   0.21716   0.04361  -0.19400
  35        3PY        -0.30761  -0.03246  -0.12538  -0.19400  -0.18041
  36        3PZ         0.00000  -0.25750   0.07633  -0.02077   0.01199
                          21        22        23        24        25
                        (A1)--V   (E)--V    (E)--V    (A1)--V   (E)--V
     Eigenvalues --     0.55285   0.77286   0.77286   0.89259   2.16950
   1 1   B  1S         -0.00311  -0.00000   0.00000  -0.10511   0.00000
   2        2S          0.07355   0.00000   0.00000   1.68142   0.00000
   3        2PX         0.00000   0.00000   1.36616   0.00000   0.02693
   4        2PY         0.00000   1.36616   0.00000  -0.00000   0.00000
   5        2PZ         1.08837  -0.00000   0.00000  -0.06870   0.00000
   6        3S         -0.09428  -0.00000   0.00000  -1.16620   0.00000
   7        3PX         0.00000   0.00000  -0.64618   0.00000   0.03742
   8        3PY         0.00000  -0.64618   0.00000   0.00000   0.00000
   9        3PZ        -1.04765   0.00000   0.00000   0.04365   0.00000
  10 2   F  1S         -0.00106   0.03515   0.00000   0.01498   0.00000
  11        2S          0.00111  -0.04799   0.00000  -0.02956   0.00000
  12        2PX         0.00000   0.00000  -0.07121   0.00000   0.13372
  13        2PY        -0.00385   0.25731   0.00000   0.19834   0.00000
  14        2PZ        -0.00466  -0.01709   0.00000  -0.00785   0.00000
  15        3S          0.00742  -0.12391   0.00000   0.05833   0.00000
  16        3PX         0.00000   0.00000  -0.02105   0.00000  -0.13601
  17        3PY        -0.00946   0.43873   0.00000   0.19631   0.00000
  18        3PZ         0.06039  -0.02444   0.00000  -0.01122   0.00000
  19 3   F  1S         -0.00106  -0.01757  -0.03044   0.01498  -0.00381
  20        2S          0.00111   0.02400   0.04156  -0.02956   0.01651
  21        2PX         0.00334   0.14225   0.17518  -0.17176  -0.00901
  22        2PY         0.00193   0.01092   0.14225  -0.09917  -0.08240
  23        2PZ        -0.00466   0.00855   0.01480  -0.00785   0.70544
  24        3S          0.00742   0.06196   0.10731   0.05833   0.00978
  25        3PX         0.00819   0.19909   0.32378  -0.17001   0.01557
  26        3PY         0.00473   0.09390   0.19909  -0.09816   0.08752
  27        3PZ         0.06039   0.01222   0.02117  -0.01122  -0.67445
  28 4   F  1S         -0.00106  -0.01757   0.03044   0.01498   0.00381
  29        2S          0.00111   0.02400  -0.04156  -0.02956  -0.01651
  30        2PX        -0.00334  -0.14225   0.17518   0.17176  -0.00901
  31        2PY         0.00193   0.01092  -0.14225  -0.09917   0.08240
  32        2PZ        -0.00466   0.00855  -0.01480  -0.00785  -0.70544
  33        3S          0.00742   0.06196  -0.10731   0.05833  -0.00978
  34        3PX        -0.00819  -0.19909   0.32378   0.17001   0.01557
  35        3PY         0.00473   0.09390  -0.19909  -0.09816  -0.08752
  36        3PZ         0.06039   0.01222  -0.02117  -0.01122   0.67445
                          26        27        28        29        30
                        (E)--V    (E)--V    (E)--V    (A2)--V   (A1)--V
     Eigenvalues --     2.16950   2.28368   2.28368   2.29296   2.38149
   1 1   B  1S         -0.00000  -0.00000   0.00000   0.00000   0.04632
   2        2S         -0.00000  -0.00000   0.00000   0.00000   0.81034
   3        2PX         0.00000   0.00000  -0.29614   0.00000   0.00000
   4        2PY        -0.02693  -0.29614   0.00000   0.00000   0.00000
   5        2PZ        -0.00000   0.00000   0.00000   0.00000  -0.04766
   6        3S         -0.00000   0.00000   0.00000   0.00000  -0.05838
   7        3PX         0.00000   0.00000  -0.32128   0.00000   0.00000
   8        3PY        -0.03742  -0.32128   0.00000   0.00000  -0.00000
   9        3PZ        -0.00000   0.00000   0.00000   0.00000  -0.01555
  10 2   F  1S         -0.00440  -0.04419   0.00000   0.00000   0.02980
  11        2S          0.01907   0.20618   0.00000   0.00000  -0.12719
  12        2PX         0.00000   0.00000  -0.75331  -0.58431   0.00000
  13        2PY         0.05658   0.23132   0.00000   0.00000  -0.56608
  14        2PZ         0.81458  -0.14495   0.00000   0.00000  -0.00451
  15        3S          0.01129   0.08322   0.00000   0.00000  -0.01967
  16        3PX         0.00000   0.00000   0.82400   0.58796   0.00000
  17        3PY        -0.06610  -0.34918   0.00000   0.00000   0.73441
  18        3PZ        -0.77879   0.15426   0.00000   0.00000   0.00337
  19 3   F  1S          0.00220   0.02209   0.03827  -0.00000   0.02980
  20        2S         -0.00953  -0.10309  -0.17856   0.00000  -0.12719
  21        2PX         0.08240   0.42636  -0.01484   0.29216   0.49024
  22        2PY        -0.08614  -0.50715   0.42636  -0.50603   0.28304
  23        2PZ        -0.40729   0.07247   0.12553  -0.00000  -0.00451
  24        3S         -0.00565  -0.04161  -0.07207   0.00000  -0.01967
  25        3PX        -0.08752  -0.50801  -0.05589  -0.29398  -0.63602
  26        3PY         0.08548   0.53071  -0.50801   0.50919  -0.36721
  27        3PZ         0.38940  -0.07713  -0.13359   0.00000   0.00337
  28 4   F  1S          0.00220   0.02209  -0.03827   0.00000   0.02980
  29        2S         -0.00953  -0.10309   0.17856  -0.00000  -0.12719
  30        2PX        -0.08240  -0.42636  -0.01484   0.29216  -0.49024
  31        2PY        -0.08614  -0.50715  -0.42636   0.50603   0.28304
  32        2PZ        -0.40729   0.07247  -0.12553   0.00000  -0.00451
  33        3S         -0.00565  -0.04161   0.07207  -0.00000  -0.01967
  34        3PX         0.08752   0.50801  -0.05589  -0.29398   0.63602
  35        3PY         0.08548   0.53071   0.50801  -0.50919  -0.36721
  36        3PZ         0.38940  -0.07713   0.13359  -0.00000   0.00337
                          31        32        33        34        35
                        (A1)--V   (E)--V    (E)--V    (E)--V    (E)--V
     Eigenvalues --     2.42207   2.45239   2.45239   3.99807   3.99807
   1 1   B  1S         -0.00500  -0.00000   0.00000   0.00000   0.00000
   2        2S         -0.05473  -0.00000   0.00000   0.00000  -0.00000
   3        2PX         0.00000   0.00000   0.47640   0.43961   0.00000
   4        2PY         0.00000   0.47640   0.00000   0.00000  -0.43961
   5        2PZ        -0.10583   0.00000   0.00000   0.00000   0.00000
   6        3S          0.02420   0.00000   0.00000   0.00000  -0.00000
   7        3PX         0.00000   0.00000  -0.28884   0.61907   0.00000
   8        3PY        -0.00000  -0.28884   0.00000   0.00000  -0.61907
   9        3PZ        -0.40556   0.00000   0.00000   0.00000   0.00000
  10 2   F  1S          0.00171   0.01448   0.00000   0.00000   0.07829
  11        2S         -0.01225  -0.06629   0.00000   0.00000  -1.29481
  12        2PX         0.00000   0.00000  -0.27134   0.16327   0.00000
  13        2PY         0.00664  -0.78435   0.00000   0.00000   0.13172
  14        2PZ        -0.58824   0.01320   0.00000   0.00000  -0.01798
  15        3S          0.00047   0.02526   0.00000   0.00000   1.56714
  16        3PX         0.00000   0.00000   0.28835  -0.34379   0.00000
  17        3PY        -0.00799   0.96582   0.00000   0.00000  -0.36755
  18        3PZ         0.67987  -0.02049   0.00000   0.00000   0.04043
  19 3   F  1S          0.00171  -0.00724  -0.01254   0.06780  -0.03914
  20        2S         -0.01225   0.03315   0.05741  -1.12134   0.64740
  21        2PX        -0.00575  -0.22214  -0.65610  -0.05797   0.12773
  22        2PY        -0.00332  -0.39959  -0.22214  -0.12773  -0.08952
  23        2PZ        -0.58824  -0.00660  -0.01143  -0.01557   0.00899
  24        3S          0.00047  -0.01263  -0.02187   1.35718  -0.78357
  25        3PX         0.00692   0.29335   0.79646   0.18971  -0.30802
  26        3PY         0.00400   0.45772   0.29335   0.30802   0.16595
  27        3PZ         0.67987   0.01025   0.01775   0.03502  -0.02022
  28 4   F  1S          0.00171  -0.00724   0.01254  -0.06780  -0.03914
  29        2S         -0.01225   0.03315  -0.05741   1.12134   0.64740
  30        2PX         0.00575   0.22214  -0.65610  -0.05797  -0.12773
  31        2PY        -0.00332  -0.39959   0.22214   0.12773  -0.08952
  32        2PZ        -0.58824  -0.00660   0.01143   0.01557   0.00899
  33        3S          0.00047  -0.01263   0.02187  -1.35718  -0.78357
  34        3PX        -0.00692  -0.29335   0.79646   0.18971   0.30802
  35        3PY         0.00400   0.45772  -0.29335  -0.30802   0.16595
  36        3PZ         0.67987   0.01025  -0.01775  -0.03502  -0.02022
                          36
                        (A1)--V
     Eigenvalues --     4.04466
   1 1   B  1S          0.02382
   2        2S         -0.40711
   3        2PX         0.00000
   4        2PY         0.00000
   5        2PZ         0.04149
   6        3S         -0.73143
   7        3PX         0.00000
   8        3PY         0.00000
   9        3PZ         0.05781
  10 2   F  1S          0.05423
  11        2S         -0.92855
  12        2PX         0.00000
  13        2PY         0.13585
  14        2PZ         0.01023
  15        3S          1.10096
  16        3PX         0.00000
  17        3PY        -0.35483
  18        3PZ        -0.01681
  19 3   F  1S          0.05423
  20        2S         -0.92855
  21        2PX        -0.11765
  22        2PY        -0.06793
  23        2PZ         0.01023
  24        3S          1.10096
  25        3PX         0.30729
  26        3PY         0.17741
  27        3PZ        -0.01681
  28 4   F  1S          0.05423
  29        2S         -0.92855
  30        2PX         0.11765
  31        2PY        -0.06793
  32        2PZ         0.01023
  33        3S          1.10096
  34        3PX        -0.30729
  35        3PY         0.17741
  36        3PZ        -0.01681
     Density Matrix:
                           1         2         3         4         5
   1 1   B  1S          2.01258
   2        2S          0.09308   0.15546
   3        2PX        -0.00000   0.00000   0.19238
   4        2PY         0.00000  -0.00000   0.00000   0.19238
   5        2PZ         0.00057  -0.00329  -0.00000   0.00000   0.07274
   6        3S         -0.07467   0.04137  -0.00000   0.00000   0.00141
   7        3PX        -0.00000   0.00000  -0.00852  -0.00000  -0.00000
   8        3PY         0.00000  -0.00000   0.00000  -0.00852   0.00000
   9        3PZ        -0.00428   0.00537  -0.00000   0.00000   0.05921
  10 2   F  1S          0.01212   0.00355  -0.00000  -0.00521  -0.00025
  11        2S         -0.00638  -0.00125   0.00000   0.01181  -0.00061
  12        2PX         0.00000  -0.00000   0.06466  -0.00000   0.00000
  13        2PY         0.08036  -0.13250  -0.00000  -0.22866   0.01026
  14        2PZ        -0.00596   0.00881   0.00000   0.01651   0.10577
  15        3S         -0.03945  -0.01268   0.00000   0.01437   0.00097
  16        3PX         0.00000  -0.00000   0.06964  -0.00000   0.00000
  17        3PY         0.10894  -0.14426  -0.00000  -0.23649   0.01016
  18        3PZ        -0.00688   0.00923   0.00000   0.01792   0.11015
  19 3   F  1S          0.01212   0.00355   0.00451   0.00260  -0.00025
  20        2S         -0.00638  -0.00125  -0.01023  -0.00591  -0.00061
  21        2PX        -0.06959   0.11475  -0.15533  -0.12701  -0.00888
  22        2PY        -0.04018   0.06625  -0.12701  -0.00867  -0.00513
  23        2PZ        -0.00596   0.00881  -0.01430  -0.00826   0.10577
  24        3S         -0.03945  -0.01268  -0.01244  -0.00718   0.00097
  25        3PX        -0.09435   0.12493  -0.15996  -0.13256  -0.00880
  26        3PY        -0.05447   0.07213  -0.13256  -0.00689  -0.00508
  27        3PZ        -0.00688   0.00923  -0.01552  -0.00896   0.11015
  28 4   F  1S          0.01212   0.00355  -0.00451   0.00260  -0.00025
  29        2S         -0.00638  -0.00125   0.01023  -0.00591  -0.00061
  30        2PX         0.06959  -0.11475  -0.15533   0.12701   0.00888
  31        2PY        -0.04018   0.06625   0.12701  -0.00867  -0.00513
  32        2PZ        -0.00596   0.00881   0.01430  -0.00826   0.10577
  33        3S         -0.03945  -0.01268   0.01244  -0.00718   0.00097
  34        3PX         0.09435  -0.12493  -0.15996   0.13256   0.00880
  35        3PY        -0.05447   0.07213   0.13256  -0.00689  -0.00508
  36        3PZ        -0.00688   0.00923   0.01552  -0.00896   0.11015
                           6         7         8         9        10
   6        3S          0.01648
   7        3PX        -0.00000   0.04177
   8        3PY         0.00000  -0.00000   0.04177
   9        3PZ         0.00376  -0.00000   0.00000   0.04866
  10 2   F  1S          0.01540   0.00000   0.02062  -0.00090   2.05900
  11        2S         -0.00009   0.00000   0.00124  -0.00056   0.06557
  12        2PX        -0.00000   0.11494  -0.00000   0.00000  -0.00000
  13        2PY        -0.04359  -0.00000   0.05068   0.00075  -0.03069
  14        2PZ         0.00645   0.00000   0.00806   0.08687   0.00240
  15        3S         -0.00679  -0.00000  -0.03196   0.00050  -0.48828
  16        3PX        -0.00000   0.12535  -0.00000  -0.00000  -0.00000
  17        3PY        -0.04830  -0.00000   0.06005  -0.00013  -0.00634
  18        3PZ         0.00676   0.00000   0.00844   0.09048   0.00102
  19 3   F  1S          0.01540  -0.01786  -0.01031  -0.00090  -0.00069
  20        2S         -0.00009  -0.00108  -0.00062  -0.00056   0.00124
  21        2PX         0.03775   0.06675  -0.02782  -0.00065   0.00024
  22        2PY         0.02179  -0.02782   0.09887  -0.00037   0.01369
  23        2PZ         0.00645  -0.00698  -0.00403   0.08687  -0.00053
  24        3S         -0.00679   0.02768   0.01598   0.00050   0.00147
  25        3PX         0.04183   0.07637  -0.02827   0.00011   0.00070
  26        3PY         0.02415  -0.02827   0.10902   0.00006   0.00833
  27        3PZ         0.00676  -0.00731  -0.00422   0.09048  -0.00003
  28 4   F  1S          0.01540   0.01786  -0.01031  -0.00090  -0.00069
  29        2S         -0.00009   0.00108  -0.00062  -0.00056   0.00124
  30        2PX        -0.03775   0.06675   0.02782   0.00065  -0.00024
  31        2PY         0.02179   0.02782   0.09887  -0.00037   0.01369
  32        2PZ         0.00645   0.00698  -0.00403   0.08687  -0.00053
  33        3S         -0.00679  -0.02768   0.01598   0.00050   0.00147
  34        3PX        -0.04183   0.07637   0.02827  -0.00011  -0.00070
  35        3PY         0.02415   0.02827   0.10902   0.00006   0.00833
  36        3PZ         0.00676   0.00731  -0.00422   0.09048  -0.00003
                          11        12        13        14        15
  11        2S          0.14043
  12        2PX         0.00000   0.56863
  13        2PY         0.03344  -0.00000   0.45662
  14        2PZ        -0.00234   0.00000   0.00832   0.54054
  15        3S          0.39411   0.00000   0.11280  -0.01125   1.35367
  16        3PX         0.00000   0.62321  -0.00000   0.00000   0.00000
  17        3PY         0.02991  -0.00000   0.48588   0.01019   0.08909
  18        3PZ        -0.00203   0.00000   0.01005   0.60730  -0.01001
  19 3   F  1S          0.00124  -0.01173  -0.00705  -0.00053   0.00147
  20        2S         -0.00101   0.00059   0.00610  -0.00046  -0.00125
  21        2PX        -0.00499   0.01367   0.01096   0.00165   0.01864
  22        2PY        -0.00356   0.03772   0.04178  -0.00080  -0.08874
  23        2PZ        -0.00046   0.00152  -0.00103  -0.03763   0.00555
  24        3S         -0.00125   0.08617   0.02822   0.00555  -0.00859
  25        3PX        -0.00410   0.02814   0.00617   0.00581   0.02212
  26        3PY        -0.00414   0.05207   0.04302  -0.00185  -0.09649
  27        3PZ        -0.00036   0.00443  -0.00182  -0.06135   0.00598
  28 4   F  1S          0.00124   0.01173  -0.00705  -0.00053   0.00147
  29        2S         -0.00101  -0.00059   0.00610  -0.00046  -0.00125
  30        2PX         0.00499   0.01367  -0.01096  -0.00165  -0.01864
  31        2PY        -0.00356  -0.03772   0.04178  -0.00080  -0.08874
  32        2PZ        -0.00046  -0.00152  -0.00103  -0.03763   0.00555
  33        3S         -0.00125  -0.08617   0.02822   0.00555  -0.00859
  34        3PX         0.00410   0.02814  -0.00617  -0.00581  -0.02212
  35        3PY        -0.00414  -0.05207   0.04302  -0.00185  -0.09649
  36        3PZ        -0.00036  -0.00443  -0.00182  -0.06135   0.00598
                          16        17        18        19        20
  16        3PX         0.68313
  17        3PY        -0.00000   0.51931
  18        3PZ         0.00000   0.01218   0.68380
  19 3   F  1S         -0.00686  -0.00477  -0.00003   2.05900
  20        2S          0.00154   0.00562  -0.00036   0.06557   0.14043
  21        2PX         0.01408  -0.00195   0.00379   0.02657  -0.02896
  22        2PY         0.04395   0.05708  -0.00293   0.01534  -0.01672
  23        2PZ         0.00451  -0.00411  -0.06135   0.00240  -0.00234
  24        3S          0.09463   0.02909   0.00598  -0.48828   0.39411
  25        3PX         0.02972  -0.00809   0.00853   0.00549  -0.02590
  26        3PY         0.05981   0.05958  -0.00446   0.00317  -0.01495
  27        3PZ         0.00813  -0.00515  -0.08954   0.00102  -0.00203
  28 4   F  1S          0.00686  -0.00477  -0.00003  -0.00069   0.00124
  29        2S         -0.00154   0.00562  -0.00036   0.00124  -0.00101
  30        2PX         0.01408   0.00195  -0.00379  -0.01197   0.00557
  31        2PY        -0.04395   0.05708  -0.00293  -0.00663  -0.00254
  32        2PZ        -0.00451  -0.00411  -0.06135  -0.00053  -0.00046
  33        3S         -0.09463   0.02909   0.00598   0.00147  -0.00125
  34        3PX         0.02972   0.00809  -0.00853  -0.00756   0.00564
  35        3PY        -0.05981   0.05958  -0.00446  -0.00356  -0.00148
  36        3PZ        -0.00813  -0.00515  -0.08954  -0.00003  -0.00036
                          21        22        23        24        25
  21        2PX         0.48462
  22        2PY        -0.04850   0.54062
  23        2PZ        -0.00720  -0.00416   0.54054
  24        3S         -0.09768  -0.05640  -0.01125   1.35367
  25        3PX         0.52021  -0.05947  -0.00882  -0.07715   0.56026
  26        3PY        -0.05947   0.58888  -0.00510  -0.04454  -0.07094
  27        3PZ        -0.00870  -0.00502   0.60730  -0.01001  -0.01055
  28 4   F  1S          0.01197  -0.00663  -0.00053   0.00147   0.00756
  29        2S         -0.00557  -0.00254  -0.00046  -0.00125  -0.00564
  30        2PX         0.05583  -0.01338  -0.00013   0.06753   0.06452
  31        2PY         0.01338  -0.00039   0.00183   0.06051   0.03107
  32        2PZ         0.00013   0.00183  -0.03763   0.00555   0.00130
  33        3S         -0.06753   0.06051   0.00555  -0.00859  -0.07250
  34        3PX         0.06452  -0.03107  -0.00130   0.07250   0.07452
  35        3PY         0.01483   0.00664   0.00596   0.06740   0.03395
  36        3PZ        -0.00064   0.00475  -0.06135   0.00598   0.00040
                          26        27        28        29        30
  26        3PY         0.64217
  27        3PZ        -0.00609   0.68380
  28 4   F  1S         -0.00356  -0.00003   2.05900
  29        2S         -0.00148  -0.00036   0.06557   0.14043
  30        2PX        -0.01483   0.00064  -0.02657   0.02896   0.48462
  31        2PY         0.00664   0.00475   0.01534  -0.01672   0.04850
  32        2PZ         0.00596  -0.06135   0.00240  -0.00234   0.00720
  33        3S          0.06740   0.00598  -0.48828   0.39411   0.09768
  34        3PX        -0.03395  -0.00040  -0.00549   0.02590   0.52021
  35        3PY         0.01479   0.00961   0.00317  -0.01495   0.05947
  36        3PZ         0.00961  -0.08954   0.00102  -0.00203   0.00870
                          31        32        33        34        35
  31        2PY         0.54062
  32        2PZ        -0.00416   0.54054
  33        3S         -0.05640  -0.01125   1.35367
  34        3PX         0.05947   0.00882   0.07715   0.56026
  35        3PY         0.58888  -0.00510  -0.04454   0.07094   0.64217
  36        3PZ        -0.00502   0.60730  -0.01001   0.01055  -0.00609
                          36
  36        3PZ         0.68380
    Full Mulliken population analysis:
                           1         2         3         4         5
   1 1   B  1S          2.01258
   2        2S          0.01702   0.15546
   3        2PX         0.00000   0.00000   0.19238
   4        2PY         0.00000   0.00000   0.00000   0.19238
   5        2PZ         0.00000   0.00000   0.00000   0.00000   0.07274
   6        3S         -0.01298   0.03208   0.00000   0.00000   0.00000
   7        3PX         0.00000   0.00000  -0.00470  -0.00000   0.00000
   8        3PY         0.00000   0.00000  -0.00000  -0.00470   0.00000
   9        3PZ         0.00000   0.00000   0.00000   0.00000   0.03264
  10 2   F  1S          0.00000   0.00004   0.00000  -0.00015   0.00000
  11        2S         -0.00000  -0.00010   0.00000   0.00193   0.00001
  12        2PX         0.00000   0.00000   0.00235   0.00000   0.00000
  13        2PY        -0.00005   0.01120   0.00000   0.03232   0.00009
  14        2PZ        -0.00000   0.00004   0.00000   0.00015   0.00379
  15        3S         -0.00108  -0.00314   0.00000   0.00507  -0.00002
  16        3PX         0.00000   0.00000   0.01408   0.00000   0.00000
  17        3PY        -0.00935   0.05795   0.00000   0.09995   0.00033
  18        3PZ        -0.00003   0.00019   0.00000   0.00057   0.02209
  19 3   F  1S          0.00000   0.00004  -0.00012  -0.00004   0.00000
  20        2S         -0.00000  -0.00010   0.00145   0.00048   0.00001
  21        2PX        -0.00003   0.00840   0.01506   0.00977   0.00007
  22        2PY        -0.00001   0.00280   0.00977   0.00007   0.00002
  23        2PZ        -0.00000   0.00004   0.00011   0.00004   0.00379
  24        3S         -0.00108  -0.00314   0.00381   0.00127  -0.00002
  25        3PX        -0.00701   0.04347   0.04261   0.03587   0.00024
  26        3PY        -0.00234   0.01449   0.03587  -0.00032   0.00008
  27        3PZ        -0.00003   0.00019   0.00043   0.00014   0.02209
  28 4   F  1S          0.00000   0.00004  -0.00012  -0.00004   0.00000
  29        2S         -0.00000  -0.00010   0.00145   0.00048   0.00001
  30        2PX        -0.00003   0.00840   0.01506   0.00977   0.00007
  31        2PY        -0.00001   0.00280   0.00977   0.00007   0.00002
  32        2PZ        -0.00000   0.00004   0.00011   0.00004   0.00379
  33        3S         -0.00108  -0.00314   0.00381   0.00127  -0.00002
  34        3PX        -0.00701   0.04347   0.04261   0.03587   0.00024
  35        3PY        -0.00234   0.01449   0.03587  -0.00032   0.00008
  36        3PZ        -0.00003   0.00019   0.00043   0.00014   0.02209
                           6         7         8         9        10
   6        3S          0.01648
   7        3PX         0.00000   0.04177
   8        3PY         0.00000  -0.00000   0.04177
   9        3PZ         0.00000   0.00000   0.00000   0.04866
  10 2   F  1S          0.00048   0.00000   0.00114   0.00000   2.05900
  11        2S         -0.00001   0.00000   0.00034   0.00001   0.01408
  12        2PX         0.00000   0.00701   0.00000   0.00000   0.00000
  13        2PY         0.00236   0.00000  -0.00151   0.00000   0.00000
  14        2PZ         0.00002   0.00000   0.00004   0.00528   0.00000
  15        3S         -0.00263   0.00000  -0.01746  -0.00001  -0.08964
  16        3PX         0.00000   0.03921   0.00000  -0.00000   0.00000
  17        3PY         0.01340   0.00000  -0.00471  -0.00000   0.00000
  18        3PZ         0.00010   0.00000   0.00017   0.02821   0.00000
  19 3   F  1S          0.00048   0.00086   0.00029   0.00000   0.00000
  20        2S         -0.00001   0.00025   0.00008   0.00001   0.00000
  21        2PX         0.00177  -0.00047   0.00109   0.00000   0.00000
  22        2PY         0.00059   0.00109   0.00379   0.00000   0.00000
  23        2PZ         0.00002   0.00003   0.00001   0.00528   0.00000
  24        3S         -0.00263  -0.01310  -0.00437  -0.00001   0.00000
  25        3PX         0.01005   0.00148   0.00479  -0.00000   0.00000
  26        3PY         0.00335   0.00479   0.02344  -0.00000   0.00000
  27        3PZ         0.00010   0.00013   0.00004   0.02821   0.00000
  28 4   F  1S          0.00048   0.00086   0.00029   0.00000   0.00000
  29        2S         -0.00001   0.00025   0.00008   0.00001   0.00000
  30        2PX         0.00177  -0.00047   0.00109   0.00000   0.00000
  31        2PY         0.00059   0.00109   0.00379   0.00000   0.00000
  32        2PZ         0.00002   0.00003   0.00001   0.00528   0.00000
  33        3S         -0.00263  -0.01310  -0.00437  -0.00001   0.00000
  34        3PX         0.01005   0.00148   0.00479  -0.00000   0.00000
  35        3PY         0.00335   0.00479   0.02344  -0.00000   0.00000
  36        3PZ         0.00010   0.00013   0.00004   0.02821   0.00000
                          11        12        13        14        15
  11        2S          0.14043
  12        2PX         0.00000   0.56863
  13        2PY         0.00000   0.00000   0.45662
  14        2PZ         0.00000   0.00000   0.00000   0.54054
  15        3S          0.28856   0.00000   0.00000   0.00000   1.35367
  16        3PX         0.00000   0.30436   0.00000   0.00000   0.00000
  17        3PY         0.00000   0.00000   0.23729   0.00000   0.00000
  18        3PZ         0.00000   0.00000   0.00000   0.29659   0.00000
  19 3   F  1S          0.00000   0.00000   0.00000   0.00000   0.00000
  20        2S         -0.00000  -0.00000  -0.00000   0.00000  -0.00000
  21        2PX        -0.00000  -0.00000  -0.00000   0.00000   0.00001
  22        2PY        -0.00000  -0.00000  -0.00000   0.00000  -0.00006
  23        2PZ         0.00000   0.00000   0.00000  -0.00000   0.00000
  24        3S         -0.00000  -0.00004  -0.00002   0.00000  -0.00009
  25        3PX        -0.00000  -0.00002  -0.00001   0.00000   0.00034
  26        3PY        -0.00001  -0.00009  -0.00012   0.00000  -0.00260
  27        3PZ         0.00000   0.00000   0.00000  -0.00002   0.00000
  28 4   F  1S          0.00000   0.00000   0.00000   0.00000   0.00000
  29        2S         -0.00000  -0.00000  -0.00000   0.00000  -0.00000
  30        2PX        -0.00000  -0.00000  -0.00000   0.00000   0.00001
  31        2PY        -0.00000  -0.00000  -0.00000   0.00000  -0.00006
  32        2PZ         0.00000   0.00000   0.00000  -0.00000   0.00000
  33        3S         -0.00000  -0.00004  -0.00002   0.00000  -0.00009
  34        3PX        -0.00000  -0.00002  -0.00001   0.00000   0.00034
  35        3PY        -0.00001  -0.00009  -0.00012   0.00000  -0.00260
  36        3PZ         0.00000   0.00000   0.00000  -0.00002   0.00000
                          16        17        18        19        20
  16        3PX         0.68313
  17        3PY        -0.00000   0.51931
  18        3PZ         0.00000   0.00000   0.68380
  19 3   F  1S          0.00000   0.00000   0.00000   2.05900
  20        2S         -0.00000  -0.00001   0.00000   0.01408   0.14043
  21        2PX        -0.00001   0.00000   0.00000   0.00000   0.00000
  22        2PY        -0.00008  -0.00016   0.00000   0.00000   0.00000
  23        2PZ         0.00000   0.00000  -0.00002   0.00000   0.00000
  24        3S         -0.00147  -0.00078   0.00000  -0.08964   0.28856
  25        3PX        -0.00039   0.00033   0.00000   0.00000   0.00000
  26        3PY        -0.00244  -0.00359   0.00000   0.00000   0.00000
  27        3PZ         0.00000   0.00000  -0.00092   0.00000   0.00000
  28 4   F  1S          0.00000   0.00000   0.00000   0.00000   0.00000
  29        2S         -0.00000  -0.00001   0.00000   0.00000  -0.00000
  30        2PX        -0.00001   0.00000   0.00000   0.00000  -0.00000
  31        2PY        -0.00008  -0.00016   0.00000  -0.00000  -0.00000
  32        2PZ         0.00000   0.00000  -0.00002   0.00000   0.00000
  33        3S         -0.00147  -0.00078   0.00000   0.00000  -0.00000
  34        3PX        -0.00039   0.00033   0.00000   0.00000  -0.00001
  35        3PY        -0.00244  -0.00359   0.00000  -0.00000   0.00000
  36        3PZ         0.00000   0.00000  -0.00092   0.00000   0.00000
                          21        22        23        24        25
  21        2PX         0.48462
  22        2PY         0.00000   0.54062
  23        2PZ         0.00000   0.00000   0.54054
  24        3S          0.00000   0.00000   0.00000   1.35367
  25        3PX         0.25405   0.00000   0.00000   0.00000   0.56026
  26        3PY        -0.00000   0.28759   0.00000   0.00000   0.00000
  27        3PZ         0.00000   0.00000   0.29659   0.00000   0.00000
  28 4   F  1S          0.00000  -0.00000   0.00000   0.00000   0.00000
  29        2S         -0.00000   0.00000   0.00000  -0.00000  -0.00001
  30        2PX        -0.00000  -0.00000   0.00000  -0.00006  -0.00025
  31        2PY         0.00000  -0.00000   0.00000   0.00000   0.00000
  32        2PZ         0.00000   0.00000  -0.00000   0.00000   0.00000
  33        3S         -0.00006   0.00000   0.00000  -0.00009  -0.00226
  34        3PX        -0.00025   0.00000   0.00000  -0.00226  -0.00625
  35        3PY        -0.00000   0.00000   0.00000   0.00000   0.00000
  36        3PZ         0.00000   0.00000  -0.00002   0.00000   0.00000
                          26        27        28        29        30
  26        3PY         0.64217
  27        3PZ         0.00000   0.68380
  28 4   F  1S         -0.00000   0.00000   2.05900
  29        2S          0.00000   0.00000   0.01408   0.14043
  30        2PX        -0.00000   0.00000   0.00000   0.00000   0.48462
  31        2PY         0.00000   0.00000   0.00000   0.00000   0.00000
  32        2PZ         0.00000  -0.00002   0.00000   0.00000   0.00000
  33        3S         -0.00000   0.00000  -0.08964   0.28856   0.00000
  34        3PX        -0.00000   0.00000   0.00000   0.00000   0.25405
  35        3PY         0.00015   0.00000   0.00000   0.00000   0.00000
  36        3PZ         0.00000  -0.00092   0.00000   0.00000   0.00000
                          31        32        33        34        35
  31        2PY         0.54062
  32        2PZ         0.00000   0.54054
  33        3S          0.00000   0.00000   1.35367
  34        3PX        -0.00000   0.00000   0.00000   0.56026
  35        3PY         0.28759   0.00000   0.00000   0.00000   0.64217
  36        3PZ         0.00000   0.29659   0.00000   0.00000   0.00000
                          36
  36        3PZ         0.68380
     Gross orbital populations:
                           1
   1 1   B  1S          1.98508
   2        2S          0.40312
   3        2PX         0.42209
   4        2PY         0.42209
   5        2PZ         0.18425
   6        3S          0.07670
   7        3PX         0.07342
   8        3PY         0.07342
   9        3PZ         0.18176
  10 2   F  1S          1.98496
  11        2S          0.44521
  12        2PX         0.88204
  13        2PY         0.73803
  14        2PZ         0.84640
  15        3S          1.52851
  16        3PX         1.03199
  17        3PY         0.90573
  18        3PZ         1.02981
  19 3   F  1S          1.98496
  20        2S          0.44521
  21        2PX         0.77403
  22        2PY         0.84604
  23        2PZ         0.84640
  24        3S          1.52851
  25        3PX         0.93729
  26        3PY         1.00042
  27        3PZ         1.02981
  28 4   F  1S          1.98496
  29        2S          0.44521
  30        2PX         0.77403
  31        2PY         0.84604
  32        2PZ         0.84640
  33        3S          1.52851
  34        3PX         0.93729
  35        3PY         1.00042
  36        3PZ         1.02981
          Condensed to atoms (all electrons):
               1          2          3          4
     1  B    2.892930   0.309669   0.309669   0.309669
     2  F    0.309669   9.107583  -0.012283  -0.012283
     3  F    0.309669  -0.012283   9.107583  -0.012283
     4  F    0.309669  -0.012283  -0.012283   9.107583
 Mulliken charges:
               1
     1  B    1.178061
     2  F   -0.392687
     3  F   -0.392687
     4  F   -0.392687
 Sum of Mulliken charges =  -0.00000
 Mulliken charges with hydrogens summed into heavy atoms:
               1
     1  B    1.178061
     2  F   -0.392687
     3  F   -0.392687
     4  F   -0.392687
 Electronic spatial extent (au):  <R**2>=            217.1567
 Charge=             -0.0000 electrons
 Dipole moment (field-independent basis, Debye):
    X=              0.0000    Y=             -0.0000    Z=              0.4408  Tot=              0.4408
 Quadrupole moment (field-independent basis, Debye-Ang):
   XX=            -22.6943   YY=            -22.6943   ZZ=            -16.8799
   XY=             -0.0000   XZ=              0.0000   YZ=             -0.0000
 Traceless Quadrupole moment (field-independent basis, Debye-Ang):
   XX=             -1.9381   YY=             -1.9381   ZZ=              3.8763
   XY=             -0.0000   XZ=              0.0000   YZ=             -0.0000
 Octapole moment (field-independent basis, Debye-Ang**2):
  XXX=              0.0000  YYY=             -3.1934  ZZZ=             -0.0071  XYY=             -0.0000
  XXY=              3.1934  XXZ=             -0.0377  XZZ=              0.0000  YZZ=              0.0000
  YYZ=             -0.0377  XYZ=              0.0000
 Hexadecapole moment (field-independent basis, Debye-Ang**3):
 XXXX=            -91.5246 YYYY=            -91.5246 ZZZZ=             -9.6639 XXXY=              0.0000
 XXXZ=              0.0000 YYYX=              0.0000 YYYZ=             -0.0310 ZZZX=             -0.0000
 ZZZY=             -0.0000 XXYY=            -30.5082 XXZZ=            -15.9478 YYZZ=            -15.9478
 XXYZ=              0.0310 YYXZ=             -0.0000 ZZXY=              0.0000
 N-N= 1.093879687973D+02 E-N=-9.860275408779D+02  KE= 3.199796455751D+02
 Symmetry A'   KE= 2.135007565201D+02
 Symmetry A"   KE= 1.064788890550D+02
 Orbital energies and kinetic energies (alpha):
                                 1                 2
   1         (A1)--O         -26.214917         36.900371
   2         (E)--O          -26.214749         36.900462
   3         (E)--O          -26.214749         36.900462
   4         (A1)--O          -7.781981         10.789297
   5         (A1)--O          -1.674183          3.617236
   6         (E)--O           -1.627903          3.854464
   7         (E)--O           -1.627903          3.854464
   8         (A1)--O          -0.831295          2.975158
   9         (E)--O           -0.785498          2.823192
  10         (E)--O           -0.785498          2.823192
  11         (A1)--O          -0.748714          2.569405
  12         (E)--O           -0.672635          3.143520
  13         (E)--O           -0.672635          3.143520
  14         (E)--O           -0.664562          3.177274
  15         (E)--O           -0.664562          3.177274
  16         (A2)--O          -0.646650          3.340532
  17         (A1)--V           0.166125          1.684399
  18         (A1)--V           0.268216          1.959520
  19         (E)--V            0.412502          1.534697
  20         (E)--V            0.412502          1.534697
  21         (A1)--V           0.552853          1.568505
  22         (E)--V            0.772864          3.208756
  23         (E)--V            0.772864          3.208756
  24         (A1)--V           0.892593          3.046307
  25         (E)--V            2.169504          6.541855
  26         (E)--V            2.169504          6.541855
  27         (E)--V            2.283676          6.585355
  28         (E)--V            2.283676          6.585355
  29         (A2)--V           2.292963          6.556186
  30         (A1)--V           2.381491          6.466690
  31         (A1)--V           2.422067          6.606051
  32         (E)--V            2.452394          6.677540
  33         (E)--V            2.452394          6.677540
  34         (E)--V            3.998072          8.674490
  35         (E)--V            3.998072          8.674490
  36         (A1)--V           4.044659          8.704601
 Total kinetic energy from orbitals= 3.199796455751D+02
 1\1\GINC-IISERK51\SP\RHF\3-21G\B1F3\GAUSSIAN\17-Jun-2025\0\\# hf/3-21g
  pop=full geom=connectivity\\Title Card Required\\0,1\B,0,0.,0.,-1.094
 582\F,0,0.,1.330921,-1.162799\F,0,-1.152612,-0.665461,-1.162799\F,0,1.
 152612,-0.665461,-1.162799\\Version=EM64L-G16RevB.01\State=1-A1\HF=-32
 1.464414\RMSD=7.594e-09\Dipole=0.,0.,0.1734314\Quadrupole=-1.4409503,-
 1.4409503,2.8819006,0.,0.,0.\PG=C03V [C3(B1),3SGV(F1)]\\@


 WOMEN HOLD UP HALF THE SKY. -- MAO TSE TUNG
 Job cpu time:       0 days  0 hours  0 minutes  0.4 seconds.
 Elapsed time:       0 days  0 hours  0 minutes  0.4 seconds.
 File lengths (MBytes):  RWF=      6 Int=      0 D2E=      0 Chk=      1 Scr=      1
 Normal termination of Gaussian 16 at Tue Jun 17 16:07:13 2025.
