 Entering Gaussian System, Link 0=g16
 Input=/home/gaussian/Documents/Summer_Internship/Acid_Base_adduct/Adduct/PH3-BF3/PH3_BF3_adduct_opt.com
 Output=/home/gaussian/Documents/Summer_Internship/Acid_Base_adduct/Adduct/PH3-BF3/PH3_BF3_adduct_opt.log
 Initial command:
 /usr/local/g16/l1.exe "/home/gaussian/tmp/Gau-92882.inp" -scrdir="/home/gaussian/tmp/"
 Entering Link 1 = /usr/local/g16/l1.exe PID=     92885.
  
 Copyright (c) 1988-2017, Gaussian, Inc.  All Rights Reserved.
  
 This is part of the Gaussian(R) 16 program.  It is based on
 the Gaussian(R) 09 system (copyright 2009, Gaussian, Inc.),
 the Gaussian(R) 03 system (copyright 2003, Gaussian, Inc.),
 the Gaussian(R) 98 system (copyright 1998, Gaussian, Inc.),
 the Gaussian(R) 94 system (copyright 1995, Gaussian, Inc.),
 the Gaussian 92(TM) system (copyright 1992, Gaussian, Inc.),
 the Gaussian 90(TM) system (copyright 1990, Gaussian, Inc.),
 the Gaussian 88(TM) system (copyright 1988, Gaussian, Inc.),
 the Gaussian 86(TM) system (copyright 1986, Carnegie Mellon
 University), and the Gaussian 82(TM) system (copyright 1983,
 Carnegie Mellon University). Gaussian is a federally registered
 trademark of Gaussian, Inc.
  
 This software contains proprietary and confidential information,
 including trade secrets, belonging to Gaussian, Inc.
  
 This software is provided under written license and may be
 used, copied, transmitted, or stored only in accord with that
 written license.
  
 The following legend is applicable only to US Government
 contracts under FAR:
  
                    RESTRICTED RIGHTS LEGEND
  
 Use, reproduction and disclosure by the US Government is
 subject to restrictions as set forth in subparagraphs (a)
 and (c) of the Commercial Computer Software - Restricted
 Rights clause in FAR 52.227-19.
  
 Gaussian, Inc.
 340 Quinnipiac St., Bldg. 40, Wallingford CT 06492
  
  
 ---------------------------------------------------------------
 Warning -- This program may not be used in any manner that
 competes with the business of Gaussian, Inc. or will provide
 assistance to any competitor of Gaussian, Inc.  The licensee
 of this program is prohibited from giving any competitor of
 Gaussian, Inc. access to this program.  By using this program,
 the user acknowledges that Gaussian, Inc. is engaged in the
 business of creating and licensing software in the field of
 computational chemistry and represents and warrants to the
 licensee that it is not a competitor of Gaussian, Inc. and that
 it will not use this program in any manner prohibited above.
 ---------------------------------------------------------------
  

 Cite this work as:
 Gaussian 16, Revision B.01,
 M. J. Frisch, G. W. Trucks, H. B. Schlegel, G. E. Scuseria, 
 M. A. Robb, J. R. Cheeseman, G. Scalmani, V. Barone, 
 G. A. Petersson, H. Nakatsuji, X. Li, M. Caricato, A. V. Marenich, 
 J. Bloino, B. G. Janesko, R. Gomperts, B. Mennucci, H. P. Hratchian, 
 J. V. Ortiz, A. F. Izmaylov, J. L. Sonnenberg, D. Williams-Young, 
 F. Ding, F. Lipparini, F. Egidi, J. Goings, B. Peng, A. Petrone, 
 T. Henderson, D. Ranasinghe, V. G. Zakrzewski, J. Gao, N. Rega, 
 G. Zheng, W. Liang, M. Hada, M. Ehara, K. Toyota, R. Fukuda, 
 J. Hasegawa, M. Ishida, T. Nakajima, Y. Honda, O. Kitao, H. Nakai, 
 T. Vreven, K. Throssell, J. A. Montgomery, Jr., J. E. Peralta, 
 F. Ogliaro, M. J. Bearpark, J. J. Heyd, E. N. Brothers, K. N. Kudin, 
 V. N. Staroverov, T. A. Keith, R. Kobayashi, J. Normand, 
 K. Raghavachari, A. P. Rendell, J. C. Burant, S. S. Iyengar, 
 J. Tomasi, M. Cossi, J. M. Millam, M. Klene, C. Adamo, R. Cammi, 
 J. W. Ochterski, R. L. Martin, K. Morokuma, O. Farkas, 
 J. B. Foresman, and D. J. Fox, Gaussian, Inc., Wallingford CT, 2016.
 
 ******************************************
 Gaussian 16:  EM64L-G16RevB.01 20-Dec-2017
                17-Jun-2025 
 ******************************************
 %chk=PH3_BF3_adduct_opt.chk
 ----------------------------------------------
 # opt freq hf/3-21g pop=full geom=connectivity
 ----------------------------------------------
 1/18=20,19=15,38=1,57=2/1,3;
 2/9=110,12=2,17=6,18=5,40=1/2;
 3/5=5,11=9,25=1,30=1,71=1/1,2,3;
 4//1;
 5/5=2,38=5/2;
 6/7=3,28=1/1;
 7//1,2,3,16;
 1/18=20,19=15/3(2);
 2/9=110/2;
 99//99;
 2/9=110/2;
 3/5=5,11=9,25=1,30=1,71=1/1,2,3;
 4/5=5,16=3,69=1/1;
 5/5=2,38=5/2;
 7//1,2,3,16;
 1/18=20,19=15/3(-5);
 2/9=110/2;
 6/7=3,19=2,28=1/1;
 99/9=1/99;
 -------------------
 Title Card Required
 -------------------
 Symbolic Z-matrix:
 Charge =  0 Multiplicity = 1
 B                     0.62825   0.41969   0.53165 
 F                     0.12901   1.64322  -0.08909 
 F                    -0.19054  -0.71143   0.10532 
 F                     2.01317   0.19825   0.12598 
 P                     0.53985   0.59025   2.45207 
 H                     1.29695   1.63614   2.84627 
 H                    -0.74072   0.79501   2.82718 
 H                     1.00148  -0.5411    3.02604 
 

 GradGradGradGradGradGradGradGradGradGradGradGradGradGradGradGradGradGrad
 Berny optimization.
 Initialization pass.
                           ----------------------------
                           !    Initial Parameters    !
                           ! (Angstroms and Degrees)  !
 --------------------------                            --------------------------
 ! Name  Definition              Value          Derivative Info.                !
 --------------------------------------------------------------------------------
 ! R1    R(1,2)                  1.46           estimate D2E/DX2                !
 ! R2    R(1,3)                  1.46           estimate D2E/DX2                !
 ! R3    R(1,4)                  1.46           estimate D2E/DX2                !
 ! R4    R(1,5)                  1.93           estimate D2E/DX2                !
 ! R5    R(5,6)                  1.35           estimate D2E/DX2                !
 ! R6    R(5,7)                  1.35           estimate D2E/DX2                !
 ! R7    R(5,8)                  1.35           estimate D2E/DX2                !
 ! A1    A(2,1,3)              109.4712         estimate D2E/DX2                !
 ! A2    A(2,1,4)              109.4712         estimate D2E/DX2                !
 ! A3    A(2,1,5)              109.4712         estimate D2E/DX2                !
 ! A4    A(3,1,4)              109.4712         estimate D2E/DX2                !
 ! A5    A(3,1,5)              109.4712         estimate D2E/DX2                !
 ! A6    A(4,1,5)              109.4712         estimate D2E/DX2                !
 ! A7    A(1,5,6)              109.4712         estimate D2E/DX2                !
 ! A8    A(1,5,7)              109.4712         estimate D2E/DX2                !
 ! A9    A(1,5,8)              109.4712         estimate D2E/DX2                !
 ! A10   A(6,5,7)              109.4712         estimate D2E/DX2                !
 ! A11   A(6,5,8)              109.4712         estimate D2E/DX2                !
 ! A12   A(7,5,8)              109.4712         estimate D2E/DX2                !
 ! D1    D(2,1,5,6)            -60.0            estimate D2E/DX2                !
 ! D2    D(2,1,5,7)             60.0            estimate D2E/DX2                !
 ! D3    D(2,1,5,8)           -180.0            estimate D2E/DX2                !
 ! D4    D(3,1,5,6)            180.0            estimate D2E/DX2                !
 ! D5    D(3,1,5,7)            -60.0            estimate D2E/DX2                !
 ! D6    D(3,1,5,8)             60.0            estimate D2E/DX2                !
 ! D7    D(4,1,5,6)             60.0            estimate D2E/DX2                !
 ! D8    D(4,1,5,7)           -180.0            estimate D2E/DX2                !
 ! D9    D(4,1,5,8)            -60.0            estimate D2E/DX2                !
 --------------------------------------------------------------------------------
 Trust Radius=3.00D-01 FncErr=1.00D-07 GrdErr=1.00D-07 EigMax=2.50D+02 EigMin=1.00D-04
 Number of steps in this run=     38 maximum allowed number of steps=    100.
 GradGradGradGradGradGradGradGradGradGradGradGradGradGradGradGradGradGrad

                          Input orientation:                          
 ---------------------------------------------------------------------
 Center     Atomic      Atomic             Coordinates (Angstroms)
 Number     Number       Type             X           Y           Z
 ---------------------------------------------------------------------
      1          5           0        0.628252    0.419687    0.531652
      2          9           0        0.129006    1.643218   -0.089094
      3          9           0       -0.190542   -0.711428    0.105325
      4          9           0        2.013167    0.198245    0.125977
      5         15           0        0.539848    0.590249    2.452067
      6          1           0        1.296952    1.636143    2.846274
      7          1           0       -0.740724    0.795007    2.827178
      8          1           0        1.001480   -0.541098    3.026045
 ---------------------------------------------------------------------
                    Distance matrix (angstroms):
                    1          2          3          4          5
     1  B    0.000000
     2  F    1.460000   0.000000
     3  F    1.460000   2.384170   0.000000
     4  F    1.460000   2.384170   2.384170   0.000000
     5  P    1.930000   2.781193   2.781193   2.781193   0.000000
     6  H    2.698963   3.159198   3.903400   3.159198   1.350000
     7  H    2.698963   3.159198   3.159198   3.903400   1.350000
     8  H    2.698963   3.903400   3.159198   3.159198   1.350000
                    6          7          8
     6  H    0.000000
     7  H    2.204541   0.000000
     8  H    2.204541   2.204541   0.000000
 Stoichiometry    BF3H3P
 Framework group  C3V[C3(BP),3SGV(FH)]
 Deg. of freedom     5
 Full point group                 C3V     NOp   6
 Largest Abelian subgroup         CS      NOp   2
 Largest concise Abelian subgroup CS      NOp   2
                         Standard orientation:                         
 ---------------------------------------------------------------------
 Center     Atomic      Atomic             Coordinates (Angstroms)
 Number     Number       Type             X           Y           Z
 ---------------------------------------------------------------------
      1          5           0       -0.000000   -0.000000   -0.459000
      2          9           0       -0.000000    1.376501   -0.945667
      3          9           0       -1.192085   -0.688251   -0.945667
      4          9           0        1.192085   -0.688251   -0.945667
      5         15           0        0.000000    0.000000    1.471000
      6          1           0        1.102270    0.636396    1.921000
      7          1           0       -1.102270    0.636396    1.921000
      8          1           0       -0.000000   -1.272792    1.921000
 ---------------------------------------------------------------------
 Rotational constants (GHZ):           4.4767377           2.6975037           2.6975037
 Standard basis: 3-21G (6D, 7F)
 There are    37 symmetry adapted cartesian basis functions of A'  symmetry.
 There are    18 symmetry adapted cartesian basis functions of A"  symmetry.
 There are    37 symmetry adapted basis functions of A'  symmetry.
 There are    18 symmetry adapted basis functions of A"  symmetry.
    55 basis functions,    96 primitive gaussians,    55 cartesian basis functions
    25 alpha electrons       25 beta electrons
       nuclear repulsion energy       234.4947921565 Hartrees.



 Warning!  P  atom    5 may be hypervalent but has no d functions.



 NAtoms=    8 NActive=    8 NUniq=    4 SFac= 4.00D+00 NAtFMM=   60 NAOKFM=F Big=F
 Integral buffers will be    131072 words long.
 Raffenetti 1 integral format.
 Two-electron integral symmetry is turned on.
 One-electron integrals computed using PRISM.
 NBasis=    55 RedAO= T EigKep=  1.08D-02  NBF=    37    18
 NBsUse=    55 1.00D-06 EigRej= -1.00D+00 NBFU=    37    18
 ExpMin= 1.23D-01 ExpMax= 1.05D+03 ExpMxC= 1.05D+03 IAcc=3 IRadAn=         5 AccDes= 0.00D+00
 Harris functional with IExCor=  205 and IRadAn=       5 diagonalized for initial guess.
 HarFok:  IExCor=  205 AccDes= 0.00D+00 IRadAn=         5 IDoV= 1 UseB2=F ITyADJ=14
 ICtDFT=  3500011 ScaDFX=  1.000000  1.000000  1.000000  1.000000
 FoFCou: FMM=F IPFlag=           0 FMFlag=      100000 FMFlg1=           0
         NFxFlg=           0 DoJE=T BraDBF=F KetDBF=T FulRan=T
         wScrn=  0.000000 ICntrl=       500 IOpCl=  0 I1Cent=   200000004 NGrid=           0
         NMat0=    1 NMatS0=      1 NMatT0=    0 NMatD0=    1 NMtDS0=    0 NMtDT0=    0
 Petite list used in FoFCou.
 Initial guess orbital symmetries:
       Occupied  (A1) (A1) (E) (E) (A1) (A1) (E) (E) (A1) (A1)
                 (E) (E) (A1) (A1) (E) (E) (A1) (E) (E) (E) (E)
                 (E) (E) (A2) (A1)
       Virtual   (E) (E) (A1) (A1) (A1) (E) (E) (E) (E) (A1) (A1)
                 (E) (E) (A1) (A1) (A1) (E) (E) (E) (E) (A2) (E)
                 (E) (A1) (E) (E) (A1) (E) (E) (A1)
 The electronic state of the initial guess is 1-A1.
 Keep R1 ints in memory in symmetry-blocked form, NReq=2005678.
 Requested convergence on RMS density matrix=1.00D-08 within 128 cycles.
 Requested convergence on MAX density matrix=1.00D-06.
 Requested convergence on             energy=1.00D-06.
 No special actions if energy rises.
 SCF Done:  E(RHF) =  -662.128780269     A.U. after   11 cycles
            NFock= 11  Conv=0.16D-08     -V/T= 2.0021

 **********************************************************************

            Population analysis using the SCF Density.

 **********************************************************************

 Orbital symmetries:
       Occupied  (A1) (A1) (E) (E) (A1) (A1) (E) (E) (A1) (A1)
                 (E) (E) (A1) (A1) (E) (E) (A1) (E) (E) (E) (E)
                 (E) (E) (A2) (A1)
       Virtual   (E) (E) (A1) (A1) (E) (E) (A1) (E) (E) (A1) (A1)
                 (A1) (E) (E) (A1) (A1) (E) (E) (E) (E) (A2) (E)
                 (E) (A1) (E) (E) (A1) (E) (E) (A1)
 The electronic state is 1-A1.
 Alpha  occ. eigenvalues --  -79.46718 -26.09987 -26.09905 -26.09905  -7.69386
 Alpha  occ. eigenvalues --   -7.55567  -5.44039  -5.44039  -5.43993  -1.53747
 Alpha  occ. eigenvalues --   -1.49568  -1.49568  -1.00454  -0.73913  -0.67187
 Alpha  occ. eigenvalues --   -0.67187  -0.66132  -0.63761  -0.63761  -0.57172
 Alpha  occ. eigenvalues --   -0.57172  -0.55131  -0.55131  -0.54073  -0.48707
 Alpha virt. eigenvalues --    0.13862   0.13862   0.15835   0.24828   0.41694
 Alpha virt. eigenvalues --    0.41694   0.44739   0.53336   0.53336   0.58304
 Alpha virt. eigenvalues --    0.68742   0.74360   0.74887   0.74887   1.05822
 Alpha virt. eigenvalues --    1.19224   1.22823   1.22823   2.27100   2.27100
 Alpha virt. eigenvalues --    2.36923   2.41529   2.41529   2.48608   2.53260
 Alpha virt. eigenvalues --    2.53260   2.62221   3.90768   3.90768   4.36255
     Molecular Orbital Coefficients:
                           1         2         3         4         5
                        (A1)--O   (A1)--O   (E)--O    (E)--O    (A1)--O
     Eigenvalues --   -79.46718 -26.09987 -26.09905 -26.09905  -7.69386
   1 1   B  1S         -0.00006  -0.00140   0.00000   0.00000   0.98794
   2        2S          0.00035  -0.00201   0.00000   0.00000   0.09285
   3        2PX         0.00000   0.00000   0.00000  -0.00240   0.00000
   4        2PY         0.00000   0.00000   0.00240   0.00000   0.00000
   5        2PZ         0.00028  -0.00283   0.00000   0.00000  -0.00065
   6        3S         -0.00224   0.02622  -0.00000   0.00000  -0.04406
   7        3PX         0.00000   0.00000   0.00000  -0.01076   0.00000
   8        3PY        -0.00000   0.00000   0.01076   0.00000   0.00000
   9        3PZ        -0.00074   0.00122  -0.00000   0.00000  -0.01605
  10 2   F  1S          0.00000   0.56708   0.80177   0.00000   0.00002
  11        2S          0.00008   0.05686   0.07837   0.00000   0.00169
  12        2PX         0.00000   0.00000   0.00000  -0.00075   0.00000
  13        2PY        -0.00000  -0.00165  -0.00148   0.00000  -0.00157
  14        2PZ         0.00013   0.00041   0.00080   0.00000   0.00008
  15        3S         -0.00004  -0.02291  -0.02710   0.00000  -0.00192
  16        3PX         0.00000   0.00000   0.00000   0.00280   0.00000
  17        3PY        -0.00003   0.00464   0.00281   0.00000   0.00713
  18        3PZ        -0.00036  -0.00084  -0.00173   0.00000  -0.00034
  19 3   F  1S          0.00000   0.56708  -0.40088   0.69435   0.00002
  20        2S          0.00008   0.05686  -0.03919   0.06787   0.00169
  21        2PX         0.00000   0.00143  -0.00097   0.00092   0.00136
  22        2PY         0.00000   0.00082   0.00019   0.00097   0.00079
  23        2PZ         0.00013   0.00041  -0.00040   0.00069   0.00008
  24        3S         -0.00004  -0.02291   0.01355  -0.02347  -0.00192
  25        3PX         0.00002  -0.00402   0.00243  -0.00141  -0.00617
  26        3PY         0.00001  -0.00232  -0.00140  -0.00243  -0.00356
  27        3PZ        -0.00036  -0.00084   0.00086  -0.00150  -0.00034
  28 4   F  1S          0.00000   0.56708  -0.40088  -0.69435   0.00002
  29        2S          0.00008   0.05686  -0.03919  -0.06787   0.00169
  30        2PX        -0.00000  -0.00143   0.00097   0.00092  -0.00136
  31        2PY         0.00000   0.00082   0.00019  -0.00097   0.00079
  32        2PZ         0.00013   0.00041  -0.00040  -0.00069   0.00008
  33        3S         -0.00004  -0.02291   0.01355   0.02347  -0.00192
  34        3PX        -0.00002   0.00402  -0.00243  -0.00141   0.00617
  35        3PY         0.00001  -0.00232  -0.00140   0.00243  -0.00356
  36        3PZ        -0.00036  -0.00084   0.00086   0.00150  -0.00034
  37 5   P  1S          0.98701  -0.00000   0.00000   0.00000   0.00102
  38        2S          0.04877   0.00042  -0.00000   0.00000  -0.00369
  39        2PX         0.00000   0.00000   0.00000  -0.00003   0.00000
  40        2PY         0.00000   0.00000   0.00003   0.00000   0.00000
  41        2PZ         0.00003  -0.00022  -0.00000   0.00000  -0.00051
  42        3S         -0.01616   0.00331  -0.00000   0.00000  -0.00603
  43        3PX         0.00000   0.00000   0.00000  -0.00017   0.00000
  44        3PY        -0.00000   0.00000   0.00017   0.00000  -0.00000
  45        3PZ         0.00023   0.00101   0.00000   0.00000   0.00210
  46        4S          0.01250  -0.01415   0.00000   0.00000   0.02420
  47        4PX         0.00000   0.00000   0.00000   0.00469   0.00000
  48        4PY         0.00000  -0.00000  -0.00469   0.00000   0.00000
  49        4PZ        -0.00049   0.00503  -0.00000   0.00000  -0.01275
  50 6   H  1S          0.00111   0.00024   0.00017  -0.00030  -0.00085
  51        2S         -0.00233   0.00153   0.00075  -0.00129  -0.00019
  52 7   H  1S          0.00111   0.00024   0.00017   0.00030  -0.00085
  53        2S         -0.00233   0.00153   0.00075   0.00129  -0.00019
  54 8   H  1S          0.00111   0.00024  -0.00035   0.00000  -0.00085
  55        2S         -0.00233   0.00153  -0.00149   0.00000  -0.00019
                           6         7         8         9        10
                        (A1)--O   (E)--O    (E)--O    (A1)--O   (A1)--O
     Eigenvalues --    -7.55567  -5.44039  -5.44039  -5.43993  -1.53747
   1 1   B  1S          0.00319  -0.00000   0.00000  -0.00085  -0.06910
   2        2S         -0.00561   0.00000   0.00000   0.00173   0.07936
   3        2PX         0.00000   0.00000  -0.00132   0.00000   0.00000
   4        2PY         0.00000  -0.00132   0.00000  -0.00000   0.00000
   5        2PZ        -0.00160  -0.00000   0.00000   0.00380  -0.02440
   6        3S          0.03459   0.00000   0.00000  -0.00513   0.03543
   7        3PX         0.00000   0.00000   0.00604   0.00000   0.00000
   8        3PY         0.00000   0.00604   0.00000  -0.00000  -0.00000
   9        3PZ         0.01642   0.00000   0.00000   0.00107  -0.00110
  10 2   F  1S          0.00004  -0.00002   0.00000   0.00010  -0.13927
  11        2S          0.00020  -0.00017   0.00000   0.00067   0.13209
  12        2PX         0.00000   0.00000   0.00004   0.00000   0.00000
  13        2PY        -0.00004   0.00001   0.00000  -0.00007  -0.02923
  14        2PZ        -0.00035  -0.00046   0.00000   0.00064   0.01139
  15        3S         -0.00197  -0.00031   0.00000  -0.00165   0.43939
  16        3PX         0.00000   0.00000  -0.00032   0.00000   0.00000
  17        3PY         0.00065  -0.00004   0.00000   0.00027  -0.04195
  18        3PZ         0.00065   0.00188   0.00000  -0.00268   0.01691
  19 3   F  1S          0.00004   0.00001   0.00002   0.00010  -0.13927
  20        2S          0.00020   0.00009   0.00015   0.00067   0.13209
  21        2PX         0.00003  -0.00002   0.00002   0.00006   0.02532
  22        2PY         0.00002   0.00004  -0.00002   0.00004   0.01462
  23        2PZ        -0.00035   0.00023   0.00040   0.00064   0.01139
  24        3S         -0.00197   0.00015   0.00026  -0.00165   0.43939
  25        3PX        -0.00057   0.00012  -0.00011  -0.00023   0.03633
  26        3PY        -0.00033  -0.00025   0.00012  -0.00013   0.02097
  27        3PZ         0.00065  -0.00094  -0.00163  -0.00268   0.01691
  28 4   F  1S          0.00004   0.00001  -0.00002   0.00010  -0.13927
  29        2S          0.00020   0.00009  -0.00015   0.00067   0.13209
  30        2PX        -0.00003   0.00002   0.00002  -0.00006  -0.02532
  31        2PY         0.00002   0.00004   0.00002   0.00004   0.01462
  32        2PZ        -0.00035   0.00023  -0.00040   0.00064   0.01139
  33        3S         -0.00197   0.00015  -0.00026  -0.00165   0.43939
  34        3PX         0.00057  -0.00012  -0.00011   0.00023  -0.03633
  35        3PY        -0.00033  -0.00025  -0.00012  -0.00013   0.02097
  36        3PZ         0.00065  -0.00094   0.00163  -0.00268   0.01691
  37 5   P  1S         -0.29552   0.00000   0.00000   0.00161   0.00192
  38        2S          0.99713  -0.00000   0.00000  -0.00571  -0.01123
  39        2PX         0.00000   0.00000   0.97217   0.00000   0.00000
  40        2PY        -0.00000   0.97217   0.00000  -0.00000  -0.00000
  41        2PZ         0.00532   0.00000   0.00000   0.97254   0.00548
  42        3S          0.13955   0.00000   0.00000  -0.00099  -0.00030
  43        3PX         0.00000   0.00000   0.09077   0.00000   0.00000
  44        3PY        -0.00000   0.09077   0.00000  -0.00000  -0.00000
  45        3PZ        -0.00084   0.00000   0.00000   0.08998  -0.00782
  46        4S         -0.11648  -0.00000   0.00000  -0.00248   0.03644
  47        4PX         0.00000   0.00000  -0.03790   0.00000   0.00000
  48        4PY         0.00000  -0.03790   0.00000   0.00000   0.00000
  49        4PZ         0.01017  -0.00000   0.00000  -0.03102  -0.00923
  50 6   H  1S         -0.00535  -0.00376  -0.00650  -0.00243   0.00130
  51        2S          0.02095   0.00681   0.01180   0.00370  -0.00606
  52 7   H  1S         -0.00535  -0.00376   0.00650  -0.00243   0.00130
  53        2S          0.02095   0.00681  -0.01180   0.00370  -0.00606
  54 8   H  1S         -0.00535   0.00751   0.00000  -0.00243   0.00130
  55        2S          0.02095  -0.01362   0.00000   0.00370  -0.00606
                          11        12        13        14        15
                        (E)--O    (E)--O    (A1)--O   (A1)--O   (E)--O
     Eigenvalues --    -1.49568  -1.49568  -1.00454  -0.73913  -0.67187
   1 1   B  1S          0.00000   0.00000  -0.03616  -0.14456   0.00000
   2        2S          0.00000   0.00000   0.06653   0.22752   0.00000
   3        2PX        -0.07372   0.00000   0.00000   0.00000   0.16593
   4        2PY         0.00000   0.07372  -0.00000  -0.00000   0.00000
   5        2PZ         0.00000   0.00000   0.07738   0.01029   0.00000
   6        3S          0.00000  -0.00000  -0.02728   0.22298   0.00000
   7        3PX         0.00096   0.00000   0.00000   0.00000   0.04858
   8        3PY         0.00000  -0.00096  -0.00000   0.00000   0.00000
   9        3PZ         0.00000  -0.00000  -0.01080   0.10413   0.00000
  10 2   F  1S          0.00000  -0.20519   0.01278   0.04279   0.00000
  11        2S          0.00000   0.19641  -0.01280  -0.04456   0.00000
  12        2PX        -0.00528   0.00000   0.00000   0.00000   0.14377
  13        2PY         0.00000  -0.02907  -0.00972  -0.19818   0.00000
  14        2PZ         0.00000   0.01645   0.02125   0.08331   0.00000
  15        3S          0.00000   0.65340  -0.04459  -0.16800   0.00000
  16        3PX        -0.00680   0.00000   0.00000   0.00000   0.15910
  17        3PY         0.00000  -0.04080  -0.01186  -0.22559   0.00000
  18        3PZ         0.00000   0.02468   0.01817   0.08080   0.00000
  19 3   F  1S         -0.17770   0.10260   0.01278   0.04279  -0.02428
  20        2S          0.17010  -0.09821  -0.01280  -0.04456   0.02223
  21        2PX         0.02048  -0.01487   0.00842   0.17163  -0.07865
  22        2PY         0.01487  -0.00330   0.00486   0.09909  -0.12841
  23        2PZ         0.01425  -0.00823   0.02125   0.08331  -0.10392
  24        3S          0.56586  -0.32670  -0.04459  -0.16800   0.10953
  25        3PX         0.02890  -0.02061   0.01027   0.19536  -0.08279
  26        3PY         0.02061  -0.00510   0.00593   0.11279  -0.13966
  27        3PZ         0.02137  -0.01234   0.01817   0.08080  -0.11229
  28 4   F  1S          0.17770   0.10260   0.01278   0.04279   0.02428
  29        2S         -0.17010  -0.09821  -0.01280  -0.04456  -0.02223
  30        2PX         0.02048   0.01487  -0.00842  -0.17163  -0.07865
  31        2PY        -0.01487  -0.00330   0.00486   0.09909   0.12841
  32        2PZ        -0.01425  -0.00823   0.02125   0.08331   0.10392
  33        3S         -0.56586  -0.32670  -0.04459  -0.16800  -0.10953
  34        3PX         0.02890   0.02061  -0.01027  -0.19536  -0.08279
  35        3PY        -0.02061  -0.00510   0.00593   0.11279   0.13966
  36        3PZ        -0.02137  -0.01234   0.01817   0.08080   0.11229
  37 5   P  1S          0.00000  -0.00000   0.06549  -0.00524   0.00000
  38        2S          0.00000  -0.00000  -0.35117   0.02969   0.00000
  39        2PX         0.00163   0.00000   0.00000   0.00000  -0.15606
  40        2PY         0.00000  -0.00163  -0.00000   0.00000   0.00000
  41        2PZ         0.00000   0.00000  -0.01080   0.08913   0.00000
  42        3S          0.00000  -0.00000   0.40921  -0.01880   0.00000
  43        3PX        -0.00048   0.00000   0.00000   0.00000   0.31194
  44        3PY         0.00000   0.00048  -0.00000  -0.00000   0.00000
  45        3PZ         0.00000   0.00000   0.01862  -0.18245   0.00000
  46        4S          0.00000   0.00000   0.47746  -0.10707   0.00000
  47        4PX        -0.01963   0.00000   0.00000   0.00000   0.14028
  48        4PY         0.00000   0.01963  -0.00000  -0.00000   0.00000
  49        4PZ         0.00000  -0.00000  -0.01211  -0.04428   0.00000
  50 6   H  1S         -0.00054   0.00031   0.12400  -0.04747   0.16521
  51        2S          0.00870  -0.00503   0.03735  -0.04534   0.18624
  52 7   H  1S          0.00054   0.00031   0.12400  -0.04747  -0.16521
  53        2S         -0.00870  -0.00503   0.03735  -0.04534  -0.18624
  54 8   H  1S          0.00000  -0.00062   0.12400  -0.04747   0.00000
  55        2S          0.00000   0.01005   0.03735  -0.04534   0.00000
                          16        17        18        19        20
                        (E)--O    (A1)--O   (E)--O    (E)--O    (E)--O
     Eigenvalues --    -0.67187  -0.66132  -0.63761  -0.63761  -0.57172
   1 1   B  1S         -0.00000  -0.00528   0.00000   0.00000   0.00000
   2        2S          0.00000  -0.03403   0.00000   0.00000   0.00000
   3        2PX         0.00000   0.00000   0.00000  -0.17435  -0.08133
   4        2PY         0.16593   0.00000  -0.17435   0.00000   0.00000
   5        2PZ        -0.00000   0.20114  -0.00000   0.00000   0.00000
   6        3S         -0.00000   0.10470  -0.00000   0.00000   0.00000
   7        3PX         0.00000   0.00000   0.00000  -0.08224   0.08179
   8        3PY         0.04858   0.00000  -0.08224   0.00000   0.00000
   9        3PZ        -0.00000   0.20535  -0.00000   0.00000   0.00000
  10 2   F  1S          0.02804  -0.00803  -0.02498   0.00000   0.00000
  11        2S         -0.02567   0.00726   0.02153   0.00000   0.00000
  12        2PX         0.00000   0.00000   0.00000  -0.20366   0.23895
  13        2PY        -0.15279   0.15251   0.21968   0.00000   0.00000
  14        2PZ         0.11999   0.18940  -0.05712   0.00000   0.00000
  15        3S         -0.12648   0.03683   0.12171   0.00000   0.00000
  16        3PX         0.00000   0.00000   0.00000  -0.22806   0.27513
  17        3PY        -0.16343   0.16625   0.24156   0.00000   0.00000
  18        3PZ         0.12966   0.19432  -0.05803   0.00000   0.00000
  19 3   F  1S         -0.01402  -0.00803   0.01249   0.02163   0.00786
  20        2S          0.01283   0.00726  -0.01077  -0.01865  -0.01495
  21        2PX        -0.12841  -0.13208   0.18331   0.11384   0.08842
  22        2PY         0.06963  -0.07626  -0.09783   0.18331  -0.08691
  23        2PZ        -0.06000   0.18940   0.02856   0.04946   0.30108
  24        3S          0.06324   0.03683  -0.06085  -0.10540  -0.00681
  25        3PX        -0.13966  -0.14398   0.20335   0.12416   0.10263
  26        3PY         0.07847  -0.08313  -0.11066   0.20335  -0.09959
  27        3PZ        -0.06483   0.19432   0.02902   0.05026   0.35382
  28 4   F  1S         -0.01402  -0.00803   0.01249  -0.02163  -0.00786
  29        2S          0.01283   0.00726  -0.01077   0.01865   0.01495
  30        2PX         0.12841   0.13208  -0.18331   0.11384   0.08842
  31        2PY         0.06963  -0.07626  -0.09783  -0.18331   0.08691
  32        2PZ        -0.06000   0.18940   0.02856  -0.04946  -0.30108
  33        3S          0.06324   0.03683  -0.06085   0.10540   0.00681
  34        3PX         0.13966   0.14398  -0.20335   0.12416   0.10263
  35        3PY         0.07847  -0.08313  -0.11066  -0.20335   0.09959
  36        3PZ        -0.06483   0.19432   0.02902  -0.05026  -0.35382
  37 5   P  1S          0.00000  -0.00121   0.00000   0.00000   0.00000
  38        2S         -0.00000   0.00648  -0.00000   0.00000   0.00000
  39        2PX         0.00000   0.00000   0.00000  -0.12703  -0.02818
  40        2PY        -0.15606  -0.00000  -0.12703   0.00000   0.00000
  41        2PZ        -0.00000   0.09911   0.00000   0.00000   0.00000
  42        3S         -0.00000  -0.01211   0.00000   0.00000   0.00000
  43        3PX         0.00000   0.00000   0.00000   0.25525   0.07158
  44        3PY         0.31194   0.00000   0.25525   0.00000   0.00000
  45        3PZ         0.00000  -0.19052  -0.00000   0.00000   0.00000
  46        4S          0.00000  -0.07003   0.00000   0.00000   0.00000
  47        4PX         0.00000   0.00000   0.00000   0.11794  -0.13020
  48        4PY         0.14028   0.00000   0.11794   0.00000   0.00000
  49        4PZ         0.00000  -0.08449  -0.00000   0.00000   0.00000
  50 6   H  1S          0.09538  -0.04703   0.08618   0.14927   0.03619
  51        2S          0.10752  -0.04828   0.10028   0.17370   0.12695
  52 7   H  1S          0.09538  -0.04703   0.08618  -0.14927  -0.03619
  53        2S          0.10752  -0.04828   0.10028  -0.17370  -0.12695
  54 8   H  1S         -0.19077  -0.04703  -0.17236   0.00000   0.00000
  55        2S         -0.21505  -0.04828  -0.20057   0.00000   0.00000
                          21        22        23        24        25
                        (E)--O    (E)--O    (E)--O    (A2)--O   (A1)--O
     Eigenvalues --    -0.57172  -0.55131  -0.55131  -0.54073  -0.48707
   1 1   B  1S         -0.00000   0.00000  -0.00000   0.00000   0.01572
   2        2S          0.00000   0.00000  -0.00000   0.00000  -0.03628
   3        2PX         0.00000  -0.08432   0.00000  -0.00000   0.00000
   4        2PY         0.08133   0.00000  -0.08432   0.00000  -0.00000
   5        2PZ        -0.00000   0.00000   0.00000   0.00000  -0.18753
   6        3S          0.00000   0.00000   0.00000   0.00000   0.12074
   7        3PX         0.00000   0.12881   0.00000   0.00000   0.00000
   8        3PY        -0.08179   0.00000   0.12881   0.00000  -0.00000
   9        3PZ         0.00000   0.00000   0.00000   0.00000   0.16813
  10 2   F  1S          0.00908   0.00000  -0.00176   0.00000  -0.00170
  11        2S         -0.01726   0.00000   0.01194   0.00000  -0.00431
  12        2PX         0.00000   0.24214   0.00000   0.31676   0.00000
  13        2PY        -0.03824   0.00000   0.30182   0.00000  -0.03825
  14        2PZ         0.34765   0.00000   0.20300   0.00000   0.21098
  15        3S         -0.00786   0.00000  -0.03385   0.00000   0.02561
  16        3PX         0.00000   0.26040   0.00000   0.35805   0.00000
  17        3PY        -0.04512   0.00000   0.35184   0.00000  -0.05334
  18        3PZ         0.40856   0.00000   0.22286   0.00000   0.24241
  19 3   F  1S         -0.00454   0.00153   0.00088   0.00000  -0.00170
  20        2S          0.00863  -0.01034  -0.00597  -0.00000  -0.00431
  21        2PX         0.08691   0.28690   0.02584  -0.15838   0.03313
  22        2PY        -0.18877   0.02584   0.25706   0.27432   0.01913
  23        2PZ        -0.17383  -0.17580  -0.10150  -0.00000   0.21098
  24        3S          0.00393   0.02931   0.01692   0.00000   0.02561
  25        3PX         0.09959   0.32898   0.03959  -0.17903   0.04620
  26        3PY        -0.21763   0.03959   0.28326   0.31008   0.02667
  27        3PZ        -0.20428  -0.19301  -0.11143  -0.00000   0.24241
  28 4   F  1S         -0.00454  -0.00153   0.00088  -0.00000  -0.00170
  29        2S          0.00863   0.01034  -0.00597   0.00000  -0.00431
  30        2PX        -0.08691   0.28690  -0.02584  -0.15838  -0.03313
  31        2PY        -0.18877  -0.02584   0.25706  -0.27432   0.01913
  32        2PZ        -0.17383   0.17580  -0.10150   0.00000   0.21098
  33        3S          0.00393  -0.02931   0.01692  -0.00000   0.02561
  34        3PX        -0.09959   0.32898  -0.03959  -0.17903  -0.04620
  35        3PY        -0.21763  -0.03959   0.28326  -0.31008   0.02667
  36        3PZ        -0.20428   0.19301  -0.11143   0.00000   0.24241
  37 5   P  1S         -0.00000   0.00000  -0.00000   0.00000  -0.01608
  38        2S          0.00000   0.00000   0.00000   0.00000   0.08938
  39        2PX         0.00000   0.01783   0.00000   0.00000   0.00000
  40        2PY         0.02818   0.00000   0.01783   0.00000  -0.00000
  41        2PZ        -0.00000   0.00000  -0.00000   0.00000  -0.18861
  42        3S         -0.00000   0.00000   0.00000   0.00000  -0.12085
  43        3PX         0.00000  -0.04387   0.00000  -0.00000   0.00000
  44        3PY        -0.07158   0.00000  -0.04387   0.00000   0.00000
  45        3PZ         0.00000   0.00000   0.00000   0.00000   0.41228
  46        4S         -0.00000   0.00000  -0.00000   0.00000  -0.36165
  47        4PX         0.00000   0.00952   0.00000  -0.00000   0.00000
  48        4PY         0.13020   0.00000   0.00952   0.00000  -0.00000
  49        4PZ         0.00000   0.00000   0.00000   0.00000   0.36557
  50 6   H  1S         -0.02090  -0.02197  -0.01269  -0.00000   0.05478
  51        2S         -0.07330  -0.04585  -0.02647  -0.00000   0.10190
  52 7   H  1S         -0.02090   0.02197  -0.01269   0.00000   0.05478
  53        2S         -0.07330   0.04585  -0.02647   0.00000   0.10190
  54 8   H  1S          0.04179   0.00000   0.02537   0.00000   0.05478
  55        2S          0.14659   0.00000   0.05295   0.00000   0.10190
                          26        27        28        29        30
                        (E)--V    (E)--V    (A1)--V   (A1)--V   (E)--V
     Eigenvalues --     0.13862   0.13862   0.15835   0.24828   0.41694
   1 1   B  1S         -0.00000   0.00000  -0.04375   0.13109  -0.00000
   2        2S         -0.00000   0.00000   0.04586  -0.01992  -0.00000
   3        2PX         0.00000   0.07162   0.00000   0.00000   0.00000
   4        2PY         0.07162   0.00000   0.00000   0.00000   0.29190
   5        2PZ         0.00000   0.00000   0.17255  -0.36512  -0.00000
   6        3S          0.00000   0.00000   0.72485  -1.82147   0.00000
   7        3PX         0.00000  -0.05883   0.00000   0.00000   0.00000
   8        3PY        -0.05883   0.00000   0.00000  -0.00000   1.34835
   9        3PZ         0.00000   0.00000   0.42590  -1.08783  -0.00000
  10 2   F  1S          0.01600   0.00000   0.00175  -0.01431   0.07225
  11        2S         -0.01545   0.00000   0.00223   0.00440  -0.02377
  12        2PX         0.00000  -0.02834   0.00000   0.00000   0.00000
  13        2PY         0.02409   0.00000   0.00728  -0.02893   0.08597
  14        2PZ        -0.08004   0.00000  -0.02104   0.07925  -0.07660
  15        3S         -0.07803   0.00000  -0.02817   0.13296  -0.67266
  16        3PX         0.00000  -0.03410   0.00000   0.00000   0.00000
  17        3PY         0.04444   0.00000   0.01201  -0.05527   0.21733
  18        3PZ        -0.11278   0.00000  -0.04840   0.15259  -0.14344
  19 3   F  1S         -0.00800  -0.01386   0.00175  -0.01431  -0.03612
  20        2S          0.00772   0.01338   0.00223   0.00440   0.01188
  21        2PX         0.02270   0.01099  -0.00631   0.02505   0.10615
  22        2PY        -0.01523   0.02270  -0.00364   0.01446  -0.09789
  23        2PZ         0.04002   0.06931  -0.02104   0.07925   0.03830
  24        3S          0.03901   0.06757  -0.02817   0.13296   0.33633
  25        3PX         0.03401   0.02480  -0.01040   0.04786   0.20943
  26        3PY        -0.01447   0.03401  -0.00600   0.02763  -0.14542
  27        3PZ         0.05639   0.09767  -0.04840   0.15259   0.07172
  28 4   F  1S         -0.00800   0.01386   0.00175  -0.01431  -0.03612
  29        2S          0.00772  -0.01338   0.00223   0.00440   0.01188
  30        2PX        -0.02270   0.01099   0.00631  -0.02505  -0.10615
  31        2PY        -0.01523  -0.02270  -0.00364   0.01446  -0.09789
  32        2PZ         0.04002  -0.06931  -0.02104   0.07925   0.03830
  33        3S          0.03901  -0.06757  -0.02817   0.13296   0.33633
  34        3PX        -0.03401   0.02480   0.01040  -0.04786  -0.20943
  35        3PY        -0.01447  -0.03401  -0.00600   0.02763  -0.14542
  36        3PZ         0.05639  -0.09767  -0.04840   0.15259   0.07172
  37 5   P  1S         -0.00000   0.00000   0.02930   0.04560  -0.00000
  38        2S          0.00000   0.00000  -0.16766  -0.26712   0.00000
  39        2PX         0.00000  -0.13131   0.00000   0.00000   0.00000
  40        2PY        -0.13131   0.00000  -0.00000  -0.00000   0.10294
  41        2PZ         0.00000   0.00000  -0.07307  -0.04305   0.00000
  42        3S          0.00000   0.00000   0.24898   0.34553  -0.00000
  43        3PX         0.00000   0.26095   0.00000   0.00000   0.00000
  44        3PY         0.26095   0.00000   0.00000   0.00000  -0.29609
  45        3PZ        -0.00000   0.00000   0.08941   0.27199  -0.00000
  46        4S         -0.00000   0.00000   1.11761   1.95816   0.00000
  47        4PX         0.00000   1.51803   0.00000   0.00000   0.00000
  48        4PY         1.51803   0.00000   0.00000   0.00000  -0.70711
  49        4PZ         0.00000   0.00000   1.41398  -1.36309   0.00000
  50 6   H  1S         -0.06903  -0.11956  -0.09262   0.01199  -0.03358
  51        2S         -0.69010  -1.19528  -0.99324  -0.47253   0.30265
  52 7   H  1S         -0.06903   0.11956  -0.09262   0.01199  -0.03358
  53        2S         -0.69010   1.19528  -0.99324  -0.47253   0.30265
  54 8   H  1S          0.13806   0.00000  -0.09262   0.01199   0.06716
  55        2S          1.38019   0.00000  -0.99324  -0.47253  -0.60531
                          31        32        33        34        35
                        (E)--V    (A1)--V   (E)--V    (E)--V    (A1)--V
     Eigenvalues --     0.41694   0.44739   0.53336   0.53336   0.58304
   1 1   B  1S          0.00000  -0.13898  -0.00000   0.00000   0.08830
   2        2S          0.00000  -0.00408   0.00000   0.00000  -0.20472
   3        2PX         0.29190   0.00000   0.00000  -0.20408   0.00000
   4        2PY         0.00000  -0.00000  -0.20408   0.00000   0.00000
   5        2PZ         0.00000  -0.14548   0.00000   0.00000  -0.40827
   6        3S          0.00000   0.72401   0.00000   0.00000  -0.16858
   7        3PX         1.34835   0.00000   0.00000  -0.53672   0.00000
   8        3PY         0.00000  -0.00000  -0.53672   0.00000  -0.00000
   9        3PZ         0.00000  -1.09571  -0.00000   0.00000  -0.27140
  10 2   F  1S          0.00000   0.06342  -0.01849   0.00000  -0.00784
  11        2S          0.00000  -0.04949  -0.00146   0.00000   0.01326
  12        2PX        -0.15917   0.00000   0.00000   0.04034   0.00000
  13        2PY         0.00000   0.15057  -0.04794   0.00000  -0.01411
  14        2PZ         0.00000   0.03743  -0.01913   0.00000   0.07209
  15        3S          0.00000  -0.46553   0.21152   0.00000   0.02854
  16        3PX        -0.26633   0.00000   0.00000   0.07841   0.00000
  17        3PY         0.00000   0.27904  -0.09601   0.00000  -0.00723
  18        3PZ         0.00000   0.07258  -0.00136   0.00000   0.09012
  19 3   F  1S         -0.06257   0.06342   0.00924   0.01601  -0.00784
  20        2S          0.02058  -0.04949   0.00073   0.00126   0.01326
  21        2PX         0.02469  -0.13040  -0.03822  -0.02587   0.01222
  22        2PY         0.10615  -0.07529   0.01827  -0.03822   0.00706
  23        2PZ         0.06633   0.03743   0.00956   0.01656   0.07209
  24        3S          0.58254  -0.46553  -0.10576  -0.18318   0.02854
  25        3PX         0.09641  -0.24165  -0.07552  -0.05240   0.00626
  26        3PY         0.20943  -0.13952   0.03480  -0.07552   0.00361
  27        3PZ         0.12422   0.07258   0.00068   0.00118   0.09012
  28 4   F  1S          0.06257   0.06342   0.00924  -0.01601  -0.00784
  29        2S         -0.02058  -0.04949   0.00073  -0.00126   0.01326
  30        2PX         0.02469   0.13040   0.03822  -0.02587  -0.01222
  31        2PY        -0.10615  -0.07529   0.01827   0.03822   0.00706
  32        2PZ        -0.06633   0.03743   0.00956  -0.01656   0.07209
  33        3S         -0.58254  -0.46553  -0.10576   0.18318   0.02854
  34        3PX         0.09641   0.24165   0.07552  -0.05240  -0.00626
  35        3PY        -0.20943  -0.13952   0.03480   0.07552   0.00361
  36        3PZ        -0.12422   0.07258   0.00068  -0.00118   0.09012
  37 5   P  1S          0.00000  -0.00955  -0.00000   0.00000  -0.00394
  38        2S          0.00000   0.01984   0.00000   0.00000  -0.04111
  39        2PX         0.10294   0.00000   0.00000   0.30434   0.00000
  40        2PY         0.00000  -0.00000   0.30434   0.00000  -0.00000
  41        2PZ         0.00000  -0.05309   0.00000   0.00000   0.31367
  42        3S          0.00000  -0.38084  -0.00000   0.00000  -0.60193
  43        3PX        -0.29609   0.00000   0.00000  -1.19628   0.00000
  44        3PY         0.00000   0.00000  -1.19628   0.00000   0.00000
  45        3PZ         0.00000   0.15992  -0.00000   0.00000  -1.13127
  46        4S          0.00000   1.12588   0.00000   0.00000   1.61686
  47        4PX        -0.70711   0.00000   0.00000   1.65363   0.00000
  48        4PY         0.00000   0.00000   1.65363   0.00000   0.00000
  49        4PZ         0.00000  -0.26760   0.00000   0.00000   0.91160
  50 6   H  1S         -0.05816  -0.02263  -0.08629  -0.14945  -0.14385
  51        2S          0.52421  -0.17518  -0.10686  -0.18509  -0.30878
  52 7   H  1S          0.05816  -0.02263  -0.08629   0.14945  -0.14385
  53        2S         -0.52421  -0.17518  -0.10686   0.18509  -0.30878
  54 8   H  1S          0.00000  -0.02263   0.17257   0.00000  -0.14385
  55        2S          0.00000  -0.17518   0.21372   0.00000  -0.30878
                          36        37        38        39        40
                        (A1)--V   (A1)--V   (E)--V    (E)--V    (A1)--V
     Eigenvalues --     0.68742   0.74360   0.74887   0.74887   1.05822
   1 1   B  1S          0.01317   0.12585   0.00000   0.00000   0.03474
   2        2S         -0.35754  -0.38796  -0.00000   0.00000   1.46818
   3        2PX         0.00000   0.00000   0.00000   1.21580   0.00000
   4        2PY        -0.00000  -0.00000   1.21580   0.00000  -0.00000
   5        2PZ        -0.49969   0.93312   0.00000   0.00000   0.01327
   6        3S         -0.33265  -1.41633  -0.00000   0.00000  -3.40856
   7        3PX         0.00000   0.00000   0.00000  -1.21538   0.00000
   8        3PY         0.00000   0.00000  -1.21538   0.00000   0.00000
   9        3PZ         0.49671  -1.80158  -0.00000   0.00000  -1.37345
  10 2   F  1S         -0.00011  -0.01744   0.00102   0.00000  -0.01770
  11        2S         -0.01283   0.02338  -0.02955   0.00000   0.00173
  12        2PX         0.00000   0.00000   0.00000   0.01934   0.00000
  13        2PY        -0.02044  -0.13171   0.19054   0.00000   0.08813
  14        2PZ        -0.08684   0.05588  -0.07877   0.00000  -0.00534
  15        3S          0.05788   0.05727   0.23136   0.00000   0.29785
  16        3PX         0.00000   0.00000   0.00000   0.08800   0.00000
  17        3PY        -0.03359  -0.14715   0.23571   0.00000  -0.01991
  18        3PZ        -0.09494   0.16282  -0.07195   0.00000   0.07273
  19 3   F  1S         -0.00011  -0.01744  -0.00051  -0.00088  -0.01770
  20        2S         -0.01283   0.02338   0.01478   0.02559   0.00173
  21        2PX         0.01771   0.11407   0.07413   0.14774  -0.07632
  22        2PY         0.01022   0.06586   0.06214   0.07413  -0.04406
  23        2PZ        -0.08684   0.05588   0.03939   0.06822  -0.00534
  24        3S          0.05788   0.05727  -0.11568  -0.20036   0.29785
  25        3PX         0.02909   0.12743   0.06396   0.19878   0.01724
  26        3PY         0.01680   0.07357   0.12493   0.06396   0.00996
  27        3PZ        -0.09494   0.16282   0.03597   0.06231   0.07273
  28 4   F  1S         -0.00011  -0.01744  -0.00051   0.00088  -0.01770
  29        2S         -0.01283   0.02338   0.01478  -0.02559   0.00173
  30        2PX        -0.01771  -0.11407  -0.07413   0.14774   0.07632
  31        2PY         0.01022   0.06586   0.06214  -0.07413  -0.04406
  32        2PZ        -0.08684   0.05588   0.03939  -0.06822  -0.00534
  33        3S          0.05788   0.05727  -0.11568   0.20036   0.29785
  34        3PX        -0.02909  -0.12743  -0.06396   0.19878  -0.01724
  35        3PY         0.01680   0.07357   0.12493  -0.06396   0.00996
  36        3PZ        -0.09494   0.16282   0.03597  -0.06231   0.07273
  37 5   P  1S         -0.03229  -0.02454  -0.00000   0.00000  -0.03822
  38        2S          0.04813   0.03547   0.00000   0.00000   0.05765
  39        2PX         0.00000   0.00000   0.00000   0.05009   0.00000
  40        2PY         0.00000  -0.00000   0.05009   0.00000  -0.00000
  41        2PZ        -0.14745  -0.04005  -0.00000   0.00000   0.03270
  42        3S         -1.54284  -1.13769  -0.00000   0.00000  -1.73782
  43        3PX         0.00000   0.00000   0.00000  -0.20317   0.00000
  44        3PY         0.00000   0.00000  -0.20317   0.00000   0.00000
  45        3PZ         0.63618   0.12101   0.00000   0.00000  -0.10159
  46        4S          2.54554   3.26982   0.00000   0.00000   5.16091
  47        4PX         0.00000   0.00000   0.00000   0.60777   0.00000
  48        4PY        -0.00000  -0.00000   0.60777   0.00000  -0.00000
  49        4PZ        -0.50055  -0.83334  -0.00000   0.00000  -0.82657
  50 6   H  1S         -0.18397  -0.02487   0.00314   0.00544   0.34022
  51        2S         -0.48631  -0.44376  -0.08816  -0.15269  -1.17874
  52 7   H  1S         -0.18397  -0.02487   0.00314  -0.00544   0.34022
  53        2S         -0.48631  -0.44376  -0.08816   0.15269  -1.17874
  54 8   H  1S         -0.18397  -0.02487  -0.00628   0.00000   0.34022
  55        2S         -0.48631  -0.44376   0.17632   0.00000  -1.17874
                          41        42        43        44        45
                        (A1)--V   (E)--V    (E)--V    (E)--V    (E)--V
     Eigenvalues --     1.19224   1.22823   1.22823   2.27100   2.27100
   1 1   B  1S         -0.02229  -0.00000   0.00000   0.00000  -0.00000
   2        2S         -1.09106  -0.00000   0.00000   0.00000   0.00000
   3        2PX         0.00000   0.00000   0.03514   0.02999   0.00000
   4        2PY        -0.00000  -0.03514   0.00000   0.00000  -0.02999
   5        2PZ        -0.24919  -0.00000   0.00000   0.00000  -0.00000
   6        3S          2.12554   0.00000   0.00000   0.00000   0.00000
   7        3PX         0.00000   0.00000   0.02873   0.25060   0.00000
   8        3PY         0.00000  -0.02873   0.00000   0.00000  -0.25060
   9        3PZ         1.00110  -0.00000   0.00000   0.00000   0.00000
  10 2   F  1S          0.01384   0.00703   0.00000   0.00000  -0.01533
  11        2S         -0.01444  -0.02065   0.00000   0.00000   0.07015
  12        2PX         0.00000   0.00000   0.00588   0.48977   0.00000
  13        2PY        -0.05842  -0.00911   0.00000   0.00000   0.30094
  14        2PZ        -0.03268  -0.04497   0.00000   0.00000   0.59294
  15        3S         -0.17829  -0.01727   0.00000   0.00000   0.04054
  16        3PX         0.00000   0.00000   0.00289  -0.49536   0.00000
  17        3PY         0.01816   0.00003   0.00000   0.00000  -0.30876
  18        3PZ        -0.05376  -0.00909   0.00000   0.00000  -0.55884
  19 3   F  1S          0.01384  -0.00351   0.00608  -0.01327   0.00766
  20        2S         -0.01444   0.01032  -0.01788   0.06075  -0.03508
  21        2PX         0.05059  -0.00140   0.00830  -0.10326   0.34239
  22        2PY         0.02921  -0.00669   0.00140  -0.34239  -0.29209
  23        2PZ        -0.03268   0.02248  -0.03895   0.51350  -0.29647
  24        3S         -0.17829   0.00864  -0.01496   0.03511  -0.02027
  25        3PX        -0.01573   0.00126   0.00070   0.10773  -0.34820
  26        3PY        -0.00908  -0.00216  -0.00126   0.34820   0.29433
  27        3PZ        -0.05376   0.00454  -0.00787  -0.48397   0.27942
  28 4   F  1S          0.01384  -0.00351  -0.00608   0.01327   0.00766
  29        2S         -0.01444   0.01032   0.01788  -0.06075  -0.03508
  30        2PX        -0.05059   0.00140   0.00830  -0.10326  -0.34239
  31        2PY         0.02921  -0.00669  -0.00140   0.34239  -0.29209
  32        2PZ        -0.03268   0.02248   0.03895  -0.51350  -0.29647
  33        3S         -0.17829   0.00864   0.01496  -0.03511  -0.02027
  34        3PX         0.01573  -0.00126   0.00070   0.10773   0.34820
  35        3PY        -0.00908  -0.00216   0.00126  -0.34820   0.29433
  36        3PZ        -0.05376   0.00454   0.00787   0.48397   0.27942
  37 5   P  1S         -0.01718  -0.00000   0.00000   0.00000   0.00000
  38        2S          0.10865   0.00000   0.00000   0.00000  -0.00000
  39        2PX         0.00000   0.00000  -0.17611  -0.02056   0.00000
  40        2PY        -0.00000   0.17611   0.00000   0.00000   0.02056
  41        2PZ         0.08183   0.00000   0.00000   0.00000   0.00000
  42        3S         -0.09009  -0.00000   0.00000   0.00000  -0.00000
  43        3PX         0.00000   0.00000   0.54312   0.10373   0.00000
  44        3PY         0.00000  -0.54312   0.00000   0.00000  -0.10373
  45        3PZ        -0.21755  -0.00000   0.00000   0.00000  -0.00000
  46        4S         -0.18305   0.00000   0.00000   0.00000   0.00000
  47        4PX         0.00000   0.00000  -1.03435  -0.40952   0.00000
  48        4PY        -0.00000   1.03435   0.00000   0.00000   0.40952
  49        4PZ         1.18000   0.00000   0.00000   0.00000   0.00000
  50 6   H  1S          0.64395   0.54699  -0.94742  -0.04126   0.02382
  51        2S         -0.83604  -0.76643   1.32750   0.22151  -0.12789
  52 7   H  1S          0.64395   0.54699   0.94742   0.04126   0.02382
  53        2S         -0.83604  -0.76643  -1.32750  -0.22151  -0.12789
  54 8   H  1S          0.64395  -1.09399   0.00000   0.00000  -0.04765
  55        2S         -0.83604   1.53286   0.00000   0.00000   0.25578
                          46        47        48        49        50
                        (A2)--V   (E)--V    (E)--V    (A1)--V   (E)--V
     Eigenvalues --     2.36923   2.41529   2.41529   2.48608   2.53260
   1 1   B  1S          0.00000   0.00000   0.00000  -0.00135   0.00000
   2        2S          0.00000   0.00000   0.00000   0.64825   0.00000
   3        2PX        -0.00000  -0.20204   0.00000   0.00000   0.40146
   4        2PY         0.00000   0.00000  -0.20204  -0.00000   0.00000
   5        2PZ         0.00000   0.00000   0.00000  -0.20831   0.00000
   6        3S          0.00000   0.00000  -0.00000  -0.23640   0.00000
   7        3PX        -0.00000  -0.29134   0.00000   0.00000  -0.35883
   8        3PY         0.00000   0.00000  -0.29134   0.00000   0.00000
   9        3PZ         0.00000   0.00000  -0.00000  -0.26210   0.00000
  10 2   F  1S          0.00000   0.00000  -0.03445   0.02859   0.00000
  11        2S          0.00000   0.00000   0.16970  -0.14759   0.00000
  12        2PX         0.58560  -0.56865   0.00000   0.00000  -0.33096
  13        2PY         0.00000   0.00000   0.15720  -0.56776   0.00000
  14        2PZ         0.00000   0.00000  -0.56280   0.01095   0.00000
  15        3S          0.00000   0.00000   0.03799   0.02766   0.00000
  16        3PX        -0.57923   0.61743   0.00000   0.00000   0.36601
  17        3PY         0.00000   0.00000  -0.22005   0.68331   0.00000
  18        3PZ         0.00000   0.00000   0.60303  -0.01131   0.00000
  19 3   F  1S          0.00000   0.02983   0.01722   0.02859  -0.00473
  20        2S         -0.00000  -0.14696  -0.08485  -0.14759   0.03216
  21        2PX        -0.29280  -0.02426   0.31430   0.49169  -0.65049
  22        2PY         0.50714   0.31430  -0.38719   0.28388  -0.18448
  23        2PZ         0.00000   0.48740   0.28140   0.01095  -0.10014
  24        3S         -0.00000  -0.03290  -0.01900   0.02766  -0.06422
  25        3PX         0.28961  -0.01068  -0.36264  -0.59176   0.72812
  26        3PY        -0.50162  -0.36264   0.40806  -0.34165   0.20906
  27        3PZ        -0.00000  -0.52224  -0.30151  -0.01131   0.11940
  28 4   F  1S         -0.00000  -0.02983   0.01722   0.02859   0.00473
  29        2S          0.00000   0.14696  -0.08485  -0.14759  -0.03216
  30        2PX        -0.29280  -0.02426  -0.31430  -0.49169  -0.65049
  31        2PY        -0.50714  -0.31430  -0.38719   0.28388   0.18448
  32        2PZ        -0.00000  -0.48740   0.28140   0.01095   0.10014
  33        3S          0.00000   0.03290  -0.01900   0.02766   0.06422
  34        3PX         0.28961  -0.01068   0.36264   0.59176   0.72812
  35        3PY         0.50162   0.36264   0.40806  -0.34165  -0.20906
  36        3PZ         0.00000   0.52224  -0.30151  -0.01131  -0.11940
  37 5   P  1S          0.00000   0.00000  -0.00000  -0.00021   0.00000
  38        2S          0.00000   0.00000   0.00000  -0.00518   0.00000
  39        2PX        -0.00000  -0.01462   0.00000   0.00000   0.00342
  40        2PY         0.00000   0.00000  -0.01462  -0.00000   0.00000
  41        2PZ         0.00000   0.00000  -0.00000   0.00124   0.00000
  42        3S          0.00000   0.00000  -0.00000  -0.04961   0.00000
  43        3PX         0.00000   0.05484   0.00000   0.00000  -0.02432
  44        3PY         0.00000   0.00000   0.05484   0.00000   0.00000
  45        3PZ         0.00000   0.00000   0.00000  -0.01680   0.00000
  46        4S          0.00000   0.00000   0.00000   0.29122   0.00000
  47        4PX        -0.00000  -0.01569   0.00000   0.00000   0.18044
  48        4PY         0.00000   0.00000  -0.01569  -0.00000   0.00000
  49        4PZ         0.00000   0.00000  -0.00000  -0.11757   0.00000
  50 6   H  1S         -0.00000  -0.03329  -0.01922  -0.01111  -0.00349
  51        2S          0.00000   0.04936   0.02850  -0.01338  -0.06105
  52 7   H  1S          0.00000   0.03329  -0.01922  -0.01111   0.00349
  53        2S         -0.00000  -0.04936   0.02850  -0.01338   0.06105
  54 8   H  1S          0.00000   0.00000   0.03844  -0.01111   0.00000
  55        2S          0.00000   0.00000  -0.05700  -0.01338   0.00000
                          51        52        53        54        55
                        (E)--V    (A1)--V   (E)--V    (E)--V    (A1)--V
     Eigenvalues --     2.53260   2.62221   3.90768   3.90768   4.36255
   1 1   B  1S         -0.00000  -0.02894   0.00000   0.00000  -0.09757
   2        2S          0.00000  -0.10860   0.00000  -0.00000  -0.04394
   3        2PX         0.00000   0.00000   0.20767   0.00000   0.00000
   4        2PY         0.40146  -0.00000   0.00000  -0.20767  -0.00000
   5        2PZ        -0.00000  -0.13574   0.00000   0.00000  -0.22777
   6        3S          0.00000   0.87795   0.00000  -0.00000   1.58275
   7        3PX         0.00000   0.00000   0.66793   0.00000   0.00000
   8        3PY        -0.35883   0.00000   0.00000  -0.66793  -0.00000
   9        3PZ         0.00000   1.11615   0.00000   0.00000   0.08359
  10 2   F  1S          0.00547   0.00154   0.00000   0.08893  -0.04968
  11        2S         -0.03714  -0.00419   0.00000  -1.27130   0.94263
  12        2PX         0.00000   0.00000   0.14159   0.00000   0.00000
  13        2PY        -0.75700   0.00832   0.00000   0.09811  -0.15148
  14        2PZ         0.11564   0.59104   0.00000  -0.07022   0.01171
  15        3S          0.07416  -0.00040   0.00000   1.42145  -1.19292
  16        3PX         0.00000   0.00000  -0.27658   0.00000   0.00000
  17        3PY         0.84882  -0.01247   0.00000  -0.22153   0.37373
  18        3PZ        -0.13787  -0.73351   0.00000   0.15047  -0.04995
  19 3   F  1S         -0.00273   0.00154   0.07701  -0.04446  -0.04968
  20        2S          0.01857  -0.00419  -1.10097   0.63565   0.94263
  21        2PX        -0.18448  -0.00720  -0.03818   0.10379   0.13119
  22        2PY        -0.43747  -0.00416  -0.10379  -0.08166   0.07574
  23        2PZ        -0.05782   0.59104  -0.06081   0.03511   0.01171
  24        3S         -0.03708  -0.00040   1.23101  -0.71072  -1.19292
  25        3PX         0.20906   0.01080   0.09700  -0.21568  -0.32366
  26        3PY         0.48671   0.00623   0.21568   0.15205  -0.18687
  27        3PZ         0.06894  -0.73351   0.13031  -0.07523  -0.04995
  28 4   F  1S         -0.00273   0.00154  -0.07701  -0.04446  -0.04968
  29        2S          0.01857  -0.00419   1.10097   0.63565   0.94263
  30        2PX         0.18448   0.00720  -0.03818  -0.10379  -0.13119
  31        2PY        -0.43747  -0.00416   0.10379  -0.08166   0.07574
  32        2PZ        -0.05782   0.59104   0.06081   0.03511   0.01171
  33        3S         -0.03708  -0.00040  -1.23101  -0.71072  -1.19292
  34        3PX        -0.20906  -0.01080   0.09700   0.21568   0.32366
  35        3PY         0.48671   0.00623  -0.21568   0.15205  -0.18687
  36        3PZ         0.06894  -0.73351  -0.13031  -0.07523  -0.04995
  37 5   P  1S          0.00000  -0.00499   0.00000  -0.00000  -0.00023
  38        2S         -0.00000   0.03925   0.00000   0.00000   0.02642
  39        2PX         0.00000   0.00000   0.00655   0.00000   0.00000
  40        2PY         0.00342  -0.00000   0.00000  -0.00655  -0.00000
  41        2PZ         0.00000  -0.04153   0.00000  -0.00000  -0.01767
  42        3S         -0.00000   0.00520   0.00000   0.00000   0.20472
  43        3PX         0.00000   0.00000  -0.00355   0.00000   0.00000
  44        3PY        -0.02432   0.00000   0.00000   0.00355   0.00000
  45        3PZ        -0.00000   0.21072   0.00000   0.00000   0.07024
  46        4S         -0.00000  -0.91062   0.00000  -0.00000  -0.86202
  47        4PX         0.00000   0.00000  -0.27151   0.00000   0.00000
  48        4PY         0.18044  -0.00000   0.00000   0.27151   0.00000
  49        4PZ         0.00000   0.35076   0.00000   0.00000   0.29950
  50 6   H  1S         -0.00201   0.04057   0.03265  -0.01885   0.02120
  51        2S         -0.03525   0.01115   0.06004  -0.03467   0.08756
  52 7   H  1S         -0.00201   0.04057  -0.03265  -0.01885   0.02120
  53        2S         -0.03525   0.01115  -0.06004  -0.03467   0.08756
  54 8   H  1S          0.00402   0.04057   0.00000   0.03771   0.02120
  55        2S          0.07049   0.01115   0.00000   0.06933   0.08756
     Density Matrix:
                           1         2         3         4         5
   1 1   B  1S          2.00658
   2        2S          0.10109   0.14725
   3        2PX        -0.00000   0.00000   0.15420
   4        2PY        -0.00000   0.00000  -0.00000   0.15420
   5        2PZ        -0.01452   0.01094   0.00000   0.00000   0.16468
   6        3S         -0.15160   0.07887  -0.00000  -0.00000  -0.00477
   7        3PX        -0.00000   0.00000   0.00966  -0.00000   0.00000
   8        3PY        -0.00000   0.00000  -0.00000   0.00966   0.00000
   9        3PZ        -0.05767   0.01642   0.00000   0.00000   0.02005
  10 2   F  1S          0.00444  -0.00254  -0.00000  -0.00661   0.00385
  11        2S         -0.00147  -0.00111   0.00000   0.00849  -0.00513
  12        2PX         0.00000  -0.00000   0.03981  -0.00000   0.00000
  13        2PY         0.05613  -0.10400  -0.00000  -0.18872   0.07156
  14        2PZ        -0.02241   0.01436   0.00000   0.08448   0.00151
  15        3S         -0.01226  -0.01726   0.00000   0.01623  -0.02646
  16        3PX         0.00000  -0.00000   0.04465  -0.00000   0.00000
  17        3PY         0.08252  -0.11703  -0.00000  -0.21114   0.08242
  18        3PZ        -0.02211   0.01097   0.00000   0.09576  -0.00911
  19 3   F  1S          0.00444  -0.00254   0.00573   0.00331   0.00385
  20        2S         -0.00147  -0.00111  -0.00735  -0.00424  -0.00513
  21        2PX        -0.04861   0.09007  -0.13159  -0.09895  -0.06197
  22        2PY        -0.02806   0.05200  -0.09895  -0.01733  -0.03578
  23        2PZ        -0.02241   0.01436  -0.07317  -0.04224   0.00151
  24        3S         -0.01226  -0.01726  -0.01405  -0.00811  -0.02646
  25        3PX        -0.07146   0.10135  -0.14720  -0.11076  -0.07138
  26        3PY        -0.04126   0.05852  -0.11076  -0.01930  -0.04121
  27        3PZ        -0.02211   0.01097  -0.08293  -0.04788  -0.00911
  28 4   F  1S          0.00444  -0.00254  -0.00573   0.00331   0.00385
  29        2S         -0.00147  -0.00111   0.00735  -0.00424  -0.00513
  30        2PX         0.04861  -0.09007  -0.13159   0.09895   0.06197
  31        2PY        -0.02806   0.05200   0.09895  -0.01733  -0.03578
  32        2PZ        -0.02241   0.01436   0.07317  -0.04224   0.00151
  33        3S         -0.01226  -0.01726   0.01405  -0.00811  -0.02646
  34        3PX         0.07146  -0.10135  -0.14720   0.11076   0.07138
  35        3PY        -0.04126   0.05852   0.11076  -0.01930  -0.04121
  36        3PZ        -0.02211   0.01097   0.08293  -0.04788  -0.00911
  37 5   P  1S         -0.00396   0.01208   0.00000   0.00000   0.01699
  38        2S          0.02018  -0.05378  -0.00000  -0.00000  -0.08731
  39        2PX        -0.00000   0.00000  -0.00873   0.00000   0.00000
  40        2PY        -0.00000   0.00000   0.00000  -0.00873   0.00000
  41        2PZ        -0.03535   0.05015   0.00000   0.00000   0.11787
  42        3S         -0.03883   0.05273   0.00000   0.00000   0.10293
  43        3PX         0.00000  -0.00000   0.01010  -0.00000  -0.00000
  44        3PY         0.00000  -0.00000  -0.00000   0.01010  -0.00000
  45        3PZ         0.07144  -0.09803  -0.00000  -0.00000  -0.23108
  46        4S          0.02788   0.05746   0.00000   0.00000   0.17779
  47        4PX         0.00000  -0.00000   0.02797  -0.00000  -0.00000
  48        4PY         0.00000  -0.00000  -0.00000   0.02797  -0.00000
  49        4PZ         0.00225  -0.04661  -0.00000  -0.00000  -0.17372
  50 6   H  1S          0.00509  -0.00577   0.00069   0.00040  -0.02131
  51        2S          0.01470  -0.02100  -0.01299  -0.00750  -0.05254
  52 7   H  1S          0.00509  -0.00577  -0.00069   0.00040  -0.02131
  53        2S          0.01470  -0.02100   0.01299  -0.00750  -0.05254
  54 8   H  1S          0.00509  -0.00577  -0.00000  -0.00080  -0.02131
  55        2S          0.01470  -0.02100   0.00000   0.01500  -0.05254
                           6         7         8         9        10
   6        3S          0.16223
   7        3PX         0.00000   0.06512
   8        3PY         0.00000  -0.00000   0.06512
   9        3PZ         0.13316   0.00000   0.00000   0.16386
  10 2   F  1S          0.03616   0.00000   0.02255   0.00646   2.05895
  11        2S         -0.00650   0.00000   0.00117  -0.00767   0.06566
  12        2PX        -0.00000   0.14894  -0.00000   0.00000  -0.00000
  13        2PY        -0.06717  -0.00000   0.03306   0.00882  -0.02500
  14        2PZ         0.12739   0.00000   0.01646   0.16558   0.01093
  15        3S         -0.02861  -0.00000  -0.04158  -0.01132  -0.48936
  16        3PX        -0.00000   0.16498  -0.00000   0.00000  -0.00000
  17        3PY        -0.08134  -0.00000   0.04255   0.00352  -0.00719
  18        3PZ         0.13553   0.00000   0.01266   0.17774   0.00168
  19 3   F  1S          0.03616  -0.01953  -0.01127   0.00646  -0.00035
  20        2S         -0.00650  -0.00101  -0.00059  -0.00767   0.00236
  21        2PX         0.05817   0.06203  -0.05018  -0.00764   0.00116
  22        2PY         0.03359  -0.05018   0.11997  -0.00441   0.01275
  23        2PZ         0.12739  -0.01426  -0.00823   0.16558  -0.00365
  24        3S         -0.02861   0.03601   0.02079  -0.01132  -0.00216
  25        3PX         0.07044   0.07316  -0.05301  -0.00305   0.00049
  26        3PY         0.04067  -0.05301   0.13438  -0.00176   0.00740
  27        3PZ         0.13553  -0.01097  -0.00633   0.17774  -0.00419
  28 4   F  1S          0.03616   0.01953  -0.01127   0.00646  -0.00035
  29        2S         -0.00650   0.00101  -0.00059  -0.00767   0.00236
  30        2PX        -0.05817   0.06203   0.05018   0.00764  -0.00116
  31        2PY         0.03359   0.05018   0.11997  -0.00441   0.01275
  32        2PZ         0.12739   0.01426  -0.00823   0.16558  -0.00365
  33        3S         -0.02861  -0.03601   0.02079  -0.01132  -0.00216
  34        3PX        -0.07044   0.07316   0.05301   0.00305  -0.00049
  35        3PY         0.04067   0.05301   0.13438  -0.00176   0.00740
  36        3PZ         0.13553   0.01097  -0.00633   0.17774  -0.00419
  37 5   P  1S         -0.03488  -0.00000  -0.00000  -0.01961   0.00074
  38        2S          0.12371   0.00000   0.00000   0.07928  -0.00315
  39        2PX         0.00000   0.01747  -0.00000   0.00000  -0.00000
  40        2PY         0.00000  -0.00000   0.01747   0.00000  -0.00128
  41        2PZ         0.00636   0.00000   0.00000  -0.00165   0.00481
  42        3S         -0.05201  -0.00000  -0.00000  -0.05356   0.01331
  43        3PX        -0.00000  -0.01017   0.00000   0.00000   0.00000
  44        3PY        -0.00000   0.00000  -0.01017   0.00000   0.00367
  45        3PZ        -0.02438   0.00000   0.00000   0.02210  -0.01014
  46        4S         -0.18418  -0.00000  -0.00000  -0.18772  -0.02082
  47        4PX         0.00000  -0.02521   0.00000   0.00000  -0.00000
  48        4PY         0.00000   0.00000  -0.02521   0.00000  -0.01127
  49        4PZ         0.05326   0.00000   0.00000   0.07997   0.00429
  50 6   H  1S         -0.02472  -0.00832  -0.00480  -0.01362   0.00045
  51        2S         -0.00667  -0.00134  -0.00077   0.00491   0.00397
  52 7   H  1S         -0.02472   0.00832  -0.00480  -0.01362   0.00045
  53        2S         -0.00667   0.00134  -0.00077   0.00491   0.00397
  54 8   H  1S         -0.02472   0.00000   0.00960  -0.01362  -0.00213
  55        2S         -0.00667   0.00000   0.00154   0.00491  -0.00514
                          11        12        13        14        15
  11        2S          0.13838
  12        2PX         0.00000   0.55649
  13        2PY         0.02672  -0.00000   0.45992
  14        2PZ        -0.01316   0.00000   0.04076   0.53582
  15        3S          0.39351   0.00000   0.08551  -0.03715   1.37100
  16        3PX         0.00000   0.62314  -0.00000   0.00000   0.00000
  17        3PY         0.02592  -0.00000   0.52112   0.04474   0.07283
  18        3PZ        -0.01108   0.00000   0.04410   0.60362  -0.02323
  19 3   F  1S          0.00236  -0.01046  -0.00738  -0.00365  -0.00216
  20        2S         -0.00047  -0.00006   0.00545   0.00061  -0.00192
  21        2PX        -0.00475   0.01166   0.01709   0.01215   0.01032
  22        2PY        -0.00267   0.03302   0.04059  -0.00288  -0.08575
  23        2PZ         0.00061   0.00857  -0.00909  -0.00419   0.02586
  24        3S         -0.00192   0.07942   0.03393   0.02586  -0.00803
  25        3PX        -0.00533   0.02027   0.02232   0.02667   0.01085
  26        3PY        -0.00312   0.04482   0.04191  -0.00573  -0.09376
  27        3PZ         0.00169   0.02264  -0.01100  -0.01604   0.03091
  28 4   F  1S          0.00236   0.01046  -0.00738  -0.00365  -0.00216
  29        2S         -0.00047   0.00006   0.00545   0.00061  -0.00192
  30        2PX         0.00475   0.01166  -0.01709  -0.01215  -0.01032
  31        2PY        -0.00267  -0.03302   0.04059  -0.00288  -0.08575
  32        2PZ         0.00061  -0.00857  -0.00909  -0.00419   0.02586
  33        3S         -0.00192  -0.07942   0.03393   0.02586  -0.00803
  34        3PX         0.00533   0.02027  -0.02232  -0.02667  -0.01085
  35        3PY        -0.00312  -0.04482   0.04191  -0.00573  -0.09376
  36        3PZ         0.00169  -0.02264  -0.01100  -0.01604   0.03091
  37 5   P  1S         -0.00053   0.00000   0.00156  -0.00482  -0.00223
  38        2S          0.00314  -0.00000  -0.00921   0.02924   0.01261
  39        2PX         0.00000   0.00211  -0.00000  -0.00000   0.00000
  40        2PY         0.00102  -0.00000   0.00060   0.00294   0.00418
  41        2PZ        -0.00187   0.00000   0.00908  -0.02629  -0.02974
  42        3S         -0.00761  -0.00000   0.00506  -0.04144  -0.03819
  43        3PX        -0.00000  -0.00130  -0.00000  -0.00000  -0.00000
  44        3PY        -0.00341  -0.00000  -0.00421  -0.02194  -0.01211
  45        3PZ         0.00764  -0.00000  -0.01726   0.07213   0.05951
  46        4S          0.00746   0.00000   0.03732  -0.17578   0.00276
  47        4PX         0.00000  -0.06512   0.00000   0.00000   0.00000
  48        4PY         0.00060   0.00000   0.00361   0.11526   0.01647
  49        4PZ        -0.00207  -0.00000  -0.03539   0.11411   0.02023
  50 6   H  1S         -0.00035  -0.00664   0.00044  -0.00393   0.00384
  51        2S         -0.00107   0.02117  -0.00381  -0.02894   0.00162
  52 7   H  1S         -0.00035   0.00664   0.00044  -0.00393   0.00384
  53        2S         -0.00107  -0.02117  -0.00381  -0.02894   0.00162
  54 8   H  1S          0.00150  -0.00000  -0.00748   0.01593   0.00853
  55        2S          0.00241   0.00000  -0.00717   0.11366   0.02098
                          16        17        18        19        20
  16        3PX         0.69817
  17        3PY        -0.00000   0.59181
  18        3PZ         0.00000   0.04795   0.68212
  19 3   F  1S         -0.00617  -0.00413  -0.00419   2.05895
  20        2S          0.00004   0.00617   0.00169   0.06566   0.13838
  21        2PX         0.00743   0.01490   0.02085   0.02165  -0.02314
  22        2PY         0.03741   0.05475  -0.01410   0.01250  -0.01336
  23        2PZ         0.01829  -0.02023  -0.01604   0.01093  -0.01316
  24        3S          0.08662   0.03749   0.03091  -0.48936   0.39351
  25        3PX         0.01622   0.02010   0.03781   0.00623  -0.02245
  26        3PY         0.05038   0.05692  -0.01884   0.00360  -0.01296
  27        3PZ         0.03522  -0.02332  -0.03003   0.00168  -0.01108
  28 4   F  1S          0.00617  -0.00413  -0.00419  -0.00035   0.00236
  29        2S         -0.00004   0.00617   0.00169   0.00236  -0.00047
  30        2PX         0.00743  -0.01490  -0.02085  -0.01162   0.00469
  31        2PY        -0.03741   0.05475  -0.01410  -0.00537  -0.00278
  32        2PZ        -0.01829  -0.02023  -0.01604  -0.00365   0.00061
  33        3S         -0.08662   0.03749   0.03091  -0.00216  -0.00192
  34        3PX         0.01622  -0.02010  -0.03781  -0.00666   0.00537
  35        3PY        -0.05038   0.05692  -0.01884  -0.00328  -0.00306
  36        3PZ        -0.03522  -0.02332  -0.03003  -0.00419   0.00169
  37 5   P  1S          0.00000   0.00154  -0.00778   0.00074  -0.00053
  38        2S         -0.00000  -0.01025   0.03880  -0.00315   0.00314
  39        2PX         0.00142  -0.00000   0.00000   0.00110  -0.00088
  40        2PY        -0.00000  -0.00031   0.00882   0.00064  -0.00051
  41        2PZ         0.00000   0.01317  -0.04393   0.00481  -0.00187
  42        3S          0.00000   0.00779  -0.05127   0.01331  -0.00761
  43        3PX        -0.00068  -0.00000  -0.00000  -0.00318   0.00295
  44        3PY        -0.00000  -0.00309  -0.02641  -0.00183   0.00171
  45        3PZ        -0.00000  -0.02471   0.09627  -0.01014   0.00764
  46        4S          0.00000   0.04928  -0.20141  -0.02082   0.00746
  47        4PX        -0.07552   0.00000   0.00000   0.00976  -0.00052
  48        4PY         0.00000   0.00445   0.13416   0.00563  -0.00030
  49        4PZ        -0.00000  -0.04619   0.13667   0.00429  -0.00207
  50 6   H  1S         -0.00704   0.00026  -0.00283  -0.00213   0.00150
  51        2S          0.02587  -0.00510  -0.03120  -0.00514   0.00241
  52 7   H  1S          0.00704   0.00026  -0.00283   0.00045  -0.00035
  53        2S         -0.02587  -0.00510  -0.03120   0.00397  -0.00107
  54 8   H  1S         -0.00000  -0.00993   0.02116   0.00045  -0.00035
  55        2S          0.00000  -0.01022   0.13582   0.00397  -0.00107
                          21        22        23        24        25
  21        2PX         0.48406
  22        2PY        -0.04182   0.53235
  23        2PZ        -0.03530  -0.02038   0.53582
  24        3S         -0.07406  -0.04276  -0.03715   1.37100
  25        3PX         0.54662  -0.04418  -0.03875  -0.06307   0.61840
  26        3PY        -0.04418   0.59763  -0.02237  -0.03641  -0.04605
  27        3PZ        -0.03819  -0.02205   0.60362  -0.02323  -0.04152
  28 4   F  1S          0.01162  -0.00537  -0.00365  -0.00216   0.00666
  29        2S         -0.00469  -0.00278   0.00061  -0.00192  -0.00537
  30        2PX         0.05505  -0.00797  -0.00358   0.06910   0.06557
  31        2PY         0.00797  -0.00281   0.01196   0.05182   0.01867
  32        2PZ         0.00358   0.01196  -0.00419   0.02586   0.00838
  33        3S         -0.06910   0.05182   0.02586  -0.00803  -0.07577
  34        3PX         0.06557  -0.01867  -0.00838   0.07577   0.07726
  35        3PY         0.00384  -0.00339   0.02596   0.05627   0.01514
  36        3PZ        -0.00179   0.02511  -0.01604   0.03091   0.00259
  37 5   P  1S         -0.00135  -0.00078  -0.00482  -0.00223  -0.00133
  38        2S          0.00798   0.00461   0.02924   0.01261   0.00888
  39        2PX         0.00097  -0.00066  -0.00254  -0.00362   0.00012
  40        2PY        -0.00066   0.00173  -0.00147  -0.00209  -0.00075
  41        2PZ        -0.00786  -0.00454  -0.02629  -0.02974  -0.01141
  42        3S         -0.00439  -0.00253  -0.04144  -0.03819  -0.00675
  43        3PX        -0.00348  -0.00126   0.01900   0.01049  -0.00249
  44        3PY        -0.00126  -0.00203   0.01097   0.00606  -0.00104
  45        3PZ         0.01495   0.00863   0.07213   0.05951   0.02140
  46        4S         -0.03232  -0.01866  -0.17578   0.00276  -0.04268
  47        4PX        -0.01357   0.02976  -0.09982  -0.01426  -0.01554
  48        4PY         0.02976  -0.04793  -0.05763  -0.00823   0.03463
  49        4PZ         0.03065   0.01769   0.11411   0.02023   0.04000
  50 6   H  1S          0.00648   0.00374   0.01593   0.00853   0.00860
  51        2S          0.00621   0.00358   0.11366   0.02098   0.00885
  52 7   H  1S          0.00294  -0.00597  -0.00393   0.00384   0.00329
  53        2S         -0.00729   0.02024  -0.02894   0.00162  -0.00852
  54 8   H  1S         -0.00370   0.00553  -0.00393   0.00384  -0.00375
  55        2S          0.01389  -0.01643  -0.02894   0.00162   0.01735
                          26        27        28        29        30
  26        3PY         0.67158
  27        3PZ        -0.02397   0.68212
  28 4   F  1S         -0.00328  -0.00419   2.05895
  29        2S         -0.00306   0.00169   0.06566   0.13838
  30        2PX        -0.00384   0.00179  -0.02165   0.02314   0.48406
  31        2PY        -0.00339   0.02511   0.01250  -0.01336   0.04182
  32        2PZ         0.02596  -0.01604   0.01093  -0.01316   0.03530
  33        3S          0.05627   0.03091  -0.48936   0.39351   0.07406
  34        3PX        -0.01514  -0.00259  -0.00623   0.02245   0.54662
  35        3PY        -0.00412   0.04217   0.00360  -0.01296   0.04418
  36        3PZ         0.04217  -0.03003   0.00168  -0.01108   0.03819
  37 5   P  1S         -0.00077  -0.00778   0.00074  -0.00053   0.00135
  38        2S          0.00513   0.03880  -0.00315   0.00314  -0.00798
  39        2PX        -0.00075  -0.00764  -0.00110   0.00088   0.00097
  40        2PY         0.00099  -0.00441   0.00064  -0.00051   0.00066
  41        2PZ        -0.00659  -0.04393   0.00481  -0.00187   0.00786
  42        3S         -0.00390  -0.05127   0.01331  -0.00761   0.00439
  43        3PX        -0.00104   0.02287   0.00318  -0.00295  -0.00348
  44        3PY        -0.00129   0.01321  -0.00183   0.00171   0.00126
  45        3PZ         0.01236   0.09627  -0.01014   0.00764  -0.01495
  46        4S         -0.02464  -0.20141  -0.02082   0.00746   0.03232
  47        4PX         0.03463  -0.11619  -0.00976   0.00052  -0.01357
  48        4PY        -0.05553  -0.06708   0.00563  -0.00030  -0.02976
  49        4PZ         0.02310   0.13667   0.00429  -0.00207  -0.03065
  50 6   H  1S          0.00496   0.02116   0.00045  -0.00035  -0.00294
  51        2S          0.00511   0.13582   0.00397  -0.00107   0.00729
  52 7   H  1S         -0.00622  -0.00283  -0.00213   0.00150  -0.00648
  53        2S          0.02496  -0.03120  -0.00514   0.00241  -0.00621
  54 8   H  1S          0.00596  -0.00283   0.00045  -0.00035   0.00370
  55        2S         -0.01986  -0.03120   0.00397  -0.00107  -0.01389
                          31        32        33        34        35
  31        2PY         0.53235
  32        2PZ        -0.02038   0.53582
  33        3S         -0.04276  -0.03715   1.37100
  34        3PX         0.04418   0.03875   0.06307   0.61840
  35        3PY         0.59763  -0.02237  -0.03641   0.04605   0.67158
  36        3PZ        -0.02205   0.60362  -0.02323   0.04152  -0.02397
  37 5   P  1S         -0.00078  -0.00482  -0.00223   0.00133  -0.00077
  38        2S          0.00461   0.02924   0.01261  -0.00888   0.00513
  39        2PX         0.00066   0.00254   0.00362   0.00012   0.00075
  40        2PY         0.00173  -0.00147  -0.00209   0.00075   0.00099
  41        2PZ        -0.00454  -0.02629  -0.02974   0.01141  -0.00659
  42        3S         -0.00253  -0.04144  -0.03819   0.00675  -0.00390
[...]
      6        1           0.000011492    0.000017086    0.000014117
      7        1          -0.000020421    0.000003912    0.000013818
      8        1           0.000006864   -0.000017013    0.000016932
 -------------------------------------------------------------------
 Cartesian Forces:  Max     0.000101012 RMS     0.000029777
 FormGI is forming the generalized inverse of G from B-inverse, IUseBI=4.

 GradGradGradGradGradGradGradGradGradGradGradGradGradGradGradGradGradGrad
 Berny optimization.
 Internal  Forces:  Max     0.000083192 RMS     0.000031331
 Search for a local minimum.
 Step number   1 out of a maximum of    2
 All quantities printed in internal units (Hartrees-Bohrs-Radians)
 Second derivative matrix not updated -- analytic derivatives used.
 ITU=  0
     Eigenvalues ---    0.00019   0.00136   0.00136   0.00724   0.04241
     Eigenvalues ---    0.04241   0.09491   0.09491   0.10381   0.10609
     Eigenvalues ---    0.10609   0.22039   0.22039   0.22896   0.34754
     Eigenvalues ---    0.54221   0.54221   0.63413
 Angle between quadratic step and forces=  61.20 degrees.
 Linear search not attempted -- first point.
 Iteration  1 RMS(Cart)=  0.00014705 RMS(Int)=  0.00000006
 Iteration  2 RMS(Cart)=  0.00000004 RMS(Int)=  0.00000005
 ClnCor:  largest displacement from symmetrization is 6.97D-09 for atom     7.
 Variable       Old X    -DE/DX   Delta X   Delta X   Delta X     New X
                                 (Linear)    (Quad)   (Total)
    R1        2.51838   0.00004   0.00000   0.00008   0.00008   2.51846
    R2        2.51838   0.00004   0.00000   0.00008   0.00008   2.51846
    R3        2.51838   0.00004   0.00000   0.00008   0.00008   2.51846
    R4        5.71940   0.00001   0.00000  -0.00091  -0.00091   5.71849
    R5        2.67490   0.00002   0.00000   0.00010   0.00010   2.67501
    R6        2.67490   0.00002   0.00000   0.00010   0.00010   2.67501
    R7        2.67490   0.00002   0.00000   0.00010   0.00010   2.67501
    A1        2.08986  -0.00001   0.00000  -0.00005  -0.00005   2.08981
    A2        2.08986  -0.00001   0.00000  -0.00005  -0.00005   2.08981
    A3        1.62201   0.00008   0.00000   0.00029   0.00029   1.62229
    A4        2.08986  -0.00001   0.00000  -0.00005  -0.00005   2.08981
    A5        1.62201   0.00008   0.00000   0.00029   0.00029   1.62229
    A6        1.62201   0.00008   0.00000   0.00029   0.00029   1.62229
    A7        2.08608   0.00000   0.00000   0.00001   0.00001   2.08609
    A8        2.08608   0.00000   0.00000   0.00001   0.00001   2.08609
    A9        2.08608   0.00000   0.00000   0.00001   0.00001   2.08609
   A10        1.70697  -0.00000   0.00000  -0.00002  -0.00002   1.70695
   A11        1.70697  -0.00000   0.00000  -0.00002  -0.00002   1.70695
   A12        1.70697  -0.00000   0.00000  -0.00002  -0.00002   1.70695
    D1       -1.04720  -0.00000   0.00000   0.00000   0.00000  -1.04720
    D2        1.04720   0.00000   0.00000   0.00000   0.00000   1.04720
    D3        3.14159   0.00000   0.00000   0.00000   0.00000   3.14159
    D4        3.14159  -0.00000   0.00000   0.00000   0.00000   3.14159
    D5       -1.04720  -0.00000   0.00000   0.00000   0.00000  -1.04720
    D6        1.04720  -0.00000   0.00000   0.00000   0.00000   1.04720
    D7        1.04720  -0.00000   0.00000   0.00000   0.00000   1.04720
    D8        3.14159  -0.00000   0.00000   0.00000   0.00000  -3.14159
    D9       -1.04720  -0.00000   0.00000   0.00000   0.00000  -1.04720
         Item               Value     Threshold  Converged?
 Maximum Force            0.000083     0.000450     YES
 RMS     Force            0.000031     0.000300     YES
 Maximum Displacement     0.000693     0.001800     YES
 RMS     Displacement     0.000147     0.001200     YES
 Predicted change in Energy=-4.241758D-08
 Optimization completed.
    -- Stationary point found.
                           ----------------------------
                           !   Optimized Parameters   !
                           ! (Angstroms and Degrees)  !
 --------------------------                            --------------------------
 ! Name  Definition              Value          Derivative Info.                !
 --------------------------------------------------------------------------------
 ! R1    R(1,2)                  1.3327         -DE/DX =    0.0                 !
 ! R2    R(1,3)                  1.3327         -DE/DX =    0.0                 !
 ! R3    R(1,4)                  1.3327         -DE/DX =    0.0                 !
 ! R4    R(1,5)                  3.0266         -DE/DX =    0.0                 !
 ! R5    R(5,6)                  1.4155         -DE/DX =    0.0                 !
 ! R6    R(5,7)                  1.4155         -DE/DX =    0.0                 !
 ! R7    R(5,8)                  1.4155         -DE/DX =    0.0                 !
 ! A1    A(2,1,3)              119.7403         -DE/DX =    0.0                 !
 ! A2    A(2,1,4)              119.7403         -DE/DX =    0.0                 !
 ! A3    A(2,1,5)               92.9341         -DE/DX =    0.0001              !
 ! A4    A(3,1,4)              119.7403         -DE/DX =    0.0                 !
 ! A5    A(3,1,5)               92.9341         -DE/DX =    0.0001              !
 ! A6    A(4,1,5)               92.9341         -DE/DX =    0.0001              !
 ! A7    A(1,5,6)              119.5236         -DE/DX =    0.0                 !
 ! A8    A(1,5,7)              119.5236         -DE/DX =    0.0                 !
 ! A9    A(1,5,8)              119.5236         -DE/DX =    0.0                 !
 ! A10   A(6,5,7)               97.8019         -DE/DX =    0.0                 !
 ! A11   A(6,5,8)               97.8019         -DE/DX =    0.0                 !
 ! A12   A(7,5,8)               97.8019         -DE/DX =    0.0                 !
 ! D1    D(2,1,5,6)            -60.0            -DE/DX =    0.0                 !
 ! D2    D(2,1,5,7)             60.0            -DE/DX =    0.0                 !
 ! D3    D(2,1,5,8)            180.0            -DE/DX =    0.0                 !
 ! D4    D(3,1,5,6)            180.0            -DE/DX =    0.0                 !
 ! D5    D(3,1,5,7)            -60.0            -DE/DX =    0.0                 !
 ! D6    D(3,1,5,8)             60.0            -DE/DX =    0.0                 !
 ! D7    D(4,1,5,6)             60.0            -DE/DX =    0.0                 !
 ! D8    D(4,1,5,7)           -180.0            -DE/DX =    0.0                 !
 ! D9    D(4,1,5,8)            -60.0            -DE/DX =    0.0                 !
 --------------------------------------------------------------------------------
 GradGradGradGradGradGradGradGradGradGradGradGradGradGradGradGradGradGrad


 ----------------------------------------------------------------------

 Electric dipole moment (input orientation):
 (Debye = 10**-18 statcoulomb cm , SI units = C m)
                  (au)            (Debye)         (10**-30 SI)
   Tot        0.871144D+00      0.221423D+01      0.738587D+01
   x         -0.399027D-01     -0.101423D+00     -0.338309D+00
   y          0.769866D-01      0.195680D+00      0.652719D+00
   z          0.866818D+00      0.220323D+01      0.734919D+01

 Dipole polarizability, Alpha (input orientation).
 (esu units = cm**3 , SI units = C**2 m**2 J**-1)
 Alpha(0;0):
               (au)            (10**-24 esu)      (10**-40 SI)
   iso        0.282969D+02      0.419317D+01      0.466553D+01
   aniso      0.356247D+01      0.527904D+00      0.587373D+00
   xx         0.294769D+02      0.436803D+01      0.486009D+01
   yx         0.144208D-01      0.213694D-02      0.237767D-02
   yy         0.294566D+02      0.436501D+01      0.485673D+01
   zx         0.162368D+00      0.240605D-01      0.267709D-01
   zy        -0.313267D+00     -0.464214D-01     -0.516507D-01
   zz         0.259572D+02      0.384646D+01      0.427977D+01

 First dipole hyperpolarizability, Beta (input orientation).
 ||, _|_  parallel and perpendicular components, (z) with respect to z axis,
 vector components x,y,z.  Values do not include the 1/n! factor of 1/2.
 (esu units = statvolt**-1 cm**4 , SI units = C**3 m**3 J**-2)
 Beta(0;0,0):
               (au)            (10**-30 esu)      (10**-50 SI)
   || (z)    -0.803281D+02     -0.693972D+00     -0.257561D+00
   _|_(z)    -0.267760D+02     -0.231324D+00     -0.858536D-01
   x          0.184889D+02      0.159730D+00      0.592822D-01
   y         -0.356718D+02     -0.308176D+00     -0.114377D+00
   z         -0.401640D+03     -0.346986D+01     -0.128780D+01
   ||         0.807290D+02      0.697436D+00      0.258846D+00
   xxx       -0.229831D+02     -0.198556D+00     -0.736923D-01
   xxy        0.991335D+01      0.856436D-01      0.317858D-01
   yxy        0.215543D+02      0.186212D+00      0.691109D-01
   yyy       -0.702363D+01     -0.606787D-01     -0.225203D-01
   xxz        0.572243D+01      0.494373D-01      0.183482D-01
   yxz       -0.813548D+00     -0.702842D-02     -0.260853D-02
   yyz        0.836754D+01      0.722891D-01      0.268294D-01
   zxz        0.759182D+01      0.655874D-01      0.243421D-01
   zyz       -0.147803D+02     -0.127690D+00     -0.473910D-01
   zzz       -0.147970D+03     -0.127835D+01     -0.474446D+00

 ----------------------------------------------------------------------

 Dipole orientation:
     5          1.23360385          0.70361076         -0.49266451
     9          0.27494859          3.02881829         -0.62157548
     9         -0.30075731         -1.28921282         -0.62157548
     9          3.72662028          0.37122681         -0.62157548
    15          1.23360385          0.70361076          5.22673461
     1          2.65357646          2.54786684          6.54487970
     1         -1.07355507          1.01121507          6.54487970
     1          2.12079016         -1.44824963          6.54487970

 Electric dipole moment (dipole orientation):
 (Debye = 10**-18 statcoulomb cm , SI units = C m)
                  (au)            (Debye)         (10**-30 SI)
   Tot        0.871144D+00      0.221423D+01      0.738587D+01
   x          0.000000D+00      0.000000D+00      0.000000D+00
   y          0.000000D+00      0.000000D+00      0.000000D+00
   z          0.871144D+00      0.221423D+01      0.738587D+01

 Dipole polarizability, Alpha (dipole orientation).
 (esu units = cm**3 , SI units = C**2 m**2 J**-1)
 Alpha(0;0):
               (au)            (10**-24 esu)      (10**-40 SI)
   iso        0.282969D+02      0.419317D+01      0.466553D+01
   aniso      0.356247D+01      0.527904D+00      0.587373D+00
   xx         0.294844D+02      0.436914D+01      0.486132D+01
   yx         0.000000D+00      0.000000D+00      0.000000D+00
   yy         0.294844D+02      0.436914D+01      0.486132D+01
   zx         0.000000D+00      0.000000D+00      0.000000D+00
   zy         0.000000D+00      0.000000D+00      0.000000D+00
   zz         0.259219D+02      0.384123D+01      0.427395D+01

 First dipole hyperpolarizability, Beta (dipole orientation).
 ||, _|_  parallel and perpendicular components, (z) with respect to z axis,
 vector components x,y,z.  Values do not include the 1/n! factor of 1/2.
 (esu units = statvolt**-1 cm**4 , SI units = C**3 m**3 J**-2)
 Beta(0;0,0):
               (au)            (10**-30 esu)      (10**-50 SI)
   || (z)    -0.807290D+02     -0.697436D+00     -0.258846D+00
   _|_(z)    -0.269097D+02     -0.232479D+00     -0.862821D-01
   x          0.000000D+00      0.000000D+00      0.000000D+00
   y          0.000000D+00      0.000000D+00      0.000000D+00
   z         -0.403645D+03     -0.348718D+01     -0.129423D+01
   ||         0.807290D+02      0.697436D+00      0.258846D+00
   xxx       -0.220327D+02     -0.190345D+00     -0.706447D-01
   xxy        0.925385D+01      0.799460D-01      0.296712D-01
   yxy        0.220327D+02      0.190345D+00      0.706447D-01
   yyy       -0.925385D+01     -0.799460D-01     -0.296712D-01
   xxz        0.795520D+01      0.687267D-01      0.255072D-01
   yxz        0.000000D+00      0.000000D+00      0.000000D+00
   yyz        0.795520D+01      0.687267D-01      0.255072D-01
   zxz        0.000000D+00      0.000000D+00      0.000000D+00
   zyz        0.000000D+00      0.000000D+00      0.000000D+00
   zzz       -0.150459D+03     -0.129985D+01     -0.482425D+00

 ----------------------------------------------------------------------
 1\1\GINC-IISERK51\Freq\RHF\3-21G\B1F3H3P1\GAUSSIAN\17-Jun-2025\0\\#N G
 eom=AllCheck Guess=TCheck SCRF=Check GenChk RHF/3-21G Freq\\Title Card
  Required\\0,1\B,0.6648056592,0.3491620072,-0.2624155916\F,0.163661909
 7,1.5677340889,-0.4622699158\F,-0.1453044648,-0.7089425854,-0.27428930
 88\F,1.9854335185,0.1706087424,-0.2543214123\P,0.5261736248,0.61663284
 51,2.7491290027\H,1.2468303297,1.6519190393,3.3913680948\H,-0.72505846
 53,0.8379393658,3.37288883\H,0.9608977858,-0.4550285343,3.5653345118\\
 Version=EM64L-G16RevB.01\State=1-A1\HF=-662.179445\RMSD=5.276e-10\RMSF
 =2.978e-05\ZeroPoint=0.0398005\Thermal=0.0476061\Dipole=-0.0399027,0.0
 769866,0.8668179\DipoleDeriv=1.8165492,-0.0003592,-0.0040448,-0.000359
 3,1.8170561,0.0078038,-0.0040448,0.0078038,1.9042289,-0.5274376,0.0966
 5,-0.045003,0.0963465,-0.7239202,0.1125387,-0.0316378,0.0801612,-0.642
 9136,-0.5932517,-0.1449706,-0.0516006,-0.1418107,-0.6857119,-0.0862383
 ,-0.0303707,-0.0585556,-0.6153079,-0.7851739,0.048179,0.0950086,0.0453
 225,-0.4960312,-0.0232231,0.0604134,-0.0185282,-0.6130664,0.3484827,-0
 .0000185,-0.0002084,-0.0000185,0.3485088,0.0004021,-0.0002084,0.000402
 1,0.353,-0.071617,-0.0248533,-0.0146804,-0.0407668,-0.1116607,-0.02869
 21,-0.1215973,-0.1681056,-0.1183929,-0.1281211,0.0125517,0.0305732,0.0
 269372,-0.0586444,-0.0091587,0.204799,-0.0328027,-0.1149051,-0.0594309
 ,0.0128209,-0.0100446,0.014349,-0.0895966,0.0265675,-0.0773535,0.18962
 52,-0.1526431\Polar=29.4769276,0.0144208,29.4565791,0.1623684,-0.31326
 68,25.9572248\PolarDeriv=0.2926202,-0.1512913,-0.1788785,-0.747564,-0.
 0406391,-0.5888358,-0.1257565,-0.1656437,-0.0948919,-0.0406391,-0.7037
 346,1.1372753,-0.4600582,-0.0406389,-0.4162291,-0.575601,1.1117407,11.
 1969022,-1.3390024,1.3913134,-0.1253748,-0.2444023,0.0129166,-1.013170
 4,0.4228289,-0.5254295,3.1411315,-0.0097304,-0.2704286,2.523799,0.0101
 946,0.1300007,-0.2417922,-0.4130097,1.0769815,-3.5490684,-2.140173,-1.
 1877903,-0.2743656,-0.0622374,-0.2488019,-1.6683009,-0.3359636,-0.9057
 727,-2.8331173,-0.0119298,-0.3722988,-2.5720532,-0.0045633,-0.1461443,
 -0.0778348,-0.7235348,-1.364037,-2.72158,3.4675616,-0.2292184,0.488384
 5,-0.3651481,0.260893,3.0318566,-0.0683826,1.5427441,-0.4746356,0.0466
 677,-0.0589398,-0.6282449,-0.1800046,0.0411513,0.1153741,1.5098276,-0.
 4336215,-2.6356008,2.4443276,-1.3326885,-1.2799284,-7.757706,0.0739847
 ,-0.1198531,-1.0528835,-1.1349035,-1.2027601,0.0739847,-7.9645679,0.24
 03404,-4.6072874,0.0739848,-4.814149,0.0251719,-0.0394647,-13.2695445,
 4.8211839,3.8364646,0.9927468,2.6375615,0.7195277,0.8360301,0.8355427,
 3.1544236,7.9315001,0.7523286,3.2712431,0.9069485,1.4898888,0.6607939,
 2.1171833,3.2268249,4.1847796,3.130502,-10.2482607,1.1553423,-0.228143
 3,3.6363669,-0.2899075,-1.1676695,0.5617655,-3.8937075,1.5091031,-0.31
 97578,2.1631309,0.051494,2.4707505,-0.300375,1.1417602,-5.1938922,0.68
 23398,2.9536236,2.7017402,-3.4821306,0.6055621,2.9031302,-0.4879737,0.
 6899433,-0.2371499,1.9282919,-7.9763307,-0.4909243,3.935597,-1.6595592
 ,1.2810791,-0.4187724,2.1756875,2.1442135,-5.2187185,4.8947665\HyperPo
 lar=-22.983147,9.9133485,21.5543068,-7.0236335,5.7224259,-0.8135478,8.
 367544,7.5918166,-14.7803035,-147.9701266\Quadrupole=-1.9407975,-1.907
 33,3.8481276,-0.0237181,-0.2670506,0.5152362\PG=C03V [C3(B1P1),3SGV(F1
 H1)]\NImag=0\\0.84872845,0.00288168,0.84466225,0.03244583,-0.06259962,
 0.14539175,-0.12656912,0.14917227,-0.02184274,0.13957522,0.14926492,-0
 .42799269,0.05274695,-0.17217448,0.48749540,-0.02592397,0.06263386,-0.
 05780990,0.02971593,-0.07119831,0.03401115,-0.22550542,-0.20869279,0.0
 0228840,0.01277764,0.00370136,-0.00168699,0.25387280,-0.20965770,-0.33
 777740,0.00538144,-0.02125171,-0.05011295,0.00218570,0.24191063,0.3839
 4374,-0.00419444,-0.00307182,-0.04908888,0.00130234,0.00903120,0.01584
 218,0.00377663,-0.00185014,0.02326523,-0.49042997,0.05670812,-0.012111
 56,-0.02715998,0.01892629,-0.00090971,-0.04222829,-0.01017494,0.001179
 01,0.56041339,0.05758036,-0.07276597,0.00296647,0.04396548,-0.01010184
 ,0.00327222,-0.03602479,0.00420974,-0.00022400,-0.06615814,0.07737353,
 -0.00154749,0.00153282,-0.04917575,-0.00769210,0.00561554,0.01576868,-
 0.00185677,-0.00123490,0.01652541,0.00679344,-0.00467767,0.02329486,-0
 .00594699,-0.00000397,-0.00004473,0.00092428,0.00030110,-0.00186440,0.
 00064067,-0.00095673,-0.00300741,-0.00085747,0.00069719,0.00533976,0.2
 8482497,-0.00000397,-0.00594139,0.00008629,0.00027293,0.00026485,0.004
 62810,-0.00066334,-0.00050308,-0.00449633,0.00043197,0.00088706,-0.001
 03462,0.00019398,0.28455125,-0.00004473,0.00008630,-0.00497746,-0.0006
 2342,0.00162180,-0.00388253,-0.00103619,-0.00192596,-0.00283098,0.0021
 2757,-0.00059869,-0.00272297,0.00218411,-0.00421394,0.23747940,0.00006
 178,0.00009146,0.00005781,0.00001399,0.00012521,0.00018587,0.00020590,
 0.00003470,0.00034111,0.00004564,-0.00007416,-0.00043323,-0.07264399,-
 0.06024909,-0.03830993,0.08167699,-0.00041259,-0.00040858,0.00088131,0
 .00004939,0.00023359,-0.00047601,-0.00001336,0.00019430,-0.00004364,0.
 00031333,0.00016547,0.00003168,-0.06310193,-0.12132247,-0.05529113,0.0
 7242452,0.13494697,-0.00332870,-0.00353450,0.00541298,0.00045215,0.001
 51436,-0.00043122,0.00001819,-0.00046471,-0.00306333,0.00139445,0.0007
 7172,-0.00039475,-0.05747704,-0.08028396,-0.06667007,0.04466490,0.0623
 2806,0.05869551,-0.00039847,-0.00000857,-0.00075581,0.00022937,-0.0001
 6160,0.00021356,0.00024467,0.00013828,0.00029588,0.00020830,-0.0000117
 6,-0.00015867,-0.16113710,0.02303664,0.06479807,-0.01372546,0.00095063
 ,0.00603362,0.18299953,0.00044708,-0.00001659,0.00055529,-0.00005568,0
 .00003513,-0.00046640,-0.00024938,-0.00001303,0.00032661,0.00003169,0.
 00019332,-0.00024953,0.02561554,-0.03524198,-0.01155526,-0.01773303,0.
 00299862,0.00857052,-0.02669078,0.03585393,0.00476265,-0.00019362,0.00
 548122,-0.00137856,0.00075514,-0.00044814,-0.00152420,-0.00043186,-0.0
 0041528,0.00036754,-0.00032095,-0.00306474,0.09603172,-0.01579396,-0.0
 6425745,-0.01069758,0.00183911,0.00236749,-0.07381291,0.01210058,0.056
 46602,0.00005976,-0.00014819,-0.00003720,0.00020859,0.00001721,0.00026
 970,-0.00000796,-0.00004253,0.00030689,0.00000839,0.00002582,-0.000444
 94,-0.04580436,0.03698088,-0.02909549,0.00436516,-0.01020999,0.0082424
 4,-0.00842085,0.01863456,-0.01374865,0.04959127,-0.00009979,0.00024038
 ,-0.00001813,0.00002182,0.00017850,-0.00057916,0.00003167,0.00005868,0
 .00032814,-0.00007830,0.00003871,0.00001669,0.03725482,-0.12269425,0.0
 7187689,0.00538038,-0.01680791,0.01109852,0.00274716,-0.00380939,0.002
 04556,-0.04525776,0.14279527,-0.00216915,0.00514658,0.00476604,0.00006
 641,-0.00008668,-0.00305022,0.00002092,-0.00165957,-0.00023437,0.00115
 926,-0.00118909,-0.00023074,-0.04116202,0.10110841,-0.09213793,0.00419
 106,-0.00926937,0.00408339,0.00338627,-0.00928180,0.00387088,0.0345072
 4,-0.08476850,0.08293294\\0.00000465,-0.00000897,-0.00010101,0.0000117
 1,-0.00002925,0.00003923,0.00001989,0.00003103,0.00003425,-0.00003653,
 0.00000774,0.00003373,-0.00000178,0.00000343,0.00003867,-0.00001149,-0
 .00001709,-0.00001412,0.00002042,-0.00000391,-0.00001382,-0.00000686,0
 .00001701,-0.00001693\\\@


 IT IS BETTER TO THINK YOU ARE HALF DRY THAN TO KNOW YOU
 ARE ALL WET.  -- SNOOPY
 Job cpu time:       0 days  0 hours  0 minutes  1.3 seconds.
 Elapsed time:       0 days  0 hours  0 minutes  1.2 seconds.
 File lengths (MBytes):  RWF=      6 Int=      0 D2E=      0 Chk=      1 Scr=      1
 Normal termination of Gaussian 16 at Tue Jun 17 16:01:10 2025.
