 Entering Gaussian System, Link 0=g16
 Input=/home/gaussian/Documents/Summer_Internship/Acid_Base_adduct/Adduct/PH3-BF3/PH3_BF3_adduct_sp.com
 Output=/home/gaussian/Documents/Summer_Internship/Acid_Base_adduct/Adduct/PH3-BF3/PH3_BF3_adduct_sp.log
 Initial command:
 /usr/local/g16/l1.exe "/home/gaussian/tmp/Gau-92894.inp" -scrdir="/home/gaussian/tmp/"
 Entering Link 1 = /usr/local/g16/l1.exe PID=     92897.
  
 Copyright (c) 1988-2017, Gaussian, Inc.  All Rights Reserved.
  
 This is part of the Gaussian(R) 16 program.  It is based on
 the Gaussian(R) 09 system (copyright 2009, Gaussian, Inc.),
 the Gaussian(R) 03 system (copyright 2003, Gaussian, Inc.),
 the Gaussian(R) 98 system (copyright 1998, Gaussian, Inc.),
 the Gaussian(R) 94 system (copyright 1995, Gaussian, Inc.),
 the Gaussian 92(TM) system (copyright 1992, Gaussian, Inc.),
 the Gaussian 90(TM) system (copyright 1990, Gaussian, Inc.),
 the Gaussian 88(TM) system (copyright 1988, Gaussian, Inc.),
 the Gaussian 86(TM) system (copyright 1986, Carnegie Mellon
 University), and the Gaussian 82(TM) system (copyright 1983,
 Carnegie Mellon University). Gaussian is a federally registered
 trademark of Gaussian, Inc.
  
 This software contains proprietary and confidential information,
 including trade secrets, belonging to Gaussian, Inc.
  
 This software is provided under written license and may be
 used, copied, transmitted, or stored only in accord with that
 written license.
  
 The following legend is applicable only to US Government
 contracts under FAR:
  
                    RESTRICTED RIGHTS LEGEND
  
 Use, reproduction and disclosure by the US Government is
 subject to restrictions as set forth in subparagraphs (a)
 and (c) of the Commercial Computer Software - Restricted
 Rights clause in FAR 52.227-19.
  
 Gaussian, Inc.
 340 Quinnipiac St., Bldg. 40, Wallingford CT 06492
  
  
 ---------------------------------------------------------------
 Warning -- This program may not be used in any manner that
 competes with the business of Gaussian, Inc. or will provide
 assistance to any competitor of Gaussian, Inc.  The licensee
 of this program is prohibited from giving any competitor of
 Gaussian, Inc. access to this program.  By using this program,
 the user acknowledges that Gaussian, Inc. is engaged in the
 business of creating and licensing software in the field of
 computational chemistry and represents and warrants to the
 licensee that it is not a competitor of Gaussian, Inc. and that
 it will not use this program in any manner prohibited above.
 ---------------------------------------------------------------
  

 Cite this work as:
 Gaussian 16, Revision B.01,
 M. J. Frisch, G. W. Trucks, H. B. Schlegel, G. E. Scuseria, 
 M. A. Robb, J. R. Cheeseman, G. Scalmani, V. Barone, 
 G. A. Petersson, H. Nakatsuji, X. Li, M. Caricato, A. V. Marenich, 
 J. Bloino, B. G. Janesko, R. Gomperts, B. Mennucci, H. P. Hratchian, 
 J. V. Ortiz, A. F. Izmaylov, J. L. Sonnenberg, D. Williams-Young, 
 F. Ding, F. Lipparini, F. Egidi, J. Goings, B. Peng, A. Petrone, 
 T. Henderson, D. Ranasinghe, V. G. Zakrzewski, J. Gao, N. Rega, 
 G. Zheng, W. Liang, M. Hada, M. Ehara, K. Toyota, R. Fukuda, 
 J. Hasegawa, M. Ishida, T. Nakajima, Y. Honda, O. Kitao, H. Nakai, 
 T. Vreven, K. Throssell, J. A. Montgomery, Jr., J. E. Peralta, 
 F. Ogliaro, M. J. Bearpark, J. J. Heyd, E. N. Brothers, K. N. Kudin, 
 V. N. Staroverov, T. A. Keith, R. Kobayashi, J. Normand, 
 K. Raghavachari, A. P. Rendell, J. C. Burant, S. S. Iyengar, 
 J. Tomasi, M. Cossi, J. M. Millam, M. Klene, C. Adamo, R. Cammi, 
 J. W. Ochterski, R. L. Martin, K. Morokuma, O. Farkas, 
 J. B. Foresman, and D. J. Fox, Gaussian, Inc., Wallingford CT, 2016.
 
 ******************************************
 Gaussian 16:  EM64L-G16RevB.01 20-Dec-2017
                17-Jun-2025 
 ******************************************
 %chk=PH3_BF3_adduct_sp.chk
 -------------------------------------
 # hf/3-21g pop=full geom=connectivity
 -------------------------------------
 1/38=1,57=2,172=1/1;
 2/12=2,17=6,18=5,40=1/2;
 3/5=5,11=9,25=1,30=1/1,2,3;
 4//1;
 5/5=2,38=5/2;
 6/7=3,28=1/1;
 99/5=1,9=1/99;
 -------------------
 Title Card Required
 -------------------
 Symbolic Z-matrix:
 Charge =  0 Multiplicity = 1
 B                     0.        0.       -1.09458 
 F                     0.        1.33092  -1.1628 
 F                    -1.15261  -0.66546  -1.1628 
 F                     1.15261  -0.66546  -1.1628 
 P                     0.        0.        1.93199 
 H                     1.06668   0.61585   2.62953 
 H                    -1.06668   0.61585   2.62953 
 H                     0.       -1.2317    2.62953 
 
                          Input orientation:                          
 ---------------------------------------------------------------------
 Center     Atomic      Atomic             Coordinates (Angstroms)
 Number     Number       Type             X           Y           Z
 ---------------------------------------------------------------------
      1          5           0        0.000000    0.000000   -1.094582
      2          9           0        0.000000    1.330921   -1.162799
      3          9           0       -1.152612   -0.665461   -1.162799
      4          9           0        1.152612   -0.665461   -1.162799
      5         15           0        0.000000    0.000000    1.931994
      6          1           0        1.066683    0.615850    2.629526
      7          1           0       -1.066683    0.615850    2.629526
      8          1           0        0.000000   -1.231699    2.629526
 ---------------------------------------------------------------------
                    Distance matrix (angstroms):
                    1          2          3          4          5
     1  B    0.000000
     2  F    1.332668   0.000000
     3  F    1.332669   2.305224   0.000000
     4  F    1.332669   2.305224   2.305224   0.000000
     5  P    3.026576   3.368842   3.368842   3.368842   0.000000
     6  H    3.922507   4.003857   4.576981   4.003857   1.415498
     7  H    3.922507   4.003857   4.003857   4.576981   1.415498
     8  H    3.922507   4.576980   4.003857   4.003857   1.415498
                    6          7          8
     6  H    0.000000
     7  H    2.133366   0.000000
     8  H    2.133366   2.133366   0.000000
 Stoichiometry    BF3H3P
 Framework group  C3[C3(BP),X(F3H3)]
 Deg. of freedom     6
 Full point group                 C3      NOp   3
 Largest Abelian subgroup         C1      NOp   1
 Largest concise Abelian subgroup C1      NOp   1
                         Standard orientation:                         
 ---------------------------------------------------------------------
 Center     Atomic      Atomic             Coordinates (Angstroms)
 Number     Number       Type             X           Y           Z
 ---------------------------------------------------------------------
      1          5           0       -0.000000   -0.000000   -1.094582
      2          9           0        0.000000    1.330921   -1.162799
      3          9           0       -1.152612   -0.665461   -1.162799
      4          9           0        1.152612   -0.665461   -1.162799
      5         15           0       -0.000000   -0.000000    1.931994
      6          1           0        1.066683    0.615850    2.629526
      7          1           0       -1.066683    0.615849    2.629526
      8          1           0        0.000000   -1.231700    2.629526
 ---------------------------------------------------------------------
 Rotational constants (GHZ):           4.7882620           1.8149272           1.8149272
 Standard basis: 3-21G (6D, 7F)
 There are    55 symmetry adapted cartesian basis functions of A   symmetry.
 There are    55 symmetry adapted basis functions of A   symmetry.
    55 basis functions,    96 primitive gaussians,    55 cartesian basis functions
    25 alpha electrons       25 beta electrons
       nuclear repulsion energy       215.9680581080 Hartrees.
 NAtoms=    8 NActive=    8 NUniq=    4 SFac= 4.00D+00 NAtFMM=   60 NAOKFM=F Big=F
 Integral buffers will be    131072 words long.
 Raffenetti 1 integral format.
 Two-electron integral symmetry is turned on.
 One-electron integrals computed using PRISM.
 NBasis=    55 RedAO= T EigKep=  2.37D-02  NBF=    55
 NBsUse=    55 1.00D-06 EigRej= -1.00D+00 NBFU=    55
 ExpMin= 1.23D-01 ExpMax= 1.05D+03 ExpMxC= 1.05D+03 IAcc=3 IRadAn=         5 AccDes= 0.00D+00
 Harris functional with IExCor=  205 and IRadAn=       5 diagonalized for initial guess.
 HarFok:  IExCor=  205 AccDes= 0.00D+00 IRadAn=         5 IDoV= 1 UseB2=F ITyADJ=14
 ICtDFT=  3500011 ScaDFX=  1.000000  1.000000  1.000000  1.000000
 FoFCou: FMM=F IPFlag=           0 FMFlag=      100000 FMFlg1=           0
         NFxFlg=           0 DoJE=T BraDBF=F KetDBF=T FulRan=T
         wScrn=  0.000000 ICntrl=       500 IOpCl=  0 I1Cent=   200000004 NGrid=           0
         NMat0=    1 NMatS0=      1 NMatT0=    0 NMatD0=    1 NMtDS0=    0 NMtDT0=    0
 Petite list used in FoFCou.
 Initial guess orbital symmetries:
       Occupied  (A) (A) (E) (E) (A) (A) (E) (E) (A) (A) (E) (E)
                 (A) (A) (E) (E) (A) (E) (E) (E) (E) (A) (E) (E)
                 (A)
       Virtual   (A) (E) (E) (A) (A) (E) (E) (E) (E) (A) (A) (E)
                 (E) (A) (A) (A) (E) (E) (E) (E) (E) (E) (A) (A)
                 (E) (E) (A) (E) (E) (A)
 The electronic state of the initial guess is 1-A.
 Keep R1 ints in memory in canonical form, NReq=2000885.
 Requested convergence on RMS density matrix=1.00D-08 within 128 cycles.
 Requested convergence on MAX density matrix=1.00D-06.
 Requested convergence on             energy=1.00D-06.
 No special actions if energy rises.
 SCF Done:  E(RHF) =  -662.179444955     A.U. after   10 cycles
            NFock= 10  Conv=0.26D-08     -V/T= 2.0025

 **********************************************************************

            Population analysis using the SCF Density.

 **********************************************************************

 Orbital symmetries:
       Occupied  (A) (A) (E) (E) (A) (A) (E) (E) (A) (A) (E) (E)
                 (A) (A) (E) (E) (A) (E) (E) (E) (E) (A) (E) (E)
                 (A)
       Virtual   (E) (E) (A) (A) (A) (E) (E) (A) (E) (E) (A) (A)
                 (E) (E) (A) (A) (E) (E) (E) (E) (E) (E) (A) (A)
                 (E) (E) (A) (E) (E) (A)
 The electronic state is 1-A.
 Alpha  occ. eigenvalues --  -79.40562 -26.19138 -26.19108 -26.19108  -7.75917
 Alpha  occ. eigenvalues --   -7.48052  -5.36503  -5.36503  -5.36277  -1.65200
 Alpha  occ. eigenvalues --   -1.60593  -1.60593  -0.89536  -0.81039  -0.76427
 Alpha  occ. eigenvalues --   -0.76427  -0.72852  -0.65218  -0.65218  -0.64428
 Alpha  occ. eigenvalues --   -0.64428  -0.62499  -0.54800  -0.54800  -0.40794
 Alpha virt. eigenvalues --    0.16503   0.16503   0.21566   0.24946   0.30955
 Alpha virt. eigenvalues --    0.44028   0.44028   0.58952   0.60436   0.60436
 Alpha virt. eigenvalues --    0.66977   0.75846   0.80271   0.80271   1.01161
 Alpha virt. eigenvalues --    1.19506   1.25576   1.25576   2.20307   2.20307
 Alpha virt. eigenvalues --    2.30690   2.30690   2.31382   2.40098   2.47672
 Alpha virt. eigenvalues --    2.47672   2.48416   4.03895   4.03895   4.14898
     Molecular Orbital Coefficients:
                           1         2         3         4         5
                           O         O         O         O         O
     Eigenvalues --   -79.40562 -26.19138 -26.19108 -26.19108  -7.75917
   1 1   B  1S          0.00008  -0.00035   0.00000   0.00000   0.98775
   2        2S          0.00049   0.00297  -0.00000  -0.00000   0.09433
   3        2PX        -0.00000   0.00000   0.00009   0.00507  -0.00000
   4        2PY         0.00000   0.00000   0.00507  -0.00009  -0.00000
   5        2PZ         0.00017  -0.00119   0.00000   0.00000   0.00020
   6        3S         -0.00146   0.01642  -0.00000  -0.00000  -0.02714
   7        3PX         0.00000   0.00000   0.00018   0.01053   0.00000
   8        3PY        -0.00000   0.00000   0.01053  -0.00018   0.00000
   9        3PZ        -0.00093   0.00181  -0.00000  -0.00000  -0.00391
  10 2   F  1S         -0.00001   0.56705   0.80173  -0.01373  -0.00013
  11        2S         -0.00012   0.05666   0.07934  -0.00136   0.00153
  12        2PX        -0.00000   0.00000   0.00002   0.00094  -0.00000
  13        2PY         0.00002  -0.00180  -0.00205   0.00004  -0.00107
  14        2PZ        -0.00001   0.00011   0.00013  -0.00000  -0.00012
  15        3S          0.00039  -0.02209  -0.02971   0.00051  -0.00356
  16        3PX         0.00000  -0.00000  -0.00006  -0.00363   0.00000
  17        3PY        -0.00009   0.00460   0.00450  -0.00008   0.00827
  18        3PZ         0.00010  -0.00036  -0.00036   0.00001   0.00036
  19 3   F  1S         -0.00001   0.56705  -0.41276  -0.68746  -0.00013
  20        2S         -0.00012   0.05666  -0.04084  -0.06803   0.00153
  21        2PX        -0.00002   0.00156  -0.00132  -0.00128   0.00092
  22        2PY        -0.00001   0.00090   0.00017  -0.00130   0.00053
  23        2PZ        -0.00001   0.00011  -0.00007  -0.00011  -0.00012
  24        3S          0.00039  -0.02209   0.01530   0.02548  -0.00356
  25        3PX         0.00008  -0.00398   0.00356   0.00240  -0.00716
  26        3PY         0.00005  -0.00230  -0.00154   0.00355  -0.00414
  27        3PZ         0.00010  -0.00036   0.00019   0.00031   0.00036
  28 4   F  1S         -0.00001   0.56705  -0.38898   0.70119  -0.00013
  29        2S         -0.00012   0.05666  -0.03849   0.06939   0.00153
  30        2PX         0.00002  -0.00156   0.00127  -0.00133  -0.00092
  31        2PY        -0.00001   0.00090   0.00022   0.00129   0.00053
  32        2PZ        -0.00001   0.00011  -0.00006   0.00011  -0.00012
  33        3S          0.00039  -0.02209   0.01442  -0.02599  -0.00356
  34        3PX        -0.00008   0.00398  -0.00348   0.00253   0.00716
  35        3PY         0.00005  -0.00230  -0.00166  -0.00349  -0.00414
  36        3PZ         0.00010  -0.00036   0.00017  -0.00031   0.00036
  37 5   P  1S          0.98703   0.00003  -0.00000  -0.00000   0.00014
  38        2S          0.04869   0.00006  -0.00000  -0.00000  -0.00071
  39        2PX        -0.00000  -0.00000  -0.00000  -0.00009  -0.00000
  40        2PY         0.00000  -0.00000  -0.00009   0.00000  -0.00000
  41        2PZ         0.00011   0.00014  -0.00000  -0.00000  -0.00009
  42        3S         -0.01575   0.00237  -0.00000  -0.00000  -0.00337
  43        3PX         0.00000   0.00000   0.00001   0.00057   0.00000
  44        3PY         0.00000   0.00000   0.00057  -0.00001   0.00000
  45        3PZ         0.00002  -0.00110   0.00000   0.00000   0.00096
  46        4S          0.01082  -0.00420   0.00000   0.00000   0.00680
  47        4PX        -0.00000  -0.00000  -0.00004  -0.00215  -0.00000
  48        4PY        -0.00000  -0.00000  -0.00215   0.00004  -0.00000
  49        4PZ         0.00082   0.00331  -0.00000  -0.00000  -0.00384
  50 6   H  1S          0.00087  -0.00001  -0.00006  -0.00010   0.00002
  51        2S         -0.00207   0.00019   0.00062   0.00103  -0.00064
  52 7   H  1S          0.00087  -0.00001  -0.00006   0.00011   0.00002
  53        2S         -0.00207   0.00019   0.00058  -0.00105  -0.00064
  54 8   H  1S          0.00087  -0.00001   0.00012  -0.00000   0.00002
  55        2S         -0.00207   0.00019  -0.00120   0.00002  -0.00064
                           6         7         8         9        10
                           O         O         O         O         O
     Eigenvalues --    -7.48052  -5.36503  -5.36503  -5.36277  -1.65200
   1 1   B  1S          0.00003  -0.00000  -0.00000   0.00058  -0.09630
   2        2S         -0.00337  -0.00000   0.00000   0.00280   0.09225
   3        2PX         0.00000  -0.00045  -0.00050  -0.00000   0.00000
   4        2PY        -0.00000  -0.00050   0.00045   0.00000   0.00000
   5        2PZ        -0.00149   0.00000  -0.00000   0.00003  -0.00457
   6        3S          0.00964   0.00000   0.00000  -0.01082   0.02057
   7        3PX        -0.00000   0.00299   0.00337   0.00000  -0.00000
   8        3PY        -0.00000   0.00337  -0.00299   0.00000  -0.00000
   9        3PZ         0.00694   0.00000   0.00000  -0.00596  -0.00465
  10 2   F  1S          0.00009   0.00005  -0.00005  -0.00007  -0.13820
  11        2S          0.00064   0.00030  -0.00027  -0.00041   0.13063
  12        2PX         0.00000   0.00012   0.00014   0.00000  -0.00000
  13        2PY        -0.00009   0.00001  -0.00001   0.00006  -0.04193
  14        2PZ         0.00015  -0.00018   0.00016   0.00009   0.00145
  15        3S         -0.00249  -0.00146   0.00129   0.00205   0.43608
  16        3PX        -0.00000  -0.00060  -0.00067  -0.00000  -0.00000
  17        3PY         0.00058   0.00001  -0.00001  -0.00052  -0.05897
  18        3PZ        -0.00090   0.00064  -0.00056  -0.00004   0.00284
  19 3   F  1S          0.00009  -0.00006  -0.00002  -0.00007  -0.13820
  20        2S          0.00064  -0.00038  -0.00013  -0.00041   0.13063
  21        2PX         0.00008  -0.00001   0.00009  -0.00005   0.03631
  22        2PY         0.00005   0.00006  -0.00015  -0.00003   0.02097
  23        2PZ         0.00015   0.00023   0.00008   0.00009   0.00145
  24        3S         -0.00249   0.00185   0.00062   0.00205   0.43608
  25        3PX        -0.00050   0.00015  -0.00042   0.00045   0.05107
  26        3PY        -0.00029  -0.00024   0.00074   0.00026   0.02948
  27        3PZ        -0.00090  -0.00081  -0.00027  -0.00004   0.00284
  28 4   F  1S          0.00009   0.00001   0.00007  -0.00007  -0.13820
  29        2S          0.00064   0.00008   0.00039  -0.00041   0.13063
  30        2PX        -0.00008   0.00010  -0.00000   0.00005  -0.03631
  31        2PY         0.00005   0.00016  -0.00004  -0.00003   0.02097
  32        2PZ         0.00015  -0.00005  -0.00024   0.00009   0.00145
  33        3S         -0.00249  -0.00039  -0.00191   0.00205   0.43608
  34        3PX         0.00050  -0.00044   0.00010  -0.00045  -0.05107
  35        3PY        -0.00029  -0.00076   0.00015   0.00026   0.02948
  36        3PZ        -0.00090   0.00017   0.00083  -0.00004   0.00284
  37 5   P  1S         -0.29564  -0.00000   0.00000   0.00379   0.00009
  38        2S          0.99727   0.00000  -0.00000  -0.01331  -0.00090
  39        2PX         0.00000   0.64479   0.72837   0.00000   0.00000
  40        2PY         0.00000   0.72837  -0.64479   0.00000   0.00000
  41        2PZ         0.01151  -0.00000  -0.00000   0.97293  -0.00014
  42        3S          0.13141   0.00000  -0.00000   0.00161  -0.00465
  43        3PX        -0.00000   0.05865   0.06625   0.00000  -0.00000
  44        3PY        -0.00000   0.06625  -0.05865   0.00000  -0.00000
  45        3PZ         0.00253  -0.00000  -0.00000   0.08907   0.00315
  46        4S         -0.08593  -0.00000   0.00000  -0.00930   0.00898
  47        4PX         0.00000  -0.02108  -0.02381  -0.00000   0.00000
  48        4PY         0.00000  -0.02381   0.02108  -0.00000   0.00000
  49        4PZ        -0.01158   0.00000   0.00000  -0.03756  -0.01018
  50 6   H  1S         -0.00466  -0.00582  -0.00195  -0.00327   0.00008
  51        2S          0.01884   0.00934   0.00312   0.00816   0.00038
  52 7   H  1S         -0.00466   0.00123   0.00602  -0.00327   0.00008
  53        2S          0.01884  -0.00197  -0.00965   0.00816   0.00038
  54 8   H  1S         -0.00466   0.00460  -0.00407  -0.00327   0.00008
  55        2S          0.01884  -0.00738   0.00653   0.00816   0.00038
                          11        12        13        14        15
                           O         O         O         O         O
     Eigenvalues --    -1.60593  -1.60593  -0.89536  -0.81039  -0.76427
   1 1   B  1S          0.00000  -0.00000  -0.00502   0.14655   0.00000
   2        2S          0.00000   0.00000   0.00889  -0.24398  -0.00000
   3        2PX         0.08343  -0.05435   0.00000  -0.00000  -0.12151
   4        2PY        -0.05435  -0.08343   0.00000  -0.00000   0.24691
   5        2PZ         0.00000  -0.00000   0.01224   0.01823   0.00000
   6        3S         -0.00000   0.00000   0.00288  -0.07933  -0.00000
   7        3PX        -0.00911   0.00594   0.00000  -0.00000  -0.01573
   8        3PY         0.00594   0.00911   0.00000  -0.00000   0.03197
   9        3PZ        -0.00000  -0.00000   0.00456  -0.00033   0.00000
  10 2   F  1S          0.11115   0.17061   0.00284  -0.04812   0.04073
  11        2S         -0.10694  -0.16416  -0.00291   0.05172  -0.03780
  12        2PX         0.00677  -0.00441   0.00000  -0.00000  -0.10438
  13        2PY         0.02672   0.04101  -0.00599   0.25318  -0.27422
  14        2PZ        -0.00150  -0.00230   0.01106  -0.00279   0.01906
  15        3S         -0.34984  -0.53702  -0.01070   0.18198  -0.18617
  16        3PX         0.00680  -0.00443   0.00000  -0.00000  -0.11390
  17        3PY         0.03265   0.05012  -0.00609   0.27557  -0.27461
  18        3PZ        -0.00161  -0.00247   0.01112  -0.00284   0.01872
  19 3   F  1S          0.09218  -0.18156   0.00284  -0.04812  -0.00301
  20        2S         -0.08870   0.17470  -0.00291   0.05172   0.00279
  21        2PX        -0.01559   0.03962   0.00519  -0.21926  -0.13547
  22        2PY        -0.01732   0.01865   0.00300  -0.12659   0.19415
  23        2PZ        -0.00124   0.00245   0.01106  -0.00279  -0.00141
  24        3S         -0.29015   0.57148  -0.01070   0.18198   0.01374
  25        3PX        -0.01983   0.04803   0.00527  -0.23865  -0.14625
  26        3PY        -0.01981   0.02349   0.00304  -0.13779   0.21278
  27        3PZ        -0.00133   0.00263   0.01112  -0.00284  -0.00138
  28 4   F  1S         -0.20333   0.01095   0.00284  -0.04812  -0.03773
  29        2S          0.19564  -0.01053  -0.00291   0.05172   0.03501
  30        2PX        -0.04254  -0.00176  -0.00519   0.21926   0.28570
  31        2PY         0.02406  -0.00830   0.00300  -0.12659  -0.01311
  32        2PZ         0.00274  -0.00015   0.01106  -0.00279  -0.01765
  33        3S          0.63999  -0.03446  -0.01070   0.18198   0.17243
  34        3PX        -0.05195  -0.00127  -0.00527   0.23865   0.29201
  35        3PY         0.02949  -0.00863   0.00304  -0.13779  -0.00290
  36        3PZ         0.00294  -0.00016   0.01112  -0.00284  -0.01734
  37 5   P  1S         -0.00000   0.00000   0.06294   0.00167   0.00000
  38        2S          0.00000  -0.00000  -0.33964  -0.00903  -0.00000
  39        2PX         0.00026  -0.00017  -0.00000   0.00000   0.00042
  40        2PY        -0.00017  -0.00026   0.00000   0.00000  -0.00085
  41        2PZ        -0.00000   0.00000  -0.05111  -0.00601  -0.00000
  42        3S         -0.00000  -0.00000   0.38159   0.01042   0.00000
  43        3PX        -0.00202   0.00131   0.00000  -0.00000  -0.00085
  44        3PY         0.00131   0.00202  -0.00000  -0.00000   0.00173
  45        3PZ         0.00000   0.00000   0.09880   0.01137   0.00000
  46        4S          0.00000   0.00000   0.46492   0.01164  -0.00000
  47        4PX         0.00821  -0.00535  -0.00000   0.00000  -0.00018
  48        4PY        -0.00535  -0.00821  -0.00000  -0.00000   0.00036
  49        4PZ        -0.00000  -0.00000   0.05067   0.00951   0.00000
  50 6   H  1S          0.00026  -0.00052   0.12714   0.00562   0.00004
  51        2S         -0.00259   0.00509   0.05555   0.00306   0.00009
  52 7   H  1S         -0.00058   0.00003   0.12714   0.00562   0.00053
  53        2S          0.00570  -0.00031   0.05555   0.00306   0.00107
  54 8   H  1S          0.00032   0.00049   0.12714   0.00562  -0.00057
  55        2S         -0.00312  -0.00479   0.05555   0.00306  -0.00115
                          16        17        18        19        20
                           O         O         O         O         O
     Eigenvalues --    -0.76427  -0.72852  -0.65218  -0.65218  -0.64428
   1 1   B  1S          0.00000  -0.00807  -0.00000  -0.00000   0.00000
   2        2S         -0.00000   0.01112   0.00000   0.00000   0.00000
   3        2PX         0.24691  -0.00000  -0.08462   0.04180   0.00995
   4        2PY         0.12151  -0.00000  -0.04180  -0.08462  -0.01787
   5        2PZ         0.00000   0.18379   0.00000   0.00000  -0.00000
   6        3S         -0.00000   0.00751   0.00000  -0.00000  -0.00000
   7        3PX         0.03197   0.00000   0.12464  -0.06156  -0.01759
   8        3PY         0.01573  -0.00000   0.06156   0.12464   0.03159
   9        3PZ         0.00000   0.16092   0.00000   0.00000  -0.00000
  10 2   F  1S          0.02005   0.00075  -0.00368  -0.00745  -0.00152
  11        2S         -0.01860  -0.00159   0.00973   0.01969   0.00493
  12        2PX         0.21210  -0.00000   0.30727  -0.15177  -0.04034
  13        2PY        -0.13495   0.00618   0.10686   0.21635   0.07897
  14        2PZ         0.00938   0.27683  -0.05273  -0.10676   0.36774
  15        3S         -0.09162   0.00047  -0.00758  -0.01535  -0.00628
  16        3PX         0.23145  -0.00000   0.33647  -0.16619  -0.04321
  17        3PY        -0.13514   0.00416   0.12035   0.24366   0.09047
  18        3PZ         0.00921   0.28747  -0.06174  -0.12500   0.42489
  19 3   F  1S         -0.04530   0.00075   0.00829   0.00054   0.00003
  20        2S          0.04203  -0.00159  -0.02192  -0.00142  -0.00009
  21        2PX        -0.25627  -0.00535   0.21963  -0.15745  -0.04024
  22        2PY        -0.16604  -0.00309   0.10117   0.30398   0.07250
  23        2PZ        -0.02120   0.27683   0.11882   0.00771  -0.00651
  24        3S          0.20704   0.00047   0.01709   0.00111   0.00011
  25        3PX        -0.25593  -0.00360   0.24701  -0.17200  -0.04301
  26        3PY        -0.16749  -0.00208   0.11454   0.33312   0.07770
  27        3PZ        -0.02082   0.28747   0.13913   0.00903  -0.00752
  28 4   F  1S          0.02525   0.00075  -0.00461   0.00691   0.00150
  29        2S         -0.02343  -0.00159   0.01219  -0.01827  -0.00484
  30        2PX        -0.04901   0.00535   0.25852  -0.07872  -0.04589
  31        2PY         0.25513  -0.00309   0.17991   0.26509   0.07565
  32        2PZ         0.01182   0.27683  -0.06609   0.09905  -0.36123
  33        3S         -0.11542   0.00047  -0.00951   0.01424   0.00617
  34        3PX        -0.04025   0.00360   0.28671  -0.09162  -0.05417
  35        3PY         0.27077  -0.00208   0.19492   0.29342   0.08391
  36        3PZ         0.01161   0.28747  -0.07738   0.11597  -0.41737
  37 5   P  1S          0.00000  -0.00227   0.00000   0.00000   0.00000
  38        2S         -0.00000   0.01238  -0.00000  -0.00000  -0.00000
  39        2PX        -0.00085   0.00000  -0.00071   0.00035   0.00294
  40        2PY        -0.00042  -0.00000  -0.00035  -0.00071  -0.00527
  41        2PZ        -0.00000   0.01835   0.00000   0.00000  -0.00000
  42        3S          0.00000  -0.01450   0.00000  -0.00000  -0.00000
  43        3PX         0.00173  -0.00000   0.00522  -0.00258  -0.00195
  44        3PY         0.00085  -0.00000   0.00258   0.00522   0.00350
  45        3PZ         0.00000  -0.03331  -0.00000   0.00000   0.00000
  46        4S          0.00000  -0.02033  -0.00000  -0.00000  -0.00000
  47        4PX         0.00036   0.00000  -0.02449   0.01209  -0.02563
  48        4PY         0.00018   0.00000  -0.01209  -0.02449   0.04602
  49        4PZ         0.00000  -0.02349  -0.00000  -0.00000  -0.00000
  50 6   H  1S          0.00064  -0.01341  -0.00118  -0.00008   0.00015
  51        2S          0.00128  -0.00912   0.01590   0.00103  -0.00025
  52 7   H  1S         -0.00036  -0.01341   0.00066  -0.00099   0.00841
  53        2S         -0.00072  -0.00912  -0.00885   0.01326  -0.01406
  54 8   H  1S         -0.00028  -0.01341   0.00053   0.00106  -0.00856
  55        2S         -0.00057  -0.00912  -0.00706  -0.01429   0.01431
                          21        22        23        24        25
                           O         O         O         O         O
     Eigenvalues --    -0.64428  -0.62499  -0.54800  -0.54800  -0.40794
   1 1   B  1S          0.00000   0.00000   0.00000  -0.00000   0.00065
   2        2S         -0.00000   0.00000  -0.00000  -0.00000   0.00464
   3        2PX         0.01787   0.00000  -0.00021   0.00050  -0.00000
   4        2PY         0.00995  -0.00000  -0.00050  -0.00021  -0.00000
   5        2PZ         0.00000   0.00000   0.00000  -0.00000  -0.01417
   6        3S         -0.00000  -0.00000   0.00000   0.00000  -0.01669
   7        3PX        -0.03159  -0.00000  -0.00094   0.00219   0.00000
   8        3PY        -0.01759   0.00000  -0.00219  -0.00094   0.00000
   9        3PZ         0.00000  -0.00000   0.00000   0.00000   0.03037
  10 2   F  1S          0.00085  -0.00000   0.00064   0.00027  -0.00521
  11        2S         -0.00274   0.00000  -0.00085  -0.00036   0.00401
  12        2PX        -0.07244   0.32104  -0.00231   0.00536  -0.00000
  13        2PY        -0.04398   0.00000  -0.00185  -0.00080  -0.01711
  14        2PZ        -0.20480   0.00000  -0.01824  -0.00785   0.05007
  15        3S          0.00350   0.00000  -0.00181  -0.00078   0.02754
  16        3PX        -0.07758   0.35569  -0.00246   0.00572  -0.00000
  17        3PY        -0.05038   0.00000  -0.00226  -0.00097  -0.02404
  18        3PZ        -0.23662   0.00000  -0.02140  -0.00921   0.05659
  19 3   F  1S         -0.00174  -0.00000  -0.00056   0.00041  -0.00521
  20        2S          0.00564   0.00000   0.00074  -0.00055   0.00401
  21        2PX        -0.07891  -0.16052   0.00035   0.00338   0.01482
  22        2PY        -0.04408   0.27803  -0.00383  -0.00345   0.00856
  23        2PZ         0.42087   0.00000   0.01591  -0.01187   0.05007
  24        3S         -0.00718   0.00000   0.00158  -0.00118   0.02754
  25        3PX        -0.09035  -0.17785   0.00015   0.00377   0.02082
  26        3PY        -0.05058   0.30804  -0.00421  -0.00359   0.01202
  27        3PZ         0.48628   0.00000   0.01867  -0.01393   0.05659
  28 4   F  1S          0.00090  -0.00000  -0.00008  -0.00069  -0.00521
  29        2S         -0.00290   0.00000   0.00011   0.00092   0.00401
  30        2PX        -0.07576  -0.16052  -0.00270   0.00207  -0.01482
  31        2PY        -0.03843  -0.27803  -0.00514  -0.00041   0.00856
  32        2PZ        -0.21607   0.00000   0.00232   0.01972   0.05007
  33        3S          0.00369   0.00000   0.00023   0.00195   0.02754
  34        3PX        -0.08414  -0.17785  -0.00284   0.00248  -0.02082
  35        3PY        -0.03942  -0.30804  -0.00550  -0.00059   0.01202
  36        3PZ        -0.24965   0.00000   0.00273   0.02313   0.05659
  37 5   P  1S         -0.00000  -0.00000  -0.00000   0.00000  -0.02746
  38        2S          0.00000   0.00000   0.00000  -0.00000   0.15362
  39        2PX         0.00527   0.00000  -0.07414   0.17232   0.00000
  40        2PY         0.00294  -0.00000  -0.17232  -0.07414  -0.00000
  41        2PZ         0.00000  -0.00000  -0.00000   0.00000  -0.21148
  42        3S         -0.00000   0.00000   0.00000   0.00000  -0.17805
  43        3PX        -0.00350  -0.00000   0.14700  -0.34164  -0.00000
  44        3PY        -0.00195   0.00000   0.34164   0.14700   0.00000
  45        3PZ        -0.00000   0.00000  -0.00000   0.00000   0.41550
  46        4S          0.00000  -0.00000  -0.00000  -0.00000  -0.37649
  47        4PX        -0.04602   0.00000   0.07044  -0.16372  -0.00000
  48        4PY        -0.02563  -0.00000   0.16372   0.07044  -0.00000
  49        4PZ        -0.00000  -0.00000   0.00000  -0.00000   0.48771
  50 6   H  1S         -0.00980  -0.00000   0.20132  -0.15016   0.08179
  51        2S          0.01638   0.00000   0.29037  -0.21659   0.10204
  52 7   H  1S          0.00503  -0.00000   0.02939   0.24943   0.08179
  53        2S         -0.00841   0.00000   0.04238   0.35976   0.10204
  54 8   H  1S          0.00477  -0.00000  -0.23071  -0.09927   0.08179
  55        2S         -0.00797   0.00000  -0.33275  -0.14318   0.10204
                          26        27        28        29        30
                           V         V         V         V         V
     Eigenvalues --     0.16503   0.16503   0.21566   0.24946   0.30955
   1 1   B  1S         -0.00000   0.00000  -0.02623   0.04746  -0.15404
   2        2S          0.00000  -0.00000   0.02641   0.03425  -0.07020
   3        2PX        -0.00084  -0.00168   0.00000  -0.00000   0.00000
   4        2PY        -0.00168   0.00084   0.00000  -0.00000   0.00000
   5        2PZ        -0.00000  -0.00000   0.47751   0.16504   0.15485
   6        3S          0.00000  -0.00000   0.15646  -0.44736   1.46173
   7        3PX         0.04721   0.09468   0.00000  -0.00000   0.00000
   8        3PY         0.09468  -0.04721  -0.00000   0.00000   0.00000
   9        3PZ        -0.00000   0.00000   0.65722   0.46457  -0.07615
  10 2   F  1S          0.00893  -0.00445   0.00480  -0.02463   0.05894
  11        2S         -0.00629   0.00313  -0.00400   0.01734  -0.03834
  12        2PX        -0.00949  -0.01903  -0.00000   0.00000   0.00000
  13        2PY         0.00214  -0.00107   0.00936  -0.05223   0.12295
  14        2PZ        -0.02569   0.01281  -0.16322  -0.06309  -0.01116
  15        3S         -0.06632   0.03307  -0.03080   0.18088  -0.46171
  16        3PX        -0.01483  -0.02973  -0.00000   0.00000   0.00000
  17        3PY         0.00846  -0.00422   0.01383  -0.09695   0.23536
  18        3PZ        -0.02511   0.01252  -0.24380  -0.10929  -0.00971
  19 3   F  1S         -0.00832  -0.00551   0.00480  -0.02463   0.05894
  20        2S          0.00586   0.00388  -0.00400   0.01734  -0.03834
  21        2PX         0.00760  -0.00772  -0.00810   0.04524  -0.10648
  22        2PY        -0.00917   0.01602  -0.00468   0.02612  -0.06148
  23        2PZ         0.02394   0.01584  -0.16322  -0.06309  -0.01116
  24        3S          0.06180   0.04090  -0.03080   0.18088  -0.46171
  25        3PX         0.01599  -0.00934  -0.01197   0.08396  -0.20383
  26        3PY        -0.01194   0.02660  -0.00691   0.04847  -0.11768
  27        3PZ         0.02340   0.01549  -0.24380  -0.10929  -0.00971
  28 4   F  1S         -0.00061   0.00996   0.00480  -0.02463   0.05894
  29        2S          0.00043  -0.00701  -0.00400   0.01734  -0.03834
  30        2PX        -0.01074   0.00142   0.00810  -0.04524   0.10648
  31        2PY        -0.01831  -0.00232  -0.00468   0.02612  -0.06148
  32        2PZ         0.00175  -0.02865  -0.16322  -0.06309  -0.01116
  33        3S          0.00452  -0.07397  -0.03080   0.18088  -0.46171
  34        3PX        -0.01708   0.00715   0.01197  -0.08396   0.20383
  35        3PY        -0.02843  -0.00647  -0.00691   0.04847  -0.11768
  36        3PZ         0.00171  -0.02801  -0.24380  -0.10929  -0.00971
  37 5   P  1S         -0.00000   0.00000  -0.02799   0.03799   0.00546
  38        2S          0.00000  -0.00000   0.15571  -0.21962  -0.05057
  39        2PX        -0.05827  -0.11687  -0.00000   0.00000   0.00000
  40        2PY        -0.11687   0.05827   0.00000  -0.00000   0.00000
  41        2PZ         0.00000  -0.00000   0.00623  -0.08244  -0.10935
  42        3S          0.00000   0.00000  -0.26053   0.30702  -0.10685
  43        3PX         0.10510   0.21079   0.00000  -0.00000  -0.00000
  44        3PY         0.21079  -0.10510  -0.00000   0.00000  -0.00000
  45        3PZ        -0.00000   0.00000  -0.03796   0.16442   0.27167
  46        4S         -0.00000   0.00000  -0.64815   1.43254   0.97332
  47        4PX         0.56828   1.13975   0.00000  -0.00000  -0.00000
  48        4PY         1.13975  -0.56828  -0.00000   0.00000   0.00000
  49        4PZ        -0.00000   0.00000  -0.12364   1.07143   0.62156
  50 6   H  1S         -0.11456  -0.07583   0.02400  -0.04148  -0.01288
  51        2S         -0.96402  -0.63805   0.38554  -1.00822  -0.58311
  52 7   H  1S         -0.00838   0.13713   0.02400  -0.04148  -0.01288
  53        2S         -0.07055   1.15389   0.38554  -1.00822  -0.58311
  54 8   H  1S          0.12295  -0.06130   0.02400  -0.04148  -0.01288
  55        2S          1.03458  -0.51584   0.38554  -1.00822  -0.58311
                          31        32        33        34        35
                           V         V         V         V         V
     Eigenvalues --     0.44028   0.44028   0.58952   0.60436   0.60436
   1 1   B  1S         -0.00000   0.00000  -0.03208   0.00000   0.00000
   2        2S          0.00000   0.00000  -0.01893  -0.00000  -0.00000
   3        2PX        -0.06829   0.08611   0.00000   0.06252  -0.14427
   4        2PY         0.08611   0.06829  -0.00000  -0.14427  -0.06252
   5        2PZ        -0.00000  -0.00000  -0.79043   0.00000   0.00000
   6        3S          0.00000  -0.00000   0.37823  -0.00000  -0.00000
   7        3PX        -0.85237   1.07486  -0.00000   0.17781  -0.41032
   8        3PY         1.07486   0.85237  -0.00000  -0.41032  -0.17781
   9        3PZ        -0.00000   0.00000   0.95395  -0.00000  -0.00000
  10 2   F  1S          0.05937   0.04708   0.00886  -0.02441  -0.01058
  11        2S         -0.02473  -0.01961  -0.00568   0.01180   0.00512
  12        2PX         0.10592  -0.13357   0.00000  -0.02537   0.05855
  13        2PY         0.03977   0.03154   0.02531  -0.03648  -0.01581
  14        2PZ        -0.00898  -0.00712   0.00235  -0.02291  -0.00993
  15        3S         -0.57935  -0.45942  -0.07772   0.23891   0.10353
  16        3PX         0.17417  -0.21963  -0.00000  -0.03543   0.08177
  17        3PY         0.11840   0.09389   0.04886  -0.08464  -0.03668
  18        3PZ        -0.01698  -0.01347  -0.05849  -0.00304  -0.00132
  19 3   F  1S          0.01109  -0.07495   0.00886   0.00304   0.02643
  20        2S         -0.00462   0.03122  -0.00568  -0.00147  -0.01278
  21        2PX         0.07789   0.05595  -0.02191  -0.03564  -0.03056
  22        2PY        -0.14976   0.00350  -0.01265   0.05262  -0.02607
  23        2PZ        -0.00168   0.01134   0.00235   0.00286   0.02480
  24        3S         -0.10820   0.73144  -0.07772  -0.02979  -0.25867
  25        3PX         0.11950   0.14997  -0.04231  -0.05341  -0.07426
  26        3PY        -0.25120   0.03922  -0.02443   0.07139  -0.05465
  27        3PZ        -0.00317   0.02144  -0.05849   0.00038   0.00329
  28 4   F  1S         -0.07046   0.02787   0.00886   0.02137  -0.01585
  29        2S          0.02935  -0.01161  -0.00568  -0.01033   0.00767
  30        2PX        -0.07223  -0.06309   0.02191   0.04666   0.00511
  31        2PY        -0.03072  -0.14662  -0.01265   0.01696   0.05623
  32        2PZ         0.01066  -0.00422   0.00235   0.02005  -0.01487
  33        3S          0.68755  -0.27202  -0.07772  -0.20912   0.15514
  34        3PX        -0.17325  -0.08218   0.04231   0.09071  -0.01181
  35        3PY        -0.01905  -0.25353  -0.02443   0.00894   0.08946
  36        3PZ         0.02015  -0.00797  -0.05849   0.00266  -0.00197
  37 5   P  1S         -0.00000   0.00000  -0.02978   0.00000  -0.00000
  38        2S          0.00000  -0.00000   0.07466  -0.00000   0.00000
  39        2PX        -0.06894   0.08694  -0.00000  -0.12779   0.29488
  40        2PY         0.08694   0.06894   0.00000   0.29488   0.12779
  41        2PZ         0.00000   0.00000   0.11208  -0.00000  -0.00000
  42        3S         -0.00000   0.00000  -1.11064   0.00000  -0.00000
  43        3PX         0.21368  -0.26946   0.00000   0.48337  -1.11541
  44        3PY        -0.26946  -0.21368  -0.00000  -1.11541  -0.48337
  45        3PZ        -0.00000  -0.00000  -0.52451   0.00000   0.00000
  46        4S          0.00000  -0.00000   2.07184  -0.00000  -0.00000
  47        4PX         0.04410  -0.05561  -0.00000  -0.50588   1.16735
  48        4PY        -0.05561  -0.04410   0.00000   1.16735   0.50588
  49        4PZ        -0.00000   0.00000   1.51915  -0.00000  -0.00000
  50 6   H  1S          0.00097  -0.00655  -0.11461  -0.01955  -0.16972
  51        2S         -0.03866   0.26137  -0.69418  -0.00360  -0.03125
  52 7   H  1S         -0.00616   0.00244  -0.11461  -0.13721   0.10179
  53        2S          0.24569  -0.09720  -0.69418  -0.02526   0.01874
  54 8   H  1S          0.00519   0.00412  -0.11461   0.15676   0.06793
  55        2S         -0.20702  -0.16417  -0.69418   0.02886   0.01251
                          36        37        38        39        40
                           V         V         V         V         V
     Eigenvalues --     0.66977   0.75846   0.80271   0.80271   1.01161
   1 1   B  1S         -0.01723   0.10415   0.00000   0.00000  -0.04864
   2        2S         -0.06358  -0.58694  -0.00000   0.00000   1.65253
   3        2PX        -0.00000  -0.00000   1.33938  -0.23939  -0.00000
   4        2PY        -0.00000  -0.00000   0.23939   1.33938  -0.00000
   5        2PZ         0.61590   0.39754   0.00000   0.00000   0.22031
   6        3S          0.27054  -0.20405  -0.00000  -0.00000  -1.64373
   7        3PX        -0.00000   0.00000  -0.70962   0.12683   0.00000
   8        3PY         0.00000   0.00000  -0.12683  -0.70962   0.00000
   9        3PZ        -0.46605  -0.75080  -0.00000  -0.00000  -0.58721
  10 2   F  1S          0.00128  -0.02400   0.00560   0.03133  -0.00060
  11        2S          0.00598   0.02757  -0.00811  -0.04535  -0.00759
  12        2PX         0.00000   0.00000  -0.06016   0.01075   0.00000
  13        2PY        -0.00564  -0.11464   0.04471   0.25017   0.15871
  14        2PZ         0.02389   0.01177  -0.00426  -0.02383   0.01483
  15        3S         -0.04646   0.13138  -0.01564  -0.08751   0.16899
  16        3PX        -0.00000  -0.00000  -0.01021   0.00183  -0.00000
  17        3PY         0.00336  -0.15373   0.07567   0.42339   0.12656
  18        3PZ         0.03253   0.07225  -0.00426  -0.02385   0.04004
  19 3   F  1S          0.00128  -0.02400  -0.02993  -0.01082  -0.00060
  20        2S          0.00598   0.02757   0.04333   0.01566  -0.00759
  21        2PX         0.00488   0.09928   0.19660   0.10353  -0.13744
  22        2PY         0.00282   0.05732   0.13749  -0.00660  -0.07935
  23        2PZ         0.02389   0.01177   0.02277   0.00823   0.01483
  24        3S         -0.04646   0.13138   0.08360   0.03021   0.16899
  25        3PX        -0.00291   0.13313   0.34855   0.13146  -0.10960
  26        3PY        -0.00168   0.07687   0.20531   0.06463  -0.06328
  27        3PZ         0.03253   0.07225   0.02279   0.00823   0.04004
  28 4   F  1S          0.00128  -0.02400   0.02433  -0.02052  -0.00060
  29        2S          0.00598   0.02757  -0.03522   0.02969  -0.00759
  30        2PX        -0.00488  -0.09928   0.14857  -0.16522   0.13744
  31        2PY         0.00282   0.05732  -0.13126   0.04144  -0.07935
  32        2PZ         0.02389   0.01177  -0.01851   0.01561   0.01483
  33        3S         -0.04646   0.13138  -0.06796   0.05730   0.16899
  34        3PX         0.00291  -0.13313   0.28143  -0.24406   0.10960
  35        3PY        -0.00168   0.07687  -0.17021   0.13175  -0.06328
  36        3PZ         0.03253   0.07225  -0.01853   0.01562   0.04004
  37 5   P  1S          0.00204  -0.04168  -0.00000  -0.00000  -0.01632
  38        2S         -0.04605   0.09747   0.00000   0.00000   0.02221
  39        2PX         0.00000  -0.00000   0.02993  -0.00535  -0.00000
  40        2PY        -0.00000  -0.00000   0.00535   0.02993   0.00000
  41        2PZ         0.27821  -0.13701  -0.00000  -0.00000  -0.07759
  42        3S         -0.28408  -1.65515  -0.00000  -0.00000  -0.81423
  43        3PX        -0.00000   0.00000  -0.13605   0.02432   0.00000
  44        3PY         0.00000   0.00000  -0.02432  -0.13605   0.00000
  45        3PZ        -1.06736   0.51098   0.00000   0.00000   0.33983
  46        4S          0.99709   2.79201   0.00000   0.00000   1.30726
  47        4PX         0.00000  -0.00000   0.26011  -0.04649  -0.00000
  48        4PY        -0.00000  -0.00000   0.04649   0.26011  -0.00000
  49        4PZ         1.32259  -0.11083  -0.00000  -0.00000  -0.49597
  50 6   H  1S         -0.11343  -0.09869  -0.04270  -0.01543  -0.11946
  51        2S         -0.33799  -0.58361  -0.05463  -0.01974  -0.10746
  52 7   H  1S         -0.11343  -0.09869   0.03471  -0.02927  -0.11946
  53        2S         -0.33799  -0.58361   0.04441  -0.03744  -0.10746
  54 8   H  1S         -0.11343  -0.09869   0.00799   0.04470  -0.11946
  55        2S         -0.33799  -0.58361   0.01022   0.05719  -0.10746
                          41        42        43        44        45
                           V         V         V         V         V
     Eigenvalues --     1.19506   1.25576   1.25576   2.20307   2.20307
   1 1   B  1S         -0.00186  -0.00000  -0.00000  -0.00000   0.00000
   2        2S          0.17923   0.00000   0.00000  -0.00000   0.00000
   3        2PX         0.00000  -0.00615  -0.04469  -0.00523   0.00602
   4        2PY        -0.00000   0.04469  -0.00615   0.00602   0.00523
   5        2PZ         0.06502   0.00000   0.00000  -0.00000  -0.00000
   6        3S         -0.17777  -0.00000  -0.00000  -0.00000  -0.00000
   7        3PX        -0.00000   0.01894   0.13754  -0.03383   0.03899
   8        3PY         0.00000  -0.13754   0.01894   0.03899   0.03383
   9        3PZ        -0.10747  -0.00000  -0.00000  -0.00000  -0.00000
  10 2   F  1S         -0.00200  -0.00237   0.00033   0.00267   0.00232
  11        2S          0.00450  -0.00004   0.00001  -0.01099  -0.00953
  12        2PX         0.00000  -0.00221  -0.01605  -0.05310   0.06119
  13        2PY         0.01359   0.00734  -0.00101  -0.04786  -0.04153
  14        2PZ         0.01110  -0.03507   0.00483  -0.61942  -0.53751
  15        3S          0.02397   0.04159  -0.00573  -0.01035  -0.00899
  16        3PX        -0.00000  -0.00090  -0.00657   0.05607  -0.06462
  17        3PY         0.00876   0.00434  -0.00060   0.05043   0.04376
  18        3PZ         0.00858   0.01078  -0.00148   0.59610   0.51726
  19 3   F  1S         -0.00200   0.00090  -0.00222   0.00067  -0.00347
  20        2S          0.00450   0.00002  -0.00004  -0.00276   0.01428
  21        2PX        -0.01177  -0.00508  -0.00900  -0.02935  -0.06157
  22        2PY        -0.00680   0.01439   0.00186   0.07491  -0.01778
  23        2PZ         0.01110   0.01335  -0.03279  -0.15578   0.80519
  24        3S          0.02397  -0.01584   0.03889  -0.00260   0.01346
  25        3PX        -0.00759  -0.00164  -0.00476   0.03101   0.06490
  26        3PY        -0.00438   0.00614   0.00014  -0.07908   0.01870
  27        3PZ         0.00858  -0.00410   0.01008   0.14992  -0.77487
  28 4   F  1S         -0.00200   0.00147   0.00189  -0.00334   0.00115
  29        2S          0.00450   0.00003   0.00004   0.01375  -0.00475
  30        2PX         0.01177   0.00246  -0.01004   0.06509   0.02038
  31        2PY        -0.00680   0.01336  -0.00568  -0.00705   0.07666
  32        2PZ         0.01110   0.02172   0.02796   0.77521  -0.26768
  33        3S          0.02397  -0.02576  -0.03316   0.01296  -0.00447
  34        3PX         0.00759   0.00029  -0.00503  -0.06862  -0.02156
  35        3PY        -0.00438   0.00588  -0.00179   0.00737  -0.08093
  36        3PZ         0.00858  -0.00668  -0.00859  -0.74601   0.25760
  37 5   P  1S         -0.03060  -0.00000  -0.00000   0.00000   0.00000
  38        2S          0.09997   0.00000   0.00000  -0.00000  -0.00000
  39        2PX         0.00000  -0.02007  -0.14569   0.01196  -0.01378
  40        2PY        -0.00000   0.14569  -0.02007  -0.01378  -0.01196
  41        2PZ         0.11166   0.00000   0.00000   0.00000   0.00000
  42        3S         -0.90983  -0.00000  -0.00000  -0.00000  -0.00000
  43        3PX        -0.00000   0.05972   0.43359  -0.05075   0.05848
  44        3PY         0.00000  -0.43359   0.05972   0.05848   0.05075
  45        3PZ        -0.33164  -0.00000  -0.00000  -0.00000  -0.00000
  46        4S          2.41452   0.00000   0.00000  -0.00000   0.00000
  47        4PX         0.00000  -0.11495  -0.83460   0.11542  -0.13301
  48        4PY        -0.00000   0.83460  -0.11495  -0.13301  -0.11542
  49        4PZ         0.87818   0.00000   0.00000  -0.00000  -0.00000
  50 6   H  1S          0.72684   0.40956  -1.00571   0.00879  -0.04544
  51        2S         -1.30314  -0.54227   1.33159  -0.02502   0.12932
  52 7   H  1S          0.72684   0.66619   0.85755  -0.04375   0.01511
  53        2S         -1.30314  -0.88206  -1.13542   0.12451  -0.04299
  54 8   H  1S          0.72684  -1.07575   0.14817   0.03495   0.03033
  55        2S         -1.30314   1.42433  -0.19618  -0.09949  -0.08633
                          46        47        48        49        50
                           V         V         V         V         V
     Eigenvalues --     2.30690   2.30690   2.31382   2.40098   2.47672
   1 1   B  1S         -0.00000  -0.00000  -0.00000   0.04707  -0.00000
   2        2S         -0.00000  -0.00000  -0.00000   0.81975  -0.00000
   3        2PX        -0.30238  -0.00223   0.00000   0.00000   0.46319
   4        2PY         0.00223  -0.30238  -0.00000   0.00000  -0.10696
   5        2PZ         0.00000   0.00000   0.00000  -0.03736   0.00000
   6        3S          0.00000  -0.00000   0.00000  -0.07395   0.00000
   7        3PX        -0.33406  -0.00246   0.00000  -0.00000  -0.31193
   8        3PY         0.00246  -0.33406  -0.00000  -0.00000   0.07203
   9        3PZ        -0.00000  -0.00000   0.00000  -0.00319  -0.00000
  10 2   F  1S          0.00034  -0.04558  -0.00000   0.02947  -0.00279
  11        2S         -0.00157   0.21309   0.00000  -0.12546   0.01259
  12        2PX        -0.75167  -0.00554  -0.58458  -0.00000  -0.28585
  13        2PY        -0.00188   0.25552   0.00000  -0.56567   0.17478
  14        2PZ         0.00073  -0.09839   0.00000   0.02990  -0.00699
  15        3S         -0.00063   0.08527  -0.00000  -0.01820  -0.00693
  16        3PX         0.82427   0.00608   0.58767   0.00000   0.30773
  17        3PY         0.00277  -0.37621  -0.00000   0.73329  -0.21513
  18        3PZ        -0.00079   0.10751  -0.00000  -0.03529   0.00902
  19 3   F  1S          0.03931   0.02308  -0.00000   0.02947  -0.00906
  20        2S         -0.18375  -0.10790   0.00000  -0.12546   0.04091
  21        2PX         0.00051   0.43616   0.29229   0.48989  -0.59204
  22        2PY         0.43981  -0.49666  -0.50626   0.28284  -0.11077
  23        2PZ         0.08484   0.04982   0.00000   0.02990  -0.02273
  24        3S         -0.07353  -0.04318  -0.00000  -0.01820  -0.02253
  25        3PX        -0.07226  -0.52038  -0.29383  -0.63505   0.71327
  26        3PY        -0.52369   0.52032   0.50894  -0.36664   0.16307
  27        3PZ        -0.09271  -0.05444  -0.00000  -0.03529   0.02933
  28 4   F  1S         -0.03964   0.02250  -0.00000   0.02947   0.01185
  29        2S          0.18533  -0.10518   0.00000  -0.12546  -0.05350
  30        2PX         0.00694  -0.43610   0.29229  -0.48989  -0.68624
  31        2PY        -0.43244  -0.50309   0.50626   0.28284   0.29717
  32        2PZ        -0.08557   0.04856   0.00000   0.02990   0.02972
  33        3S          0.07416  -0.04209  -0.00000  -0.01820   0.02947
  34        3PX        -0.07992   0.51926  -0.29383   0.63505   0.83804
  35        3PY         0.51596   0.52798  -0.50894  -0.36664  -0.37723
  36        3PZ         0.09350  -0.05307  -0.00000  -0.03529  -0.03836
  37 5   P  1S          0.00000  -0.00000  -0.00000  -0.00021   0.00000
  38        2S         -0.00000   0.00000   0.00000   0.00017  -0.00000
  39        2PX         0.00544   0.00004  -0.00000   0.00000   0.00627
  40        2PY        -0.00004   0.00544   0.00000   0.00000  -0.00145
  41        2PZ         0.00000   0.00000   0.00000  -0.00096   0.00000
  42        3S         -0.00000  -0.00000  -0.00000  -0.01193  -0.00000
  43        3PX        -0.02745  -0.00020   0.00000  -0.00000  -0.03120
  44        3PY         0.00020  -0.02745  -0.00000  -0.00000   0.00721
  45        3PZ        -0.00000  -0.00000  -0.00000   0.00550  -0.00000
  46        4S         -0.00000   0.00000   0.00000   0.02022   0.00000
  47        4PX         0.08650   0.00064  -0.00000   0.00000   0.09432
  48        4PY        -0.00064   0.08650   0.00000   0.00000  -0.02178
  49        4PZ        -0.00000  -0.00000   0.00000  -0.01263  -0.00000
  50 6   H  1S          0.00991   0.00582   0.00000  -0.00001   0.00960
  51        2S         -0.04671  -0.02743  -0.00000  -0.00171  -0.04450
  52 7   H  1S         -0.01000   0.00568   0.00000  -0.00001  -0.01256
  53        2S          0.04711  -0.02674  -0.00000  -0.00171   0.05819
  54 8   H  1S          0.00008  -0.01150   0.00000  -0.00001   0.00295
  55        2S         -0.00040   0.05417  -0.00000  -0.00171  -0.01369
                          51        52        53        54        55
                           V         V         V         V         V
     Eigenvalues --     2.47672   2.48416   4.03895   4.03895   4.14898
   1 1   B  1S         -0.00000   0.00370   0.00000  -0.00000   0.03332
   2        2S         -0.00000   0.09647  -0.00000   0.00000  -0.31433
   3        2PX         0.10696  -0.00000  -0.23162   0.36387   0.00000
   4        2PY         0.46319  -0.00000   0.36387   0.23162  -0.00000
   5        2PZ        -0.00000  -0.05721   0.00000  -0.00000   0.08815
   6        3S          0.00000  -0.13574  -0.00000   0.00000  -0.94461
   7        3PX        -0.07203   0.00000  -0.35357   0.55546   0.00000
   8        3PY        -0.31193   0.00000   0.55546   0.35357  -0.00000
   9        3PZ        -0.00000  -0.55658  -0.00000   0.00000  -0.12745
  10 2   F  1S          0.01207  -0.00045  -0.06534  -0.04159   0.05206
  11        2S         -0.05450   0.00508   1.09439   0.69662  -0.93812
  12        2PX        -0.06601  -0.00000  -0.09092   0.14283  -0.00000
  13        2PY        -0.75690  -0.02765  -0.10955  -0.06973   0.13714
  14        2PZ         0.03028  -0.58858   0.01068   0.00680  -0.01173
  15        3S          0.03002   0.00159  -1.33633  -0.85062   1.14817
  16        3PX         0.07106   0.00000   0.19156  -0.30094   0.00000
  17        3PY         0.93163   0.04098   0.30779   0.19592  -0.36155
  18        3PZ        -0.03908   0.70070  -0.02723  -0.01734   0.03037
  19 3   F  1S         -0.00845  -0.00045  -0.00335   0.07738   0.05206
  20        2S          0.03815   0.00508   0.05610  -1.29608  -0.93812
  21        2PX        -0.35156   0.02394  -0.07972  -0.11602  -0.11877
  22        2PY        -0.45071   0.01382   0.14930  -0.05853  -0.06857
  23        2PZ        -0.02120  -0.58858   0.00055  -0.01265  -0.01173
  24        3S         -0.02102   0.00159  -0.06850   1.58260   1.14817
  25        3PX         0.44927  -0.03549   0.16454   0.32339   0.31311
  26        3PY         0.52609  -0.02049  -0.31654   0.16890   0.18077
  27        3PZ         0.02736   0.70070  -0.00140   0.03225   0.03037
  28 4   F  1S         -0.00362  -0.00045   0.06868  -0.03579   0.05206
  29        2S          0.01635   0.00508  -1.15049   0.59946  -0.93812
  30        2PX         0.05638  -0.02394   0.13886   0.02311   0.11877
  31        2PY        -0.35652   0.01382   0.01017   0.16004  -0.06857
  32        2PZ        -0.00909  -0.58858  -0.01123   0.00585  -0.01173
  33        3S         -0.00901   0.00159   1.40482  -0.73198   1.14817
  34        3PX        -0.09104   0.03549  -0.36263  -0.01217  -0.31311
  35        3PY         0.40132  -0.02049   0.01903  -0.35827   0.18077
  36        3PZ         0.01172   0.70070   0.02863  -0.01492   0.03037
  37 5   P  1S         -0.00000  -0.00105  -0.00000   0.00000  -0.00249
  38        2S         -0.00000  -0.00816  -0.00000   0.00000  -0.00072
  39        2PX         0.00145  -0.00000   0.00383  -0.00602  -0.00000
  40        2PY         0.00627  -0.00000  -0.00602  -0.00383   0.00000
  41        2PZ         0.00000   0.00986  -0.00000   0.00000  -0.00932
  42        3S         -0.00000  -0.13851  -0.00000   0.00000  -0.16888
  43        3PX        -0.00721   0.00000  -0.02186   0.03434   0.00000
  44        3PY        -0.03120   0.00000   0.03434   0.02186  -0.00000
  45        3PZ        -0.00000  -0.01950   0.00000  -0.00000   0.06721
  46        4S          0.00000   0.34595   0.00000  -0.00000   0.30322
  47        4PX         0.02178  -0.00000   0.07682  -0.12068  -0.00000
  48        4PY         0.09432  -0.00000  -0.12068  -0.07682   0.00000
  49        4PZ        -0.00000  -0.07223  -0.00000   0.00000  -0.19020
  50 6   H  1S          0.00895   0.00603   0.00046  -0.01072   0.00231
  51        2S         -0.04150  -0.06330  -0.00353   0.08165  -0.02674
  52 7   H  1S          0.00384   0.00603  -0.00951   0.00496   0.00231
  53        2S         -0.01779  -0.06330   0.07248  -0.03776  -0.02674
  54 8   H  1S         -0.01279   0.00603   0.00905   0.00576   0.00231
  55        2S          0.05929  -0.06330  -0.06894  -0.04389  -0.02674
     Density Matrix:
                           1         2         3         4         5
   1 1   B  1S          2.01298
   2        2S          0.09680   0.15437
   3        2PX         0.00000  -0.00000   0.19000
   4        2PY         0.00000  -0.00000   0.00000   0.19000
   5        2PZ         0.00350  -0.00553   0.00000   0.00000   0.06897
   6        3S         -0.08103   0.03742   0.00000   0.00000   0.00014
   7        3PX        -0.00000   0.00000  -0.01017  -0.00000  -0.00000
   8        3PY        -0.00000   0.00000   0.00000  -0.01017  -0.00000
   9        3PZ        -0.00954   0.00244   0.00000   0.00000   0.05840
  10 2   F  1S          0.01182   0.00135   0.00000  -0.00579  -0.00135
  11        2S         -0.00695  -0.00057   0.00000   0.01226  -0.00022
  12        2PX         0.00000   0.00000   0.06365  -0.00000   0.00000
  13        2PY         0.08012  -0.13162  -0.00000  -0.22722   0.01223
  14        2PZ        -0.00585   0.00843  -0.00000   0.01752   0.10049
  15        3S         -0.03752  -0.00904  -0.00000   0.01667   0.00184
  16        3PX         0.00000   0.00000   0.06909  -0.00000   0.00000
  17        3PY         0.10842  -0.14400   0.00000  -0.23585   0.01264
  18        3PZ        -0.00536   0.00910  -0.00000   0.01851   0.10421
  19 3   F  1S          0.01182   0.00135   0.00501   0.00290  -0.00135
  20        2S         -0.00695  -0.00057  -0.01062  -0.00613  -0.00022
  21        2PX        -0.06938   0.11398  -0.15451  -0.12595  -0.01059
  22        2PY        -0.04006   0.06581  -0.12595  -0.00907  -0.00611
  23        2PZ        -0.00585   0.00843  -0.01517  -0.00876   0.10049
  24        3S         -0.03752  -0.00904  -0.01444  -0.00834   0.00184
  25        3PX        -0.09390   0.12471  -0.15961  -0.13204  -0.01095
  26        3PY        -0.05421   0.07200  -0.13204  -0.00714  -0.00632
  27        3PZ        -0.00536   0.00910  -0.01603  -0.00926   0.10421
  28 4   F  1S          0.01182   0.00135  -0.00501   0.00290  -0.00135
  29        2S         -0.00695  -0.00057   0.01062  -0.00613  -0.00022
  30        2PX         0.06938  -0.11398  -0.15451   0.12595   0.01059
  31        2PY        -0.04006   0.06581   0.12595  -0.00907  -0.00611
  32        2PZ        -0.00585   0.00843   0.01517  -0.00876   0.10049
  33        3S         -0.03752  -0.00904   0.01444  -0.00834   0.00184
  34        3PX         0.09390  -0.12471  -0.15961   0.13204   0.01095
  35        3PY        -0.05421   0.07200   0.13204  -0.00714  -0.00632
  36        3PZ        -0.00536   0.00910   0.01603  -0.00926   0.10421
  37 5   P  1S          0.00027   0.00301  -0.00000   0.00000   0.00275
  38        2S         -0.00042  -0.00699  -0.00000  -0.00000  -0.01139
  39        2PX        -0.00000  -0.00000  -0.00117  -0.00000  -0.00000
  40        2PY         0.00000   0.00000   0.00000  -0.00117   0.00000
  41        2PZ        -0.00084   0.00580   0.00000   0.00000   0.01130
  42        3S         -0.00653  -0.00264   0.00000   0.00000   0.00908
  43        3PX         0.00000   0.00000  -0.00120   0.00000   0.00000
  44        3PY        -0.00000  -0.00000  -0.00000  -0.00120  -0.00000
  45        3PZ         0.00481   0.00056  -0.00000  -0.00000  -0.02121
  46        4S          0.01026   0.00209   0.00000  -0.00000   0.01520
  47        4PX         0.00000  -0.00000   0.00500   0.00000   0.00000
  48        4PY         0.00000  -0.00000  -0.00000   0.00500  -0.00000
  49        4PZ        -0.00237  -0.00245  -0.00000   0.00000  -0.02076
  50 6   H  1S          0.00073   0.00001   0.00002   0.00001  -0.00392
  51        2S         -0.00072   0.00011  -0.00274  -0.00158  -0.00483
  52 7   H  1S          0.00073   0.00001  -0.00002   0.00001  -0.00392
  53        2S         -0.00072   0.00011   0.00274  -0.00158  -0.00483
  54 8   H  1S          0.00073   0.00001   0.00000  -0.00003  -0.00392
  55        2S         -0.00072   0.00011  -0.00000   0.00316  -0.00483
                           6         7         8         9        10
   6        3S          0.01656
   7        3PX         0.00000   0.04431
   8        3PY        -0.00000  -0.00000   0.04431
   9        3PZ         0.00183   0.00000  -0.00000   0.05392
  10 2   F  1S          0.02079  -0.00000   0.02211   0.00332   2.05912
  11        2S         -0.00121   0.00000   0.00093  -0.00134   0.06636
  12        2PX        -0.00000   0.11799   0.00000  -0.00000  -0.00000
  13        2PY        -0.04127   0.00000   0.05287   0.00112  -0.03010
  14        2PZ         0.00307   0.00000  -0.00112   0.09223   0.00146
  15        3S         -0.01253   0.00000  -0.03464  -0.00256  -0.49065
  16        3PX        -0.00000   0.12891   0.00000  -0.00000   0.00000
  17        3PY        -0.04560   0.00000   0.06264   0.00015  -0.00589
  18        3PZ         0.00301   0.00000  -0.00206   0.09601  -0.00031
  19 3   F  1S          0.02079  -0.01915  -0.01105   0.00332  -0.00056
  20        2S         -0.00121  -0.00081  -0.00046  -0.00134   0.00148
  21        2PX         0.03574   0.06915  -0.02820  -0.00097   0.00009
  22        2PY         0.02064  -0.02820   0.10171  -0.00056   0.01374
  23        2PZ         0.00307   0.00097   0.00056   0.09223  -0.00080
  24        3S         -0.01253   0.03000   0.01732  -0.00256   0.00016
  25        3PX         0.03949   0.07920  -0.02870  -0.00013   0.00033
  26        3PY         0.02280  -0.02870   0.11234  -0.00008   0.00792
  27        3PZ         0.00301   0.00179   0.00103   0.09601  -0.00137
  28 4   F  1S          0.02079   0.01915  -0.01105   0.00332  -0.00056
  29        2S         -0.00121   0.00081  -0.00046  -0.00134   0.00148
  30        2PX        -0.03574   0.06915   0.02820   0.00097  -0.00009
  31        2PY         0.02064   0.02820   0.10171  -0.00056   0.01374
  32        2PZ         0.00307  -0.00097   0.00056   0.09223  -0.00080
  33        3S         -0.01253  -0.03000   0.01732  -0.00256   0.00016
  34        3PX        -0.03949   0.07920   0.02870   0.00013  -0.00033
  35        3PY         0.02280   0.02870   0.11234  -0.00008   0.00792
  36        3PZ         0.00301  -0.00179   0.00103   0.09601  -0.00137
  37 5   P  1S         -0.00768   0.00000  -0.00000  -0.00781   0.00041
  38        2S          0.01391  -0.00000  -0.00000   0.02415  -0.00215
  39        2PX         0.00000   0.00893   0.00000   0.00000  -0.00000
  40        2PY        -0.00000  -0.00000   0.00893  -0.00000  -0.00045
  41        2PZ        -0.01283   0.00000  -0.00000  -0.01884   0.00258
  42        3S          0.00888   0.00000  -0.00000  -0.01009   0.00700
  43        3PX        -0.00000   0.00113  -0.00000  -0.00000   0.00000
  44        3PY         0.00000   0.00000   0.00113   0.00000   0.00249
  45        3PZ        -0.01744  -0.00000   0.00000   0.01435  -0.00703
  46        4S          0.01147  -0.00000  -0.00000  -0.02643  -0.00185
  47        4PX        -0.00000  -0.00515   0.00000  -0.00000   0.00000
  48        4PY         0.00000  -0.00000  -0.00515   0.00000  -0.00688
  49        4PZ        -0.01736   0.00000  -0.00000   0.02295   0.00083
  50 6   H  1S         -0.00311  -0.00073  -0.00042   0.00178  -0.00075
  51        2S         -0.00346   0.00160   0.00092   0.00394   0.00139
  52 7   H  1S         -0.00311   0.00073  -0.00042   0.00178  -0.00075
  53        2S         -0.00346  -0.00160   0.00092   0.00394   0.00139
  54 8   H  1S         -0.00311  -0.00000   0.00084   0.00178  -0.00069
  55        2S         -0.00346   0.00000  -0.00185   0.00394  -0.00561
                          11        12        13        14        15
  11        2S          0.13990
  12        2PX         0.00000   0.56674
  13        2PY         0.03277   0.00000   0.45687
  14        2PZ        -0.00158   0.00000   0.00549   0.54296
  15        3S          0.39359  -0.00000   0.10951  -0.00417   1.35946
  16        3PX         0.00000   0.62249  -0.00000  -0.00000  -0.00000
  17        3PY         0.02964   0.00000   0.48819   0.00727   0.08668
  18        3PZ        -0.00137   0.00000   0.00749   0.60954  -0.00237
  19 3   F  1S          0.00148  -0.01186  -0.00695  -0.00080   0.00016
  20        2S         -0.00102   0.00052   0.00597   0.00013  -0.00103
  21        2PX        -0.00491   0.01341   0.01056   0.00297   0.01977
  22        2PY        -0.00343   0.03758   0.04121   0.00023  -0.08929
  23        2PZ         0.00013   0.00129  -0.00269  -0.03366   0.00662
  24        3S         -0.00103   0.08721   0.02752   0.00662  -0.00574
  25        3PX        -0.00396   0.02769   0.00575   0.00714   0.02381
  26        3PY        -0.00392   0.05217   0.04205   0.00076  -0.09678
  27        3PZ         0.00051   0.00409  -0.00404  -0.05713   0.00811
  28 4   F  1S          0.00148   0.01186  -0.00695  -0.00080   0.00016
  29        2S         -0.00102  -0.00052   0.00597   0.00013  -0.00103
  30        2PX         0.00491   0.01341  -0.01056  -0.00297  -0.01977
  31        2PY        -0.00343  -0.03758   0.04121   0.00023  -0.08929
  32        2PZ         0.00013  -0.00129  -0.00269  -0.03366   0.00662
  33        3S         -0.00103  -0.08721   0.02752   0.00662  -0.00574
  34        3PX         0.00396   0.02769  -0.00575  -0.00714  -0.02381
  35        3PY        -0.00392  -0.05217   0.04205   0.00076  -0.09678
  36        3PZ         0.00051  -0.00409  -0.00404  -0.05713   0.00811
  37 5   P  1S         -0.00100  -0.00000   0.00109  -0.00273   0.00008
  38        2S          0.00329   0.00000  -0.00571   0.01506   0.00669
  39        2PX         0.00000   0.00057   0.00000   0.00000  -0.00000
  40        2PY         0.00122   0.00000  -0.00013   0.00204  -0.00213
  41        2PZ        -0.00287   0.00000   0.00516  -0.01193  -0.00891
  42        3S         -0.00331   0.00000   0.00698  -0.01744  -0.01900
  43        3PX        -0.00000   0.00122  -0.00000  -0.00000   0.00000
  44        3PY        -0.00133  -0.00000   0.00109  -0.01275  -0.00599
  45        3PZ         0.00467   0.00000  -0.01031   0.02531   0.02802
  46        4S         -0.00267  -0.00000   0.01221  -0.03874  -0.01811
  47        4PX        -0.00000  -0.01173  -0.00000  -0.00000  -0.00000
  48        4PY         0.00250  -0.00000  -0.00557   0.04386   0.01212
  49        4PZ         0.00239  -0.00000  -0.01192   0.03686   0.02013
  50 6   H  1S          0.00043  -0.00157  -0.00178   0.00284   0.00361
  51        2S         -0.00017   0.00390  -0.00124  -0.00959   0.00095
  52 7   H  1S          0.00043   0.00157  -0.00178   0.00284   0.00361
  53        2S         -0.00017  -0.00390  -0.00124  -0.00959   0.00095
  54 8   H  1S          0.00081  -0.00000  -0.00139   0.00495   0.00447
  55        2S          0.00328   0.00000  -0.00580   0.03833   0.01550
                          16        17        18        19        20
  16        3PX         0.68380
  17        3PY        -0.00000   0.52397
  18        3PZ        -0.00000   0.00957   0.68585
  19 3   F  1S         -0.00669  -0.00424  -0.00137   2.05912
  20        2S          0.00141   0.00539   0.00051   0.06636   0.13990
  21        2PX         0.01338  -0.00251   0.00554   0.02607  -0.02838
  22        2PY         0.04391   0.05636  -0.00152   0.01505  -0.01639
  23        2PZ         0.00291  -0.00656  -0.05713   0.00146  -0.00158
  24        3S          0.09572   0.02777   0.00811  -0.49065   0.39359
  25        3PX         0.02879  -0.00881   0.01032   0.00510  -0.02567
  26        3PY         0.06010   0.05840  -0.00121   0.00294  -0.01482
  27        3PZ         0.00620  -0.00833  -0.08499  -0.00031  -0.00137
  28 4   F  1S          0.00669  -0.00424  -0.00137  -0.00056   0.00148
  29        2S         -0.00141   0.00539   0.00051   0.00148  -0.00102
  30        2PX         0.01338   0.00251  -0.00554  -0.01194   0.00543
  31        2PY        -0.04391   0.05636  -0.00152  -0.00680  -0.00254
  32        2PZ        -0.00291  -0.00656  -0.05713  -0.00080   0.00013
  33        3S         -0.09572   0.02777   0.00811   0.00016  -0.00103
  34        3PX         0.02879   0.00881  -0.01032  -0.00702   0.00537
  35        3PY        -0.06010   0.05840  -0.00121  -0.00368  -0.00147
  36        3PZ        -0.00620  -0.00833  -0.08499  -0.00137   0.00051
  37 5   P  1S          0.00000   0.00092  -0.00230   0.00041  -0.00100
  38        2S          0.00000  -0.00687   0.01521  -0.00215   0.00329
  39        2PX        -0.00156   0.00000   0.00000   0.00039  -0.00105
  40        2PY         0.00000  -0.00018   0.00470   0.00022  -0.00061
  41        2PZ         0.00000   0.00665  -0.01458   0.00258  -0.00287
  42        3S          0.00000   0.01020  -0.02033   0.00700  -0.00331
  43        3PX         0.00124  -0.00000   0.00000  -0.00215   0.00115
  44        3PY        -0.00000   0.00128  -0.01483  -0.00124   0.00067
  45        3PZ         0.00000  -0.01564   0.03002  -0.00703   0.00467
  46        4S         -0.00000   0.01761  -0.04381  -0.00185  -0.00267
  47        4PX        -0.01292  -0.00000  -0.00000   0.00596  -0.00217
  48        4PY        -0.00000  -0.00625   0.05057   0.00344  -0.00125
  49        4PZ        -0.00000  -0.01782   0.04273   0.00083   0.00239
  50 6   H  1S         -0.00167  -0.00266   0.00345  -0.00069   0.00081
  51        2S          0.00441  -0.00232  -0.01112  -0.00561   0.00328
  52 7   H  1S          0.00167  -0.00266   0.00345  -0.00075   0.00043
  53        2S         -0.00441  -0.00232  -0.01112   0.00139  -0.00017
  54 8   H  1S         -0.00000  -0.00219   0.00617  -0.00075   0.00043
  55        2S          0.00000  -0.00741   0.04470   0.00139  -0.00017
                          21        22        23        24        25
  21        2PX         0.48434
  22        2PY        -0.04758   0.53928
  23        2PZ        -0.00476  -0.00275   0.54296
  24        3S         -0.09484  -0.05476  -0.00417   1.35946
  25        3PX         0.52176  -0.05815  -0.00630  -0.07507   0.56393
  26        3PY        -0.05815   0.58891  -0.00364  -0.04334  -0.06921
  27        3PZ        -0.00649  -0.00375   0.60954  -0.00237  -0.00828
  28 4   F  1S          0.01194  -0.00680  -0.00080   0.00016   0.00702
  29        2S         -0.00543  -0.00254   0.00013  -0.00103  -0.00537
  30        2PX         0.05510  -0.01351  -0.00168   0.06744   0.06353
  31        2PY         0.01351  -0.00048   0.00246   0.06177   0.03147
  32        2PZ         0.00168   0.00246  -0.03366   0.00662   0.00422
  33        3S         -0.06744   0.06177   0.00662  -0.00574  -0.07191
  34        3PX         0.06353  -0.03147  -0.00422   0.07191   0.07320
  35        3PY         0.01495   0.00620   0.00580   0.06901   0.03445
  36        3PZ         0.00145   0.00556  -0.05713   0.00811   0.00411
  37 5   P  1S         -0.00094  -0.00054  -0.00273   0.00008  -0.00080
  38        2S          0.00494   0.00285   0.01506   0.00669   0.00595
  39        2PX         0.00005  -0.00030  -0.00177   0.00185  -0.00053
  40        2PY        -0.00030   0.00040  -0.00102   0.00107   0.00060
  41        2PZ        -0.00447  -0.00258  -0.01193  -0.00891  -0.00576
  42        3S         -0.00604  -0.00349  -0.01744  -0.01900  -0.00884
  43        3PX         0.00113  -0.00005   0.01104   0.00519   0.00127
  44        3PY        -0.00005   0.00119   0.00638   0.00299   0.00002
  45        3PZ         0.00893   0.00516   0.02531   0.02802   0.01355
  46        4S         -0.01058  -0.00611  -0.03874  -0.01811  -0.01525
  47        4PX        -0.00711   0.00267  -0.03798  -0.01050  -0.00792
  48        4PY         0.00267  -0.01019  -0.02193  -0.00606   0.00289
  49        4PZ         0.01033   0.00596   0.03686   0.02013   0.01544
  50 6   H  1S          0.00120   0.00069   0.00495   0.00447   0.00190
  51        2S          0.00502   0.00290   0.03833   0.01550   0.00642
  52 7   H  1S          0.00232  -0.00047   0.00284   0.00361   0.00314
  53        2S         -0.00088   0.00399  -0.00959   0.00095  -0.00020
  54 8   H  1S          0.00075   0.00225   0.00284   0.00361   0.00147
  55        2S          0.00302  -0.00276  -0.00959   0.00095   0.00421
                          26        27        28        29        30
  26        3PY         0.64384
  27        3PZ        -0.00478   0.68585
  28 4   F  1S         -0.00368  -0.00137   2.05912
  29        2S         -0.00147   0.00051   0.06636   0.13990
  30        2PX        -0.01495  -0.00145  -0.02607   0.02838   0.48434
  31        2PY         0.00620   0.00556   0.01505  -0.01639   0.04758
  32        2PZ         0.00580  -0.05713   0.00146  -0.00158   0.00476
  33        3S          0.06901   0.00811  -0.49065   0.39359   0.09484
  34        3PX        -0.03445  -0.00411  -0.00510   0.02567   0.52176
  35        3PY         0.01398   0.00954   0.00294  -0.01482   0.05815
  36        3PZ         0.00954  -0.08499  -0.00031  -0.00137   0.00649
  37 5   P  1S         -0.00046  -0.00230   0.00041  -0.00100   0.00094
  38        2S          0.00344   0.01521  -0.00215   0.00329  -0.00494
  39        2PX         0.00060  -0.00407  -0.00039   0.00105   0.00005
  40        2PY        -0.00122  -0.00235   0.00022  -0.00061   0.00030
  41        2PZ        -0.00333  -0.01458   0.00258  -0.00287   0.00447
  42        3S         -0.00510  -0.02033   0.00700  -0.00331   0.00604
  43        3PX         0.00002   0.01284   0.00215  -0.00115   0.00113
  44        3PY         0.00125   0.00742  -0.00124   0.00067   0.00005
  45        3PZ         0.00782   0.03002  -0.00703   0.00467  -0.00893
  46        4S         -0.00880  -0.04381  -0.00185  -0.00267   0.01058
  47        4PX         0.00289  -0.04379  -0.00596   0.00217  -0.00711
  48        4PY        -0.01126  -0.02528   0.00344  -0.00125  -0.00267
  49        4PZ         0.00891   0.04273   0.00083   0.00239  -0.01033
  50 6   H  1S          0.00109   0.00617  -0.00075   0.00043  -0.00232
  51        2S          0.00370   0.04470   0.00139  -0.00017   0.00088
  52 7   H  1S         -0.00012   0.00345  -0.00069   0.00081  -0.00120
  53        2S          0.00497  -0.01112  -0.00561   0.00328  -0.00502
  54 8   H  1S          0.00277   0.00345  -0.00075   0.00043  -0.00075
  55        2S         -0.00266  -0.01112   0.00139  -0.00017  -0.00302
                          31        32        33        34        35
  31        2PY         0.53928
  32        2PZ        -0.00275   0.54296
  33        3S         -0.05476  -0.00417   1.35946
  34        3PX         0.05815   0.00630   0.07507   0.56393
  35        3PY         0.58891  -0.00364  -0.04334   0.06921   0.64384
  36        3PZ        -0.00375   0.60954  -0.00237   0.00828  -0.00478
  37 5   P  1S         -0.00054  -0.00273   0.00008   0.00080  -0.00046
  38        2S          0.00285   0.01506   0.00669  -0.00595   0.00344
  39        2PX         0.00030   0.00177  -0.00185  -0.00053  -0.00060
  40        2PY         0.00040  -0.00102   0.00107  -0.00060  -0.00122
  41        2PZ        -0.00258  -0.01193  -0.00891   0.00576  -0.00333
  42        3S         -0.00349  -0.01744  -0.01900   0.00884  -0.00510
  43        3PX         0.00005  -0.01104  -0.00519   0.00127  -0.00002
  44        3PY         0.00119   0.00638   0.00299  -0.00002   0.00125
  45        3PZ         0.00516   0.02531   0.02802  -0.01355   0.00782
  46        4S         -0.00611  -0.03874  -0.01811   0.01525  -0.00880
  47        4PX        -0.00267   0.03798   0.01050  -0.00792  -0.00289
  48        4PY        -0.01019  -0.02193  -0.00606  -0.00289  -0.01126
  49        4PZ         0.00596   0.03686   0.02013  -0.01544   0.00891
  50 6   H  1S         -0.00047   0.00284   0.00361  -0.00314  -0.00012
  51        2S          0.00399  -0.00959   0.00095   0.00020   0.00497
  52 7   H  1S          0.00069   0.00495   0.00447  -0.00190   0.00109
  53        2S          0.00290   0.03833   0.01550  -0.00642   0.00370
  54 8   H  1S          0.00225   0.00284   0.00361  -0.00147   0.00277
  55        2S         -0.00276  -0.00959   0.00095  -0.00421  -0.00266
                          36        37        38        39        40
  36        3PZ         0.68585
  37 5   P  1S         -0.00230   2.13273
  38        2S          0.01521  -0.54492   2.27259
  39        2PX         0.00407   0.00000  -0.00000   1.96303
  40        2PY        -0.00235  -0.00000   0.00000   0.00000   1.96303
  41        2PZ        -0.01458   0.00587  -0.03263  -0.00000  -0.00000
  42        3S         -0.02033  -0.05086  -0.05392   0.00000  -0.00000
  43        3PX        -0.01284  -0.00000   0.00000   0.03254   0.00000
  44        3PY         0.00742   0.00000  -0.00000  -0.00000   0.03254
  45        3PZ         0.03002  -0.01096   0.06218   0.00000   0.00000
  46        4S         -0.04381   0.15142  -0.60231  -0.00000  -0.00000
  47        4PX         0.04379  -0.00000   0.00000  -0.12932  -0.00000
  48        4PY        -0.02528  -0.00000   0.00000   0.00000  -0.12932
  49        4PZ         0.04273  -0.01209   0.09268   0.00000  -0.00000
  50 6   H  1S          0.00345   0.01604  -0.07078  -0.09205  -0.05315
  51        2S         -0.01112  -0.01373   0.03051  -0.10096  -0.05829
  52 7   H  1S          0.00617   0.01604  -0.07078   0.09205  -0.05315
  53        2S          0.04470  -0.01373   0.03051   0.10096  -0.05829
  54 8   H  1S          0.00345   0.01604  -0.07078  -0.00000   0.10629
  55        2S         -0.01112  -0.01373   0.03051  -0.00000   0.11658
                          41        42        43        44        45
  41        2PZ         1.98885
  42        3S          0.04181   0.39038
  43        3PX         0.00000  -0.00000   0.29242
  44        3PY        -0.00000   0.00000  -0.00000   0.29242
  45        3PZ        -0.01382  -0.07044  -0.00000   0.00000   0.38318
  46        4S          0.09075   0.46662   0.00000  -0.00000  -0.22138
  47        4PX         0.00000  -0.00000   0.12700   0.00000  -0.00000
  48        4PY         0.00000   0.00000  -0.00000   0.12700  -0.00000
  49        4PZ        -0.28579  -0.13718  -0.00000   0.00000   0.41025
  50 6   H  1S         -0.05462   0.06715   0.16091   0.09290   0.09351
  51        2S         -0.03290   0.01143   0.23494   0.13564   0.09800
  52 7   H  1S         -0.05462   0.06715  -0.16091   0.09290   0.09351
  53        2S         -0.03290   0.01143  -0.23494   0.13564   0.09800
  54 8   H  1S         -0.05462   0.06715   0.00000  -0.18580   0.09351
  55        2S         -0.03290   0.01143   0.00000  -0.27129   0.09800
                          46        47        48        49        50
  46        4S          0.73235
  47        4PX         0.00000   0.07280
  48        4PY        -0.00000  -0.00000   0.07280
  49        4PZ        -0.31650  -0.00000  -0.00000   0.48549
  50 6   H  1S          0.05819   0.07883   0.04551   0.09376   0.17263
[...]
  42        3S          0.00000  -0.00000  -0.00001   0.00000  -0.00000
  43        3PX         0.00000   0.00000   0.00000   0.00000  -0.00000
  44        3PY        -0.00000  -0.00000  -0.00001   0.00000  -0.00000
  45        3PZ         0.00000  -0.00001  -0.00006   0.00000  -0.00000
  46        4S         -0.00000  -0.00017  -0.00099  -0.00000  -0.00001
  47        4PX        -0.00014  -0.00000   0.00000  -0.00000   0.00001
  48        4PY        -0.00000   0.00002   0.00160  -0.00000   0.00000
  49        4PZ         0.00000  -0.00056  -0.00267  -0.00000  -0.00003
  50 6   H  1S         -0.00000   0.00000   0.00000   0.00000   0.00000
  51        2S          0.00000   0.00000  -0.00001  -0.00000   0.00000
  52 7   H  1S         -0.00000   0.00000   0.00000  -0.00000   0.00000
  53        2S          0.00000   0.00000  -0.00001   0.00000  -0.00000
  54 8   H  1S         -0.00000   0.00000   0.00000  -0.00000   0.00000
  55        2S          0.00000   0.00000   0.00001   0.00000  -0.00000
                          21        22        23        24        25
  21        2PX         0.48434
  22        2PY         0.00000   0.53928
  23        2PZ         0.00000   0.00000   0.54296
  24        3S          0.00000   0.00000   0.00000   1.35946
  25        3PX         0.25481   0.00000   0.00000   0.00000   0.56393
  26        3PY        -0.00000   0.28761   0.00000   0.00000  -0.00000
  27        3PZ         0.00000   0.00000   0.29768   0.00000   0.00000
  28 4   F  1S          0.00000  -0.00000   0.00000   0.00000   0.00000
  29        2S         -0.00000   0.00000   0.00000  -0.00000  -0.00001
  30        2PX        -0.00000  -0.00000   0.00000  -0.00006  -0.00024
  31        2PY         0.00000  -0.00000   0.00000   0.00000   0.00000
  32        2PZ         0.00000   0.00000  -0.00000   0.00000   0.00000
  33        3S         -0.00006  -0.00000   0.00000  -0.00006  -0.00224
  34        3PX        -0.00024  -0.00000   0.00000  -0.00224  -0.00614
  35        3PY         0.00000   0.00000   0.00000   0.00000   0.00000
  36        3PZ         0.00000   0.00000  -0.00002   0.00000   0.00000
  37 5   P  1S          0.00000   0.00000   0.00000   0.00000  -0.00000
  38        2S          0.00000   0.00000   0.00000   0.00000   0.00000
  39        2PX        -0.00000   0.00000   0.00000  -0.00000   0.00000
  40        2PY         0.00000  -0.00000   0.00000  -0.00000  -0.00000
  41        2PZ         0.00000   0.00000   0.00000   0.00000   0.00000
  42        3S         -0.00000  -0.00000  -0.00000  -0.00000  -0.00000
  43        3PX        -0.00000   0.00000  -0.00000  -0.00000  -0.00000
  44        3PY         0.00000  -0.00000  -0.00000  -0.00000  -0.00000
  45        3PZ        -0.00000  -0.00000  -0.00000  -0.00002  -0.00001
  46        4S         -0.00001  -0.00000  -0.00009  -0.00025  -0.00013
  47        4PX         0.00000  -0.00000   0.00013   0.00017  -0.00001
  48        4PY        -0.00000  -0.00001   0.00004   0.00006  -0.00002
  49        4PZ        -0.00003  -0.00001  -0.00029  -0.00090  -0.00042
  50 6   H  1S          0.00000   0.00000   0.00000   0.00000   0.00000
  51        2S          0.00000   0.00000   0.00000   0.00000   0.00000
  52 7   H  1S          0.00000  -0.00000   0.00000   0.00000   0.00000
  53        2S         -0.00000   0.00000  -0.00000   0.00000  -0.00000
  54 8   H  1S          0.00000  -0.00000   0.00000   0.00000   0.00000
  55        2S          0.00000   0.00000  -0.00000   0.00000   0.00000
                          26        27        28        29        30
  26        3PY         0.64384
  27        3PZ         0.00000   0.68585
  28 4   F  1S         -0.00000   0.00000   2.05912
  29        2S          0.00000   0.00000   0.01425   0.13990
  30        2PX        -0.00000   0.00000   0.00000   0.00000   0.48434
  31        2PY         0.00000   0.00000   0.00000   0.00000   0.00000
  32        2PZ         0.00000  -0.00002   0.00000   0.00000   0.00000
  33        3S         -0.00000   0.00000  -0.09007   0.28818   0.00000
  34        3PX        -0.00000   0.00000   0.00000   0.00000   0.25481
  35        3PY         0.00014   0.00000   0.00000   0.00000   0.00000
  36        3PZ         0.00000  -0.00087   0.00000   0.00000   0.00000
  37 5   P  1S         -0.00000  -0.00000   0.00000   0.00000   0.00000
  38        2S          0.00000   0.00000   0.00000   0.00000   0.00000
  39        2PX        -0.00000   0.00000   0.00000   0.00000  -0.00000
  40        2PY         0.00000   0.00000   0.00000   0.00000   0.00000
  41        2PZ         0.00000   0.00000   0.00000   0.00000   0.00000
  42        3S         -0.00000  -0.00001   0.00000  -0.00000  -0.00000
  43        3PX        -0.00000  -0.00001   0.00000  -0.00000  -0.00000
  44        3PY         0.00000  -0.00000   0.00000  -0.00000   0.00000
  45        3PZ        -0.00000  -0.00006   0.00000  -0.00000  -0.00000
  46        4S         -0.00004  -0.00099  -0.00000  -0.00001  -0.00001
  47        4PX        -0.00002   0.00120  -0.00000   0.00001   0.00000
  48        4PY        -0.00009   0.00040  -0.00000   0.00000  -0.00000
  49        4PZ        -0.00014  -0.00267  -0.00000  -0.00003  -0.00003
  50 6   H  1S          0.00000   0.00000  -0.00000   0.00000   0.00000
  51        2S          0.00000   0.00001   0.00000  -0.00000  -0.00000
  52 7   H  1S         -0.00000   0.00000   0.00000   0.00000   0.00000
  53        2S          0.00000  -0.00001  -0.00000   0.00000   0.00000
  54 8   H  1S         -0.00000   0.00000  -0.00000   0.00000   0.00000
  55        2S          0.00000  -0.00001   0.00000  -0.00000   0.00000
                          31        32        33        34        35
  31        2PY         0.53928
  32        2PZ         0.00000   0.54296
  33        3S          0.00000   0.00000   1.35946
  34        3PX         0.00000   0.00000   0.00000   0.56393
  35        3PY         0.28761   0.00000   0.00000   0.00000   0.64384
  36        3PZ         0.00000   0.29768   0.00000   0.00000   0.00000
  37 5   P  1S          0.00000   0.00000   0.00000  -0.00000  -0.00000
  38        2S          0.00000   0.00000   0.00000   0.00000   0.00000
  39        2PX         0.00000   0.00000  -0.00000   0.00000  -0.00000
  40        2PY        -0.00000   0.00000  -0.00000  -0.00000   0.00000
  41        2PZ         0.00000   0.00000   0.00000   0.00000   0.00000
  42        3S         -0.00000  -0.00000  -0.00000  -0.00000  -0.00000
  43        3PX         0.00000  -0.00000  -0.00000  -0.00000  -0.00000
  44        3PY        -0.00000  -0.00000  -0.00000  -0.00000   0.00000
  45        3PZ        -0.00000  -0.00000  -0.00002  -0.00001  -0.00000
  46        4S         -0.00000  -0.00009  -0.00025  -0.00013  -0.00004
  47        4PX        -0.00000   0.00013   0.00017  -0.00001  -0.00002
  48        4PY        -0.00001   0.00004   0.00006  -0.00002  -0.00009
  49        4PZ        -0.00001  -0.00029  -0.00090  -0.00042  -0.00014
  50 6   H  1S         -0.00000   0.00000   0.00000   0.00000  -0.00000
  51        2S          0.00000  -0.00000   0.00000  -0.00000   0.00000
  52 7   H  1S          0.00000   0.00000   0.00000   0.00000   0.00000
  53        2S          0.00000   0.00000   0.00000   0.00000   0.00000
  54 8   H  1S         -0.00000   0.00000   0.00000   0.00000  -0.00000
  55        2S          0.00000  -0.00000   0.00000   0.00000   0.00000
                          36        37        38        39        40
  36        3PZ         0.68585
  37 5   P  1S         -0.00000   2.13273
  38        2S          0.00000  -0.13688   2.27259
  39        2PX         0.00000   0.00000   0.00000   1.96303
  40        2PY         0.00000   0.00000   0.00000   0.00000   1.96303
  41        2PZ         0.00000   0.00000   0.00000   0.00000   0.00000
  42        3S         -0.00001  -0.00172  -0.01906   0.00000   0.00000
  43        3PX        -0.00001   0.00000   0.00000   0.00984   0.00000
  44        3PY        -0.00000   0.00000   0.00000   0.00000   0.00984
  45        3PZ        -0.00006   0.00000   0.00000   0.00000   0.00000
  46        4S         -0.00099   0.00498  -0.15360   0.00000   0.00000
  47        4PX         0.00120   0.00000   0.00000  -0.00957  -0.00000
  48        4PY         0.00040   0.00000   0.00000  -0.00000  -0.00957
  49        4PZ        -0.00267   0.00000   0.00000   0.00000   0.00000
  50 6   H  1S          0.00000   0.00001  -0.00052  -0.00071  -0.00024
  51        2S         -0.00001  -0.00016   0.00298  -0.00294  -0.00098
  52 7   H  1S          0.00000   0.00001  -0.00052  -0.00071  -0.00024
  53        2S          0.00001  -0.00016   0.00298  -0.00294  -0.00098
  54 8   H  1S          0.00000   0.00001  -0.00052  -0.00000  -0.00095
  55        2S         -0.00001  -0.00016   0.00298  -0.00000  -0.00392
                          41        42        43        44        45
  41        2PZ         1.98885
  42        3S          0.00000   0.39038
  43        3PX         0.00000   0.00000   0.29242
  44        3PY         0.00000   0.00000  -0.00000   0.29242
  45        3PZ        -0.00418   0.00000   0.00000   0.00000   0.38318
  46        4S          0.00000   0.38915   0.00000   0.00000   0.00000
  47        4PX         0.00000   0.00000   0.08212  -0.00000   0.00000
  48        4PY         0.00000   0.00000  -0.00000   0.08212   0.00000
  49        4PZ        -0.02114   0.00000   0.00000   0.00000   0.26528
  50 6   H  1S         -0.00028   0.01002   0.03330   0.01110   0.01266
  51        2S         -0.00063   0.00457   0.06679   0.02226   0.01822
  52 7   H  1S         -0.00028   0.01002   0.03330   0.01110   0.01266
  53        2S         -0.00063   0.00457   0.06679   0.02226   0.01822
  54 8   H  1S         -0.00028   0.01002   0.00000   0.04441   0.01266
  55        2S         -0.00063   0.00457   0.00000   0.08905   0.01822
                          46        47        48        49        50
  46        4S          0.73235
  47        4PX         0.00000   0.07280
  48        4PY         0.00000  -0.00000   0.07280
  49        4PZ         0.00000   0.00000   0.00000   0.48549
  50 6   H  1S          0.01410   0.02362   0.00787   0.01837   0.17263
  51        2S         -0.01616   0.05285   0.01762   0.03318   0.13715
  52 7   H  1S          0.01410   0.02362   0.00787   0.01837  -0.00002
  53        2S         -0.01616   0.05285   0.01762   0.03318  -0.00332
  54 8   H  1S          0.01410   0.00000   0.03150   0.01837  -0.00002
  55        2S         -0.01616   0.00000   0.07047   0.03318  -0.00332
                          51        52        53        54        55
  51        2S          0.29179
  52 7   H  1S         -0.00332   0.17263
  53        2S         -0.02344   0.13715   0.29179
  54 8   H  1S         -0.00332  -0.00002  -0.00332   0.17263
  55        2S         -0.02344  -0.00332  -0.02344   0.13715   0.29179
     Gross orbital populations:
                           1
   1 1   B  1S          1.98544
   2        2S          0.40222
   3        2PX         0.41932
   4        2PY         0.41932
   5        2PZ         0.17951
   6        3S          0.07056
   7        3PX         0.07342
   8        3PY         0.07342
   9        3PZ         0.17459
  10 2   F  1S          1.98500
  11        2S          0.44431
  12        2PX         0.87994
  13        2PY         0.73891
  14        2PZ         0.84980
  15        3S          1.53080
  16        3PX         1.03314
  17        3PY         0.90987
  18        3PZ         1.03119
  19 3   F  1S          1.98500
  20        2S          0.44431
  21        2PX         0.77417
  22        2PY         0.84469
  23        2PZ         0.84980
  24        3S          1.53080
  25        3PX         0.94069
  26        3PY         1.00232
  27        3PZ         1.03119
  28 4   F  1S          1.98500
  29        2S          0.44431
  30        2PX         0.77417
  31        2PY         0.84469
  32        2PZ         0.84980
  33        3S          1.53080
  34        3PX         0.94069
  35        3PY         1.00232
  36        3PZ         1.03119
  37 5   P  1S          1.99860
  38        2S          1.97098
  39        2PX         1.95602
  40        2PY         1.95602
  41        2PZ         1.96105
  42        3S          0.80159
  43        3PX         0.58459
  44        3PY         0.58459
  45        3PZ         0.73569
  46        4S          0.95744
  47        4PX         0.30054
  48        4PY         0.30054
  49        4PZ         0.86894
  50 6   H  1S          0.43241
  51        2S          0.57316
  52 7   H  1S          0.43241
  53        2S          0.57316
  54 8   H  1S          0.43241
  55        2S          0.57316
          Condensed to atoms (all electrons):
               1          2          3          4          5          6
     1  B    2.882643   0.307775   0.307775   0.307775  -0.008641   0.000162
     2  F    0.307775   9.123594  -0.012057  -0.012057  -0.004269  -0.000011
     3  F    0.307775  -0.012057   9.123594  -0.012057  -0.004269   0.000006
     4  F    0.307775  -0.012057  -0.012057   9.123594  -0.004269  -0.000011
     5  P   -0.008641  -0.004269  -0.004269  -0.004269  14.017320   0.326896
     6  H    0.000162  -0.000011   0.000006  -0.000011   0.326896   0.738719
     7  H    0.000162  -0.000011  -0.000011   0.000006   0.326896  -0.030096
     8  H    0.000162   0.000006  -0.000011  -0.000011   0.326896  -0.030096
               7          8
     1  B    0.000162   0.000162
     2  F   -0.000011   0.000006
     3  F   -0.000011  -0.000011
     4  F    0.000006  -0.000011
     5  P    0.326896   0.326896
     6  H   -0.030096  -0.030096
     7  H    0.738719  -0.030096
     8  H   -0.030096   0.738719
 Mulliken charges:
               1
     1  B    1.202186
     2  F   -0.402971
     3  F   -0.402971
     4  F   -0.402971
     5  P    0.023440
     6  H   -0.005570
     7  H   -0.005570
     8  H   -0.005570
 Sum of Mulliken charges =  -0.00000
 Mulliken charges with hydrogens summed into heavy atoms:
               1
     1  B    1.202186
     2  F   -0.402971
     3  F   -0.402971
     4  F   -0.402971
     5  P    0.006728
 Electronic spatial extent (au):  <R**2>=            691.5888
 Charge=             -0.0000 electrons
 Dipole moment (field-independent basis, Debye):
    X=             -0.0000    Y=             -0.0000    Z=              2.2142  Tot=              2.2142
 Quadrupole moment (field-independent basis, Debye-Ang):
   XX=            -37.9423   YY=            -37.9423   ZZ=            -30.0614
   XY=              0.0000   XZ=             -0.0000   YZ=              0.0000
 Traceless Quadrupole moment (field-independent basis, Debye-Ang):
   XX=             -2.6270   YY=             -2.6270   ZZ=              5.2539
   XY=              0.0000   XZ=             -0.0000   YZ=              0.0000
 Octapole moment (field-independent basis, Debye-Ang**2):
  XXX=              0.0000  YYY=             -2.9867  ZZZ=            -28.6185  XYY=             -0.0000
  XXY=              2.9867  XXZ=             -4.3490  XZZ=             -0.0000  YZZ=              0.0000
  YYZ=             -4.3490  XYZ=             -0.0000
 Hexadecapole moment (field-independent basis, Debye-Ang**3):
 XXXX=           -124.3442 YYYY=           -124.3442 ZZZZ=           -567.7557 XXXY=             -0.0000
 XXXZ=              0.0000 YYYX=             -0.0000 YYYZ=              4.2975 ZZZX=             -0.0000
 ZZZY=              0.0000 XXYY=            -41.4481 XXZZ=           -120.1603 YYZZ=           -120.1603
 XXYZ=             -4.2975 YYXZ=             -0.0000 ZZXY=             -0.0000
 N-N= 2.159680581080D+02 E-N=-2.011077533513D+03  KE= 6.605029304169D+02
 Orbital energies and kinetic energies (alpha):
                                 1                 2
   1         O               -79.405620        105.410000
   2         O               -26.191380         36.899779
   3         O               -26.191083         36.900154
   4         O               -26.191083         36.900154
   5         O                -7.759173         10.791169
   6         O                -7.480521         16.228358
   7         O                -5.365025         14.562145
   8         O                -5.365025         14.562145
   9         O                -5.362769         14.569385
  10         O                -1.652003          3.620187
  11         O                -1.605932          3.855101
  12         O                -1.605932          3.855101
  13         O                -0.895362          1.505925
  14         O                -0.810386          2.966395
  15         O                -0.764275          2.819698
  16         O                -0.764275          2.819698
  17         O                -0.728522          2.544598
  18         O                -0.652177          3.134694
  19         O                -0.652177          3.134694
  20         O                -0.644279          3.162892
  21         O                -0.644279          3.162892
  22         O                -0.624994          3.335050
  23         O                -0.547997          1.048324
  24         O                -0.547997          1.048324
  25         O                -0.407936          1.414602
  26         V                 0.165031          0.827197
  27         V                 0.165031          0.827197
  28         V                 0.215663          1.853931
  29         V                 0.249461          1.483875
  30         V                 0.309545          2.036446
  31         V                 0.440281          1.680903
  32         V                 0.440281          1.680903
  33         V                 0.589522          1.656212
  34         V                 0.604359          2.446785
  35         V                 0.604359          2.446785
  36         V                 0.669768          2.254726
  37         V                 0.758457          2.496886
  38         V                 0.802711          3.151509
  39         V                 0.802711          3.151509
  40         V                 1.011613          2.585547
  41         V                 1.195059          2.592163
  42         V                 1.255763          2.516313
  43         V                 1.255763          2.516313
  44         V                 2.203072          6.541541
  45         V                 2.203072          6.541541
  46         V                 2.306895          6.594754
  47         V                 2.306895          6.594754
  48         V                 2.313817          6.561669
  49         V                 2.400978          6.467023
  50         V                 2.476720          6.683171
  51         V                 2.476720          6.683171
  52         V                 2.484164          6.626205
  53         V                 4.038952          8.682833
  54         V                 4.038952          8.682833
  55         V                 4.148980          8.761048
 Total kinetic energy from orbitals= 6.605029304169D+02
 1\1\GINC-IISERK51\SP\RHF\3-21G\B1F3H3P1\GAUSSIAN\17-Jun-2025\0\\# hf/3
 -21g pop=full geom=connectivity\\Title Card Required\\0,1\B,0,0.,0.,-1
 .094582\F,0,0.,1.330921,-1.162799\F,0,-1.152612,-0.665461,-1.162799\F,
 0,1.152612,-0.665461,-1.162799\P,0,0.,0.,1.931994\H,0,1.066683,0.61585
 ,2.629526\H,0,-1.066683,0.61585,2.629526\H,0,0.,-1.231699,2.629526\\Ve
 rsion=EM64L-G16RevB.01\State=1-A\HF=-662.179445\RMSD=2.553e-09\Dipole=
 0.,0.,0.8711454\Quadrupole=-1.9530904,-1.9530904,3.9061808,0.,0.,0.\PG
 =C03 [C3(B1P1),X(F3H3)]\\@


 ALL MEN WHO EXPLORE
 DEPLORE
 THAT FRUSTRATING HURDLE
 THE GIRDLE.

         -- COLIN FLETCHER
 Job cpu time:       0 days  0 hours  0 minutes  0.5 seconds.
 Elapsed time:       0 days  0 hours  0 minutes  0.4 seconds.
 File lengths (MBytes):  RWF=      6 Int=      0 D2E=      0 Chk=      1 Scr=      1
 Normal termination of Gaussian 16 at Tue Jun 17 16:01:51 2025.
