 Entering Gaussian System, Link 0=g16
 Input=/home/gaussian/Documents/Summer_Internship/Acid_Base_adduct/Adduct/py - BCl3/BCl3_only_adduct_sp.com
 Output=/home/gaussian/Documents/Summer_Internship/Acid_Base_adduct/Adduct/py - BCl3/BCl3_only_adduct_sp.log
 Initial command:
 /usr/local/g16/l1.exe "/home/gaussian/tmp/Gau-80072.inp" -scrdir="/home/gaussian/tmp/"
 Entering Link 1 = /usr/local/g16/l1.exe PID=     80075.
  
 Copyright (c) 1988-2017, Gaussian, Inc.  All Rights Reserved.
  
 This is part of the Gaussian(R) 16 program.  It is based on
 the Gaussian(R) 09 system (copyright 2009, Gaussian, Inc.),
 the Gaussian(R) 03 system (copyright 2003, Gaussian, Inc.),
 the Gaussian(R) 98 system (copyright 1998, Gaussian, Inc.),
 the Gaussian(R) 94 system (copyright 1995, Gaussian, Inc.),
 the Gaussian 92(TM) system (copyright 1992, Gaussian, Inc.),
 the Gaussian 90(TM) system (copyright 1990, Gaussian, Inc.),
 the Gaussian 88(TM) system (copyright 1988, Gaussian, Inc.),
 the Gaussian 86(TM) system (copyright 1986, Carnegie Mellon
 University), and the Gaussian 82(TM) system (copyright 1983,
 Carnegie Mellon University). Gaussian is a federally registered
 trademark of Gaussian, Inc.
  
 This software contains proprietary and confidential information,
 including trade secrets, belonging to Gaussian, Inc.
  
 This software is provided under written license and may be
 used, copied, transmitted, or stored only in accord with that
 written license.
  
 The following legend is applicable only to US Government
 contracts under FAR:
  
                    RESTRICTED RIGHTS LEGEND
  
 Use, reproduction and disclosure by the US Government is
 subject to restrictions as set forth in subparagraphs (a)
 and (c) of the Commercial Computer Software - Restricted
 Rights clause in FAR 52.227-19.
  
 Gaussian, Inc.
 340 Quinnipiac St., Bldg. 40, Wallingford CT 06492
  
  
 ---------------------------------------------------------------
 Warning -- This program may not be used in any manner that
 competes with the business of Gaussian, Inc. or will provide
 assistance to any competitor of Gaussian, Inc.  The licensee
 of this program is prohibited from giving any competitor of
 Gaussian, Inc. access to this program.  By using this program,
 the user acknowledges that Gaussian, Inc. is engaged in the
 business of creating and licensing software in the field of
 computational chemistry and represents and warrants to the
 licensee that it is not a competitor of Gaussian, Inc. and that
 it will not use this program in any manner prohibited above.
 ---------------------------------------------------------------
  

 Cite this work as:
 Gaussian 16, Revision B.01,
 M. J. Frisch, G. W. Trucks, H. B. Schlegel, G. E. Scuseria, 
 M. A. Robb, J. R. Cheeseman, G. Scalmani, V. Barone, 
 G. A. Petersson, H. Nakatsuji, X. Li, M. Caricato, A. V. Marenich, 
 J. Bloino, B. G. Janesko, R. Gomperts, B. Mennucci, H. P. Hratchian, 
 J. V. Ortiz, A. F. Izmaylov, J. L. Sonnenberg, D. Williams-Young, 
 F. Ding, F. Lipparini, F. Egidi, J. Goings, B. Peng, A. Petrone, 
 T. Henderson, D. Ranasinghe, V. G. Zakrzewski, J. Gao, N. Rega, 
 G. Zheng, W. Liang, M. Hada, M. Ehara, K. Toyota, R. Fukuda, 
 J. Hasegawa, M. Ishida, T. Nakajima, Y. Honda, O. Kitao, H. Nakai, 
 T. Vreven, K. Throssell, J. A. Montgomery, Jr., J. E. Peralta, 
 F. Ogliaro, M. J. Bearpark, J. J. Heyd, E. N. Brothers, K. N. Kudin, 
 V. N. Staroverov, T. A. Keith, R. Kobayashi, J. Normand, 
 K. Raghavachari, A. P. Rendell, J. C. Burant, S. S. Iyengar, 
 J. Tomasi, M. Cossi, J. M. Millam, M. Klene, C. Adamo, R. Cammi, 
 J. W. Ochterski, R. L. Martin, K. Morokuma, O. Farkas, 
 J. B. Foresman, and D. J. Fox, Gaussian, Inc., Wallingford CT, 2016.
 
 ******************************************
 Gaussian 16:  EM64L-G16RevB.01 20-Dec-2017
                16-Jun-2025 
 ******************************************
 %chk=BCl3_only_adduct_sp.chk
 -------------------------------------
 # hf/3-21g pop=full geom=connectivity
 -------------------------------------
 1/38=1,57=2,172=1/1;
 2/12=2,17=6,18=5,40=1/2;
 3/5=5,11=9,25=1,30=1/1,2,3;
 4//1;
 5/5=2,38=5/2;
 6/7=3,28=1/1;
 99/5=1,9=1/99;
 -------------------
 Title Card Required
 -------------------
 Symbolic Z-matrix:
 Charge =  0 Multiplicity = 1
 B                     0.98504   0.01729   0.00001 
 Cl                    1.48599  -0.93419   1.55813 
 Cl                    1.48635  -0.93537  -1.55725 
 Cl                    1.69259   1.76137  -0.00069 
 
                          Input orientation:                          
 ---------------------------------------------------------------------
 Center     Atomic      Atomic             Coordinates (Angstroms)
 Number     Number       Type             X           Y           Z
 ---------------------------------------------------------------------
      1          5           0        0.985040    0.017294    0.000006
      2         17           0        1.485989   -0.934188    1.558130
      3         17           0        1.486354   -0.935365   -1.557247
      4         17           0        1.692590    1.761374   -0.000687
 ---------------------------------------------------------------------
                    Distance matrix (angstroms):
                    1          2          3          4
     1  B    0.000000
     2  Cl   1.893150   0.000000
     3  Cl   1.893122   3.115377   0.000000
     4  Cl   1.882138   3.120681   3.120547   0.000000
 Stoichiometry    BCl3
 Framework group  C1[X(BCl3)]
 Deg. of freedom     6
 Full point group                 C1      NOp   1
 Largest Abelian subgroup         C1      NOp   1
 Largest concise Abelian subgroup C1      NOp   1
                         Standard orientation:                         
 ---------------------------------------------------------------------
 Center     Atomic      Atomic             Coordinates (Angstroms)
 Number     Number       Type             X           Y           Z
 ---------------------------------------------------------------------
      1          5           0        0.008986   -0.000125    0.521242
      2         17           0       -0.919437   -1.547636   -0.050824
      3         17           0       -0.884909    1.567550   -0.050821
      4         17           0        1.801703   -0.019878   -0.051662
 ---------------------------------------------------------------------
 Rotational constants (GHZ):           2.9219378           2.9091140           1.4857312
 Standard basis: 3-21G (6D, 7F)
 There are    48 symmetry adapted cartesian basis functions of A   symmetry.
 There are    48 symmetry adapted basis functions of A   symmetry.
    48 basis functions,    96 primitive gaussians,    48 cartesian basis functions
    28 alpha electrons       28 beta electrons
       nuclear repulsion energy       218.5211397814 Hartrees.
 NAtoms=    4 NActive=    4 NUniq=    4 SFac= 1.00D+00 NAtFMM=   60 NAOKFM=F Big=F
 Integral buffers will be    131072 words long.
 Raffenetti 1 integral format.
 Two-electron integral symmetry is turned on.
 One-electron integrals computed using PRISM.
 NBasis=    48 RedAO= T EigKep=  1.51D-02  NBF=    48
 NBsUse=    48 1.00D-06 EigRej= -1.00D+00 NBFU=    48
 ExpMin= 1.24D-01 ExpMax= 1.38D+03 ExpMxC= 1.38D+03 IAcc=3 IRadAn=         5 AccDes= 0.00D+00
 Harris functional with IExCor=  205 and IRadAn=       5 diagonalized for initial guess.
 HarFok:  IExCor=  205 AccDes= 0.00D+00 IRadAn=         5 IDoV= 1 UseB2=F ITyADJ=14
 ICtDFT=  3500011 ScaDFX=  1.000000  1.000000  1.000000  1.000000
 FoFCou: FMM=F IPFlag=           0 FMFlag=      100000 FMFlg1=           0
         NFxFlg=           0 DoJE=T BraDBF=F KetDBF=T FulRan=T
         wScrn=  0.000000 ICntrl=       500 IOpCl=  0 I1Cent=   200000004 NGrid=           0
         NMat0=    1 NMatS0=      1 NMatT0=    0 NMatD0=    1 NMtDS0=    0 NMtDT0=    0
 Petite list used in FoFCou.
 Keep R1 ints in memory in canonical form, NReq=1501354.
 Requested convergence on RMS density matrix=1.00D-08 within 128 cycles.
 Requested convergence on MAX density matrix=1.00D-06.
 Requested convergence on             energy=1.00D-06.
 No special actions if energy rises.
 SCF Done:  E(RHF) =  -1396.48050875     A.U. after   11 cycles
            NFock= 11  Conv=0.78D-08     -V/T= 2.0010

 **********************************************************************

            Population analysis using the SCF Density.

 **********************************************************************

 Orbital symmetries:
       Occupied  (A) (A) (A) (A) (A) (A) (A) (A) (A) (A) (A) (A)
                 (A) (A) (A) (A) (A) (A) (A) (A) (A) (A) (A) (A)
                 (A) (A) (A) (A)
       Virtual   (A) (A) (A) (A) (A) (A) (A) (A) (A) (A) (A) (A)
                 (A) (A) (A) (A) (A) (A) (A) (A)
 The electronic state is 1-A.
 Alpha  occ. eigenvalues -- -104.15001-104.14812-104.14791 -10.54382 -10.54188
 Alpha  occ. eigenvalues --  -10.54119  -8.00675  -8.00464  -8.00450  -8.00314
 Alpha  occ. eigenvalues --   -8.00279  -8.00103  -8.00096  -8.00071  -8.00056
 Alpha  occ. eigenvalues --   -7.81975  -1.17897  -1.12355  -1.12110  -0.70655
 Alpha  occ. eigenvalues --   -0.59399  -0.59302  -0.55326  -0.50153  -0.50039
 Alpha  occ. eigenvalues --   -0.48307  -0.48189  -0.47366
 Alpha virt. eigenvalues --   -0.03863   0.16639   0.17800   0.18147   0.56328
 Alpha virt. eigenvalues --    0.56417   0.57133   0.64149   0.73126   0.73210
 Alpha virt. eigenvalues --    0.74874   0.74878   0.75556   0.81058   0.84313
 Alpha virt. eigenvalues --    0.84388   0.88903   1.01826   1.02075   1.16673
     Molecular Orbital Coefficients:
                           1         2         3         4         5
                           O         O         O         O         O
     Eigenvalues --  -104.15001-104.14812-104.14791 -10.54382 -10.54188
   1 1   B  1S          0.00008   0.00000   0.00013  -0.00055  -0.00000
   2        2S          0.00087   0.00001   0.00139  -0.00424  -0.00001
   3        2PX         0.00005  -0.00000  -0.00002  -0.00039   0.00000
   4        2PY        -0.00000  -0.00004   0.00000   0.00000   0.00034
   5        2PZ        -0.00007  -0.00000  -0.00011   0.00038   0.00000
   6        3S         -0.00473  -0.00005  -0.00750   0.02343   0.00007
   7        3PX        -0.00369   0.00006   0.00223   0.02267  -0.00029
   8        3PY         0.00004   0.00423  -0.00006  -0.00025  -0.02461
   9        3PZ         0.00126   0.00001   0.00199  -0.00627  -0.00002
  10 2   Cl 1S         -0.04520   0.70213   0.69061   0.03590  -0.21662
  11        2S         -0.00249   0.03784   0.03714  -0.11523   0.69599
  12        2PX        -0.00005   0.00008   0.00007  -0.00036   0.00308
  13        2PY        -0.00003   0.00017   0.00009  -0.00076   0.00498
  14        2PZ        -0.00001   0.00006   0.00005  -0.00041   0.00265
  15        3S          0.00117  -0.01396  -0.01327  -0.01813   0.10271
  16        3PX         0.00022  -0.00032  -0.00026  -0.00139   0.00239
  17        3PY         0.00017  -0.00067  -0.00029  -0.00125   0.00471
  18        3PZ         0.00006  -0.00022  -0.00014  -0.00053   0.00173
  19        4S         -0.00069   0.00979   0.00951   0.00938  -0.05693
  20        4PX         0.00009   0.00144   0.00119  -0.00004  -0.00841
  21        4PY        -0.00026   0.00216   0.00221   0.00267  -0.01245
  22        4PZ        -0.00027   0.00093   0.00060   0.00191  -0.00549
  23 3   Cl 1S         -0.04514  -0.69207   0.70069   0.03588   0.21600
  24        2S         -0.00248  -0.03730   0.03768  -0.11516  -0.69399
  25        2PX        -0.00005  -0.00008   0.00007  -0.00034  -0.00296
  26        2PY         0.00003   0.00017  -0.00009   0.00077   0.00503
  27        2PZ        -0.00001  -0.00006   0.00005  -0.00041  -0.00264
  28        3S          0.00117   0.01376  -0.01347  -0.01812  -0.10242
  29        3PX         0.00022   0.00030  -0.00025  -0.00136  -0.00228
  30        3PY        -0.00017  -0.00068   0.00031   0.00128   0.00476
  31        3PZ         0.00006   0.00022  -0.00014  -0.00053  -0.00172
  32        4S         -0.00069  -0.00965   0.00965   0.00938   0.05677
  33        4PX         0.00009  -0.00137   0.00116  -0.00009   0.00812
  34        4PY         0.00026   0.00216  -0.00227  -0.00267  -0.01259
  35        4PZ        -0.00027  -0.00092   0.00061   0.00191   0.00548
  36 4   Cl 1S          0.98381   0.00050   0.06390  -0.30169  -0.00009
  37        2S          0.05298   0.00003   0.00336   0.96942   0.00029
  38        2PX        -0.00022   0.00000   0.00005  -0.00835  -0.00000
  39        2PY         0.00000   0.00003  -0.00000   0.00009  -0.00011
  40        2PZ         0.00008  -0.00000  -0.00001   0.00377   0.00000
  41        3S         -0.01931  -0.00001  -0.00082   0.14209   0.00004
  42        3PX         0.00083  -0.00000  -0.00027  -0.00645   0.00001
  43        3PY        -0.00001  -0.00014   0.00000   0.00007   0.00071
  44        3PZ        -0.00026   0.00000   0.00006   0.00221  -0.00000
  45        4S          0.01379   0.00001   0.00079  -0.08011  -0.00002
  46        4PX        -0.00366  -0.00000  -0.00022   0.02136   0.00003
  47        4PY         0.00004  -0.00028   0.00000  -0.00024   0.00179
  48        4PZ         0.00114  -0.00000  -0.00024  -0.00690   0.00000
                           6         7         8         9        10
                           O         O         O         O         O
     Eigenvalues --   -10.54119  -8.00675  -8.00464  -8.00450  -8.00314
   1 1   B  1S         -0.00116   0.00102  -0.00001   0.00157   0.00055
   2        2S         -0.00868   0.00027  -0.00000   0.00026   0.00107
   3        2PX         0.00016   0.00114   0.00002  -0.00064  -0.00061
   4        2PY        -0.00000  -0.00001   0.00119   0.00002   0.00001
   5        2PZ         0.00073  -0.00031   0.00000  -0.00040  -0.00070
   6        3S          0.04731  -0.00903   0.00010  -0.01333  -0.00421
   7        3PX        -0.01075  -0.00939  -0.00016   0.00589   0.00432
   8        3PY         0.00016   0.00010  -0.01089  -0.00015  -0.00005
   9        3PZ        -0.01259   0.00088  -0.00001   0.00108   0.00506
  10 2   Cl 1S         -0.21306   0.00015   0.00248  -0.00237  -0.00004
  11        2S          0.68478  -0.00060  -0.00863   0.00813   0.00010
  12        2PX         0.00308   0.01831   0.32915  -0.33043   0.01139
  13        2PY         0.00518   0.02198   0.55586  -0.54054  -0.01468
  14        2PZ         0.00266   0.00801   0.25094  -0.25356  -0.01981
  15        3S          0.09859   0.00195   0.00597  -0.00317  -0.00007
  16        3PX         0.00193   0.00221   0.02814  -0.02804   0.00143
  17        3PY         0.00264   0.00234   0.04793  -0.04546  -0.00120
  18        3PZ         0.00122   0.00074   0.02144  -0.02157  -0.00177
  19        4S         -0.05598  -0.00340  -0.01232   0.00752   0.00232
  20        4PX        -0.00723  -0.00167  -0.01191   0.01051  -0.00113
  21        4PY        -0.01321  -0.00237  -0.02020   0.01703   0.00207
  22        4PZ        -0.00347  -0.00055  -0.00855   0.00822   0.00077
  23 3   Cl 1S         -0.21369   0.00015  -0.00245  -0.00241  -0.00004
  24        2S          0.68682  -0.00060   0.00851   0.00826   0.00010
  25        2PX         0.00297   0.01780  -0.31199  -0.32303   0.01169
  26        2PY        -0.00526  -0.02235   0.55482   0.55603   0.01443
  27        2PZ         0.00267   0.00800  -0.24715  -0.25725  -0.01980
  28        3S          0.09889   0.00195  -0.00592  -0.00325  -0.00007
  29        3PX         0.00188   0.00216  -0.02667  -0.02742   0.00145
  30        3PY        -0.00270  -0.00239   0.04786   0.04678   0.00117
  31        3PZ         0.00122   0.00074  -0.02111  -0.02189  -0.00177
  32        4S         -0.05615  -0.00340   0.01221   0.00770   0.00232
  33        4PX        -0.00696  -0.00162   0.01130   0.01030  -0.00117
  34        4PY         0.01340   0.00240  -0.02020  -0.01757  -0.00204
  35        4PZ        -0.00348  -0.00055   0.00842   0.00834   0.00077
  36 4   Cl 1S         -0.05087  -0.00347   0.00000  -0.00008   0.00011
  37        2S          0.16367   0.01199  -0.00000   0.00016  -0.00035
  38        2PX        -0.00166   0.90415  -0.00004   0.03178   0.35848
  39        2PY         0.00002  -0.00996   0.02028  -0.00019  -0.00396
  40        2PZ         0.00069  -0.35749   0.00025  -0.03298   0.90510
  41        3S          0.02179  -0.00669  -0.00002   0.00234  -0.00035
  42        3PX         0.00065   0.07709   0.00001   0.00164   0.02916
  43        3PY        -0.00001  -0.00085   0.00211  -0.00000  -0.00032
  44        3PZ        -0.00008  -0.03049   0.00002  -0.00269   0.07366
  45        4S         -0.01354   0.01465   0.00003  -0.00384   0.00004
  46        4PX         0.00394  -0.03101  -0.00002   0.00176  -0.00938
  47        4PY        -0.00005   0.00034  -0.00067  -0.00002   0.00010
  48        4PZ         0.00068   0.01197  -0.00000   0.00061  -0.02332
                          11        12        13        14        15
                           O         O         O         O         O
     Eigenvalues --    -8.00279  -8.00103  -8.00096  -8.00071  -8.00056
   1 1   B  1S          0.00000   0.00001   0.00078   0.00000   0.00006
   2        2S          0.00000   0.00002   0.00154   0.00000   0.00009
   3        2PX        -0.00001   0.00001   0.00051   0.00000  -0.00108
   4        2PY        -0.00095   0.00076  -0.00002   0.00061   0.00001
   5        2PZ        -0.00000  -0.00001  -0.00100  -0.00000  -0.00009
   6        3S         -0.00000  -0.00008  -0.00590  -0.00001  -0.00038
   7        3PX         0.00007  -0.00010  -0.00353  -0.00000   0.00704
   8        3PY         0.00625  -0.00522   0.00012  -0.00389  -0.00005
   9        3PZ         0.00000   0.00010   0.00740   0.00001   0.00063
  10 2   Cl 1S         -0.00003   0.00008   0.00007  -0.00001   0.00001
  11        2S          0.00005  -0.00023  -0.00023   0.00007  -0.00008
  12        2PX         0.02950  -0.03478  -0.19595   0.60825   0.56606
  13        2PY        -0.02284  -0.27003  -0.17470  -0.31461  -0.37843
  14        2PZ        -0.02787   0.64265   0.62684  -0.09845   0.06926
  15        3S          0.00052  -0.00030  -0.00032  -0.00046   0.00044
  16        3PX         0.00318  -0.00261  -0.01606   0.04953   0.04569
  17        3PY        -0.00183  -0.02235  -0.01394  -0.02601  -0.03016
  18        3PZ        -0.00254   0.05240   0.05090  -0.00783   0.00544
  19        4S          0.00138  -0.00140   0.00166  -0.00064   0.00090
  20        4PX        -0.00171  -0.00045   0.00636  -0.01616  -0.01383
  21        4PY         0.00119   0.00718   0.00470   0.00860   0.00925
  22        4PZ         0.00190  -0.01673  -0.01601   0.00165  -0.00092
  23 3   Cl 1S          0.00003  -0.00008   0.00007   0.00001   0.00001
  24        2S         -0.00005   0.00023  -0.00023  -0.00007  -0.00008
  25        2PX        -0.02996   0.02413  -0.19140  -0.60795   0.58228
  26        2PY        -0.02218  -0.26517   0.18715  -0.29582   0.37002
  27        2PZ         0.02785  -0.62482   0.64431   0.10078   0.06872
  28        3S         -0.00052   0.00029  -0.00033   0.00046   0.00043
  29        3PX        -0.00322   0.00173  -0.01569  -0.04952   0.04699
  30        3PY        -0.00176  -0.02196   0.01497  -0.02449   0.02949
  31        3PZ         0.00254  -0.05095   0.05232   0.00801   0.00540
  32        4S         -0.00138   0.00145   0.00162   0.00065   0.00089
  33        4PX         0.00174   0.00077   0.00620   0.01617  -0.01425
  34        4PY         0.00115   0.00702  -0.00506   0.00811  -0.00906
  35        4PZ        -0.00190   0.01628  -0.01647  -0.00170  -0.00091
  36 4   Cl 1S         -0.00000   0.00000   0.00000  -0.00000  -0.00002
  37        2S          0.00000  -0.00000  -0.00005   0.00000   0.00012
  38        2PX         0.01071   0.00048   0.01399  -0.00071  -0.01330
  39        2PY         0.97204   0.02588  -0.00043  -0.05742   0.00049
  40        2PZ         0.00001   0.00030   0.02157  -0.00011  -0.01859
  41        3S          0.00000  -0.00000   0.00004  -0.00000  -0.00085
  42        3PX         0.00087   0.00003   0.00068  -0.00004  -0.00046
  43        3PY         0.07899   0.00162  -0.00002  -0.00366   0.00003
  44        3PZ         0.00000   0.00002   0.00151  -0.00001  -0.00117
  45        4S          0.00000   0.00005   0.00335  -0.00001  -0.00144
  46        4PX        -0.00028  -0.00001  -0.00173  -0.00001   0.00010
  47        4PY        -0.02538   0.00129   0.00000  -0.00042   0.00000
  48        4PZ        -0.00000  -0.00000  -0.00006  -0.00001  -0.00117
                          16        17        18        19        20
                           O         O         O         O         O
     Eigenvalues --    -7.81975  -1.17897  -1.12355  -1.12110  -0.70655
   1 1   B  1S          0.98938  -0.08976   0.00193   0.00000  -0.15846
   2        2S          0.09309   0.11984  -0.00225  -0.00000   0.20091
   3        2PX        -0.00002   0.00407   0.11468   0.00119   0.00307
   4        2PY         0.00000  -0.00003  -0.00121   0.11266  -0.00002
   5        2PZ        -0.00126  -0.04168   0.00064   0.00000  -0.05946
   6        3S         -0.06951   0.13062  -0.00465  -0.00000   0.51025
   7        3PX         0.00012  -0.00112  -0.01100  -0.00011  -0.00007
   8        3PY        -0.00000   0.00001   0.00012  -0.01011   0.00001
   9        3PZ         0.01467  -0.01817   0.00088  -0.00000  -0.07854
  10 2   Cl 1S         -0.00012   0.04088  -0.03362  -0.05604  -0.02005
  11        2S          0.00056  -0.23971   0.19776   0.32971   0.12092
  12        2PX         0.00096  -0.01470   0.00244   0.01313  -0.05679
  13        2PY         0.00158  -0.02429   0.01355   0.01625  -0.09421
  14        2PZ         0.00016  -0.00670   0.00497   0.00823  -0.02281
  15        3S         -0.00492   0.31008  -0.24797  -0.41279  -0.13901
  16        3PX        -0.00031   0.03037  -0.00391  -0.02652   0.12229
  17        3PY        -0.00051   0.05016  -0.02744  -0.03179   0.20285
  18        3PZ         0.00035   0.01250  -0.00971  -0.01611   0.04651
  19        4S          0.01961   0.21802  -0.21934  -0.36848  -0.26431
  20        4PX         0.00496   0.00910  -0.00970  -0.02332   0.04606
  21        4PY         0.00825   0.01475  -0.02294  -0.03490   0.07620
  22        4PZ        -0.00019   0.01032  -0.00969  -0.01610   0.02821
  23 3   Cl 1S         -0.00012   0.04089  -0.03356   0.05606  -0.02005
  24        2S          0.00056  -0.23975   0.19745  -0.32987   0.12093
  25        2PX         0.00092  -0.01416   0.00213  -0.01277  -0.05469
  26        2PY        -0.00160   0.02461  -0.01359   0.01655   0.09546
  27        2PZ         0.00016  -0.00671   0.00497  -0.00823  -0.02281
  28        3S         -0.00492   0.31013  -0.24758   0.41298  -0.13902
  29        3PX        -0.00030   0.02926  -0.00327   0.02581   0.11777
  30        3PY         0.00051  -0.05083   0.02749  -0.03240  -0.20552
  31        3PZ         0.00035   0.01250  -0.00970   0.01612   0.04651
  32        4S          0.01962   0.21806  -0.21899   0.36865  -0.26434
  33        4PX         0.00477   0.00878  -0.00917   0.02255   0.04436
  34        4PY        -0.00836  -0.01495   0.02312  -0.03543  -0.07720
  35        4PZ        -0.00019   0.01032  -0.00968   0.01611   0.02821
  36 4   Cl 1S         -0.00013   0.04373   0.06339  -0.00003  -0.02044
  37        2S          0.00059  -0.25649  -0.37294   0.00019   0.12330
  38        2PX        -0.00188   0.02996   0.02363  -0.00008   0.11346
  39        2PY         0.00002  -0.00033  -0.00026  -0.00574  -0.00125
  40        2PZ         0.00017  -0.00733  -0.00961   0.00000  -0.02389
  41        3S         -0.00498   0.33121   0.46688  -0.00024  -0.14191
  42        3PX         0.00069  -0.06184  -0.04674   0.00016  -0.24441
  43        3PY        -0.00001   0.00068   0.00052   0.01266   0.00270
  44        3PZ         0.00034   0.01375   0.01888  -0.00001   0.04882
  45        4S          0.01975   0.23638   0.41800  -0.00022  -0.26937
  46        4PX        -0.00966  -0.01979  -0.04822   0.00007  -0.09276
  47        4PY         0.00011   0.00022   0.00053   0.00409   0.00102
  48        4PZ        -0.00024   0.01147   0.01865  -0.00001   0.02948
                          21        22        23        24        25
                           O         O         O         O         O
     Eigenvalues --    -0.59399  -0.59302  -0.55326  -0.50153  -0.50039
   1 1   B  1S         -0.00107   0.00000  -0.03023   0.00084   0.00000
   2        2S          0.00034  -0.00000   0.05791  -0.00058   0.00000
   3        2PX        -0.28354   0.00240  -0.00069   0.11247  -0.00112
   4        2PY         0.00246   0.27965   0.00001  -0.00106  -0.11726
   5        2PZ        -0.00048   0.00000   0.14996  -0.00169   0.00000
   6        3S          0.00622  -0.00000   0.02493  -0.00482  -0.00001
   7        3PX        -0.17905   0.00157   0.00008   0.02134  -0.00024
   8        3PY         0.00154   0.18069   0.00000  -0.00019  -0.02449
   9        3PZ        -0.00171  -0.00000   0.17221  -0.00165   0.00000
  10 2   Cl 1S         -0.00720   0.01194  -0.00067   0.00158  -0.00277
  11        2S          0.04371  -0.07252   0.00384  -0.00961   0.01682
  12        2PX         0.04612   0.11657   0.02283   0.12539   0.04109
  13        2PY        -0.11749   0.07943   0.03584  -0.05091  -0.07262
  14        2PZ        -0.02798   0.04728  -0.13700   0.08288  -0.13922
  15        3S         -0.05403   0.08997  -0.01802   0.01656  -0.02907
  16        3PX        -0.10275  -0.25283  -0.05073  -0.27213  -0.09016
  17        3PY         0.25487  -0.16962  -0.07976   0.11156   0.15640
  18        3PZ         0.06036  -0.10207   0.29786  -0.17927   0.30110
  19        4S         -0.09586   0.15851   0.03849   0.00776  -0.01340
  20        4PX        -0.07175  -0.16273  -0.02563  -0.23588  -0.08224
  21        4PY         0.16355  -0.10378  -0.03870   0.09998   0.13227
  22        4PZ         0.03370  -0.05666   0.23106  -0.15395   0.25893
  23 3   Cl 1S         -0.00714  -0.01198  -0.00067   0.00157   0.00277
  24        2S          0.04336   0.07273   0.00384  -0.00955  -0.01685
  25        2PX         0.04927  -0.11454   0.02203   0.12660  -0.04229
  26        2PY         0.11604   0.08255  -0.03634   0.04834  -0.07154
  27        2PZ        -0.02775  -0.04741  -0.13701   0.08244   0.13947
  28        3S         -0.05360  -0.09023  -0.01802   0.01647   0.02912
  29        3PX        -0.10957   0.24848  -0.04896  -0.27479   0.09275
  30        3PY        -0.25169  -0.17639   0.08087  -0.10598   0.15403
  31        3PZ         0.05987   0.10236   0.29788  -0.17833  -0.30165
  32        4S         -0.09508  -0.15896   0.03849   0.00771   0.01342
  33        4PX        -0.07612   0.16002  -0.02477  -0.23828   0.08441
  34        4PY        -0.16140  -0.10814   0.03926  -0.09513   0.13011
  35        4PZ         0.03343   0.05682   0.23108  -0.15314  -0.25940
  36 4   Cl 1S          0.01382   0.00003  -0.00066  -0.00299  -0.00000
  37        2S         -0.08397  -0.00020   0.00378   0.01818   0.00003
  38        2PX        -0.14952  -0.00170  -0.04557   0.04234  -0.00167
  39        2PY         0.00194  -0.12131   0.00051  -0.00021  -0.15762
  40        2PZ         0.05741   0.00014  -0.14272  -0.15938  -0.00026
  41        3S          0.10421   0.00025  -0.01808  -0.03148  -0.00005
  42        3PX         0.32177   0.00372   0.10125  -0.09031   0.00364
  43        3PY        -0.00419   0.26600  -0.00112   0.00043   0.34296
  44        3PZ        -0.12402  -0.00030   0.31038   0.34486   0.00056
  45        4S          0.18296   0.00044   0.03919  -0.01343  -0.00001
  46        4PX         0.20206   0.00245   0.05150  -0.07278   0.00319
  47        4PY        -0.00266   0.17753  -0.00058   0.00031   0.29957
  48        4PZ        -0.06960  -0.00017   0.24105   0.29658   0.00048
                          26        27        28        29        30
                           O         O         O         V         V
     Eigenvalues --    -0.48307  -0.48189  -0.47366  -0.03863   0.16639
   1 1   B  1S         -0.00013  -0.00000   0.00000  -0.10711  -0.18722
   2        2S         -0.00054  -0.00000   0.00000   0.10013   0.16455
   3        2PX        -0.08192  -0.00077   0.00010  -0.00061  -0.03284
   4        2PY         0.00077  -0.08182   0.00718  -0.00000   0.00007
   5        2PZ        -0.00036   0.00000  -0.00000   0.36178  -0.30327
   6        3S          0.00355   0.00000  -0.00000   0.69288   1.99352
   7        3PX         0.07561   0.00067  -0.00008   0.00125  -0.10233
   8        3PY        -0.00072   0.07144  -0.00543  -0.00003   0.00025
   9        3PZ        -0.00239   0.00000   0.00000   0.53109  -0.93739
  10 2   Cl 1S         -0.00016  -0.00022  -0.00003  -0.00566  -0.01516
  11        2S          0.00088   0.00115   0.00018   0.03479   0.09684
  12        2PX        -0.12398  -0.02570  -0.14665   0.02110   0.05037
  13        2PY        -0.01084  -0.13059   0.09798   0.03481   0.08930
  14        2PZ         0.07559   0.12839  -0.00551   0.08330  -0.00117
  15        3S         -0.00647  -0.01071   0.00033  -0.05616  -0.05821
  16        3PX         0.27212   0.05550   0.32279  -0.04684  -0.10294
  17        3PY         0.02287   0.28558  -0.21553  -0.07728  -0.18278
  18        3PZ        -0.16546  -0.28102   0.01211  -0.18052   0.00546
  19        4S          0.02530   0.04393  -0.00352  -0.06514  -0.69719
  20        4PX         0.22480   0.06172   0.26648  -0.05470  -0.36131
  21        4PY         0.03438   0.25388  -0.17992  -0.09003  -0.63771
  22        4PZ        -0.13481  -0.22983   0.00954  -0.26108  -0.03036
  23 3   Cl 1S         -0.00016   0.00022   0.00003  -0.00566  -0.01514
  24        2S          0.00087  -0.00115  -0.00018   0.03478   0.09672
  25        2PX        -0.12357   0.02322   0.14885   0.02032   0.04830
  26        2PY         0.01319  -0.13116   0.09470  -0.03526  -0.09033
  27        2PZ         0.07515  -0.12864   0.00549   0.08330  -0.00123
  28        3S         -0.00643   0.01073  -0.00032  -0.05616  -0.05812
  29        3PX         0.27123  -0.05007  -0.32764  -0.04510  -0.09870
  30        3PY        -0.02804   0.28682  -0.20832   0.07829   0.18488
  31        3PZ        -0.16451   0.28156  -0.01207  -0.18052   0.00559
  32        4S          0.02515  -0.04402   0.00351  -0.06513  -0.69630
  33        4PX         0.22368  -0.05683  -0.27053  -0.05268  -0.34654
  34        4PY        -0.03858   0.25531  -0.17396   0.09120   0.64501
  35        4PZ        -0.13404   0.23026  -0.00950  -0.26108  -0.02999
  36 4   Cl 1S          0.00018  -0.00000   0.00000  -0.00570  -0.01348
  37        2S         -0.00085   0.00000  -0.00000   0.03500   0.08615
  38        2PX        -0.14313  -0.00113  -0.00170  -0.04005  -0.09355
  39        2PY         0.00134  -0.12431  -0.15769   0.00044   0.00100
  40        2PZ        -0.14529   0.00024   0.00002   0.08399  -0.00733
  41        3S          0.01191  -0.00002   0.00000  -0.05652  -0.05120
  42        3PX         0.31284   0.00249   0.00375   0.08907   0.19184
  43        3PY        -0.00292   0.27362   0.34730  -0.00098  -0.00204
  44        3PZ         0.31812  -0.00053  -0.00005  -0.18212   0.01840
  45        4S         -0.05448   0.00009   0.00001  -0.06663  -0.61610
  46        4PX         0.28618   0.00191   0.00310   0.10394   0.66555
  47        4PY        -0.00274   0.21690   0.28771  -0.00114  -0.00712
  48        4PZ         0.25908  -0.00043  -0.00004  -0.26423   0.00639
                          31        32        33        34        35
                           V         V         V         V         V
     Eigenvalues --     0.17800   0.18147   0.56328   0.56417   0.57133
   1 1   B  1S         -0.00010  -0.01237   0.00379  -0.00001   0.04489
   2        2S          0.00009   0.01064  -0.02946   0.00004  -0.31719
   3        2PX         0.00467   0.47070  -1.08389  -0.01352   0.04950
   4        2PY         0.47266  -0.00466   0.01351  -1.08311  -0.00081
   5        2PZ        -0.00015  -0.02049  -0.04316   0.00020  -1.05910
   6        3S          0.00116   0.14749  -0.02367   0.00011  -0.24294
   7        3PX         0.01564   1.60650   1.79851   0.02244  -0.07997
   8        3PY         1.58225  -0.01591  -0.02235   1.79260   0.00130
   9        3PZ        -0.00051  -0.06660   0.05923  -0.00025   1.26342
  10 2   Cl 1S          0.01614   0.00839   0.00212   0.00511  -0.00598
  11        2S         -0.10299  -0.05361  -0.01458  -0.03386   0.03566
  12        2PX        -0.06317   0.01860   0.05947   0.00883  -0.00054
  13        2PY        -0.05397  -0.05641   0.00810   0.06849   0.00401
  14        2PZ        -0.05079  -0.02987  -0.00935  -0.01756   0.03827
  15        3S          0.07014   0.03614   0.02366   0.08392  -0.18626
  16        3PX         0.12829  -0.04172  -0.16679  -0.01355  -0.00021
  17        3PY         0.10578   0.11440  -0.01279  -0.17979  -0.01486
  18        3PZ         0.10716   0.06322   0.03682   0.06786  -0.11539
  19        4S          0.80617   0.43056   0.37244   0.57361   0.37521
  20        4PX         0.48357  -0.07893  -0.04562   0.23270   0.09829
  21        4PY         0.47455   0.43948   0.24552   0.20434   0.15100
  22        4PZ         0.31629   0.18529   0.04753   0.08628  -0.07016
  23 3   Cl 1S         -0.01617   0.00836   0.00213  -0.00510  -0.00599
  24        2S          0.10323  -0.05337  -0.01467   0.03378   0.03568
  25        2PX         0.06196   0.01999   0.05929  -0.00715  -0.00062
  26        2PY        -0.05559   0.05586  -0.00960   0.06864  -0.00396
  27        2PZ         0.05086  -0.02975  -0.00940   0.01752   0.03828
  28        3S         -0.07028   0.03598   0.02388  -0.08369  -0.18634
  29        3PX        -0.12592  -0.04452  -0.16647   0.00912   0.00012
  30        3PY         0.10908  -0.11320   0.01697  -0.18000   0.01476
  31        3PZ        -0.10730   0.06297   0.03700  -0.06771  -0.11542
  32        4S         -0.80808   0.42866   0.37400  -0.57284   0.37499
  33        4PX        -0.47318  -0.08976  -0.05045  -0.22832   0.09482
  34        4PY         0.48697  -0.43649  -0.24499   0.20881  -0.15304
  35        4PZ        -0.31677   0.18455   0.04775  -0.08610  -0.07020
  36 4   Cl 1S          0.00001  -0.01988  -0.00640  -0.00001  -0.00552
  37        2S         -0.00009   0.12698   0.04197   0.00005   0.03263
  38        2PX         0.00064  -0.09640   0.07167   0.00071  -0.00788
  39        2PY         0.05311   0.00112  -0.00087   0.05490   0.00010
  40        2PZ        -0.00007   0.05867   0.02175   0.00003   0.03674
  41        3S          0.00008  -0.08598  -0.11890  -0.00010  -0.17719
  42        3PX        -0.00134   0.19184  -0.17859  -0.00205   0.02437
  43        3PY        -0.11188  -0.00223   0.00221  -0.16075  -0.00032
  44        3PZ         0.00015  -0.12356  -0.08372  -0.00010  -0.10984
  45        4S          0.00069  -1.00447  -0.63310  -0.00110   0.42027
  46        4PX        -0.00427   0.81674   0.30951  -0.00156  -0.20137
  47        4PY        -0.34404  -0.00938  -0.00315  -0.19067   0.00218
  48        4PZ         0.00040  -0.37566  -0.10026  -0.00014  -0.06465
                          36        37        38        39        40
                           V         V         V         V         V
     Eigenvalues --     0.64149   0.73126   0.73210   0.74874   0.74878
   1 1   B  1S          0.06116   0.00086  -0.00000   0.00034  -0.00000
   2        2S         -0.59994  -0.00770   0.00009   0.00391   0.00009
   3        2PX         0.01619   0.14680   0.00131  -0.02619   0.00000
   4        2PY        -0.00020  -0.00116   0.15610   0.00013   0.02424
   5        2PZ         0.22763   0.00183  -0.00000   0.00852   0.00011
   6        3S         -0.26695   0.03782  -0.00036   0.10330   0.00133
   7        3PX        -0.02597  -0.94182  -0.00791   0.40901  -0.00088
   8        3PY         0.00028   0.00755  -0.95121  -0.00130  -0.40747
   9        3PZ         0.05006  -0.01111   0.00010  -0.05872  -0.00078
  10 2   Cl 1S         -0.03382   0.01984   0.03466   0.00489  -0.00975
  11        2S          0.20590  -0.12021  -0.21018  -0.03033   0.06071
  12        2PX        -0.00538   0.09337   0.01904  -0.14378  -0.16246
  13        2PY        -0.00558   0.01299   0.11794   0.14859  -0.04585
  14        2PZ        -0.06080   0.05649   0.09651  -0.03130   0.06363
  15        3S         -0.96011   0.57626   1.00158   0.12015  -0.22914
  16        3PX         0.00043  -0.33667  -0.05951   0.49979   0.56556
  17        3PY        -0.01011  -0.03836  -0.41496  -0.51637   0.16075
  18        3PZ         0.19522  -0.19179  -0.32784   0.10724  -0.21901
  19        4S          1.00733  -0.78633  -1.34559  -0.04468   0.05058
  20        4PX         0.09293   0.39083  -0.12600  -0.48561  -0.60495
  21        4PY         0.15601  -0.14995   0.27150   0.53573  -0.22739
  22        4PZ        -0.11697   0.10623   0.18387  -0.06914   0.15480
  23 3   Cl 1S         -0.03382   0.01964  -0.03477   0.00472   0.00982
  24        2S          0.20592  -0.11901   0.21086  -0.02923  -0.06113
  25        2PX        -0.00525   0.09303  -0.01689  -0.14972   0.15881
  26        2PY         0.00571  -0.01439   0.11843  -0.14448  -0.05171
  27        2PZ        -0.06079   0.05591  -0.09683  -0.03027  -0.06410
  28        3S         -0.96020   0.57049  -1.00485   0.11592   0.23087
  29        3PX         0.00064  -0.33567   0.05202   0.52048  -0.55284
  30        3PY         0.01007   0.04347  -0.41649   0.50204   0.18112
  31        3PZ         0.19522  -0.18981   0.32893   0.10372   0.22064
  32        4S          1.00744  -0.77847   1.35015  -0.04331  -0.05125
  33        4PX         0.08947   0.39508   0.12995  -0.50728   0.59081
  34        4PY        -0.15802   0.14269   0.26784  -0.52063  -0.24883
  35        4PZ        -0.11695   0.10513  -0.18447  -0.06665  -0.15576
  36 4   Cl 1S         -0.03307  -0.04034   0.00012  -0.01120  -0.00009
  37        2S          0.20123   0.24473  -0.00073   0.06995   0.00056
  38        2PX         0.00477   0.13648   0.00051   0.15764   0.00395
  39        2PY        -0.00004  -0.00122   0.08706  -0.00369   0.23288
  40        2PZ        -0.06199  -0.11210   0.00030   0.08087   0.00074
  41        3S         -0.94565  -1.16303   0.00341  -0.25524  -0.00196
  42        3PX         0.01786  -0.47535  -0.00196  -0.55093  -0.01378
  43        3PY        -0.00023   0.00421  -0.31920   0.01288  -0.81020
  44        3PZ         0.19942   0.38082  -0.00103  -0.27897  -0.00256
  45        4S          1.01537   1.55349  -0.00440   0.01572  -0.00028
  46        4PX        -0.20114   0.22954   0.00448   0.66365   0.01490
  47        4PY         0.00224  -0.00102   0.49040  -0.01408   0.81132
  48        4PZ        -0.11605  -0.21421   0.00059   0.20357   0.00190
                          41        42        43        44        45
                           V         V         V         V         V
     Eigenvalues --     0.75556   0.81058   0.84313   0.84388   0.88903
   1 1   B  1S         -0.00031  -0.00454   0.00008   0.00000   0.00000
   2        2S         -0.03407  -0.11043   0.00461  -0.00003   0.00000
   3        2PX        -0.00760  -0.00655  -0.20766  -0.00167   0.00000
   4        2PY         0.00009   0.00006   0.00168  -0.20610  -0.00027
   5        2PZ         0.08080  -0.22227  -0.00097   0.00002   0.00000
   6        3S          1.20680   1.44471   0.01974  -0.00015  -0.00000
   7        3PX        -0.00582   0.01443   1.23824   0.00986   0.00018
   8        3PY         0.00016  -0.00004  -0.01005   1.21881   0.01352
   9        3PZ        -0.63761   0.26131  -0.00402  -0.00001   0.00000
  10 2   Cl 1S         -0.00626   0.01030  -0.00436  -0.00764  -0.00015
  11        2S          0.04086  -0.06047   0.02511   0.04403   0.00086
  12        2PX        -0.08474  -0.04103  -0.08998   0.03189   0.17389
  13        2PY        -0.17604  -0.06869   0.03267  -0.05097  -0.10128
  14        2PZ         0.07302  -0.17361   0.12550   0.21629   0.00094
  15        3S         -0.08129   0.39433  -0.17517  -0.30617  -0.00557
  16        3PX         0.30051   0.15283   0.33542  -0.11941  -0.63464
  17        3PY         0.62092   0.25531  -0.12215   0.18967   0.36965
  18        3PZ        -0.25726   0.62429  -0.45125  -0.77784  -0.00349
  19        4S         -0.26257  -0.67390   0.46546   0.80040   0.01146
  20        4PX        -0.43436  -0.27991  -0.43370   0.35022   0.71856
  21        4PY        -0.83300  -0.46183   0.35162  -0.03324  -0.41496
  22        4PZ         0.25212  -0.76846   0.56022   0.96323   0.00562
  23 3   Cl 1S         -0.00628   0.01030  -0.00431   0.00766   0.00015
  24        2S          0.04095  -0.06047   0.02484  -0.04415  -0.00085
  25        2PX        -0.08098  -0.03951  -0.09087  -0.03245  -0.17608
  26        2PY         0.17794   0.06958  -0.03097  -0.05007  -0.09742
  27        2PZ         0.07306  -0.17365   0.12421  -0.21700  -0.00094
  28        3S         -0.08169   0.39438  -0.17330   0.30706   0.00556
  29        3PX         0.28722   0.14716   0.33874   0.12151   0.64264
  30        3PY        -0.62768  -0.25862   0.11580   0.18632   0.35557
  31        3PZ        -0.25739   0.62444  -0.44664   0.78039   0.00348
  32        4S         -0.26227  -0.67406   0.46061  -0.80296  -0.01144
  33        4PX        -0.41632  -0.26967  -0.44345  -0.34815  -0.72755
  34        4PY         0.84271   0.46795  -0.34206  -0.02352  -0.39903
  35        4PZ         0.25222  -0.76865   0.55449  -0.96639  -0.00561
  36 4   Cl 1S         -0.00298   0.01090   0.00915  -0.00003   0.00000
  37        2S          0.02077  -0.06403  -0.05277   0.00016  -0.00000
  38        2PX         0.17105   0.07906  -0.03131  -0.00113   0.00221
  39        2PY        -0.00198  -0.00088   0.00003  -0.10940   0.19872
  40        2PZ         0.07016  -0.17062  -0.24944   0.00075  -0.00000
  41        3S          0.00686   0.41404   0.36591  -0.00110   0.00001
  42        3PX        -0.60508  -0.29435   0.11618   0.00420  -0.00807
  43        3PY         0.00701   0.00327  -0.00011   0.40823  -0.72550
  44        3PZ        -0.24765   0.61411   0.89758  -0.00270   0.00000
  45        4S         -0.34894  -0.70881  -0.95862   0.00284  -0.00002
  46        4PX         0.85913   0.54538   0.18428  -0.00770   0.00910
  47        4PY        -0.00978  -0.00604  -0.00389  -0.64477   0.81798
  48        4PZ         0.24583  -0.76400  -1.11891   0.00335  -0.00001
                          46        47        48
                           V         V         V
     Eigenvalues --     1.01826   1.02075   1.16673
   1 1   B  1S         -0.00216   0.00001  -0.09583
   2        2S         -0.02445   0.00013  -2.00155
   3        2PX        -0.17550  -0.00147   0.00896
   4        2PY         0.00137  -0.18147  -0.00009
   5        2PZ         0.00085  -0.00001   0.22320
   6        3S          0.04340  -0.00026   5.03743
   7        3PX        -0.95923  -0.00729   0.00166
   8        3PY         0.00772  -0.93079   0.00003
   9        3PZ        -0.01191   0.00007  -1.58457
  10 2   Cl 1S          0.01920   0.03268   0.01443
  11        2S         -0.11548  -0.19674  -0.07873
  12        2PX        -0.10691  -0.06179   0.00357
  13        2PY        -0.05994  -0.17511   0.00682
  14        2PZ        -0.01708  -0.02947   0.02664
  15        3S          0.68282   1.15891   0.75152
  16        3PX         0.40608   0.24970  -0.00547
  17        3PY         0.24230   0.68222  -0.01264
  18        3PZ         0.06925   0.11957  -0.11590
  19        4S         -1.01599  -1.69867  -2.05009
  20        4PX        -0.51949  -0.54491  -0.50909
  21        4PY        -0.54403  -1.11711  -0.84290
  22        4PZ        -0.17088  -0.28855   0.09116
  23 3   Cl 1S          0.01900  -0.03280   0.01443
  24        2S         -0.11426   0.19746  -0.07872
  25        2PX        -0.10521   0.05855   0.00343
  26        2PY         0.06117  -0.17681  -0.00691
  27        2PZ        -0.01690   0.02957   0.02664
  28        3S          0.67566  -1.16319   0.75144
  29        3PX         0.39921  -0.23699  -0.00525
  30        3PY        -0.24689   0.68911   0.01279
  31        3PZ         0.06851  -0.11998  -0.11587
  32        4S         -1.00549   1.70511  -2.05006
  33        4PX        -0.50418   0.52318  -0.49021
  34        4PY         0.54832  -1.13238   0.85393
  35        4PZ        -0.16908   0.28961   0.09113
  36 4   Cl 1S         -0.03770   0.00012   0.01517
  37        2S          0.22696  -0.00071  -0.08320
  38        2PX        -0.20949  -0.00011  -0.00299
  39        2PY         0.00210  -0.06910   0.00004
  40        2PZ         0.03466  -0.00011   0.02593
  41        3S         -1.33775   0.00420   0.77631
  42        3PX         0.82151   0.00024  -0.00342
  43        3PY        -0.00830   0.25404   0.00000
  44        3PZ        -0.14100   0.00044  -0.11375
  45        4S          1.97087  -0.00616  -2.09845
  46        4PX        -1.42780   0.00239   1.01508
  47        4PY         0.01521  -0.18728  -0.01114
  48        4PZ         0.34385  -0.00107   0.08823
     Density Matrix:
                           1         2         3         4         5
   1 1   B  1S          2.02593
   2        2S          0.09554   0.13371
   3        2PX        -0.00045   0.00138   0.22590
   4        2PY         0.00000  -0.00001  -0.00003   0.22280
   5        2PZ         0.01477  -0.01677  -0.00081   0.00001   0.05554
   6        3S         -0.32447   0.22522  -0.00210   0.00003  -0.06379
   7        3PX         0.00082  -0.00045   0.09134   0.00002   0.00016
   8        3PY        -0.00001   0.00001   0.00002   0.09270  -0.00000
   9        3PZ         0.04683  -0.01292   0.00033  -0.00000   0.06243
  10 2   Cl 1S         -0.00067   0.00704  -0.00324  -0.00542  -0.00170
  11        2S          0.00482  -0.01999   0.01775   0.02981   0.00790
  12        2PX         0.02006  -0.02420   0.02198   0.06181   0.01498
  13        2PY         0.03337  -0.04031   0.06145   0.08793   0.02516
  14        2PZ         0.01742  -0.02508   0.02450   0.04113  -0.03918
  15        3S         -0.02129   0.01493  -0.02017  -0.03375  -0.01489
  16        3PX        -0.04219   0.05038  -0.04853  -0.13008  -0.03143
  17        3PY        -0.07012   0.08423  -0.12932  -0.18738  -0.05283
  18        3PZ        -0.03471   0.05685  -0.05039  -0.08459   0.08333
  19        4S          0.08062  -0.04403   0.00155   0.00154   0.02444
  20        4PX        -0.00515   0.01882  -0.05172  -0.08280  -0.01327
  21        4PY        -0.00832   0.03151  -0.08187  -0.14040  -0.02251
  22        4PZ        -0.02547   0.04093  -0.03450  -0.05803   0.06568
  23 3   Cl 1S         -0.00067   0.00704  -0.00312   0.00549  -0.00170
  24        2S          0.00482  -0.01999   0.01709  -0.03020   0.00790
  25        2PX         0.01932  -0.02330   0.01928  -0.06029   0.01442
  26        2PY        -0.03381   0.04084  -0.05993   0.09063  -0.02549
  27        2PZ         0.01742  -0.02508   0.02359  -0.04166  -0.03918
  28        3S         -0.02130   0.01493  -0.01942   0.03419  -0.01489
  29        3PX        -0.04062   0.04850  -0.04286   0.12688  -0.03025
  30        3PY         0.07104  -0.08533   0.12613  -0.19306   0.05352
  31        3PZ        -0.03471   0.05685  -0.04851   0.08569   0.08334
  32        4S          0.08063  -0.04403   0.00151  -0.00158   0.02444
  33        4PX        -0.00497   0.01811  -0.04812   0.08075  -0.01277
  34        4PY         0.00843  -0.03192   0.07983  -0.14400   0.02281
  35        4PZ        -0.02547   0.04093  -0.03321   0.05878   0.06568
  36 4   Cl 1S         -0.00076   0.00722   0.00654  -0.00007  -0.00180
  37        2S          0.00527  -0.02073  -0.03570   0.00039   0.00835
  38        2PX        -0.03940   0.04846   0.12582  -0.00157  -0.03064
  39        2PY         0.00043  -0.00053  -0.00156  -0.01593   0.00034
  40        2PZ         0.01765  -0.02569  -0.04865   0.00054  -0.03983
  41        3S         -0.02195   0.01571   0.04068  -0.00045  -0.01540
  42        3PX         0.08290  -0.10083  -0.26676   0.00329   0.06420
  43        3PY        -0.00091   0.00111   0.00328   0.03123  -0.00071
  44        3PZ        -0.03519   0.05814   0.09994  -0.00110   0.08480
  45        4S          0.08100  -0.04409  -0.00166   0.00001   0.02438
  46        4PX         0.00980  -0.03802  -0.18978   0.00209   0.02799
  47        4PY        -0.00011   0.00042   0.00208  -0.00137  -0.00031
  48        4PZ        -0.02579   0.04172   0.06802  -0.00075   0.06676
                           6         7         8         9        10
   6        3S          0.57229
   7        3PX        -0.00212   0.07841
   8        3PY         0.00003   0.00001   0.07862
   9        3PZ        -0.08008   0.00023  -0.00000   0.07334
  10 2   Cl 1S         -0.03805   0.01313   0.02190   0.00896   2.14428
  11        2S          0.11843  -0.04011  -0.06685  -0.02438  -0.57420
  12        2PX        -0.05173  -0.02456   0.02671   0.01454   0.00248
  13        2PY        -0.08500   0.02685   0.00467   0.02418   0.00410
  14        2PZ        -0.03301   0.01820   0.03025  -0.03520   0.00226
  15        3S         -0.05089   0.02108   0.03529   0.00162  -0.02877
  16        3PX         0.13454   0.06588  -0.08364  -0.03811  -0.00667
  17        3PY         0.22029  -0.08383  -0.02531  -0.06297  -0.01105
  18        3PZ         0.06697  -0.05553  -0.09216   0.09669  -0.00573
  19        4S         -0.21781   0.04540   0.07448   0.04861   0.16569
  20        4PX         0.04947   0.04945  -0.04805  -0.01604   0.00921
  21        4PY         0.07841  -0.04787  -0.00370  -0.02624   0.01543
  22        4PZ         0.04379  -0.03902  -0.06478   0.07564   0.00431
  23 3   Cl 1S         -0.03805   0.01264  -0.02219   0.00896   0.00001
  24        2S          0.11843  -0.03862   0.06772  -0.02437   0.00004
  25        2PX        -0.04983  -0.02574  -0.02604   0.01400  -0.00052
  26        2PY         0.08612  -0.02617   0.00585  -0.02450  -0.00148
  27        2PZ        -0.03302   0.01752  -0.03065  -0.03520  -0.00013
  28        3S         -0.05089   0.02030  -0.03575   0.00162   0.00136
  29        3PX         0.12961   0.06955   0.08155  -0.03670   0.00128
  30        3PY        -0.22322   0.08173  -0.02898   0.06381   0.00256
  31        3PZ         0.06699  -0.05347   0.09336   0.09668   0.00051
  32        4S         -0.21782   0.04374  -0.07548   0.04861  -0.00082
  33        4PX         0.04771   0.05155   0.04682  -0.01546  -0.00015
  34        4PY        -0.07948   0.04664  -0.00580   0.02659   0.00228
  35        4PZ         0.04380  -0.03757   0.06562   0.07564  -0.00116
  36 4   Cl 1S         -0.03899  -0.02603   0.00029   0.00925   0.00001
  37        2S          0.12133   0.07930  -0.00088  -0.02526   0.00003
  38        2PX         0.09720   0.01895  -0.00065  -0.02794  -0.00102
  39        2PY        -0.00107  -0.00065  -0.04016   0.00031  -0.00117
  40        2PZ        -0.03240  -0.03524   0.00039  -0.03542  -0.00014
  41        3S         -0.05218  -0.04160   0.00046   0.00200   0.00132
  42        3PX        -0.25502  -0.07204   0.00206   0.07366   0.00159
  43        3PY         0.00280   0.00207   0.11531  -0.00081   0.00239
  44        3PZ         0.06614   0.10808  -0.00119   0.09722   0.00054
  45        4S         -0.22118  -0.08780   0.00096   0.04966  -0.00075
  46        4PX        -0.08820  -0.02960   0.00117   0.03029   0.00193
  47        4PY         0.00096   0.00117   0.07686  -0.00033   0.00083
  48        4PZ         0.04278   0.07558  -0.00083   0.07588  -0.00120
                          11        12        13        14        15
  11        2S          2.39405
  12        2PX        -0.01350   2.04737
  13        2PY        -0.02230  -0.01842   2.02799
  14        2PZ        -0.01277  -0.00989  -0.01638   2.03970
  15        3S         -0.29183   0.02106   0.03463   0.02154   0.76203
  16        3PX         0.03150  -0.17105   0.04135   0.02236  -0.03069
  17        3PY         0.05204   0.04137  -0.12752   0.03702  -0.05012
  18        3PZ         0.02920   0.02222   0.03678  -0.15277  -0.03700
  19        4S         -0.68598   0.02205   0.03689   0.02056   0.63493
  20        4PX        -0.01394  -0.30770   0.04017   0.02102  -0.01428
  21        4PY        -0.02364   0.04007  -0.26549   0.03489  -0.02300
  22        4PZ        -0.00114   0.01900   0.03160  -0.30014  -0.02104
  23 3   Cl 1S          0.00004  -0.00048   0.00149  -0.00013   0.00136
  24        2S         -0.00121   0.00293  -0.01025   0.00073  -0.00183
  25        2PX         0.00315  -0.00057   0.00134   0.00144  -0.00346
  26        2PY         0.01019  -0.00085   0.02142   0.00202  -0.00251
  27        2PZ         0.00073   0.00139  -0.00205  -0.01111   0.00100
  28        3S         -0.00183  -0.00340   0.00259   0.00100   0.00082
  29        3PX        -0.00746   0.00162  -0.00332  -0.00246   0.00680
  30        3PY        -0.02133   0.00255  -0.04660  -0.00394   0.01361
  31        3PZ        -0.00224  -0.00234   0.00434   0.02429  -0.00495
  32        4S          0.00319  -0.00992   0.05670  -0.01120  -0.00650
  33        4PX        -0.00296   0.00012   0.00158  -0.01250   0.00259
  34        4PY        -0.01570   0.00391  -0.07447  -0.00028   0.01085
  35        4PZ         0.00201  -0.00964   0.00548   0.02530  -0.00443
  36 4   Cl 1S          0.00003   0.00153   0.00027  -0.00014   0.00130
  37        2S         -0.00110  -0.01034  -0.00224   0.00078  -0.00178
  38        2PX         0.00723   0.01605   0.00809   0.00093  -0.00048
  39        2PY         0.00768   0.01066   0.00479   0.00231  -0.00412
  40        2PZ         0.00079  -0.00245   0.00034  -0.01112   0.00109
  41        3S         -0.00183   0.00388  -0.00169   0.00105   0.00090
  42        3PX        -0.01475  -0.03499  -0.01713  -0.00194   0.00824
  43        3PY        -0.01687  -0.02383  -0.01001  -0.00422   0.01205
  44        3PZ        -0.00239   0.00491  -0.00020   0.02432  -0.00517
  45        4S          0.00292   0.05473   0.01778  -0.01184  -0.00636
  46        4PX        -0.01169  -0.05927  -0.02789   0.00642   0.00775
  47        4PY        -0.00979  -0.03155  -0.01498  -0.01129   0.00698
  48        4PZ         0.00205   0.00936  -0.00631   0.02517  -0.00462
                          16        17        18        19        20
  16        3PX         0.72714
  17        3PY        -0.08736   0.63529
  18        3PZ        -0.04787  -0.07918   0.68224
  19        4S         -0.08162  -0.13615  -0.06916   0.69433
  20        4PX         0.55278  -0.10406  -0.05313  -0.02279   0.44758
  21        4PY        -0.10387   0.44327  -0.08822  -0.03784  -0.09551
  22        4PZ        -0.04918  -0.08181   0.53782  -0.03593  -0.04807
  23 3   Cl 1S          0.00123  -0.00259   0.00051  -0.00082  -0.00021
  24        2S         -0.00699   0.02149  -0.00224   0.00319  -0.00261
  25        2PX         0.00161  -0.00362  -0.00244  -0.01118  -0.00004
  26        2PY         0.00225  -0.04659  -0.00428  -0.05646  -0.00324
  27        2PZ        -0.00237   0.00399   0.02429  -0.01119  -0.01249
  28        3S          0.00650  -0.01376  -0.00495  -0.00650   0.00235
  29        3PX        -0.00564   0.00970   0.00255   0.03414   0.00330
  30        3PY        -0.00718   0.10800   0.00767   0.11586   0.00694
  31        3PZ         0.00238  -0.00772  -0.05377   0.03952   0.03524
  32        4S          0.03156  -0.11659   0.03953   0.02775   0.03188
  33        4PX         0.00291  -0.00358   0.03517   0.03336   0.01129
  34        4PY        -0.01091   0.15442  -0.00349   0.06639  -0.00495
  35        4PZ         0.02450  -0.01299  -0.05389   0.02905   0.04489
  36 4   Cl 1S         -0.00287  -0.00014   0.00054  -0.00070  -0.00169
  37        2S          0.02211   0.00395  -0.00238   0.00276   0.01442
  38        2PX        -0.03468  -0.01728  -0.00226  -0.04323  -0.05284
  39        2PY        -0.02395  -0.01024  -0.00436  -0.03720  -0.03539
  40        2PZ         0.00462  -0.00039   0.02431  -0.01193   0.00607
  41        3S         -0.01487  -0.00097  -0.00511  -0.00626  -0.01027
  42        3PX         0.08029   0.03907   0.00478   0.08389   0.10938
  43        3PY         0.05766   0.02198   0.00626   0.08671   0.07447
  44        3PZ        -0.00792  -0.00114  -0.05382   0.04145  -0.01355
  45        4S         -0.11868  -0.02656   0.04146   0.02802  -0.07480
  46        4PX         0.12525   0.05431  -0.02159   0.04069   0.12394
  47        4PY         0.06478   0.03219   0.02956   0.06166   0.07207
  48        4PZ        -0.02302   0.01631  -0.05357   0.03035  -0.02329
                          21        22        23        24        25
  21        4PY         0.34729
  22        4PZ        -0.08012   0.44310
  23 3   Cl 1S         -0.00227  -0.00116   2.14428
  24        2S          0.01576   0.00201  -0.57420   2.39405
  25        2PX        -0.00556  -0.00976   0.00239  -0.01300   2.04818
  26        2PY        -0.07432  -0.00526  -0.00415   0.02259   0.01797
  27        2PZ         0.00056   0.02530   0.00226  -0.01277  -0.00952
  28        3S         -0.01090  -0.00443  -0.02877  -0.29183   0.02029
  29        3PX         0.01426   0.02478  -0.00642   0.03033  -0.17287
  30        3PY         0.15403   0.01244   0.01119  -0.05272  -0.04036
  31        3PZ         0.00271  -0.05389  -0.00573   0.02920   0.02140
  32        4S         -0.06711   0.02905   0.16569  -0.68598   0.02122
  33        4PX         0.00827   0.04495   0.00887  -0.01342  -0.30946
  34        4PY         0.16084   0.00201  -0.01563   0.02395  -0.03909
  35        4PZ        -0.00301  -0.05306   0.00431  -0.00114   0.01830
  36 4   Cl 1S         -0.00123  -0.00123   0.00001   0.00003   0.00152
  37        2S          0.00499   0.00217   0.00003  -0.00110  -0.01029
  38        2PX        -0.03155   0.00046  -0.00099   0.00706   0.01563
  39        2PY        -0.02113  -0.01126   0.00119  -0.00784  -0.01090
  40        2PZ        -0.01127   0.02517  -0.00014   0.00079  -0.00246
  41        3S         -0.00313  -0.00465   0.00132  -0.00183   0.00392
  42        3PX         0.06380  -0.00190   0.00154  -0.01438  -0.03407
  43        3PY         0.04765   0.02811  -0.00242   0.01720   0.02436
  44        3PZ         0.03355  -0.05357   0.00054  -0.00239   0.00492
  45        4S         -0.00286   0.03035  -0.00075   0.00293   0.05433
  46        4PX         0.05491  -0.02133   0.00191  -0.01147  -0.05794
  47        4PY         0.04784   0.04077  -0.00087   0.01005   0.03250
  48        4PZ         0.03941  -0.05253  -0.00120   0.00205   0.00950
                          26        27        28        29        30
  26        2PY         2.02718
  27        2PZ         0.01659   2.03970
  28        3S         -0.03508   0.02154   0.76203
  29        3PX        -0.04034   0.02153  -0.02957   0.73097
  30        3PY        -0.12571  -0.03751   0.05078   0.08523   0.63147
  31        3PZ        -0.03727  -0.15276  -0.03700  -0.04610   0.08022
  32        4S         -0.03737   0.02056   0.63493  -0.07858   0.13793
  33        4PX        -0.03919   0.02025  -0.01376   0.55734   0.10153
  34        4PY        -0.26373  -0.03535   0.02331   0.10134   0.43871
  35        4PZ        -0.03201  -0.30014  -0.02104  -0.04735   0.08289
  36 4   Cl 1S         -0.00031  -0.00014   0.00130  -0.00287   0.00020
  37        2S          0.00247   0.00078  -0.00178   0.02202  -0.00444
  38        2PX        -0.00833   0.00088  -0.00039  -0.03376   0.01780
  39        2PY         0.00521  -0.00233   0.00413   0.02447  -0.01116
  40        2PZ        -0.00029  -0.01112   0.00109   0.00462   0.00029
  41        3S          0.00161   0.00105   0.00089  -0.01485   0.00130
  42        3PX         0.01766  -0.00185   0.00798   0.07813  -0.04032
  43        3PY        -0.01092   0.00426  -0.01223  -0.05890   0.02415
  44        3PZ         0.00009   0.02433  -0.00517  -0.00789   0.00131
  45        4S         -0.01899  -0.01183  -0.00636  -0.11807   0.02919
  46        4PX         0.02884   0.00666   0.00760   0.12259  -0.05633
  47        4PY        -0.01632   0.01114  -0.00715  -0.06677   0.03486
  48        4PZ         0.00610   0.02518  -0.00462  -0.02337  -0.01580
                          31        32        33        34        35
  31        3PZ         0.68223
  32        4S         -0.06917   0.69434
  33        4PX        -0.05116  -0.02195   0.45177
  34        4PY         0.08937   0.03833   0.09319   0.34310
  35        4PZ         0.53782  -0.03593  -0.04629   0.08116   0.44310
  36 4   Cl 1S          0.00054  -0.00070  -0.00166   0.00127  -0.00123
  37        2S         -0.00238   0.00277   0.01431  -0.00531   0.00217
  38        2PX        -0.00216  -0.04241  -0.05135   0.03223   0.00070
  39        2PY         0.00440   0.03814   0.03606  -0.02263   0.01124
  40        2PZ         0.02431  -0.01193   0.00632   0.01113   0.02517
  41        3S         -0.00511  -0.00626  -0.01021   0.00335  -0.00465
  42        3PX         0.00464   0.08197   0.10631  -0.06511  -0.00251
  43        3PY        -0.00636  -0.08854  -0.07576   0.05073  -0.02806
  44        3PZ        -0.05382   0.04144  -0.01429  -0.03324  -0.05358
  45        4S          0.04144   0.02802  -0.07472   0.00452   0.03034
  46        4PX        -0.02223   0.03933   0.12111  -0.05655  -0.02221
  47        4PY        -0.02908  -0.06255  -0.07369   0.05068  -0.04029
  48        4PZ        -0.05358   0.03035  -0.02416  -0.03889  -0.05254
                          36        37        38        39        40
  36 4   Cl 1S          2.14428
  37        2S         -0.57418   2.39398
  38        2PX        -0.00481   0.02621   2.01724
  39        2PY         0.00005  -0.00029   0.00045   2.05854
  40        2PZ         0.00229  -0.01291   0.01902  -0.00021   2.03961
  41        3S         -0.02895  -0.29153  -0.04048   0.00044   0.02178
  42        3PX         0.01297  -0.06116  -0.10351  -0.00102  -0.04302
  43        3PY        -0.00014   0.00067  -0.00102  -0.19623   0.00047
  44        3PZ        -0.00580   0.02953  -0.04273   0.00047  -0.15266
  45        4S          0.16659  -0.68820  -0.04332   0.00048   0.02074
  46        4PX        -0.01831   0.02814  -0.24084  -0.00100  -0.04064
  47        4PY         0.00020  -0.00031  -0.00100  -0.33150   0.00045
  48        4PZ         0.00446  -0.00140  -0.03685   0.00041  -0.29938
                          41        42        43        44        45
  41        3S          0.76250
  42        3PX         0.05842   0.58489
  43        3PY        -0.00064   0.00215   0.78063
  44        3PZ        -0.03736   0.09202  -0.00101   0.68229
  45        4S          0.63531   0.16071  -0.00177  -0.07020   0.69748
  46        4PX         0.02675   0.37942   0.00258   0.10289   0.04410
  47        4PY        -0.00029   0.00258   0.61462  -0.00113  -0.00048
  48        4PZ        -0.02119   0.09556  -0.00105   0.53600  -0.03619
                          46        47        48
  46        4PX         0.28732
  47        4PY         0.00237   0.50354
  48        4PZ         0.09350  -0.00103   0.44025
    Full Mulliken population analysis:
                           1         2         3         4         5
   1 1   B  1S          2.02593
   2        2S          0.01747   0.13371
   3        2PX         0.00000   0.00000   0.22590
   4        2PY         0.00000   0.00000  -0.00000   0.22280
   5        2PZ         0.00000   0.00000  -0.00000   0.00000   0.05554
   6        3S         -0.05641   0.17462   0.00000   0.00000   0.00000
   7        3PX         0.00000   0.00000   0.05036   0.00000   0.00000
   8        3PY         0.00000   0.00000   0.00000   0.05110  -0.00000
   9        3PZ         0.00000   0.00000   0.00000  -0.00000   0.03442
  10 2   Cl 1S         -0.00000   0.00000   0.00000   0.00000   0.00000
  11        2S          0.00000  -0.00006  -0.00008  -0.00022  -0.00002
  12        2PX         0.00000  -0.00003  -0.00003  -0.00023  -0.00002
  13        2PY         0.00000  -0.00010  -0.00023  -0.00047  -0.00006
  14        2PZ         0.00000  -0.00002  -0.00003  -0.00009  -0.00000
  15        3S         -0.00003   0.00084   0.00106   0.00295   0.00048
  16        3PX        -0.00009   0.00255   0.00088   0.01089   0.00097
  17        3PY        -0.00025   0.00710   0.01083   0.02014   0.00272
  18        3PZ        -0.00004   0.00177   0.00156   0.00436   0.00108
  19        4S          0.00221  -0.00829  -0.00015  -0.00025  -0.00148
  20        4PX        -0.00019   0.00364  -0.00167   0.01445   0.00086
  21        4PY        -0.00052   0.01016   0.01429   0.02161   0.00242
  22        4PZ        -0.00059   0.00488   0.00223   0.00624   0.00639
  23 3   Cl 1S         -0.00000   0.00000   0.00000   0.00000   0.00000
  24        2S          0.00000  -0.00006  -0.00007  -0.00022  -0.00002
  25        2PX         0.00000  -0.00003  -0.00002  -0.00022  -0.00002
  26        2PY         0.00000  -0.00010  -0.00022  -0.00050  -0.00006
  27        2PZ         0.00000  -0.00002  -0.00003  -0.00010  -0.00000
  28        3S         -0.00003   0.00084   0.00098   0.00303   0.00048
  29        3PX        -0.00008   0.00236   0.00062   0.01036   0.00090
  30        3PY        -0.00025   0.00729   0.01030   0.02146   0.00280
  31        3PZ        -0.00004   0.00177   0.00145   0.00448   0.00108
  32        4S          0.00221  -0.00829  -0.00014  -0.00026  -0.00148
  33        4PX        -0.00018   0.00338  -0.00193   0.01375   0.00079
  34        4PY        -0.00054   0.01043   0.01359   0.02326   0.00249
  35        4PZ        -0.00059   0.00488   0.00206   0.00641   0.00639
  36 4   Cl 1S         -0.00000   0.00000   0.00001   0.00000   0.00000
  37        2S          0.00000  -0.00006  -0.00032  -0.00000  -0.00002
  38        2PX         0.00000  -0.00014  -0.00100  -0.00000  -0.00009
  39        2PY         0.00000  -0.00000  -0.00000  -0.00001  -0.00000
  40        2PZ         0.00000  -0.00002  -0.00014  -0.00000  -0.00000
  41        3S         -0.00003   0.00091   0.00427   0.00000   0.00052
  42        3PX        -0.00036   0.01021   0.04302   0.00001   0.00399
  43        3PY        -0.00000   0.00000   0.00001   0.00104   0.00000
  44        3PZ        -0.00005   0.00188   0.00621   0.00000   0.00114
  45        4S          0.00228  -0.00845  -0.00032  -0.00000  -0.00151
  46        4PX        -0.00073   0.01446   0.04899   0.00001   0.00356
  47        4PY        -0.00000   0.00000   0.00001  -0.00019   0.00000
  48        4PZ        -0.00062   0.00507   0.00865   0.00000   0.00661
                           6         7         8         9        10
   6        3S          0.57229
   7        3PX         0.00000   0.07841
   8        3PY         0.00000   0.00000   0.07862
   9        3PZ         0.00000   0.00000  -0.00000   0.07334
  10 2   Cl 1S         -0.00021  -0.00009  -0.00025  -0.00004   2.14428
  11        2S          0.00516   0.00210   0.00582   0.00078  -0.14897
  12        2PX        -0.00034  -0.00007  -0.00035  -0.00007   0.00000
  13        2PY        -0.00093  -0.00035  -0.00005  -0.00020   0.00000
  14        2PZ        -0.00013  -0.00009  -0.00024  -0.00027   0.00000
  15        3S         -0.01048  -0.00429  -0.01196  -0.00020  -0.00170
  16        3PX         0.01132   0.00335   0.01188   0.00200   0.00000
  17        3PY         0.03090   0.01191   0.00255   0.00551   0.00000
  18        3PZ         0.00347   0.00292   0.00806   0.01002   0.00000
  19        4S         -0.08615  -0.01273  -0.03480  -0.00840   0.00562
  20        4PX         0.01198   0.01087   0.01374   0.00170   0.00000
  21        4PY         0.03164   0.01369   0.00032   0.00462   0.00000
  22        4PZ         0.00653   0.00412   0.01141   0.02467   0.00000
  23 3   Cl 1S         -0.00021  -0.00008  -0.00026  -0.00004   0.00000
  24        2S          0.00516   0.00194   0.00598   0.00078   0.00000
  25        2PX        -0.00031  -0.00008  -0.00033  -0.00007   0.00000
  26        2PY        -0.00095  -0.00034  -0.00007  -0.00020   0.00000
  27        2PZ        -0.00013  -0.00008  -0.00025  -0.00027   0.00000
  28        3S         -0.01048  -0.00397  -0.01228  -0.00020   0.00000
  29        3PX         0.01050   0.00397   0.01130   0.00186  -0.00000
  30        3PY         0.03172   0.01132   0.00310   0.00566  -0.00000
  31        3PZ         0.00347   0.00270   0.00828   0.01002  -0.00000
  32        4S         -0.08615  -0.01180  -0.03572  -0.00840  -0.00000
  33        4PX         0.01112   0.01197   0.01306   0.00157   0.00000
  34        4PY         0.03249   0.01301   0.00057   0.00475  -0.00000
  35        4PZ         0.00653   0.00382   0.01171   0.02467   0.00000
  36 4   Cl 1S         -0.00022  -0.00035  -0.00000  -0.00004   0.00000
  37        2S          0.00538   0.00815   0.00000   0.00083   0.00000
  38        2PX        -0.00125  -0.00036  -0.00000  -0.00027   0.00000
  39        2PY        -0.00000  -0.00000  -0.00043  -0.00000   0.00000
  40        2PZ        -0.00013  -0.00034  -0.00000  -0.00027   0.00000
  41        3S         -0.01091  -0.01658  -0.00000  -0.00025   0.00000
  42        3PX         0.04207   0.01328   0.00001   0.00759  -0.00000
  43        3PY         0.00001   0.00001   0.01592   0.00000  -0.00000
  44        3PZ         0.00349   0.01114   0.00000   0.01022   0.00000
  45        4S         -0.08841  -0.04803  -0.00001  -0.00868  -0.00000
  46        4PX         0.04166   0.00743   0.00001   0.00626  -0.00000
  47        4PY         0.00001   0.00001   0.03039   0.00000  -0.00000
  48        4PZ         0.00646   0.01561   0.00000   0.02500  -0.00000
                          11        12        13        14        15
  11        2S          2.39405
  12        2PX         0.00000   2.04737
  13        2PY         0.00000  -0.00000   2.02799
  14        2PZ         0.00000  -0.00000  -0.00000   2.03970
  15        3S         -0.12689   0.00000   0.00000   0.00000   0.76203
  16        3PX         0.00000  -0.05496   0.00000   0.00000   0.00000
  17        3PY         0.00000   0.00000  -0.04097   0.00000   0.00000
  18        3PZ         0.00000   0.00000   0.00000  -0.04908   0.00000
  19        4S         -0.17144   0.00000   0.00000   0.00000   0.52337
  20        4PX         0.00000  -0.02159   0.00000   0.00000   0.00000
  21        4PY         0.00000   0.00000  -0.01862   0.00000   0.00000
  22        4PZ         0.00000   0.00000   0.00000  -0.02105   0.00000
  23 3   Cl 1S          0.00000   0.00000   0.00000   0.00000   0.00000
  24        2S          0.00000   0.00000   0.00000   0.00000  -0.00000
  25        2PX         0.00000   0.00000   0.00000   0.00000   0.00000
  26        2PY         0.00000   0.00000   0.00000   0.00000   0.00000
  27        2PZ         0.00000   0.00000   0.00000   0.00000  -0.00000
  28        3S         -0.00000  -0.00000   0.00000   0.00000   0.00000
  29        3PX         0.00000   0.00000   0.00000   0.00000  -0.00000
  30        3PY         0.00000  -0.00000   0.00000   0.00000  -0.00001
  31        3PZ         0.00000   0.00000  -0.00000   0.00000   0.00000
  32        4S          0.00000  -0.00000   0.00004  -0.00000  -0.00007
  33        4PX         0.00000   0.00000  -0.00000   0.00000  -0.00000
  34        4PY         0.00007  -0.00000   0.00020   0.00000  -0.00043
  35        4PZ        -0.00000   0.00000  -0.00000   0.00001   0.00000
  36 4   Cl 1S          0.00000   0.00000   0.00000   0.00000   0.00000
  37        2S          0.00000   0.00000   0.00000   0.00000  -0.00000
  38        2PX         0.00000   0.00000   0.00000   0.00000   0.00000
  39        2PY         0.00000   0.00000   0.00000   0.00000   0.00000
  40        2PZ         0.00000   0.00000   0.00000   0.00000   0.00000
  41        3S         -0.00000   0.00000  -0.00000  -0.00000   0.00000
  42        3PX         0.00000   0.00000   0.00000  -0.00000  -0.00000
  43        3PY         0.00000   0.00000   0.00000  -0.00000  -0.00000
  44        3PZ        -0.00000   0.00000  -0.00000   0.00000  -0.00000
  45        4S          0.00000   0.00003   0.00001   0.00000  -0.00007
  46        4PX         0.00005   0.00012   0.00004   0.00000  -0.00026
  47        4PY         0.00002   0.00004   0.00001  -0.00000  -0.00013
  48        4PZ         0.00000   0.00000  -0.00000   0.00001  -0.00000
                          16        17        18        19        20
  16        3PX         0.72714
  17        3PY        -0.00000   0.63529
  18        3PZ        -0.00000  -0.00000   0.68224
  19        4S          0.00000   0.00000   0.00000   0.69433
  20        4PX         0.34431  -0.00000  -0.00000   0.00000   0.44758
  21        4PY        -0.00000   0.27610  -0.00000   0.00000  -0.00000
  22        4PZ        -0.00000  -0.00000   0.33499   0.00000  -0.00000
  23 3   Cl 1S          0.00000  -0.00000   0.00000  -0.00000  -0.00000
  24        2S         -0.00000   0.00000  -0.00000   0.00000  -0.00000
  25        2PX         0.00000   0.00000   0.00000   0.00000  -0.00000
  26        2PY        -0.00000   0.00000   0.00000   0.00004   0.00000
  27        2PZ         0.00000  -0.00000   0.00000   0.00000   0.00000
  28        3S          0.00000  -0.00001  -0.00000  -0.00007   0.00000
  29        3PX        -0.00000  -0.00000  -0.00000  -0.00001   0.00002
  30        3PY         0.00000  -0.00014  -0.00000  -0.00203  -0.00000
  31        3PZ        -0.00000   0.00000  -0.00000  -0.00000  -0.00000
  32        4S          0.00001  -0.00204   0.00000   0.00154   0.00005
  33        4PX         0.00002   0.00000  -0.00000  -0.00005   0.00063
  34        4PY         0.00001  -0.00884   0.00000  -0.00888   0.00002
  35        4PZ        -0.00000   0.00000  -0.00039  -0.00000  -0.00000
  36 4   Cl 1S         -0.00000  -0.00000  -0.00000  -0.00000  -0.00000
  37        2S          0.00000   0.00000   0.00000   0.00000   0.00006
  38        2PX         0.00000   0.00000  -0.00000   0.00002   0.00010
  39        2PY         0.00000   0.00000  -0.00000   0.00001   0.00004
  40        2PZ         0.00000  -0.00000   0.00000  -0.00000   0.00000
  41        3S         -0.00001  -0.00000   0.00000  -0.00007  -0.00035
  42        3PX        -0.00007  -0.00002   0.00000  -0.00126  -0.00452
  43        3PY        -0.00003  -0.00001   0.00000  -0.00073  -0.00203
  44        3PZ        -0.00000  -0.00000  -0.00000   0.00000  -0.00000
  45        4S         -0.00179  -0.00022  -0.00000   0.00154  -0.00865
  46        4PX        -0.00518  -0.00148  -0.00000  -0.00471  -0.02327
  47        4PY        -0.00176  -0.00026   0.00000  -0.00400  -0.00983
  48        4PZ        -0.00000   0.00000  -0.00038   0.00000  -0.00000
                          21        22        23        24        25
  21        4PY         0.34729
  22        4PZ        -0.00000   0.44310
  23 3   Cl 1S         -0.00000  -0.00000   2.14428
  24        2S          0.00007   0.00000  -0.14897   2.39405
  25        2PX         0.00000   0.00000   0.00000   0.00000   2.04818
  26        2PY         0.00020   0.00000   0.00000   0.00000   0.00000
  27        2PZ        -0.00000   0.00001   0.00000   0.00000  -0.00000
  28        3S         -0.00043  -0.00000  -0.00170  -0.12689   0.00000
  29        3PX        -0.00001  -0.00000   0.00000   0.00000  -0.05554
  30        3PY        -0.00882  -0.00000   0.00000   0.00000  -0.00000
  31        3PZ        -0.00000  -0.00039   0.00000   0.00000   0.00000
  32        4S         -0.00897   0.00000   0.00562  -0.17144   0.00000
  33        4PX        -0.00003  -0.00000   0.00000   0.00000  -0.02171
  34        4PY        -0.04274  -0.00000   0.00000   0.00000  -0.00000
  35        4PZ         0.00000  -0.00295   0.00000   0.00000   0.00000
  36 4   Cl 1S         -0.00000   0.00000   0.00000   0.00000   0.00000
  37        2S          0.00001  -0.00000   0.00000   0.00000   0.00000
  38        2PX         0.00004   0.00000   0.00000   0.00000   0.00000
  39        2PY         0.00001  -0.00000   0.00000   0.00000   0.00000
  40        2PZ        -0.00000   0.00001   0.00000   0.00000   0.00000
  41        3S         -0.00006   0.00000   0.00000  -0.00000   0.00000
  42        3PX        -0.00174  -0.00000  -0.00000   0.00000   0.00000
  43        3PY        -0.00039   0.00000  -0.00000   0.00000   0.00000
  44        3PZ         0.00000  -0.00038   0.00000  -0.00000   0.00000
  45        4S         -0.00019  -0.00000  -0.00000   0.00000   0.00003
  46        4PX        -0.00749  -0.00000  -0.00000   0.00004   0.00011
  47        4PY        -0.00103   0.00000  -0.00000   0.00002   0.00004
  48        4PZ         0.00000  -0.00289  -0.00000   0.00000   0.00000
                          26        27        28        29        30
  26        2PY         2.02718
  27        2PZ         0.00000   2.03970
  28        3S          0.00000   0.00000   0.76203
  29        3PX        -0.00000   0.00000   0.00000   0.73097
  30        3PY        -0.04039  -0.00000   0.00000   0.00000   0.63147
  31        3PZ        -0.00000  -0.04908   0.00000  -0.00000   0.00000
  32        4S          0.00000   0.00000   0.52337   0.00000   0.00000
  33        4PX        -0.00000   0.00000   0.00000   0.34715   0.00000
  34        4PY        -0.01850  -0.00000   0.00000   0.00000   0.27326
  35        4PZ        -0.00000  -0.02105   0.00000  -0.00000   0.00000
  36 4   Cl 1S          0.00000   0.00000   0.00000  -0.00000  -0.00000
  37        2S          0.00000   0.00000  -0.00000   0.00000   0.00000
  38        2PX         0.00000   0.00000   0.00000   0.00000   0.00000
  39        2PY         0.00000   0.00000   0.00000   0.00000   0.00000
  40        2PZ         0.00000   0.00000   0.00000   0.00000  -0.00000
  41        3S         -0.00000  -0.00000   0.00000  -0.00001  -0.00000
  42        3PX         0.00000  -0.00000  -0.00000  -0.00007  -0.00002
  43        3PY         0.00000  -0.00000  -0.00000  -0.00003  -0.00001
  44        3PZ        -0.00000   0.00000  -0.00000  -0.00000  -0.00000
  45        4S          0.00001   0.00000  -0.00007  -0.00176  -0.00026
  46        4PX         0.00004   0.00000  -0.00026  -0.00492  -0.00157
  47        4PY         0.00001  -0.00000  -0.00014  -0.00187  -0.00033
  48        4PZ        -0.00000   0.00001  -0.00000  -0.00000   0.00000
                          31        32        33        34        35
  31        3PZ         0.68223
  32        4S          0.00000   0.69434
  33        4PX        -0.00000   0.00000   0.45177
  34        4PY         0.00000   0.00000   0.00000   0.34310
  35        4PZ         0.33499   0.00000  -0.00000   0.00000   0.44310
  36 4   Cl 1S         -0.00000  -0.00000  -0.00000  -0.00000   0.00000
  37        2S          0.00000   0.00000   0.00005   0.00001  -0.00000
  38        2PX        -0.00000   0.00002   0.00010   0.00004   0.00000
  39        2PY        -0.00000   0.00001   0.00005   0.00001  -0.00000
  40        2PZ         0.00000  -0.00000   0.00000  -0.00000   0.00001
  41        3S          0.00000  -0.00007  -0.00034  -0.00007   0.00000
  42        3PX         0.00000  -0.00122  -0.00426  -0.00182  -0.00000
  43        3PY         0.00000  -0.00078  -0.00212  -0.00047   0.00000
  44        3PZ        -0.00000   0.00000  -0.00000   0.00000  -0.00038
  45        4S         -0.00000   0.00154  -0.00853  -0.00031  -0.00000
  46        4PX        -0.00000  -0.00449  -0.02200  -0.00791  -0.00000
  47        4PY         0.00000  -0.00422  -0.01031  -0.00140   0.00000
  48        4PZ        -0.00038   0.00000  -0.00000   0.00000  -0.00289
                          36        37        38        39        40
  36 4   Cl 1S          2.14428
  37        2S         -0.14896   2.39398
  38        2PX         0.00000   0.00000   2.01724
  39        2PY         0.00000   0.00000   0.00000   2.05854
  40        2PZ         0.00000   0.00000   0.00000  -0.00000   2.03961
  41        3S         -0.00171  -0.12676   0.00000   0.00000   0.00000
  42        3PX         0.00000   0.00000  -0.03326  -0.00000  -0.00000
  43        3PY         0.00000   0.00000  -0.00000  -0.06305   0.00000
  44        3PZ         0.00000   0.00000  -0.00000   0.00000  -0.04905
  45        4S          0.00565  -0.17199   0.00000   0.00000   0.00000
  46        4PX         0.00000   0.00000  -0.01689  -0.00000  -0.00000
  47        4PY         0.00000   0.00000  -0.00000  -0.02326   0.00000
  48        4PZ         0.00000   0.00000  -0.00000   0.00000  -0.02100
                          41        42        43        44        45
  41        3S          0.76250
  42        3PX         0.00000   0.58489
  43        3PY         0.00000   0.00000   0.78063
  44        3PZ         0.00000   0.00000  -0.00000   0.68229
  45        4S          0.52368   0.00000   0.00000   0.00000   0.69748
  46        4PX         0.00000   0.23633   0.00000   0.00000   0.00000
  47        4PY         0.00000   0.00000   0.38282  -0.00000   0.00000
  48        4PZ         0.00000   0.00000  -0.00000   0.33386   0.00000
                          46        47        48
  46        4PX         0.28732
  47        4PY         0.00000   0.50354
  48        4PZ         0.00000  -0.00000   0.44025
     Gross orbital populations:
                           1
   1 1   B  1S          1.98846
   2        2S          0.39454
   3        2PX         0.44089
   4        2PY         0.43559
   5        2PZ         0.13086
   6        3S          0.69414
   7        3PX         0.18246
   8        3PY         0.18681
   9        3PZ         0.22842
  10 2   Cl 1S          1.99865
  11        2S          1.96039
  12        2PX         1.96987
  13        2PY         1.96629
  14        2PZ         1.96869
  15        3S          1.13419
  16        3PX         1.05143
  17        3PY         0.94881
  18        3PZ         1.00057
  19        4S          0.88320
  20        4PX         0.77794
  21        4PY         0.63143
  22        4PZ         0.81632
  23 3   Cl 1S          1.99865
  24        2S          1.96039
  25        2PX         1.97002
  26        2PY         1.96615
  27        2PZ         1.96869
  28        3S          1.13419
  29        3PX         1.05572
  30        3PY         0.94454
  31        3PZ         1.00056
  32        4S          0.88320
  33        4PX         0.78395
  34        4PY         0.62540
  35        4PZ         0.81632
  36 4   Cl 1S          1.99865
  37        2S          1.96035
  38        2PX         1.96431
  39        2PY         1.97192
  40        2PZ         1.96866
  41        3S          1.13467
  42        3PX         0.89277
  43        3PY         1.11079
  44        3PZ         1.00036
  45        4S          0.88301
  46        4PX         0.54526
  47        4PY         0.85820
  48        4PZ         0.81335
          Condensed to atoms (all electrons):
               1          2          3          4
     1  B    4.009637   0.224674   0.224666   0.223184
     2  Cl   0.224674  17.050587  -0.084377  -0.083105
     3  Cl   0.224666  -0.084377  17.050610  -0.083131
     4  Cl   0.223184  -0.083105  -0.083131  17.045345
 Mulliken charges:
               1
     1  B    0.317839
     2  Cl  -0.107778
     3  Cl  -0.107768
     4  Cl  -0.102292
 Sum of Mulliken charges =   0.00000
 Mulliken charges with hydrogens summed into heavy atoms:
               1
     1  B    0.317839
     2  Cl  -0.107778
     3  Cl  -0.107768
     4  Cl  -0.102292
 Electronic spatial extent (au):  <R**2>=            700.2366
 Charge=             -0.0000 electrons
 Dipole moment (field-independent basis, Debye):
    X=              0.0784    Y=             -0.0009    Z=              1.8201  Tot=              1.8218
 Quadrupole moment (field-independent basis, Debye-Ang):
   XX=            -48.9468   YY=            -49.0375   ZZ=            -42.4098
   XY=             -0.0010   XZ=              0.0315   YZ=             -0.0004
 Traceless Quadrupole moment (field-independent basis, Debye-Ang):
   XX=             -2.1488   YY=             -2.2394   ZZ=              4.3882
   XY=             -0.0010   XZ=              0.0315   YZ=             -0.0004
 Octapole moment (field-independent basis, Debye-Ang**2):
  XXX=             -1.3676  YYY=             -0.0507  ZZZ=             -0.6020  XYY=              1.5434
  XXY=              0.0494  XXZ=             -3.0257  XZZ=              0.0605  YZZ=             -0.0006
  YYZ=             -3.0063  XYZ=              0.0001
 Hexadecapole moment (field-independent basis, Debye-Ang**3):
 XXXX=           -429.6994 YYYY=           -428.9267 ZZZZ=            -55.9996 XXXY=             -0.0016
 XXXZ=             -3.2019 YYYX=             -0.0073 YYYZ=             -0.1070 ZZZX=              0.0173
 ZZZY=             -0.0002 XXYY=           -143.0320 XXZZ=            -80.8551 YYZZ=            -80.6757
 XXYZ=              0.1068 YYXZ=              3.2270 ZZXY=             -0.0011
 N-N= 2.185211397814D+02 E-N=-3.760688415437D+03  KE= 1.395142598473D+03
 Orbital energies and kinetic energies (alpha):
                                 1                 2
   1         O              -104.150010        136.080283
   2         O              -104.148119        136.078447
   3         O              -104.147914        136.083724
   4         O               -10.543821         22.348938
   5         O               -10.541883         22.345070
   6         O               -10.541186         22.363968
   7         O                -8.006748         20.334082
   8         O                -8.004639         20.331008
   9         O                -8.004502         20.338620
  10         O                -8.003142         20.366718
  11         O                -8.002793         20.368796
  12         O                -8.001030         20.365036
  13         O                -8.000958         20.368363
  14         O                -8.000711         20.367238
  15         O                -8.000555         20.374100
  16         O                -7.819753         10.822674
  17         O                -1.178967          2.587457
  18         O                -1.123551          2.963189
  19         O                -1.121098          2.965753
  20         O                -0.706549          2.122980
  21         O                -0.593991          1.981938
  22         O                -0.593019          1.973942
  23         O                -0.553262          1.866960
  24         O                -0.501528          2.239873
  25         O                -0.500386          2.243784
  26         O                -0.483072          2.401184
  27         O                -0.481893          2.403208
  28         O                -0.473662          2.483967
  29         V                -0.038630          1.432057
  30         V                 0.166389          2.219458
  31         V                 0.178001          1.641859
  32         V                 0.181466          1.642462
  33         V                 0.563276          1.887511
  34         V                 0.564166          1.888541
  35         V                 0.571328          1.765176
  36         V                 0.641486          2.801184
  37         V                 0.731260          3.121358
  38         V                 0.732103          3.115510
  39         V                 0.748741          3.498158
  40         V                 0.748777          3.494972
  41         V                 0.755556          3.500300
  42         V                 0.810577          3.397559
  43         V                 0.843132          3.404854
  44         V                 0.843882          3.408112
  45         V                 0.889027          3.510122
  46         V                 1.018255          3.697127
  47         V                 1.020750          3.699398
  48         V                 1.166726          2.035576
 Total kinetic energy from orbitals= 1.395142598473D+03
 1\1\GINC-IISERK51\SP\RHF\3-21G\B1Cl3\GAUSSIAN\16-Jun-2025\0\\# hf/3-21
 g pop=full geom=connectivity\\Title Card Required\\0,1\B,0,0.98504,0.0
 17294,0.000006\Cl,0,1.485989,-0.934188,1.55813\Cl,0,1.486354,-0.935365
 ,-1.557247\Cl,0,1.69259,1.761374,-0.000687\\Version=EM64L-G16RevB.01\S
 tate=1-A\HF=-1396.4805087\RMSD=7.834e-09\Dipole=-0.7116712,0.085189,-0
 .0000871\Quadrupole=3.2309017,-1.5659171,-1.6649846,-0.3915841,0.00066
 4,-0.0000497\PG=C01 [X(B1Cl3)]\\@


 IT IS BY LOGIC THAT WE PROVE, BUT BY INTUITION THAT WE DISCOVER.
     -- J.H.POINCARE (1854-1912)
 Job cpu time:       0 days  0 hours  0 minutes  0.4 seconds.
 Elapsed time:       0 days  0 hours  0 minutes  0.4 seconds.
 File lengths (MBytes):  RWF=      6 Int=      0 D2E=      0 Chk=      1 Scr=      1
 Normal termination of Gaussian 16 at Mon Jun 16 22:32:06 2025.
