 Entering Gaussian System, Link 0=g16
 Input=/home/gaussian/Documents/Summer_Internship/Acid_Base_adduct/Adduct/py - BCl3/py_BCl3_adduct_opt.com
 Output=/home/gaussian/Documents/Summer_Internship/Acid_Base_adduct/Adduct/py - BCl3/py_BCl3_adduct_opt.log
 Initial command:
 /usr/local/g16/l1.exe "/home/gaussian/tmp/Gau-79968.inp" -scrdir="/home/gaussian/tmp/"
 Entering Link 1 = /usr/local/g16/l1.exe PID=     79971.
  
 Copyright (c) 1988-2017, Gaussian, Inc.  All Rights Reserved.
  
 This is part of the Gaussian(R) 16 program.  It is based on
 the Gaussian(R) 09 system (copyright 2009, Gaussian, Inc.),
 the Gaussian(R) 03 system (copyright 2003, Gaussian, Inc.),
 the Gaussian(R) 98 system (copyright 1998, Gaussian, Inc.),
 the Gaussian(R) 94 system (copyright 1995, Gaussian, Inc.),
 the Gaussian 92(TM) system (copyright 1992, Gaussian, Inc.),
 the Gaussian 90(TM) system (copyright 1990, Gaussian, Inc.),
 the Gaussian 88(TM) system (copyright 1988, Gaussian, Inc.),
 the Gaussian 86(TM) system (copyright 1986, Carnegie Mellon
 University), and the Gaussian 82(TM) system (copyright 1983,
 Carnegie Mellon University). Gaussian is a federally registered
 trademark of Gaussian, Inc.
  
 This software contains proprietary and confidential information,
 including trade secrets, belonging to Gaussian, Inc.
  
 This software is provided under written license and may be
 used, copied, transmitted, or stored only in accord with that
 written license.
  
 The following legend is applicable only to US Government
 contracts under FAR:
  
                    RESTRICTED RIGHTS LEGEND
  
 Use, reproduction and disclosure by the US Government is
 subject to restrictions as set forth in subparagraphs (a)
 and (c) of the Commercial Computer Software - Restricted
 Rights clause in FAR 52.227-19.
  
 Gaussian, Inc.
 340 Quinnipiac St., Bldg. 40, Wallingford CT 06492
  
  
 ---------------------------------------------------------------
 Warning -- This program may not be used in any manner that
 competes with the business of Gaussian, Inc. or will provide
 assistance to any competitor of Gaussian, Inc.  The licensee
 of this program is prohibited from giving any competitor of
 Gaussian, Inc. access to this program.  By using this program,
 the user acknowledges that Gaussian, Inc. is engaged in the
 business of creating and licensing software in the field of
 computational chemistry and represents and warrants to the
 licensee that it is not a competitor of Gaussian, Inc. and that
 it will not use this program in any manner prohibited above.
 ---------------------------------------------------------------
  

 Cite this work as:
 Gaussian 16, Revision B.01,
 M. J. Frisch, G. W. Trucks, H. B. Schlegel, G. E. Scuseria, 
 M. A. Robb, J. R. Cheeseman, G. Scalmani, V. Barone, 
 G. A. Petersson, H. Nakatsuji, X. Li, M. Caricato, A. V. Marenich, 
 J. Bloino, B. G. Janesko, R. Gomperts, B. Mennucci, H. P. Hratchian, 
 J. V. Ortiz, A. F. Izmaylov, J. L. Sonnenberg, D. Williams-Young, 
 F. Ding, F. Lipparini, F. Egidi, J. Goings, B. Peng, A. Petrone, 
 T. Henderson, D. Ranasinghe, V. G. Zakrzewski, J. Gao, N. Rega, 
 G. Zheng, W. Liang, M. Hada, M. Ehara, K. Toyota, R. Fukuda, 
 J. Hasegawa, M. Ishida, T. Nakajima, Y. Honda, O. Kitao, H. Nakai, 
 T. Vreven, K. Throssell, J. A. Montgomery, Jr., J. E. Peralta, 
 F. Ogliaro, M. J. Bearpark, J. J. Heyd, E. N. Brothers, K. N. Kudin, 
 V. N. Staroverov, T. A. Keith, R. Kobayashi, J. Normand, 
 K. Raghavachari, A. P. Rendell, J. C. Burant, S. S. Iyengar, 
 J. Tomasi, M. Cossi, J. M. Millam, M. Klene, C. Adamo, R. Cammi, 
 J. W. Ochterski, R. L. Martin, K. Morokuma, O. Farkas, 
 J. B. Foresman, and D. J. Fox, Gaussian, Inc., Wallingford CT, 2016.
 
 ******************************************
 Gaussian 16:  EM64L-G16RevB.01 20-Dec-2017
                16-Jun-2025 
 ******************************************
 %chk=py_BCl3_adduct_opt.chk
 ----------------------------------------------
 # opt freq hf/3-21g pop=full geom=connectivity
 ----------------------------------------------
 1/18=20,19=15,38=1,57=2/1,3;
 2/9=110,12=2,17=6,18=5,40=1/2;
 3/5=5,11=9,25=1,30=1,71=1/1,2,3;
 4//1;
 5/5=2,38=5/2;
 6/7=3,28=1/1;
 7//1,2,3,16;
 1/18=20,19=15/3(2);
 2/9=110/2;
 99//99;
 2/9=110/2;
 3/5=5,11=9,25=1,30=1,71=1/1,2,3;
 4/5=5,16=3,69=1/1;
 5/5=2,38=5/2;
 7//1,2,3,16;
 1/18=20,19=15/3(-5);
 2/9=110/2;
 6/7=3,19=2,28=1/1;
 99/9=1/99;
 -------------------
 Title Card Required
 -------------------
 Symbolic Z-matrix:
 Charge =  0 Multiplicity = 1
 C                    -2.81595  -0.02743   0.04866 
 C                    -1.40907  -0.02743   0.04866 
 C                    -0.74238   1.19918   0.04866 
 C                    -1.49645   2.37396   0.04842 
 C                    -2.89965   2.27116   0.04828 
 N                    -3.55918   1.09621   0.04847 
 H                     0.35617   1.23895   0.04771 
 H                    -3.38149  -0.97625   0.04879 
 H                    -0.85434  -0.97433   0.04893 
 H                    -1.01241   3.35889   0.04832 
 H                    -3.533     3.17622   0.0482 
 B                    -5.10448   0.44136   0.31907 
 Cl                   -5.54961   0.62045   2.12646 
 Cl                   -6.35946   1.35309  -0.72528 
 Cl                   -5.10419  -1.36981  -0.14632 
 

 GradGradGradGradGradGradGradGradGradGradGradGradGradGradGradGradGradGrad
 Berny optimization.
 Initialization pass.
                           ----------------------------
                           !    Initial Parameters    !
                           ! (Angstroms and Degrees)  !
 --------------------------                            --------------------------
 ! Name  Definition              Value          Derivative Info.                !
 --------------------------------------------------------------------------------
 ! R1    R(1,2)                  1.4069         estimate D2E/DX2                !
 ! R2    R(1,6)                  1.3472         estimate D2E/DX2                !
 ! R3    R(1,8)                  1.1046         estimate D2E/DX2                !
 ! R4    R(2,3)                  1.3961         estimate D2E/DX2                !
 ! R5    R(2,9)                  1.0974         estimate D2E/DX2                !
 ! R6    R(3,4)                  1.396          estimate D2E/DX2                !
 ! R7    R(3,7)                  1.0993         estimate D2E/DX2                !
 ! R8    R(4,5)                  1.407          estimate D2E/DX2                !
 ! R9    R(4,10)                 1.0974         estimate D2E/DX2                !
 ! R10   R(5,6)                  1.3474         estimate D2E/DX2                !
 ! R11   R(5,11)                 1.1047         estimate D2E/DX2                !
 ! R12   R(6,12)                 1.7            estimate D2E/DX2                !
 ! R13   R(12,13)                1.87           estimate D2E/DX2                !
 ! R14   R(12,14)                1.87           estimate D2E/DX2                !
 ! R15   R(12,15)                1.87           estimate D2E/DX2                !
 ! A1    A(2,1,6)              123.4828         estimate D2E/DX2                !
 ! A2    A(2,1,8)              120.7972         estimate D2E/DX2                !
 ! A3    A(6,1,8)              115.72           estimate D2E/DX2                !
 ! A4    A(1,2,3)              118.5252         estimate D2E/DX2                !
 ! A5    A(1,2,9)              120.3635         estimate D2E/DX2                !
 ! A6    A(3,2,9)              121.1114         estimate D2E/DX2                !
 ! A7    A(2,3,4)              118.7792         estimate D2E/DX2                !
 ! A8    A(2,3,7)              120.5988         estimate D2E/DX2                !
 ! A9    A(4,3,7)              120.6219         estimate D2E/DX2                !
 ! A10   A(3,4,5)              118.5054         estimate D2E/DX2                !
 ! A11   A(3,4,10)             121.1328         estimate D2E/DX2                !
 ! A12   A(5,4,10)             120.3618         estimate D2E/DX2                !
 ! A13   A(4,5,6)              123.4969         estimate D2E/DX2                !
 ! A14   A(4,5,11)             120.7935         estimate D2E/DX2                !
 ! A15   A(6,5,11)             115.7097         estimate D2E/DX2                !
 ! A16   A(1,6,5)              117.2105         estimate D2E/DX2                !
 ! A17   A(1,6,12)             100.3801         estimate D2E/DX2                !
 ! A18   A(5,6,12)             141.34           estimate D2E/DX2                !
 ! A19   A(6,12,13)            109.4712         estimate D2E/DX2                !
 ! A20   A(6,12,14)            109.4712         estimate D2E/DX2                !
 ! A21   A(6,12,15)            109.4712         estimate D2E/DX2                !
 ! A22   A(13,12,14)           109.4712         estimate D2E/DX2                !
 ! A23   A(13,12,15)           109.4712         estimate D2E/DX2                !
 ! A24   A(14,12,15)           109.4712         estimate D2E/DX2                !
 ! D1    D(6,1,2,3)              0.01           estimate D2E/DX2                !
 ! D2    D(6,1,2,9)            179.9941         estimate D2E/DX2                !
 ! D3    D(8,1,2,3)           -179.9926         estimate D2E/DX2                !
 ! D4    D(8,1,2,9)             -0.0086         estimate D2E/DX2                !
 ! D5    D(2,1,6,5)             -0.001          estimate D2E/DX2                !
 ! D6    D(2,1,6,12)          -170.6911         estimate D2E/DX2                !
 ! D7    D(8,1,6,5)           -179.9985         estimate D2E/DX2                !
 ! D8    D(8,1,6,12)             9.3115         estimate D2E/DX2                !
 ! D9    D(1,2,3,4)             -0.0113         estimate D2E/DX2                !
 ! D10   D(1,2,3,7)           -179.9425         estimate D2E/DX2                !
 ! D11   D(9,2,3,4)           -179.9952         estimate D2E/DX2                !
 ! D12   D(9,2,3,7)              0.0736         estimate D2E/DX2                !
 ! D13   D(2,3,4,5)              0.0043         estimate D2E/DX2                !
 ! D14   D(2,3,4,10)          -179.9944         estimate D2E/DX2                !
 ! D15   D(7,3,4,5)            179.9354         estimate D2E/DX2                !
 ! D16   D(7,3,4,10)            -0.0632         estimate D2E/DX2                !
 ! D17   D(3,4,5,6)              0.0051         estimate D2E/DX2                !
 ! D18   D(3,4,5,11)           179.9933         estimate D2E/DX2                !
 ! D19   D(10,4,5,6)          -179.9962         estimate D2E/DX2                !
 ! D20   D(10,4,5,11)           -0.008          estimate D2E/DX2                !
 ! D21   D(4,5,6,1)             -0.0067         estimate D2E/DX2                !
 ! D22   D(4,5,6,12)           165.2359         estimate D2E/DX2                !
 ! D23   D(11,5,6,1)          -179.9955         estimate D2E/DX2                !
 ! D24   D(11,5,6,12)          -14.7529         estimate D2E/DX2                !
 ! D25   D(1,6,12,13)           99.3709         estimate D2E/DX2                !
 ! D26   D(1,6,12,14)         -140.6291         estimate D2E/DX2                !
 ! D27   D(1,6,12,15)          -20.6291         estimate D2E/DX2                !
 ! D28   D(5,6,12,13)          -67.3141         estimate D2E/DX2                !
 ! D29   D(5,6,12,14)           52.6859         estimate D2E/DX2                !
 ! D30   D(5,6,12,15)          172.6859         estimate D2E/DX2                !
 --------------------------------------------------------------------------------
 Trust Radius=3.00D-01 FncErr=1.00D-07 GrdErr=1.00D-07 EigMax=2.50D+02 EigMin=1.00D-04
 Number of steps in this run=     79 maximum allowed number of steps=    100.
 GradGradGradGradGradGradGradGradGradGradGradGradGradGradGradGradGradGrad

                          Input orientation:                          
 ---------------------------------------------------------------------
 Center     Atomic      Atomic             Coordinates (Angstroms)
 Number     Number       Type             X           Y           Z
 ---------------------------------------------------------------------
      1          6           0       -2.815946   -0.027431    0.048663
      2          6           0       -1.409068   -0.027431    0.048663
      3          6           0       -0.742377    1.199176    0.048663
      4          6           0       -1.496450    2.373963    0.048422
      5          6           0       -2.899652    2.271158    0.048281
      6          7           0       -3.559182    1.096207    0.048466
      7          1           0        0.356167    1.238952    0.047713
      8          1           0       -3.381493   -0.976252    0.048785
      9          1           0       -0.854336   -0.974332    0.048927
     10          1           0       -1.012414    3.358887    0.048321
     11          1           0       -3.533001    3.176221    0.048200
     12          5           0       -5.104480    0.441356    0.319068
     13         17           0       -5.549611    0.620448    2.126465
     14         17           0       -6.359461    1.353091   -0.725279
     15         17           0       -5.104195   -1.369808   -0.146320
 ---------------------------------------------------------------------
                    Distance matrix (angstroms):
                    1          2          3          4          5
     1  C    0.000000
     2  C    1.406878   0.000000
     3  C    2.409202   1.396081   0.000000
     4  C    2.740030   2.402983   1.395977   0.000000
     5  C    2.300113   2.739590   2.408938   1.406963   0.000000
     6  N    1.347205   2.426016   2.818686   2.426422   1.347401
     7  H    3.415557   2.172506   1.099264   2.172657   3.415524
     8  H    1.104584   2.188772   3.420149   3.844129   3.282962
     9  H    2.178195   1.097428   2.176390   3.409309   3.836212
    10  H    3.836649   3.409470   2.176527   1.097436   2.178261
    11  H    3.282919   3.843758   3.419984   2.188871   1.104658
    12  B    2.351652   3.734829   4.435690   4.101963   2.877979
    13  Cl   3.494271   4.677724   5.268936   4.880696   3.750463
    14  Cl   3.880893   5.197232   5.672240   5.028883   3.662174
    15  Cl   2.660089   3.936236   5.065881   5.202842   4.260811
                    6          7          8          9         10
     6  N    0.000000
     7  H    3.917950   0.000000
     8  H    2.080062   4.344794   0.000000
     9  H    3.406365   2.522686   2.527158   0.000000
    10  H    3.406721   2.523319   4.940239   4.336101   0.000000
    11  H    2.080179   4.344956   4.155236   4.939872   2.527197
    12  B    1.700000   5.525256   2.247521   4.487858   5.032921
    13  Cl   2.916545   6.291420   3.401021   5.376346   5.692441
    14  Cl   2.916545   6.760932   3.859185   6.026831   5.763036
    15  Cl   2.916545   6.054653   1.777822   4.272683   6.256285
                   11         12         13         14         15
    11  H    0.000000
    12  B    3.165818   0.000000
    13  Cl   3.862367   1.870000   0.000000
    14  Cl   3.451224   1.870000   3.053697   0.000000
    15  Cl   4.813820   1.870000   3.053697   3.053697   0.000000
 Stoichiometry    C5H5BCl3N
 Framework group  C1[X(C5H5BCl3N)]
 Deg. of freedom    39
 Full point group                 C1      NOp   1
 Largest Abelian subgroup         C1      NOp   1
 Largest concise Abelian subgroup C1      NOp   1
                         Standard orientation:                         
 ---------------------------------------------------------------------
 Center     Atomic      Atomic             Coordinates (Angstroms)
 Number     Number       Type             X           Y           Z
 ---------------------------------------------------------------------
      1          6           0       -1.151354    0.914582   -0.113709
      2          6           0       -2.522512    1.214427   -0.017150
      3          6           0       -3.434576    0.158290    0.024752
      4          6           0       -2.950882   -1.150026   -0.030934
      5          6           0       -1.561332   -1.348658   -0.127058
      6          7           0       -0.667281   -0.341459   -0.168447
      7          1           0       -4.513797    0.353581    0.099076
      8          1           0       -0.397260    1.720915   -0.149421
      9          1           0       -2.860655    2.257644    0.024162
     10          1           0       -3.633253   -2.008999   -0.000909
     11          1           0       -1.137609   -2.367764   -0.173452
     12          5           0        0.996778   -0.035905   -0.002486
     13         17           0        1.512278   -0.337786    1.769527
     14         17           0        1.955610   -1.175492   -1.133363
     15         17           0        1.352912    1.741670   -0.461064
 ---------------------------------------------------------------------
 Rotational constants (GHZ):           1.2435466           0.5829045           0.5330728
 Standard basis: 3-21G (6D, 7F)
 There are   112 symmetry adapted cartesian basis functions of A   symmetry.
 There are   112 symmetry adapted basis functions of A   symmetry.
   112 basis functions,   201 primitive gaussians,   112 cartesian basis functions
    49 alpha electrons       49 beta electrons
       nuclear repulsion energy       750.8788558043 Hartrees.
 NAtoms=   15 NActive=   15 NUniq=   15 SFac= 1.00D+00 NAtFMM=   60 NAOKFM=F Big=F
 Integral buffers will be    131072 words long.
 Raffenetti 1 integral format.
 Two-electron integral symmetry is turned on.
 One-electron integrals computed using PRISM.
 NBasis=   112 RedAO= T EigKep=  3.15D-03  NBF=   112
 NBsUse=   112 1.00D-06 EigRej= -1.00D+00 NBFU=   112
 ExpMin= 1.24D-01 ExpMax= 1.38D+03 ExpMxC= 1.38D+03 IAcc=3 IRadAn=         5 AccDes= 0.00D+00
 Harris functional with IExCor=  205 and IRadAn=       5 diagonalized for initial guess.
 HarFok:  IExCor=  205 AccDes= 0.00D+00 IRadAn=         5 IDoV= 1 UseB2=F ITyADJ=14
 ICtDFT=  3500011 ScaDFX=  1.000000  1.000000  1.000000  1.000000
 FoFCou: FMM=F IPFlag=           0 FMFlag=      100000 FMFlg1=           0
         NFxFlg=           0 DoJE=T BraDBF=F KetDBF=T FulRan=T
         wScrn=  0.000000 ICntrl=       500 IOpCl=  0 I1Cent=   200000004 NGrid=           0
         NMat0=    1 NMatS0=      1 NMatT0=    0 NMatD0=    1 NMtDS0=    0 NMtDT0=    0
 Petite list used in FoFCou.
 Keep R1 ints in memory in canonical form, NReq=20873740.
 Requested convergence on RMS density matrix=1.00D-08 within 128 cycles.
 Requested convergence on MAX density matrix=1.00D-06.
 Requested convergence on             energy=1.00D-06.
 No special actions if energy rises.
 SCF Done:  E(RHF) =  -1641.84802998     A.U. after   14 cycles
            NFock= 14  Conv=0.49D-08     -V/T= 2.0011

 **********************************************************************

            Population analysis using the SCF Density.

 **********************************************************************

 Orbital symmetries:
       Occupied  (A) (A) (A) (A) (A) (A) (A) (A) (A) (A) (A) (A)
                 (A) (A) (A) (A) (A) (A) (A) (A) (A) (A) (A) (A)
                 (A) (A) (A) (A) (A) (A) (A) (A) (A) (A) (A) (A)
                 (A) (A) (A) (A) (A) (A) (A) (A) (A) (A) (A) (A)
                 (A)
       Virtual   (A) (A) (A) (A) (A) (A) (A) (A) (A) (A) (A) (A)
                 (A) (A) (A) (A) (A) (A) (A) (A) (A) (A) (A) (A)
                 (A) (A) (A) (A) (A) (A) (A) (A) (A) (A) (A) (A)
                 (A) (A) (A) (A) (A) (A) (A) (A) (A) (A) (A) (A)
                 (A) (A) (A) (A) (A) (A) (A) (A) (A) (A) (A) (A)
                 (A) (A) (A)
 The electronic state is 1-A.
 Alpha  occ. eigenvalues -- -104.08726-104.06947-104.06503 -15.63181 -11.31776
 Alpha  occ. eigenvalues --  -11.28809 -11.27724 -11.26005 -11.25170 -10.48508
 Alpha  occ. eigenvalues --  -10.46501 -10.46033  -7.94757  -7.94499  -7.94374
 Alpha  occ. eigenvalues --   -7.92825  -7.92465  -7.92462  -7.92364  -7.92008
 Alpha  occ. eigenvalues --   -7.92000  -7.72973  -1.37315  -1.17003  -1.13760
 Alpha  occ. eigenvalues --   -1.10082  -1.07382  -1.05479  -0.94004  -0.92608
 Alpha  occ. eigenvalues --   -0.81421  -0.74601  -0.72120  -0.70311  -0.67082
 Alpha  occ. eigenvalues --   -0.64280  -0.62866  -0.58883  -0.56729  -0.53847
 Alpha  occ. eigenvalues --   -0.52818  -0.47257  -0.45603  -0.44671  -0.43860
 Alpha  occ. eigenvalues --   -0.42279  -0.41701  -0.40878  -0.40822
 Alpha virt. eigenvalues --    0.03511   0.07332   0.20180   0.21837   0.24531
 Alpha virt. eigenvalues --    0.25793   0.26239   0.28477   0.29009   0.29950
 Alpha virt. eigenvalues --    0.30795   0.35696   0.41963   0.42944   0.45755
 Alpha virt. eigenvalues --    0.46422   0.63435   0.64669   0.67567   0.68632
 Alpha virt. eigenvalues --    0.70621   0.75471   0.79335   0.79493   0.80327
 Alpha virt. eigenvalues --    0.80966   0.83550   0.85449   0.87869   0.88811
 Alpha virt. eigenvalues --    0.89768   0.90311   0.90753   0.94156   0.96119
 Alpha virt. eigenvalues --    0.97789   0.98359   1.00362   1.02246   1.03050
 Alpha virt. eigenvalues --    1.07555   1.13370   1.14924   1.16318   1.20652
 Alpha virt. eigenvalues --    1.21827   1.22948   1.29480   1.33662   1.43491
 Alpha virt. eigenvalues --    1.45753   1.51922   1.53355   1.61750   1.62651
 Alpha virt. eigenvalues --    1.63870   1.71197   1.81827   1.90360   2.06383
 Alpha virt. eigenvalues --    2.19058   2.27829   3.17602
     Molecular Orbital Coefficients:
                           1         2         3         4         5
                           O         O         O         O         O
     Eigenvalues --  -104.08726-104.06947-104.06503 -15.63181 -11.31776
   1 1   C  1S         -0.00004  -0.00001   0.00001  -0.00008  -0.00676
   2        2S         -0.00029  -0.00005   0.00007   0.00008  -0.00275
   3        2PX         0.00017  -0.00005   0.00001   0.00098   0.00096
   4        2PY        -0.00004  -0.00002  -0.00000  -0.00096   0.00147
   5        2PZ        -0.00011  -0.00007   0.00016   0.00004   0.00004
   6        3S          0.00267   0.00001  -0.00043   0.02519   0.00830
   7        3PX        -0.00117   0.00093  -0.00042  -0.00783  -0.01410
   8        3PY         0.00239  -0.00046   0.00056  -0.02640  -0.00900
   9        3PZ         0.00054   0.00034  -0.00058  -0.00038   0.00050
  10 2   C  1S          0.00003  -0.00001  -0.00000   0.00049   0.00011
  11        2S          0.00015  -0.00007  -0.00003   0.00240   0.00077
  12        2PX        -0.00008   0.00001  -0.00002  -0.00034  -0.00043
  13        2PY        -0.00001   0.00002   0.00002  -0.00075   0.00011
  14        2PZ         0.00003   0.00002  -0.00004  -0.00002   0.00001
  15        3S         -0.00223   0.00084  -0.00012  -0.02113  -0.01208
  16        3PX        -0.00103   0.00038  -0.00006  -0.00163  -0.00565
  17        3PY         0.00011  -0.00026  -0.00026   0.02308   0.00773
  18        3PZ        -0.00012  -0.00021   0.00027   0.00072   0.00064
  19 3   C  1S         -0.00002   0.00001   0.00000  -0.00034  -0.00327
  20        2S         -0.00012   0.00004  -0.00000  -0.00148  -0.00164
  21        2PX        -0.00006   0.00001  -0.00002   0.00036  -0.00047
  22        2PY         0.00000  -0.00000  -0.00000   0.00000   0.00096
  23        2PZ         0.00000  -0.00000   0.00001  -0.00002   0.00005
  24        3S          0.00065  -0.00042  -0.00023   0.02892   0.00857
  25        3PX         0.00084  -0.00035  -0.00005   0.01526   0.00482
  26        3PY        -0.00030   0.00015   0.00002  -0.00218  -0.00443
  27        3PZ        -0.00001   0.00008  -0.00007  -0.00112  -0.00045
  28 4   C  1S          0.00002  -0.00001  -0.00000   0.00048  -0.00251
  29        2S          0.00011  -0.00006  -0.00000   0.00238  -0.00280
  30        2PX         0.00001  -0.00002  -0.00000  -0.00006  -0.00135
  31        2PY        -0.00001  -0.00002  -0.00001   0.00077   0.00033
  32        2PZ        -0.00000   0.00001   0.00000   0.00000   0.00008
  33        3S         -0.00130   0.00046   0.00006  -0.02064   0.01781
  34        3PX        -0.00058   0.00020   0.00001  -0.00961   0.01373
  35        3PY        -0.00043   0.00032   0.00017  -0.01877  -0.00663
  36        3PZ         0.00005  -0.00003  -0.00001   0.00035  -0.00096
  37 5   C  1S         -0.00000   0.00000  -0.00001  -0.00020   0.98685
  38        2S          0.00000  -0.00000  -0.00008  -0.00083   0.09630
  39        2PX         0.00012  -0.00003  -0.00001   0.00099   0.00022
  40        2PY         0.00000  -0.00000   0.00003   0.00087   0.00181
  41        2PZ         0.00005   0.00000  -0.00004  -0.00001   0.00006
  42        3S          0.00097  -0.00035   0.00033   0.02796  -0.05924
  43        3PX        -0.00068   0.00007   0.00012   0.00211   0.01213
  44        3PY         0.00044  -0.00012  -0.00018   0.02162  -0.00075
  45        3PZ        -0.00003  -0.00003   0.00009   0.00024  -0.00092
  46 6   N  1S         -0.00005  -0.00002  -0.00004   0.98669   0.00022
  47        2S         -0.00033  -0.00005  -0.00021   0.10631   0.00114
  48        2PX        -0.00003   0.00003   0.00002  -0.00274  -0.00017
  49        2PY        -0.00011   0.00007  -0.00004   0.00100  -0.00023
  50        2PZ         0.00007  -0.00000  -0.00001   0.00041   0.00007
  51        3S          0.00168   0.00047   0.00113  -0.08789  -0.00148
  52        3PX         0.00043   0.00032   0.00031   0.01660   0.00309
  53        3PY         0.00111  -0.00043   0.00024  -0.00536   0.00226
  54        3PZ        -0.00033   0.00033  -0.00010  -0.00165  -0.00048
  55 7   H  1S          0.00008  -0.00003   0.00001   0.00032   0.00009
  56        2S          0.00026  -0.00009   0.00001   0.00305   0.00216
  57 8   H  1S         -0.00003  -0.00009   0.00008   0.00023   0.00113
  58        2S         -0.00428   0.00039  -0.00055   0.01145   0.00783
  59 9   H  1S          0.00004   0.00000   0.00003  -0.00169  -0.00052
  60        2S          0.00014   0.00008   0.00011  -0.00665  -0.00229
  61 10  H  1S         -0.00002   0.00002   0.00001  -0.00154  -0.00111
  62        2S         -0.00014   0.00011   0.00006  -0.00579   0.00018
  63 11  H  1S          0.00011  -0.00003   0.00003   0.00046  -0.00152
  64        2S         -0.00003   0.00011  -0.00024   0.00409   0.00980
  65 12  B  1S          0.00011   0.00017   0.00012  -0.00071  -0.00015
  66        2S          0.00086   0.00154   0.00109  -0.00266  -0.00152
  67        2PX         0.00027  -0.00003   0.00021  -0.00110   0.00147
  68        2PY        -0.00012   0.00007  -0.00015   0.00016   0.00043
  69        2PZ         0.00003   0.00014  -0.00011   0.00005  -0.00008
  70        3S         -0.00659  -0.00704  -0.00634   0.01478   0.00157
  71        3PX        -0.00128  -0.00033  -0.00238  -0.00400  -0.00319
  72        3PY        -0.00389   0.00025   0.00308  -0.00050  -0.00115
  73        3PZ         0.00167  -0.00448   0.00299  -0.00155   0.00139
  74 13  Cl 1S         -0.00704   0.98552   0.02592  -0.00000  -0.00000
  75        2S         -0.00045   0.05309   0.00133   0.00003   0.00001
  76        2PX         0.00001  -0.00007  -0.00000  -0.00002  -0.00000
  77        2PY        -0.00004   0.00004   0.00001   0.00002  -0.00000
  78        2PZ         0.00005  -0.00021   0.00005  -0.00007  -0.00001
  79        3S          0.00061  -0.01969  -0.00009   0.00065   0.00025
  80        3PX        -0.00008   0.00028   0.00000  -0.00001  -0.00002
  81        3PY         0.00022  -0.00015  -0.00003  -0.00010   0.00001
  82        3PZ        -0.00027   0.00083  -0.00027   0.00032   0.00004
  83        4S         -0.00043   0.01500   0.00007  -0.00268  -0.00100
  84        4PX         0.00029  -0.00144   0.00025   0.00139   0.00080
  85        4PY         0.00006   0.00080  -0.00032   0.00008   0.00007
  86        4PZ         0.00020  -0.00417  -0.00003   0.00113   0.00033
  87 14  Cl 1S         -0.00334  -0.02593   0.98553   0.00001  -0.00001
  88        2S         -0.00023  -0.00146   0.05309  -0.00003   0.00001
  89        2PX         0.00002   0.00002  -0.00012   0.00000   0.00003
  90        2PY        -0.00005  -0.00003   0.00013   0.00004   0.00002
  91        2PZ        -0.00001  -0.00006   0.00013   0.00001  -0.00001
  92        3S          0.00018   0.00092  -0.01970   0.00147   0.00027
  93        3PX        -0.00011  -0.00008   0.00047  -0.00016  -0.00024
  94        3PY         0.00024   0.00013  -0.00053  -0.00016  -0.00011
  95        3PZ         0.00006   0.00029  -0.00054  -0.00000   0.00009
  96        4S          0.00065  -0.00068   0.01510  -0.00458   0.00012
  97        4PX         0.00003   0.00017  -0.00235   0.00248   0.00078
  98        4PY         0.00044  -0.00029   0.00271  -0.00101   0.00066
  99        4PZ         0.00007   0.00001   0.00270  -0.00115  -0.00009
 100 15  Cl 1S          0.98584   0.00697   0.00353   0.00001   0.00000
 101        2S          0.05321   0.00031   0.00014  -0.00006  -0.00000
 102        2PX        -0.00014   0.00001  -0.00002   0.00004   0.00002
 103        2PY        -0.00021   0.00004   0.00005  -0.00002  -0.00003
 104        2PZ         0.00007  -0.00004   0.00001   0.00000  -0.00000
 105        3S         -0.02093   0.00029   0.00010   0.00267  -0.00023
 106        3PX         0.00065  -0.00006   0.00009  -0.00038  -0.00013
 107        3PY         0.00089  -0.00024  -0.00026   0.00002   0.00025
 108        3PZ        -0.00031   0.00020  -0.00005   0.00003   0.00001
 109        4S          0.01731   0.00007   0.00024  -0.00772   0.00036
 110        4PX        -0.00272   0.00019  -0.00007   0.00392   0.00105
 111        4PY        -0.00442  -0.00000  -0.00007   0.00243  -0.00134
 112        4PZ         0.00137   0.00027  -0.00021  -0.00075  -0.00021
                           6         7         8         9        10
                           O         O         O         O         O
     Eigenvalues --   -11.28809 -11.27724 -11.26005 -11.25170 -10.48508
   1 1   C  1S          0.98698   0.01010   0.00036   0.00347   0.00012
   2        2S          0.09826   0.00056  -0.00018  -0.00308   0.00159
   3        2PX         0.00004   0.00116   0.00034   0.00166  -0.00082
   4        2PY        -0.00141   0.00026  -0.00002  -0.00032   0.00028
   5        2PZ         0.00033  -0.00004  -0.00003  -0.00009   0.00056
   6        3S         -0.06800  -0.00858   0.00693   0.03430  -0.01515
   7        3PX         0.00581   0.00190  -0.00541  -0.02114   0.00551
   8        3PY        -0.00700   0.00107  -0.00259  -0.00592  -0.01342
   9        3PZ        -0.00186  -0.00022   0.00033   0.00118  -0.00296
  10 2   C  1S         -0.00385  -0.00847  -0.00658   0.98730  -0.00014
  11        2S         -0.00295  -0.00492  -0.00047   0.09971  -0.00074
  12        2PX        -0.00137   0.00035   0.00064   0.00057   0.00041
  13        2PY         0.00013   0.00135   0.00088  -0.00166   0.00006
  14        2PZ         0.00001  -0.00001  -0.00003  -0.00008  -0.00017
  15        3S          0.01751   0.03346  -0.01189  -0.09192   0.01165
  16        3PX         0.01495  -0.00369  -0.00405  -0.00826   0.00546
  17        3PY         0.00258  -0.01951   0.00688   0.02432  -0.00037
  18        3PZ        -0.00035  -0.00005   0.00038   0.00104   0.00069
  19 3   C  1S         -0.01027   0.98714   0.01166   0.00773   0.00004
  20        2S         -0.00215   0.09914  -0.00300  -0.00346   0.00063
  21        2PX        -0.00067   0.00148  -0.00090  -0.00126   0.00033
  22        2PY        -0.00061  -0.00032   0.00109  -0.00067   0.00001
  23        2PZ         0.00004  -0.00011   0.00008   0.00007  -0.00000
  24        3S          0.00815  -0.08867   0.03544   0.03605  -0.00337
  25        3PX         0.00509  -0.02229   0.01760   0.02179  -0.00457
  26        3PY         0.00274   0.00436  -0.01425   0.00657   0.00164
  27        3PZ        -0.00047   0.00155  -0.00143  -0.00134   0.00005
  28 4   C  1S         -0.00019  -0.01249   0.98724   0.00674  -0.00006
  29        2S          0.00057  -0.00528   0.09960   0.00086  -0.00056
  30        2PX        -0.00036  -0.00014   0.00121   0.00034  -0.00003
  31        2PY         0.00003  -0.00142   0.00133  -0.00104   0.00005
  32        2PZ         0.00000  -0.00002  -0.00007  -0.00004   0.00002
  33        3S         -0.00899   0.03341  -0.09057  -0.01286   0.00721
  34        3PX        -0.00627   0.00299  -0.01539  -0.00599   0.00326
  35        3PY        -0.00402   0.02034  -0.02034  -0.00547   0.00241
  36        3PZ         0.00042   0.00017   0.00069   0.00030  -0.00026
  37 5   C  1S          0.00612   0.00314   0.00209   0.00009   0.00005
  38        2S         -0.00150  -0.00034  -0.00322  -0.00021   0.00003
  39        2PX         0.00022   0.00101   0.00152   0.00031  -0.00068
  40        2PY        -0.00137  -0.00055  -0.00023  -0.00009  -0.00001
  41        2PZ        -0.00002  -0.00008  -0.00009  -0.00003  -0.00024
  42        3S          0.00677  -0.00707   0.03426   0.00710  -0.00556
  43        3PX        -0.00721   0.00094  -0.01562  -0.00367   0.00382
  44        3PY         0.00962  -0.00322   0.01367   0.00426  -0.00269
  45        3PZ         0.00072  -0.00012   0.00123   0.00034   0.00016
  46 6   N  1S          0.00029  -0.00006   0.00025   0.00024   0.00022
  47        2S          0.00184  -0.00046   0.00145   0.00147   0.00163
  48        2PX         0.00033   0.00017  -0.00021  -0.00008   0.00016
  49        2PY         0.00025   0.00002   0.00014  -0.00017   0.00057
  50        2PZ         0.00011  -0.00001   0.00001   0.00001  -0.00035
  51        3S         -0.00322   0.00355  -0.01009  -0.00949  -0.00902
  52        3PX        -0.00056  -0.00168   0.00652   0.00517  -0.00247
  53        3PY        -0.00297  -0.00015   0.00091  -0.00214  -0.00618
  54        3PZ        -0.00062   0.00011  -0.00043  -0.00044   0.00185
  55 7   H  1S          0.00003  -0.00205  -0.00003  -0.00000  -0.00040
  56        2S          0.00174   0.00601   0.00478   0.00485  -0.00147
  57 8   H  1S         -0.00170  -0.00034   0.00023   0.00011   0.00003
  58        2S          0.01955   0.00279   0.00167   0.00326   0.02475
  59 9   H  1S         -0.00115  -0.00017  -0.00041  -0.00225  -0.00020
  60        2S         -0.00068   0.00390  -0.00105   0.00512  -0.00087
  61 10  H  1S         -0.00045  -0.00012  -0.00230  -0.00044   0.00009
  62        2S         -0.00174   0.00408   0.00507  -0.00096   0.00081
  63 11  H  1S          0.00092  -0.00020  -0.00007   0.00019  -0.00058
  64        2S          0.00491   0.00049   0.00413   0.00158   0.00011
  65 12  B  1S         -0.00059  -0.00004  -0.00009  -0.00008  -0.00082
  66        2S         -0.00339  -0.00019  -0.00075  -0.00029  -0.00517
  67        2PX         0.00076   0.00003   0.00053  -0.00012  -0.00147
  68        2PY        -0.00037   0.00004   0.00035   0.00013   0.00054
  69        2PZ        -0.00034  -0.00003   0.00012   0.00007  -0.00012
  70        3S          0.01148   0.00131  -0.00003   0.00064   0.03861
  71        3PX        -0.00705  -0.00048  -0.00014  -0.00097   0.00715
  72        3PY         0.00738   0.00042  -0.00125   0.00164   0.02306
  73        3PZ         0.00203  -0.00024   0.00051   0.00030  -0.00957
  74 13  Cl 1S          0.00000   0.00000  -0.00001  -0.00000   0.00593
  75        2S          0.00001  -0.00000   0.00001   0.00001  -0.01887
  76        2PX        -0.00001  -0.00000   0.00001   0.00001   0.00001
  77        2PY         0.00000   0.00000   0.00000  -0.00001   0.00014
  78        2PZ        -0.00004  -0.00001   0.00001   0.00000  -0.00004
  79        3S          0.00058  -0.00005   0.00024   0.00015  -0.00512
  80        3PX        -0.00005   0.00002  -0.00007  -0.00010   0.00043
  81        3PY         0.00005  -0.00001  -0.00002   0.00010  -0.00112
  82        3PZ         0.00022   0.00004  -0.00004  -0.00001   0.00149
  83        4S         -0.00252   0.00002  -0.00065  -0.00022   0.00276
  84        4PX         0.00184   0.00006   0.00024   0.00034  -0.00158
  85        4PY        -0.00150  -0.00003   0.00017  -0.00046  -0.00064
  86        4PZ         0.00069  -0.00003   0.00034   0.00000  -0.00101
  87 14  Cl 1S          0.00001  -0.00000   0.00000  -0.00000   0.00272
  88        2S         -0.00001   0.00000  -0.00000   0.00000  -0.00861
  89        2PX         0.00003   0.00000  -0.00001   0.00001  -0.00004
  90        2PY        -0.00001   0.00000  -0.00001  -0.00002   0.00013
  91        2PZ         0.00003   0.00000   0.00000   0.00000   0.00000
  92        3S         -0.00033   0.00009   0.00002  -0.00004  -0.00174
  93        3PX        -0.00025  -0.00002   0.00006  -0.00009   0.00061
  94        3PY         0.00009  -0.00000   0.00005   0.00011  -0.00121
  95        3PZ        -0.00022  -0.00000  -0.00000  -0.00002  -0.00036
  96        4S          0.00261  -0.00021  -0.00021   0.00074  -0.00351
  97        4PX         0.00043   0.00015   0.00001  -0.00000  -0.00018
  98        4PY         0.00012  -0.00010   0.00001  -0.00004  -0.00277
  99        4PZ         0.00159   0.00001  -0.00016   0.00045  -0.00033
 100 15  Cl 1S         -0.00003  -0.00001   0.00001   0.00000  -0.30574
 101        2S          0.00012   0.00003  -0.00002  -0.00001   0.98209
 102        2PX        -0.00004   0.00001  -0.00000   0.00001  -0.00377
 103        2PY        -0.00008  -0.00000  -0.00001  -0.00003  -0.00725
 104        2PZ        -0.00003  -0.00001   0.00000   0.00000   0.00209
 105        3S          0.00280   0.00074  -0.00040  -0.00039   0.15295
 106        3PX         0.00013  -0.00012   0.00002   0.00001  -0.00447
 107        3PY         0.00051   0.00001   0.00010   0.00025  -0.00649
 108        3PZ         0.00029   0.00005  -0.00002  -0.00002   0.00220
 109        4S         -0.01142  -0.00195   0.00113   0.00004  -0.10108
 110        4PX         0.00508   0.00110  -0.00018  -0.00037   0.01576
 111        4PY         0.00194   0.00034  -0.00073  -0.00048   0.02583
 112        4PZ        -0.00262  -0.00029   0.00011  -0.00011  -0.00801
                          11        12        13        14        15
                           O         O         O         O         O
     Eigenvalues --   -10.46501 -10.46033  -7.94757  -7.94499  -7.94374
   1 1   C  1S          0.00008  -0.00004   0.00011   0.00003   0.00006
   2        2S          0.00035  -0.00035   0.00099   0.00021   0.00061
   3        2PX         0.00028  -0.00012   0.00090  -0.00012   0.00021
   4        2PY         0.00008   0.00004   0.00007   0.00014   0.00009
   5        2PZ         0.00045  -0.00083   0.00001  -0.00019  -0.00040
   6        3S         -0.00064   0.00181  -0.00060   0.00260  -0.00180
   7        3PX        -0.00498   0.00263  -0.00805   0.00191  -0.00188
   8        3PY         0.00264  -0.00276  -0.00003  -0.00006  -0.00162
   9        3PZ        -0.00214   0.00303   0.00037   0.00079   0.00176
  10 2   C  1S          0.00004  -0.00001   0.00007  -0.00001   0.00000
  11        2S          0.00031   0.00009   0.00041  -0.00026   0.00001
  12        2PX        -0.00003   0.00012  -0.00014  -0.00033  -0.00002
  13        2PY        -0.00006  -0.00011  -0.00010  -0.00016  -0.00002
  14        2PZ        -0.00014   0.00019  -0.00000   0.00006   0.00011
  15        3S         -0.00412   0.00114  -0.00570   0.00007  -0.00052
  16        3PX        -0.00199   0.00050  -0.00259   0.00233  -0.00015
  17        3PY         0.00109   0.00109   0.00230   0.00133   0.00072
  18        3PZ         0.00122  -0.00143   0.00030  -0.00051  -0.00076
  19 3   C  1S         -0.00002  -0.00001  -0.00001  -0.00002   0.00000
  20        2S         -0.00018   0.00002  -0.00002  -0.00014   0.00005
  21        2PX        -0.00003   0.00010   0.00006   0.00004   0.00005
  22        2PY         0.00002   0.00001   0.00013  -0.00004   0.00003
  23        2PZ         0.00001  -0.00003   0.00000  -0.00000  -0.00002
  24        3S          0.00175   0.00093   0.00096   0.00174   0.00025
  25        3PX         0.00160   0.00009   0.00100   0.00049  -0.00014
  26        3PY        -0.00074  -0.00003  -0.00009   0.00127   0.00007
  27        3PZ        -0.00042   0.00036  -0.00014   0.00010   0.00028
  28 4   C  1S          0.00001   0.00000   0.00001  -0.00000  -0.00000
  29        2S          0.00027   0.00000   0.00010  -0.00005  -0.00003
  30        2PX         0.00012   0.00002   0.00011   0.00000   0.00000
  31        2PY         0.00007   0.00007  -0.00004   0.00001   0.00001
  32        2PZ        -0.00003  -0.00002  -0.00003   0.00001   0.00002
  33        3S         -0.00201  -0.00008  -0.00089   0.00034   0.00044
  34        3PX        -0.00090   0.00002  -0.00045  -0.00038   0.00026
  35        3PY        -0.00139  -0.00067   0.00031  -0.00009  -0.00003
  36        3PZ         0.00013   0.00008   0.00020  -0.00003  -0.00017
  37 5   C  1S         -0.00001   0.00001   0.00004  -0.00001   0.00001
  38        2S          0.00000   0.00040   0.00026  -0.00026   0.00005
  39        2PX         0.00016   0.00004   0.00001  -0.00023  -0.00008
  40        2PY         0.00001  -0.00018   0.00002  -0.00019   0.00004
  41        2PZ        -0.00003   0.00020   0.00010   0.00001   0.00011
  42        3S          0.00154  -0.00199  -0.00117   0.00000  -0.00028
  43        3PX        -0.00028  -0.00065  -0.00127  -0.00006   0.00048
  44        3PY         0.00028   0.00064  -0.00174   0.00059  -0.00011
  45        3PZ         0.00019  -0.00051  -0.00026   0.00000   0.00009
  46 6   N  1S          0.00008   0.00018  -0.00001  -0.00004  -0.00001
  47        2S          0.00025   0.00107   0.00013  -0.00025  -0.00002
  48        2PX        -0.00008   0.00000   0.00033   0.00001  -0.00008
  49        2PY        -0.00033   0.00019   0.00037   0.00034   0.00013
  50        2PZ         0.00006   0.00001  -0.00003  -0.00005   0.00031
  51        3S         -0.00235  -0.00610   0.00181   0.00152   0.00043
  52        3PX        -0.00213  -0.00242  -0.00134   0.00067   0.00075
  53        3PY         0.00224  -0.00111  -0.00051  -0.00133  -0.00032
  54        3PZ        -0.00204   0.00059  -0.00009   0.00010  -0.00165
  55 7   H  1S          0.00013  -0.00003   0.00009  -0.00008  -0.00003
  56        2S          0.00045  -0.00009   0.00017  -0.00002  -0.00011
  57 8   H  1S          0.00053  -0.00044  -0.00049  -0.00036   0.00009
  58        2S         -0.00198   0.00297   0.00197  -0.00952   0.00296
  59 9   H  1S          0.00002  -0.00012  -0.00003  -0.00020  -0.00004
  60        2S         -0.00035  -0.00054  -0.00085  -0.00001  -0.00032
  61 10  H  1S         -0.00008  -0.00005   0.00007  -0.00007  -0.00001
  62        2S         -0.00051  -0.00030  -0.00000  -0.00012   0.00001
  63 11  H  1S          0.00017  -0.00015   0.00011  -0.00002  -0.00004
  64        2S         -0.00075   0.00110  -0.00081   0.00055  -0.00001
  65 12  B  1S         -0.00120  -0.00099   0.00018  -0.00039  -0.00002
  66        2S         -0.00856  -0.00695  -0.00166  -0.00048  -0.00004
  67        2PX         0.00014  -0.00127   0.00052  -0.00073  -0.00010
  68        2PY        -0.00040   0.00088   0.00069  -0.00054  -0.00017
  69        2PZ        -0.00092   0.00058  -0.00030   0.00017  -0.00094
  70        3S          0.03994   0.04034  -0.00352  -0.00100   0.00015
  71        3PX         0.00155   0.01423  -0.00281   0.00580   0.00094
  72        3PY        -0.00029  -0.01789  -0.00536  -0.00059   0.00159
  73        3PZ         0.02675  -0.01597   0.00345   0.00063   0.00635
  74 13  Cl 1S         -0.30490  -0.02424   0.00007   0.00000  -0.00004
  75        2S          0.97966   0.07807  -0.00031   0.00000   0.00019
  76        2PX        -0.00306  -0.00024  -0.00102  -0.00134  -0.00089
  77        2PY         0.00129   0.00008   0.00187   0.00016  -0.00465
  78        2PZ        -0.00744  -0.00081  -0.00218  -0.00011   0.00138
  79        3S          0.14564   0.00942   0.00255  -0.00003  -0.00093
  80        3PX        -0.00217  -0.00010  -0.00032  -0.00024  -0.00020
  81        3PY         0.00109   0.00017   0.00079  -0.00003  -0.00123
  82        3PZ        -0.00625   0.00104  -0.00083   0.00003   0.00051
  83        4S         -0.08785  -0.00577  -0.00511  -0.00073  -0.00113
  84        4PX         0.00853  -0.00101   0.00131  -0.00036   0.00085
  85        4PY        -0.00481   0.00164  -0.00173   0.00020   0.00176
  86        4PZ         0.02442   0.00198   0.00280   0.00050   0.00017
  87 14  Cl 1S          0.02420  -0.30494   0.00005  -0.00004   0.00003
  88        2S         -0.07755   0.97982  -0.00024   0.00019  -0.00014
  89        2PX         0.00033  -0.00486  -0.00115  -0.00119  -0.00004
  90        2PY        -0.00028   0.00466   0.00200  -0.00302   0.00292
  91        2PZ        -0.00017   0.00472   0.00031   0.00011  -0.00085
  92        3S         -0.01355   0.14555   0.00176  -0.00132   0.00068
  93        3PX         0.00066  -0.00358  -0.00040  -0.00021   0.00001
  94        3PY        -0.00098   0.00390   0.00095  -0.00107   0.00094
  95        3PZ        -0.00172   0.00389   0.00014   0.00001  -0.00015
  96        4S          0.00804  -0.08858  -0.00228   0.00100   0.00079
  97        4PX        -0.00163   0.01385   0.00098  -0.00022  -0.00107
  98        4PY         0.00232  -0.01586  -0.00174   0.00185  -0.00111
  99        4PZ         0.00043  -0.01598  -0.00053  -0.00063   0.00029
 100 15  Cl 1S         -0.00580  -0.00325  -0.00321  -0.00074  -0.00001
 101        2S          0.01883   0.01060   0.01116   0.00259   0.00004
 102        2PX        -0.00012   0.00002   0.25167   0.92947   0.14514
 103        2PY        -0.00030  -0.00029   0.90940  -0.27882   0.20595
 104        2PZ         0.00019  -0.00001  -0.23787  -0.08231   0.94100
 105        3S          0.00076   0.00075  -0.00707  -0.00289   0.00030
 106        3PX         0.00028  -0.00052   0.02180   0.07748   0.01182
 107        3PY         0.00110   0.00138   0.07804  -0.02297   0.01692
 108        3PZ        -0.00099   0.00021  -0.02036  -0.00697   0.07701
 109        4S         -0.00216  -0.00259   0.01290   0.00534  -0.00086
 110        4PX        -0.00081   0.00037  -0.00863  -0.02917  -0.00329
 111        4PY         0.00061   0.00102  -0.03067   0.00714  -0.00561
 112        4PZ        -0.00200   0.00111   0.00761   0.00289  -0.02518
                          16        17        18        19        20
                           O         O         O         O         O
     Eigenvalues --    -7.92825  -7.92465  -7.92462  -7.92364  -7.92008
   1 1   C  1S          0.00002  -0.00002  -0.00002  -0.00005  -0.00000
   2        2S          0.00038  -0.00005  -0.00006  -0.00016  -0.00009
   3        2PX         0.00017  -0.00011   0.00016   0.00028  -0.00008
   4        2PY        -0.00012  -0.00009  -0.00013  -0.00011   0.00024
   5        2PZ         0.00008   0.00030  -0.00003  -0.00026  -0.00001
   6        3S         -0.00188  -0.00012   0.00164   0.00371  -0.00052
   7        3PX         0.00066   0.00324  -0.00128  -0.00250   0.00045
   8        3PY         0.00049   0.00037  -0.00001  -0.00223  -0.00127
   9        3PZ         0.00046  -0.00046   0.00031   0.00145  -0.00024
  10 2   C  1S         -0.00003  -0.00004   0.00002   0.00006   0.00000
  11        2S         -0.00018  -0.00028   0.00012   0.00036   0.00001
  12        2PX         0.00003   0.00000  -0.00005  -0.00004   0.00003
  13        2PY         0.00007   0.00008  -0.00001  -0.00007  -0.00002
  14        2PZ        -0.00001  -0.00005   0.00000   0.00007   0.00000
  15        3S          0.00179   0.00281  -0.00141  -0.00333  -0.00012
  16        3PX         0.00034   0.00134  -0.00071  -0.00141   0.00072
  17        3PY        -0.00138  -0.00160   0.00044   0.00230   0.00072
  18        3PZ        -0.00018   0.00010   0.00000  -0.00042  -0.00001
  19 3   C  1S          0.00003   0.00002  -0.00000  -0.00002  -0.00001
  20        2S          0.00014   0.00009  -0.00001  -0.00009  -0.00004
  21        2PX         0.00001  -0.00003  -0.00001   0.00005  -0.00004
  22        2PY         0.00000  -0.00005   0.00005   0.00006  -0.00002
  23        2PZ        -0.00001   0.00000  -0.00000  -0.00002   0.00000
  24        3S         -0.00193  -0.00163   0.00005   0.00228   0.00011
  25        3PX        -0.00124  -0.00104   0.00018   0.00129   0.00071
  26        3PY         0.00021   0.00051  -0.00006  -0.00054   0.00086
  27        3PZ         0.00017  -0.00001  -0.00004   0.00009   0.00002
  28 4   C  1S         -0.00003  -0.00002  -0.00000   0.00003   0.00003
  29        2S         -0.00016  -0.00011  -0.00005   0.00012   0.00021
  30        2PX        -0.00001  -0.00006  -0.00002  -0.00004   0.00007
  31        2PY        -0.00005  -0.00004  -0.00006   0.00003  -0.00004
  32        2PZ        -0.00000  -0.00003  -0.00004   0.00001   0.00005
  33        3S          0.00167   0.00088   0.00003  -0.00186  -0.00156
  34        3PX         0.00078   0.00021   0.00017  -0.00054  -0.00159
  35        3PY         0.00123   0.00110   0.00025  -0.00142   0.00101
  36        3PZ        -0.00015   0.00013   0.00019  -0.00008  -0.00011
  37 5   C  1S          0.00001  -0.00001   0.00000   0.00001  -0.00005
  38        2S          0.00007  -0.00000   0.00005   0.00016  -0.00043
  39        2PX         0.00003   0.00012  -0.00002  -0.00004   0.00022
  40        2PY         0.00002   0.00002   0.00000   0.00006   0.00016
  41        2PZ         0.00005   0.00013   0.00023   0.00006  -0.00024
  42        3S         -0.00138  -0.00014  -0.00047   0.00064   0.00279
  43        3PX         0.00048  -0.00026  -0.00014  -0.00062  -0.00168
  44        3PY        -0.00132  -0.00052  -0.00023   0.00176  -0.00183
  45        3PZ         0.00029  -0.00009  -0.00031   0.00016   0.00047
  46 6   N  1S          0.00003  -0.00004  -0.00002   0.00002  -0.00005
  47        2S          0.00047  -0.00011  -0.00010  -0.00009  -0.00027
  48        2PX         0.00050   0.00015  -0.00005  -0.00076   0.00021
  49        2PY         0.00002  -0.00005   0.00018   0.00031  -0.00011
  50        2PZ         0.00041   0.00029   0.00028   0.00029  -0.00030
  51        3S          0.00048   0.00222   0.00140  -0.00167   0.00243
  52        3PX        -0.00193  -0.00015   0.00072   0.00334  -0.00015
  53        3PY        -0.00008   0.00010  -0.00116  -0.00124  -0.00030
  54        3PZ        -0.00090  -0.00048  -0.00081  -0.00082   0.00101
  55 7   H  1S         -0.00005  -0.00005   0.00002   0.00005   0.00007
  56        2S         -0.00030  -0.00024   0.00005   0.00025   0.00018
  57 8   H  1S          0.00010  -0.00002  -0.00003   0.00008  -0.00009
  58        2S          0.00094  -0.00076  -0.00068   0.00170   0.00144
  59 9   H  1S          0.00009   0.00006  -0.00001  -0.00012  -0.00004
  60        2S          0.00036   0.00058  -0.00010  -0.00075  -0.00023
  61 10  H  1S          0.00009   0.00007   0.00003  -0.00008   0.00007
  62        2S          0.00041   0.00034   0.00013  -0.00040   0.00010
  63 11  H  1S         -0.00012   0.00001   0.00003   0.00006   0.00043
  64        2S         -0.00030  -0.00017   0.00020   0.00101  -0.00233
  65 12  B  1S          0.00099   0.00021  -0.00009  -0.00083  -0.00006
  66        2S          0.00006   0.00050  -0.00013   0.00034  -0.00007
  67        2PX        -0.00009  -0.00119  -0.00031  -0.00040  -0.00070
  68        2PY        -0.00011   0.00051  -0.00114   0.00088  -0.00064
  69        2PZ         0.00111   0.00044   0.00005   0.00085  -0.00001
  70        3S         -0.00658  -0.00113  -0.00000   0.00593   0.00019
  71        3PX        -0.00025   0.00751   0.00223   0.00340   0.00500
  72        3PY         0.00128  -0.00313   0.00734  -0.00557   0.00469
  73        3PZ        -0.00853  -0.00324   0.00000  -0.00605  -0.00007
  74 13  Cl 1S         -0.00310  -0.00024  -0.00012  -0.00003  -0.00000
  75        2S          0.01074   0.00081   0.00039   0.00016   0.00000
  76        2PX         0.27681   0.86972   0.34000   0.01266   0.00114
  77        2PY        -0.16527  -0.30288   0.91073  -0.01886   0.00206
  78        2PZ         0.91821  -0.31642   0.06122  -0.01888  -0.00002
  79        3S         -0.00646  -0.00012  -0.00012  -0.00228   0.00001
  80        3PX         0.02365   0.07108   0.02773   0.00097   0.00012
  81        3PY        -0.01409  -0.02481   0.07438  -0.00134   0.00015
  82        3PZ         0.07829  -0.02584   0.00504  -0.00075  -0.00000
  83        4S          0.01354   0.00058   0.00043   0.00449  -0.00027
  84        4PX        -0.00953  -0.02342  -0.00893  -0.00071  -0.00079
  85        4PY         0.00553   0.00841  -0.02424   0.00058  -0.00075
  86        4PZ        -0.03075   0.00820  -0.00188  -0.00233   0.00023
  87 14  Cl 1S          0.00009  -0.00010   0.00006   0.00311  -0.00026
  88        2S         -0.00038   0.00039  -0.00022  -0.01080   0.00087
  89        2PX        -0.00412   0.00405  -0.00499  -0.49442   0.70534
  90        2PY         0.00554  -0.00829   0.00393   0.59890   0.66644
  91        2PZ         0.00880  -0.02657   0.01557   0.58581  -0.08595
  92        3S          0.00234  -0.00075   0.00035   0.00645  -0.00011
  93        3PX        -0.00053   0.00028  -0.00036  -0.04224   0.05766
  94        3PY         0.00077  -0.00068   0.00035   0.05107   0.05441
  95        3PZ         0.00151  -0.00302   0.00171   0.04991  -0.00704
  96        4S         -0.00459  -0.00196   0.00091  -0.01355   0.00020
  97        4PX         0.00111   0.00044  -0.00107   0.01683  -0.01874
  98        4PY        -0.00177  -0.00110  -0.00040  -0.02008  -0.01754
  99        4PZ        -0.00239   0.00161  -0.00072  -0.01946   0.00226
 100 15  Cl 1S          0.00005   0.00001  -0.00003  -0.00005  -0.00002
 101        2S         -0.00026  -0.00004   0.00018   0.00023   0.00011
 102        2PX         0.00096   0.00138   0.00070   0.00048   0.00255
 103        2PY         0.00212   0.00041  -0.00040  -0.00276  -0.00194
 104        2PZ        -0.00267  -0.00052   0.00501  -0.00100  -0.00225
 105        3S          0.00248   0.00027  -0.00111  -0.00208  -0.00043
 106        3PX        -0.00006  -0.00003   0.00000  -0.00009  -0.00028
 107        3PY        -0.00043  -0.00010   0.00029   0.00063   0.00043
 108        3PZ         0.00040   0.00000  -0.00050   0.00013   0.00028
 109        4S         -0.00451   0.00017  -0.00132   0.00370  -0.00186
 110        4PX         0.00054  -0.00090   0.00019   0.00011   0.00111
 111        4PY         0.00228   0.00035   0.00075  -0.00265  -0.00019
 112        4PZ        -0.00116   0.00050   0.00157   0.00018  -0.00168
                          21        22        23        24        25
                           O         O         O         O         O
     Eigenvalues --    -7.92000  -7.72973  -1.37315  -1.17003  -1.13760
   1 1   C  1S         -0.00005  -0.00036  -0.09689   0.00449  -0.04386
   2        2S         -0.00045  -0.00224   0.10881  -0.00113   0.05044
   3        2PX        -0.00048  -0.00087   0.01292  -0.08355  -0.01875
   4        2PY         0.00008   0.00026  -0.09147   0.03166   0.04002
   5        2PZ         0.00013  -0.00029  -0.00211   0.00520   0.00229
   6        3S          0.00023   0.00808   0.08754  -0.01371   0.10175
   7        3PX         0.00512   0.01830   0.03926  -0.00925  -0.00033
   8        3PY        -0.00084  -0.01138   0.08482  -0.02014   0.01295
   9        3PZ        -0.00068   0.00104   0.00095   0.00071   0.00005
  10 2   C  1S         -0.00004  -0.00009  -0.03656  -0.09322  -0.07169
  11        2S         -0.00025  -0.00024   0.03302   0.10402   0.07805
  12        2PX         0.00005   0.00029   0.02373  -0.02889  -0.00048
  13        2PY         0.00001  -0.00047  -0.02226  -0.06369  -0.02834
  14        2PZ        -0.00003   0.00010  -0.00177   0.00067  -0.00049
  15        3S          0.00342   0.01061   0.12391   0.19155   0.14978
  16        3PX         0.00225   0.00694   0.00749   0.01083   0.00105
  17        3PY        -0.00080   0.00241  -0.09301  -0.00510  -0.00861
  18        3PZ        -0.00001  -0.00151  -0.00296  -0.00130  -0.00021
  19 3   C  1S          0.00001  -0.00001  -0.02489  -0.13686  -0.06467
  20        2S          0.00002  -0.00008   0.03456   0.15299   0.07131
  21        2PX        -0.00002   0.00016   0.02199   0.06474   0.02893
  22        2PY        -0.00008   0.00014  -0.00455  -0.02112   0.01580
  23        2PZ         0.00000  -0.00004  -0.00158  -0.00480  -0.00166
  24        3S         -0.00060   0.00102  -0.06092   0.29169   0.15077
  25        3PX        -0.00048  -0.00152  -0.04921   0.02256   0.01234
  26        3PY         0.00082   0.00182   0.00579  -0.00068  -0.00565
  27        3PZ         0.00002   0.00064   0.00342  -0.00138  -0.00113
  28 4   C  1S         -0.00000  -0.00014  -0.03659  -0.11818  -0.01646
  29        2S         -0.00001  -0.00089   0.03421   0.13025   0.01954
  30        2PX        -0.00003   0.00008   0.02969   0.01167  -0.02862
  31        2PY        -0.00001  -0.00001   0.01339   0.06743   0.03386
  32        2PZ         0.00001   0.00010  -0.00174   0.00040   0.00246
  33        3S          0.00006   0.00863   0.11533   0.24804   0.02924
  34        3PX        -0.00051   0.00456   0.03514   0.01439  -0.00125
  35        3PY         0.00065   0.00125   0.07093   0.01549  -0.00939
  36        3PZ         0.00001  -0.00097  -0.00076  -0.00143   0.00042
  37 5   C  1S         -0.00001   0.00006  -0.09095  -0.03963   0.05232
  38        2S         -0.00002  -0.00079   0.10662   0.04814  -0.05756
  39        2PX         0.00016  -0.00203   0.03847  -0.08506  -0.04144
  40        2PY        -0.00006  -0.00067   0.08066   0.00032  -0.02985
  41        2PZ        -0.00006  -0.00016  -0.00043   0.00484   0.00255
  42        3S          0.00022  -0.00840   0.08062   0.06467  -0.10022
  43        3PX        -0.00097   0.00626   0.00080  -0.01229   0.00422
  44        3PY         0.00005  -0.00321  -0.05893   0.00194   0.00648
  45        3PZ         0.00018   0.00066  -0.00225   0.00187  -0.00112
  46 6   N  1S         -0.00001  -0.00001  -0.19163   0.06533   0.05046
  47        2S          0.00002   0.00069   0.16256  -0.05836  -0.04329
  48        2PX         0.00018   0.00135  -0.07241  -0.03126   0.04664
  49        2PY        -0.00009   0.00129   0.02282  -0.02866   0.05804
  50        2PZ        -0.00004   0.00011   0.00890  -0.00213  -0.00079
  51        3S          0.00053  -0.00061   0.65028  -0.22766  -0.18640
  52        3PX        -0.00022  -0.00179  -0.10629  -0.01772   0.04179
  53        3PY        -0.00031  -0.01003   0.04484  -0.03739   0.04482
  54        3PZ        -0.00017  -0.00016   0.01500  -0.00345  -0.00369
  55 7   H  1S         -0.00005  -0.00033   0.00501   0.05281   0.02778
  56        2S         -0.00013  -0.00051  -0.01432   0.00041   0.00282
  57 8   H  1S         -0.00036  -0.00187   0.02773  -0.02140   0.05652
  58        2S         -0.00075   0.00250  -0.06078   0.00628  -0.00295
  59 9   H  1S         -0.00003  -0.00059   0.01285   0.03336   0.03072
  60        2S          0.00034  -0.00091   0.02526  -0.00414   0.00301
  61 10  H  1S          0.00002  -0.00005   0.01226   0.04486   0.00592
  62        2S          0.00007   0.00076   0.01968   0.00070  -0.00340
  63 11  H  1S          0.00006  -0.00066   0.02115   0.01266  -0.02318
  64        2S          0.00018  -0.00025  -0.02545  -0.00180  -0.00327
  65 12  B  1S          0.00029   0.99029  -0.02453   0.04570  -0.06481
  66        2S          0.00078   0.10292   0.03632  -0.05318   0.07419
  67        2PX        -0.00078  -0.00233  -0.03360   0.00833   0.03830
  68        2PY         0.00066   0.00125  -0.00203  -0.01175   0.04508
  69        2PZ        -0.00096   0.00017  -0.00249   0.00269  -0.00311
  70        3S         -0.00177  -0.09314   0.01446  -0.06183   0.09587
  71        3PX         0.00502  -0.00293   0.01851  -0.00029  -0.00221
  72        3PY        -0.00441  -0.00733  -0.00816  -0.00072  -0.00676
  73        3PZ         0.00565  -0.00625  -0.00255  -0.00761   0.01277
  74 13  Cl 1S         -0.00003  -0.00017   0.00205  -0.01079   0.02175
  75        2S          0.00014   0.00079  -0.01190   0.06305  -0.12726
  76        2PX         0.01059  -0.00064   0.00205  -0.00369   0.00388
  77        2PY        -0.01258   0.00046  -0.00048   0.00233  -0.00537
  78        2PZ        -0.00865  -0.00172   0.00306  -0.00979   0.01707
  79        3S         -0.00092  -0.00773   0.01499  -0.08346   0.16860
  80        3PX         0.00052   0.00043  -0.00381   0.00772  -0.00824
  81        3PY        -0.00057  -0.00040   0.00103  -0.00515   0.01164
  82        3PZ        -0.00005   0.00076  -0.00659   0.02051  -0.03580
  83        4S         -0.00141   0.02879   0.00789  -0.04524   0.09723
  84        4PX         0.00061  -0.00439  -0.00635   0.00152   0.00154
  85        4PY        -0.00066   0.00405   0.00073   0.00103   0.00105
  86        4PZ         0.00004  -0.01319   0.00097   0.00029  -0.00080
  87 14  Cl 1S         -0.00011  -0.00012   0.00175  -0.00978   0.01925
  88        2S          0.00039   0.00056  -0.01011   0.05714  -0.11262
  89        2PX         0.45444  -0.00091   0.00209  -0.00534   0.00683
  90        2PY        -0.38132   0.00117  -0.00151   0.00613  -0.01185
  91        2PZ         0.77254   0.00082  -0.00143   0.00543  -0.00952
  92        3S          0.00007  -0.00497   0.01243  -0.07321   0.14680
  93        3PX         0.03716   0.00029  -0.00320   0.01074  -0.01419
  94        3PY        -0.03117  -0.00047   0.00320  -0.01281   0.02476
  95        3PZ         0.06310  -0.00011   0.00283  -0.01115   0.01979
  96        4S         -0.00061   0.01918   0.00158  -0.04926   0.09519
  97        4PX        -0.01212  -0.00421  -0.00560   0.00496  -0.00177
  98        4PY         0.01010   0.00654  -0.00267  -0.00237   0.00578
  99        4PZ        -0.02084   0.00559  -0.00254  -0.00198   0.00204
 100 15  Cl 1S          0.00002  -0.00009   0.00383  -0.02029   0.05288
 101        2S         -0.00011   0.00039  -0.02233   0.11878  -0.31011
 102        2PX        -0.00013   0.00028   0.00416  -0.00835   0.01709
 103        2PY         0.00177  -0.00116   0.00433  -0.01393   0.02896
 104        2PZ         0.00163   0.00025  -0.00109   0.00423  -0.00962
 105        3S          0.00060  -0.00391   0.02055  -0.14549   0.38293
 106        3PX         0.00004  -0.00083  -0.00709   0.01601  -0.03366
 107        3PY        -0.00037  -0.00005  -0.00861   0.02778  -0.05845
 108        3PZ        -0.00011  -0.00000   0.00170  -0.00845   0.01932
 109        4S          0.00135   0.02224   0.04099  -0.12376   0.33318
 110        4PX        -0.00117   0.00149  -0.02126   0.01788  -0.03384
 111        4PY        -0.00004  -0.01040  -0.00452   0.01440  -0.03350
 112        4PZ         0.00026   0.00372   0.00541  -0.00410   0.01183
                          26        27        28        29        30
                           O         O         O         O         O
     Eigenvalues --    -1.10082  -1.07382  -1.05479  -0.94004  -0.92608
   1 1   C  1S         -0.11227   0.03364  -0.00413   0.02305   0.10923
   2        2S          0.12097  -0.03769   0.00480  -0.02055  -0.12031
   3        2PX        -0.02825   0.03706  -0.00807  -0.16005   0.02606
   4        2PY        -0.00878   0.00981   0.00068   0.08927  -0.06104
   5        2PZ         0.00079  -0.00446  -0.00223   0.01035  -0.00209
   6        3S          0.25070  -0.06233   0.00475  -0.06897  -0.31301
   7        3PX        -0.00864   0.03713  -0.00185  -0.04063   0.00102
   8        3PY         0.00773  -0.00450   0.00258   0.01044  -0.03330
   9        3PZ         0.00419  -0.00255  -0.00483   0.00090  -0.00336
  10 2   C  1S         -0.08837   0.05285  -0.00928  -0.10767  -0.00450
  11        2S          0.09408  -0.05720   0.00954   0.11222   0.00599
  12        2PX         0.04989  -0.01150   0.00128   0.02433  -0.17310
  13        2PY        -0.01151   0.01221  -0.00167   0.02369  -0.05075
  14        2PZ        -0.00342   0.00069  -0.00082  -0.00165   0.01056
  15        3S          0.20950  -0.11622   0.02484   0.33189  -0.01277
  16        3PX        -0.00159   0.01149   0.00143   0.02128  -0.05438
  17        3PY        -0.02430   0.01260  -0.00370  -0.00789   0.00466
  18        3PZ        -0.00207  -0.00111   0.00093  -0.00160   0.00505
  19 3   C  1S          0.00144   0.01371  -0.00214   0.05382  -0.11502
  20        2S         -0.00197  -0.01484   0.00231  -0.05598   0.11966
  21        2PX         0.01377  -0.01140   0.00184   0.04701  -0.03254
  22        2PY         0.07592  -0.04447   0.00835   0.14608   0.07387
  23        2PZ         0.00039  -0.00012  -0.00009  -0.00059   0.00335
  24        3S         -0.00092  -0.03548   0.00452  -0.17829   0.38029
  25        3PX        -0.00187  -0.00342  -0.00027   0.00653   0.01579
  26        3PY        -0.00823   0.00533   0.00096   0.05821   0.02195
  27        3PZ         0.00039   0.00044  -0.00054   0.00078  -0.00148
  28 4   C  1S          0.09103  -0.04433   0.00805   0.08462   0.07550
  29        2S         -0.09815   0.04719  -0.00866  -0.08815  -0.07668
  30        2PX        -0.04871   0.02890  -0.00437   0.10296  -0.09536
  31        2PY         0.00743  -0.01206   0.00181  -0.05382   0.09850
  32        2PZ         0.00332  -0.00233  -0.00011  -0.00789   0.00824
  33        3S         -0.20309   0.10629  -0.01887  -0.25499  -0.26093
  34        3PX         0.00300  -0.00015  -0.00034   0.01508  -0.05008
  35        3PY        -0.02571   0.01350  -0.00082   0.00302   0.01177
  36        3PZ        -0.00057   0.00003   0.00025  -0.00167   0.00419
  37 5   C  1S          0.10579  -0.05208   0.00670  -0.09601   0.04062
  38        2S         -0.11894   0.05875  -0.00773   0.10670  -0.04762
  39        2PX         0.03094  -0.02421   0.00679   0.09180   0.17288
  40        2PY        -0.00775   0.00196  -0.00004   0.00611   0.06221
  41        2PZ        -0.00251   0.00051  -0.00268  -0.00677  -0.00916
  42        3S         -0.22681   0.11310  -0.01453   0.24924  -0.10900
  43        3PX         0.04232  -0.02621   0.00458  -0.01913   0.04405
  44        3PY         0.01024  -0.00522  -0.00032  -0.02720   0.02689
  45        3PZ        -0.00327   0.00102  -0.00217   0.00230  -0.00227
  46 6   N  1S         -0.00442   0.00428  -0.00191   0.02735  -0.06760
  47        2S          0.00208  -0.00341   0.00143  -0.02378   0.06223
  48        2PX         0.00603  -0.02010   0.00440  -0.08663   0.02986
  49        2PY         0.12642  -0.03775   0.00034  -0.19973  -0.10607
  50        2PZ        -0.00032  -0.00531  -0.01134  -0.00283   0.00045
  51        3S          0.01405  -0.01805   0.00827  -0.10138   0.26927
  52        3PX         0.02057  -0.01951   0.00258  -0.09556   0.01820
  53        3PY         0.10877  -0.04403   0.00313  -0.19490  -0.08211
  54        3PZ         0.00019  -0.00531  -0.00857  -0.00366   0.00263
  55 7   H  1S         -0.00111  -0.00709   0.00112  -0.04600   0.10157
  56        2S         -0.00022  -0.00211   0.00017  -0.01966   0.04617
  57 8   H  1S          0.05454   0.01293  -0.00145  -0.03047  -0.08907
  58        2S          0.00295  -0.00009  -0.00443  -0.00795  -0.02461
  59 9   H  1S          0.04176  -0.02616   0.00486   0.07999   0.00485
  60        2S          0.01008  -0.00538   0.00204   0.03209  -0.00248
  61 10  H  1S         -0.04490   0.02359  -0.00444  -0.06649  -0.06091
  62        2S         -0.00982   0.00671  -0.00101  -0.02275  -0.02975
  63 11  H  1S         -0.05545   0.02724  -0.00268   0.07905  -0.02676
  64        2S         -0.00978   0.00501  -0.00105   0.02632  -0.00271
  65 12  B  1S          0.04085   0.02613  -0.00436   0.01884  -0.01848
  66        2S         -0.04640  -0.02819   0.00503  -0.01963   0.02103
  67        2PX        -0.03534  -0.02265   0.01956   0.03990  -0.02786
  68        2PY         0.02446   0.08343  -0.03778   0.00133  -0.00068
  69        2PZ        -0.00843  -0.03885  -0.10394   0.00340  -0.00704
  70        3S         -0.09402  -0.05380   0.00753  -0.01449   0.05002
  71        3PX         0.00593  -0.00449   0.00010   0.00125  -0.00717
  72        3PY        -0.02734  -0.01399   0.00196   0.00673   0.01090
  73        3PZ        -0.00130   0.00336   0.01012  -0.00704   0.00120
  74 13  Cl 1S         -0.02704  -0.04290  -0.05165   0.00363  -0.00463
  75        2S          0.15857   0.25202   0.30378  -0.02145   0.02742
  76        2PX        -0.00379  -0.00643  -0.00905  -0.00330   0.00234
  77        2PY         0.00169  -0.00072   0.00615   0.00039  -0.00006
  78        2PZ        -0.01671  -0.02043  -0.01691  -0.00133   0.00225
  79        3S         -0.20251  -0.31448  -0.37426   0.02547  -0.03284
  80        3PX         0.00747   0.01252   0.01821   0.00734  -0.00501
  81        3PY        -0.00377   0.00229  -0.01273  -0.00074   0.00041
  82        3PZ         0.03414   0.04129   0.03326   0.00316  -0.00471
  83        4S         -0.15099  -0.27137  -0.35195   0.03199  -0.04099
  84        4PX         0.00268   0.01194   0.01638   0.00199  -0.00044
  85        4PY         0.00441  -0.00187  -0.00874  -0.00173  -0.00419
  86        4PZ         0.01168   0.02648   0.03714  -0.00260   0.00222
  87 14  Cl 1S         -0.02779  -0.03238   0.05932   0.00097  -0.00693
  88        2S          0.16295   0.19018  -0.34881  -0.00571   0.04103
  89        2PX        -0.00918  -0.00895   0.01517  -0.00179   0.00378
  90        2PY         0.01035   0.00675  -0.01526   0.00028  -0.00161
  91        2PZ         0.01196   0.01336  -0.01165  -0.00012  -0.00086
  92        3S         -0.20580  -0.23821   0.43110   0.00791  -0.05113
  93        3PX         0.01870   0.01781  -0.03035   0.00367  -0.00804
  94        3PY        -0.02149  -0.01323   0.03069  -0.00033   0.00361
  95        3PZ        -0.02440  -0.02764   0.02283   0.00020   0.00169
  96        4S         -0.16611  -0.20091   0.39678   0.00647  -0.05086
  97        4PX         0.01018   0.01328  -0.02760   0.00271  -0.00296
  98        4PY        -0.00590  -0.00860   0.02656  -0.00291  -0.00241
  99        4PZ        -0.01294  -0.01364   0.02388   0.00138  -0.00008
 100 15  Cl 1S         -0.00712   0.04778  -0.00274   0.01251   0.00795
 101        2S          0.04162  -0.28122   0.01614  -0.07401  -0.04702
 102        2PX         0.00573   0.01327  -0.00190  -0.00898  -0.00993
 103        2PY        -0.00799   0.01201   0.00161  -0.00347   0.00496
 104        2PZ         0.00192  -0.00344   0.00652   0.00052   0.00063
 105        3S         -0.06261   0.34020  -0.01997   0.09671   0.06235
 106        3PX        -0.01205  -0.02694   0.00414   0.01841   0.02077
 107        3PY         0.01701  -0.02303  -0.00365   0.00684  -0.01036
 108        3PZ        -0.00442   0.00649  -0.01406  -0.00089  -0.00102
 109        4S         -0.00118   0.34827  -0.01891   0.07879   0.04168
 110        4PX        -0.00999  -0.02683   0.00104   0.01183   0.01086
 111        4PY        -0.01189  -0.03942   0.00063   0.00679  -0.00111
 112        4PZ         0.00553   0.01260  -0.00580  -0.00043  -0.00373
                          31        32        33        34        35
                           O         O         O         O         O
     Eigenvalues --    -0.81421  -0.74601  -0.72120  -0.70311  -0.67082
   1 1   C  1S         -0.00222  -0.04956   0.04449  -0.00238   0.03331
   2        2S         -0.00134   0.05179  -0.04728   0.00363  -0.03689
   3        2PX         0.10619  -0.05790  -0.15873  -0.00308   0.17409
   4        2PY         0.14351   0.18016   0.00626   0.14540   0.11721
   5        2PZ         0.00047   0.00156   0.01961   0.01719  -0.00807
   6        3S          0.03675   0.20667  -0.13478   0.03399  -0.08975
   7        3PX         0.11372   0.00700  -0.15442   0.04752   0.17858
   8        3PY         0.06724   0.08086  -0.02515   0.08263   0.07847
   9        3PZ        -0.00427  -0.00189   0.01187   0.00754  -0.00814
  10 2   C  1S         -0.03064   0.03602  -0.05729   0.01508  -0.00253
  11        2S          0.02664  -0.03920   0.06251  -0.01402  -0.00321
  12        2PX        -0.06648   0.18049   0.08643   0.05400  -0.14089
  13        2PY         0.11523   0.06668   0.09541  -0.14829   0.19351
  14        2PZ         0.00775  -0.01282  -0.00048  -0.00014   0.01327
  15        3S          0.13602  -0.10609   0.15690  -0.06418   0.07671
  16        3PX        -0.01706   0.10375   0.01045   0.05711  -0.07202
  17        3PY         0.07593   0.03086   0.10224  -0.11429   0.16473
  18        3PZ         0.00368  -0.00836   0.00587  -0.00000   0.00756
  19 3   C  1S         -0.01141  -0.02006   0.05729  -0.02288   0.01299
  20        2S          0.00947   0.01974  -0.06043   0.02963  -0.01344
  21        2PX        -0.09906  -0.13386   0.09243   0.20489   0.01037
  22        2PY         0.06151  -0.19542  -0.11147  -0.09452  -0.01825
  23        2PZ         0.00840   0.00412  -0.00554  -0.01084  -0.00076
  24        3S          0.06041   0.07325  -0.18785   0.04268  -0.04418
  25        3PX        -0.06708  -0.09749   0.10868   0.15121   0.01405
  26        3PY         0.03679  -0.09247  -0.07923  -0.05246   0.00175
  27        3PZ         0.00537   0.00412  -0.00706  -0.00757  -0.00056
  28 4   C  1S         -0.00799   0.00040  -0.06290   0.01185  -0.02361
  29        2S          0.00702  -0.00242   0.06671  -0.00722   0.02684
  30        2PX        -0.04044  -0.19465  -0.13338   0.06876   0.14060
  31        2PY        -0.11259   0.09176  -0.03528   0.21633   0.07936
  32        2PZ         0.00184   0.01287   0.01180   0.00539  -0.00747
  33        3S          0.02489   0.01838   0.20695  -0.08207   0.05477
  34        3PX        -0.04579  -0.10034  -0.10831   0.05806   0.08973
  35        3PY        -0.08125   0.06143  -0.07460   0.15562   0.07079
  36        3PZ         0.00320   0.00541   0.00950   0.00471  -0.00431
  37 5   C  1S         -0.03427   0.00798   0.06211  -0.01017  -0.00231
  38        2S          0.03245  -0.00799  -0.06646   0.01194   0.00626
  39        2PX         0.04064   0.21579   0.03549   0.01920  -0.12282
  40        2PY        -0.18779   0.07739   0.08834  -0.03036   0.23707
  41        2PZ        -0.00225  -0.01702   0.00839   0.01147   0.01278
  42        3S          0.18540  -0.08502  -0.20268   0.05782  -0.04832
  43        3PX         0.03536   0.09084   0.00927   0.01159  -0.11072
  44        3PY        -0.08813  -0.00092   0.08939  -0.01800   0.19855
  45        3PZ        -0.00335  -0.00673   0.00647   0.00803   0.01125
  46 6   N  1S         -0.00970   0.00553  -0.04323   0.01660  -0.00978
  47        2S          0.00922  -0.00407   0.04005  -0.01217   0.01134
  48        2PX         0.21508  -0.09306   0.10745   0.16122  -0.02668
  49        2PY        -0.03945  -0.19567  -0.09768  -0.10115  -0.07640
  50        2PZ        -0.00063  -0.01050   0.01520   0.01926   0.00220
  51        3S          0.01278  -0.02265   0.17988  -0.08723   0.02968
  52        3PX         0.23500  -0.11882   0.13464   0.17526  -0.03123
  53        3PY        -0.02370  -0.21428  -0.07845  -0.09665  -0.09094
  54        3PZ         0.00169  -0.01082   0.01684   0.02044   0.00149
  55 7   H  1S          0.06541   0.07362  -0.11969  -0.11122  -0.02246
  56        2S          0.03163   0.04039  -0.06114  -0.07642  -0.01420
  57 8   H  1S          0.09434   0.10215  -0.10990   0.07463   0.10968
  58        2S          0.03944   0.06404  -0.06548   0.03195   0.08234
  59 9   H  1S          0.08965  -0.02830   0.09085  -0.10948   0.14562
  60        2S          0.04567  -0.01205   0.03991  -0.06700   0.09728
  61 10  H  1S          0.06417   0.02805   0.12398  -0.13957  -0.07180
  62        2S          0.02763   0.02200   0.05970  -0.09065  -0.05344
  63 11  H  1S          0.12381  -0.00297  -0.09796   0.03243  -0.16535
  64        2S          0.06375  -0.00497  -0.04642   0.01965  -0.09777
  65 12  B  1S         -0.04580   0.04595  -0.06326  -0.06194   0.01519
  66        2S          0.05795  -0.04584   0.06814   0.07157  -0.01325
  67        2PX        -0.07486   0.02287  -0.02754  -0.04107  -0.02130
  68        2PY        -0.01766  -0.01892  -0.02064  -0.01430  -0.00015
  69        2PZ        -0.00529   0.00694  -0.00814   0.00061   0.00491
  70        3S          0.07196  -0.12243   0.19875   0.17004  -0.05982
  71        3PX        -0.00652  -0.00001  -0.00340  -0.01348  -0.01757
  72        3PY         0.00789  -0.00584   0.01342   0.00992  -0.00466
  73        3PZ         0.00659  -0.00688   0.00298   0.01017   0.00204
  74 13  Cl 1S         -0.00664   0.00505  -0.00793  -0.00783   0.00194
  75        2S          0.03953  -0.03030   0.04763   0.04697  -0.01169
  76        2PX         0.01105  -0.00647   0.01095   0.01629   0.00163
  77        2PY         0.00023   0.00468  -0.00169  -0.00247   0.00096
  78        2PZ         0.01009  -0.01444   0.02673   0.02800  -0.01002
  79        3S         -0.04889   0.03181  -0.05284  -0.05325   0.01234
  80        3PX        -0.02364   0.01399  -0.02319  -0.03502  -0.00396
  81        3PY        -0.00005  -0.01000   0.00381   0.00574  -0.00202
  82        3PZ        -0.02143   0.03102  -0.05686  -0.05978   0.02135
  83        4S         -0.06018   0.07005  -0.10261  -0.09708   0.02957
  84        4PX        -0.01304   0.00356  -0.00936  -0.01610  -0.00152
  85        4PY        -0.00506  -0.00298  -0.00575  -0.00427   0.00117
  86        4PZ        -0.00608   0.00217  -0.01392  -0.01907   0.00592
  87 14  Cl 1S         -0.00679   0.00463  -0.00961  -0.00750   0.00347
  88        2S          0.04032  -0.02774   0.05760   0.04491  -0.02090
  89        2PX         0.01371  -0.00733   0.02095   0.02241  -0.00598
  90        2PY        -0.00256   0.01114  -0.01892  -0.01263   0.01044
  91        2PZ        -0.00522   0.00644  -0.01798  -0.01650   0.00874
  92        3S         -0.05280   0.03077  -0.06681  -0.05389   0.02355
  93        3PX        -0.02897   0.01547  -0.04465  -0.04793   0.01257
  94        3PY         0.00547  -0.02370   0.04037   0.02706  -0.02242
  95        3PZ         0.01098  -0.01372   0.03816   0.03503  -0.01868
  96        4S         -0.04900   0.05745  -0.10757  -0.07829   0.04425
  97        4PX        -0.01961   0.00405  -0.01933  -0.02545   0.00584
  98        4PY         0.00037  -0.00741   0.01067   0.00734  -0.00634
  99        4PZ         0.00518   0.00015   0.01226   0.01515  -0.00581
 100 15  Cl 1S         -0.01317   0.00133   0.00205  -0.01042  -0.00508
 101        2S          0.07854  -0.00800  -0.01213   0.06255   0.03049
 102        2PX         0.02837   0.01580  -0.03187   0.03278   0.04743
 103        2PY         0.00981  -0.02792   0.02503   0.02533  -0.01388
 104        2PZ        -0.00441   0.00189   0.00029  -0.01053  -0.00492
 105        3S         -0.09787   0.00677   0.02366  -0.07499  -0.04165
 106        3PX        -0.05970  -0.03365   0.06824  -0.06957  -0.10154
 107        3PY        -0.02053   0.05963  -0.05384  -0.05363   0.03038
 108        3PZ         0.00924  -0.00420  -0.00020   0.02231   0.01024
 109        4S         -0.11643   0.02712  -0.02378  -0.11838  -0.03374
 110        4PX        -0.03069  -0.01611   0.03980  -0.04124  -0.05915
 111        4PY        -0.00369   0.02647  -0.01215  -0.01636   0.01277
 112        4PZ         0.00150   0.00183  -0.00815   0.00857   0.00909
                          36        37        38        39        40
                           O         O         O         O         O
     Eigenvalues --    -0.64280  -0.62866  -0.58883  -0.56729  -0.53847
   1 1   C  1S         -0.00677  -0.01913  -0.00209  -0.00473   0.00120
   2        2S          0.00854   0.02322   0.00552   0.00675  -0.00405
   3        2PX        -0.00952  -0.06870   0.03289  -0.14423  -0.01957
   4        2PY        -0.00987   0.00481   0.10078   0.06864   0.02467
[...]
   _|_(z)     0.567338D+02      0.490136D+00      0.181909D+00
   x          0.197562D+02      0.170678D+00      0.633455D-01
   y         -0.859823D+02     -0.742820D+00     -0.275690D+00
   z          0.851006D+03      0.735203D+01      0.272863D+01
   ||         0.171113D+03      0.147829D+01      0.548652D+00
   xxx        0.207229D+02      0.179030D+00      0.664450D-01
   xxy       -0.259274D+02     -0.223993D+00     -0.831327D-01
   yxy       -0.197347D+02     -0.170493D+00     -0.632767D-01
   yyy        0.216551D+02      0.187083D+00      0.694341D-01
   xxz        0.440527D+02      0.380581D+00      0.141249D+00
   yxz       -0.111843D+02     -0.966235D-01     -0.358609D-01
   yyz        0.903023D+02      0.780142D+00      0.289542D+00
   zxz        0.559726D+01      0.483560D-01      0.179468D-01
   zyz       -0.243885D+02     -0.210697D+00     -0.781982D-01
   zzz        0.149314D+03      0.128995D+01      0.478754D+00

 ----------------------------------------------------------------------
 1\1\GINC-IISERK51\Freq\RHF\3-21G\C5H5B1Cl3N1\GAUSSIAN\16-Jun-2025\0\\#
 N Geom=AllCheck Guess=TCheck SCRF=Check GenChk RHF/3-21G Freq\\Title C
 ard Required\\0,1\C,-2.63630994,-0.246493057,0.0082711135\C,-1.2806720
 499,-0.0343152367,-0.0891939033\C,-0.7958967422,1.2567700329,-0.009649
 5539\C,-1.6837021969,2.3076664877,0.1662117132\C,-3.0227938319,2.03609
 10001,0.2566347854\N,-3.4876400062,0.7735866801,0.1780058213\H,0.25561
 13332,1.4455529419,-0.0830273803\H,-3.0632883007,-1.2206061439,-0.0464
 195138\H,-0.6275723022,-0.8691630291,-0.2243550532\H,-1.3451445609,3.3
 189745304,0.2320991514\H,-3.7518821118,2.8029309592,0.3920810789\B,-5.
 079517266,0.5736049553,0.2971767557\Cl,-5.5810661045,1.2847590358,1.97
 8463512\Cl,-5.8493011674,1.5770087147,-1.1115556259\Cl,-5.5163278027,-
 1.2521676715,0.1622978492\\Version=EM64L-G16RevB.01\State=1-A\HF=-1641
 .919512\RMSD=1.826e-09\RMSF=8.161e-06\ZeroPoint=0.1076146\Thermal=0.11
 66054\Dipole=4.3300724,0.530334,-0.3253668\DipoleDeriv=0.4613662,0.451
 989,0.0178097,-0.2154207,0.0983914,0.0113341,-0.0449639,-0.0464727,0.1
 756821,-0.2862659,-0.5516172,-0.0461641,-0.2570862,-0.3095498,0.013844
 7,-0.0184415,0.0393388,-0.2145605,0.3413409,-0.0151386,-0.0270834,0.00
 87113,0.4487561,0.0372306,-0.0248791,0.0393071,0.0509549,-0.4954325,0.
 4831433,0.0692423,0.1493706,-0.0553466,0.0026678,0.0378409,-0.0262477,
 -0.2268385,0.4725488,-0.3435807,-0.0580967,0.2745151,0.0374496,-0.0367
 601,0.000095,0.0167884,0.1770108,-1.3011859,-0.1193192,0.0579907,-0.10
 71301,-0.3576515,0.0229114,0.0590156,0.0239662,-0.5055334,0.004525,-0.
 0188338,0.0107093,-0.0200968,0.10964,-0.0019289,0.0106033,-0.0020336,0
 .1475036,0.1805155,0.0123242,-0.0017082,0.0071008,0.1311133,-0.0021416
 ,-0.0022022,-0.002589,0.1472356,0.0601952,0.0361269,0.0137838,0.037083
 8,0.0388964,-0.0165,0.0138764,-0.0164109,0.1773016,0.0844268,-0.022724
 2,0.0058142,-0.0219961,0.0214241,-0.0126739,0.0058905,-0.0126126,0.174
 5597,0.1282533,0.002854,0.0021315,0.0108025,0.1339505,-0.002407,0.0029
 011,-0.0017343,0.1492963,1.9263504,0.0763543,0.0037519,0.066846,1.6747
 181,-0.0255932,0.002811,-0.026437,1.882875,-0.5203302,0.0207938,0.0799
 502,0.074604,-0.4727731,-0.2172065,0.2119906,-0.1747063,-0.9262366,-0.
 5786176,0.0765484,-0.1244301,0.160376,-0.5577234,0.261703,-0.2433724,0
 .2311642,-0.7828942,-0.4776898,-0.0889203,-0.0037012,-0.1676803,-0.941
 2952,-0.0344803,-0.0111654,-0.0413205,-0.4263564\Polar=93.1882591,1.06
 83421,91.2237064,-3.4624215,3.5989513,52.6712064\PolarDeriv=3.7954307,
 -0.4696982,-4.362854,-0.5539389,-0.5846946,-0.1939593,-3.8040367,-0.30
 8969,-3.0571541,0.5081227,-0.0396263,0.2780116,-1.0175266,-0.039849,0.
 5928584,-1.8195226,-2.6148101,-0.129589,-0.9696396,0.7042332,2.8447371
 ,0.3140195,-0.0264187,-0.2276408,-3.2694147,0.4828247,2.4453944,0.1703
 247,0.4212749,0.4624764,0.1309749,-0.4563491,0.5237306,1.9966338,-2.78
 39185,-0.8311668,3.6879077,0.4414742,2.6390921,0.0453366,0.2901927,-0.
 1669565,0.2698693,-1.8265059,-0.4242054,-0.5772553,0.0647092,-0.092399
 5,0.3816913,-0.5129389,-0.4076073,3.8158185,0.746912,-0.5300681,-2.007
 4296,-2.387287,1.7160781,0.0756857,0.6843838,-0.1015394,2.9327188,1.80
 14077,-0.5397263,-0.276994,-0.4901331,-0.4892109,0.7329702,0.5224067,-
 0.8509538,1.6141909,3.3375728,0.3322688,1.076079,2.0259251,-3.3770767,
 -0.1138986,-0.377826,0.040391,5.3189387,0.2348811,1.0970617,-0.2321294
 ,-0.018175,-0.3124681,-0.0209763,0.1982543,0.1375065,-2.4524773,1.3678
 42,0.6516952,-9.9510952,-0.3616216,0.8869172,0.7589279,0.0997104,-0.00
 26311,-2.0968862,0.3221974,0.7794811,0.2915991,0.059759,-0.0506018,0.5
 146023,0.132312,0.0201974,-0.9021649,-0.1332909,0.1226731,10.7934453,1
 .5973233,0.3811862,-0.6112835,-0.1313563,0.559202,1.4309659,1.6848792,
 0.5842087,-0.0971391,-0.121897,0.0930772,-0.5448964,-0.0981861,-0.0235
 809,1.5133039,0.2507704,-0.2508086,-3.4803397,-1.6340815,-0.9926463,0.
 1499089,-0.0043721,-0.2736156,-1.0165897,-1.5671001,-5.8312082,-0.1213
 099,-0.2919233,-0.4118823,0.2541029,-0.1089789,-0.2966666,0.2508152,-0
 .8971509,-0.2297375,4.1418913,-3.1466363,2.6882561,-0.5505675,0.408967
 1,0.353009,-2.7166127,3.6424583,-5.5087765,0.4627854,-0.7051918,-0.419
 1258,-0.4544911,0.438385,-0.555703,0.9991315,-1.1250645,-0.4257774,1.6
 482324,2.1024655,2.0289107,0.1100392,0.1110915,0.1364896,1.3771451,2.8
 363767,8.6609548,0.1355749,0.4070332,0.427375,0.0743653,0.151745,0.391
 1297,0.5149417,1.3405159,0.1893225,-3.5495779,1.8266844,-2.0908481,0.3
 951765,-0.2715963,-0.5434653,1.5258207,-2.5209421,3.8540452,-0.3111122
 ,0.5256326,0.2254677,0.3675853,-0.3134822,0.4624901,-0.5364808,0.50184
 36,0.2339996,8.3697532,-0.6806959,-0.8427001,-0.3078938,-0.1302973,0.9
 791689,-0.874729,2.867196,1.0028667,-0.158727,-0.0570029,-0.7977855,-0
 .0154831,-0.117443,0.2017881,4.5536451,-0.1327,-0.9883297,-4.3846302,2
 .2283347,0.1502596,5.6971251,-0.4101979,-0.366159,0.6998068,-1.8643471
 ,4.1554465,-0.3520758,5.3294714,0.7036355,0.6437245,-0.3771077,0.36046
 1,-3.2891343,2.4648652,13.5219083,-6.3649147,3.4108752,-0.1079054,-4.9
 578075,0.5365273,-0.4499993,1.0097678,-2.9229685,6.1325819,0.6113534,-
 4.6798724,0.9465331,-0.8514473,0.6741337,-0.5436302,-4.1556682,3.56262
 58,-10.8384414,-2.8051126,-5.657295,-1.5614066,-0.4508295,-0.1941134,0
 .2577058,-0.7867642,-2.8613885,-13.3509703,-0.0530174,-0.4040585,-0.56
 31026,-0.195196,-0.0929019,-0.01202,-2.1030325,-5.8860126,-0.8279489\H
 yperPolar=157.6291493,-26.8121809,81.1989693,59.0325917,-8.4296248,3.3
 567544,3.7551216,45.2872406,-26.8901649,-19.4678675\Quadrupole=6.32712
 69,2.1016384,-8.4287652,0.5522692,-1.2441159,0.9619993\PG=C01 [X(C5H5B
 1Cl3N1)]\NImag=0\\0.78647566,0.09772541,0.87067978,-0.03946570,0.05233
 631,0.23301892,-0.35210226,-0.08124131,0.01391922,0.78611188,0.0076633
 1,-0.18396563,-0.00827077,-0.06567875,0.82025664,0.02229143,-0.0005722
 9,-0.10512115,-0.05785150,0.06504599,0.20080919,-0.00677870,-0.0635250
 6,-0.00415288,-0.19569474,-0.10289679,-0.00099214,0.86044044,-0.122329
 11,0.03547926,0.01258836,-0.02080510,-0.33769420,-0.02101044,0.0345628
 0,0.73188086,-0.00968974,0.00749810,0.01585184,0.00673740,-0.01389979,
 -0.09722334,-0.05331274,0.04634931,0.21670031,-0.09689787,0.04857589,0
 .01185167,0.09484182,0.05383648,-0.00187209,-0.24229444,0.04326409,0.0
 1683354,0.75618212,0.02229373,-0.01249997,-0.00189776,0.00395339,-0.06
 276984,-0.00763686,0.12498483,-0.27384572,-0.02766598,0.05809049,0.855
 16645,0.00937945,-0.00417452,-0.01405970,-0.00656838,-0.01195806,0.014
 15250,0.02452661,-0.02058765,-0.09908290,-0.04370098,0.05772972,0.1978
 3819,0.09258203,-0.00552299,-0.00710943,-0.06415837,-0.04206654,0.0005
 3507,-0.06096668,0.08625877,0.01461087,-0.37322739,-0.07490537,0.01660
 267,0.87158090,0.08001817,-0.10930243,-0.01877802,-0.06904766,-0.04692
 454,0.00271820,0.02809493,0.09176172,0.00489250,0.01319712,-0.18183498
 ,-0.00883189,-0.09208394,0.77549319,0.00094249,-0.01136449,0.01535944,
 -0.00200717,0.00038107,-0.01205440,0.00913594,-0.00014375,0.01313631,0
 .02489876,-0.00120357,-0.10243747,-0.06503096,0.06019505,0.23246272,-0
 .24819396,0.10125118,0.02214605,-0.06428618,0.02895234,0.01013923,0.00
 256263,0.02029368,0.00043605,-0.00904975,-0.05576811,-0.00261623,-0.20
 054333,-0.07317359,0.00136015,0.67297878,0.02927690,-0.26889008,-0.018
 18878,0.10682203,0.07213583,-0.00446873,0.02136891,-0.11970614,-0.0117
 6081,-0.13460956,0.01390752,0.01095511,-0.00213011,-0.28593547,-0.0168
 3105,-0.02831127,0.72928091,0.01537366,-0.02442774,-0.10616847,0.01747
 190,0.00227285,0.02002738,0.00053710,-0.01166526,-0.01559928,-0.010036
 64,0.00412801,0.02263711,0.00804934,-0.01067021,-0.10701772,-0.0417030
 7,0.05017007,0.23080289,0.00096186,-0.00137160,0.00066007,-0.00532330,
 0.00137412,0.00154163,-0.37317765,-0.05344602,0.02191454,-0.01534862,-
 0.00774243,0.00153031,-0.00103954,0.00330086,0.00122227,0.00092238,0.0
 0036138,-0.00019581,0.39222524,-0.00246880,-0.00696699,-0.00138921,-0.
 03632236,0.00154262,0.00226019,-0.05329895,-0.08601018,0.00238797,0.02
 983511,0.01199215,-0.00246537,0.00441105,-0.00482886,-0.00172885,0.000
 32722,-0.00103974,0.00003666,0.05777253,0.08253339,0.00055577,-0.00148
 433,0.00987665,-0.00200791,-0.00100696,0.01104909,0.02193105,0.0024011
 2,-0.06397759,0.00506674,0.00079111,0.01035429,0.00132617,-0.00163251,
 0.00920443,-0.00019909,0.00003357,-0.00171005,-0.02542038,-0.00064629,
 0.03834713,-0.12554668,-0.13148470,-0.00702407,-0.00493257,-0.03111153
 ,-0.00137389,-0.00635066,-0.00076095,0.00124271,-0.00076624,0.00091759
 ,0.00011592,-0.00434104,0.00373619,0.00152554,0.01177716,0.03093770,0.
 00229908,-0.00025808,-0.00135057,-0.00020740,0.13571994,-0.11841464,-0
 .34283372,-0.01600192,0.00328812,0.00644928,-0.00090290,0.00139810,-0.
 00040616,-0.00098980,-0.00131033,0.00084256,0.00023283,0.00519590,0.00
 117542,-0.00120630,-0.00973140,-0.02893427,-0.00232474,0.00021969,0.00
 026223,0.00011710,0.12526816,0.36466300,-0.00579569,-0.01487052,-0.064
 71105,0.00186498,0.00207753,0.01305172,0.00144636,-0.00080335,0.008621
 66,-0.00009431,0.00003952,-0.00041304,0.00166261,-0.00107963,0.0089677
 7,-0.00152713,-0.00584832,0.00429565,-0.00005960,0.00025315,-0.0011552
 3,0.00339232,0.01982062,0.04035339,-0.01635334,0.03321551,0.00498273,-
 0.19275126,0.14887088,0.02610174,0.01514289,-0.01485519,-0.00210096,-0
 .00076766,-0.00384232,0.00046764,-0.00045199,-0.00170164,-0.00017724,-
 0.00790474,-0.00154345,0.00136295,0.00078749,0.00059035,-0.00046617,0.
 00085430,-0.00033415,-0.00055795,0.20020233,-0.00783970,0.00983697,0.0
 0112761,0.15134309,-0.26569880,-0.03311201,0.02452637,-0.01997081,-0.0
 0466638,-0.00366399,-0.00449924,-0.00093512,-0.00149633,-0.00018131,0.
 00017371,-0.00335667,0.00180942,-0.00043365,-0.00018106,0.00106967,0.0
 0060911,0.00035201,0.00059909,0.00051743,-0.16079190,0.27757988,0.0011
 1627,-0.00242887,0.00474844,0.02633592,-0.03289598,-0.05858904,0.00160
 609,-0.00125672,0.00677443,0.00048399,-0.00091941,0.00867847,-0.000157
 04,0.00019246,-0.00061780,0.00119218,-0.00059209,0.00934565,-0.0005391
 3,0.00054227,-0.00513741,-0.00049308,0.00057685,-0.00512493,-0.0294389
 6,0.03675497,0.04109819,-0.00157520,0.00133155,0.00022028,-0.00347329,
 0.00410200,0.00141260,0.01428239,0.02689558,0.00188328,-0.10684723,-0.
 09383684,-0.00419747,-0.00532253,-0.03887385,-0.00274117,-0.00800134,-
 0.00226027,0.00136743,0.00090645,-0.00056931,-0.00055664,0.00000276,-0
 .00009545,-0.00013252,0.00056116,0.00109025,0.00004496,0.10778649,0.00
 105539,0.00084130,0.00003294,0.00382531,-0.00170567,-0.00128057,-0.012
 28197,-0.01882638,-0.00134767,-0.09650671,-0.35592238,-0.02013171,0.00
 217771,-0.00153772,-0.00083104,-0.00044038,0.00217858,-0.00072066,0.00
 022380,0.00093353,0.00052989,-0.00000862,-0.00000599,0.00013417,-0.000
 59247,-0.00079530,-0.00001378,0.10245579,0.37419218,0.00019557,0.00000
 826,-0.00049619,0.00138607,-0.00130529,0.00813217,-0.00180647,-0.00474
 016,0.00649708,-0.00444526,-0.02036306,-0.05484583,0.00112115,0.002723
 52,0.00544514,0.00153847,-0.00056153,0.01005278,-0.00048230,0.00059858
 ,-0.00480176,-0.00012423,0.00014163,-0.00139875,-0.00011342,-0.0001596
 8,-0.00010848,0.00334526,0.02305635,0.03692722,-0.00116073,-0.00394689
 ,0.00049231,-0.00021585,-0.00121526,-0.00013240,-0.00558088,-0.0018737
 0,0.00108392,-0.01324014,0.02527533,0.00464709,-0.22995532,0.16701227,
 0.03054163,0.01431686,-0.01753641,-0.00266681,-0.00061704,0.00114706,0
 .00005883,0.00084167,-0.00055017,-0.00006851,-0.00000772,0.00003993,-0
 .00011801,0.00082849,-0.00016189,-0.00054286,0.23690966,-0.00624293,-0
 .00239700,-0.00051576,0.00083738,0.00089259,0.00005138,-0.00328262,-0.
 00143014,-0.00069494,-0.01035435,0.01384222,0.00098392,0.15540056,-0.2
 3293472,-0.02984154,0.02480764,-0.03072445,-0.00528872,-0.00048640,0.0
 0055905,0.00020625,0.00116577,-0.00063258,-0.00022126,0.00010400,0.000
 03097,0.00012709,0.00048522,0.00068363,0.00051803,-0.16404344,0.253513
 51,0.00027647,-0.00071421,0.00872070,0.00005993,0.00022901,-0.00040700
 ,0.00095084,-0.00081566,0.00880558,0.00129003,-0.00210279,0.01260411,0
 .02944908,-0.03085053,-0.06460359,0.00132203,-0.00161584,0.00234259,-0
 .00009497,0.00006472,-0.00116930,0.00009303,-0.00007275,0.00063152,-0.
 00011201,0.00013247,-0.00139126,-0.00048190,0.00057360,-0.00516452,-0.
 03295267,0.03480240,0.04114354,-0.02668866,0.01519790,0.00424543,0.005
 93069,0.00205819,0.00012900,-0.00093513,0.00013118,0.00009837,0.006660
 27,0.00096800,-0.00013122,-0.01640611,-0.02539412,-0.00053165,-0.11293
 981,-0.00611358,0.00410614,0.00012461,0.00005807,-0.00006934,0.0010384
 9,0.00003729,-0.00022737,0.00109064,0.00003914,-0.00008126,0.00124813,
 0.00035527,-0.00006367,0.00130440,0.00096606,0.00006545,0.22898247,0.0
 2316277,0.01307292,-0.00132367,0.00042268,-0.00702312,-0.00118556,-0.0
 0045532,0.00235813,0.00025658,0.00279763,-0.00682063,-0.00126952,-0.03
 564195,-0.00284322,0.00234562,-0.00751002,-0.06995717,-0.00038525,0.00
 003792,-0.00031244,0.00003676,0.00561476,-0.00171770,-0.00049411,0.001
 13613,0.00023731,-0.00008633,-0.00091891,-0.00018040,0.00005052,-0.003
 63205,-0.00354865,-0.00011547,0.00975600,0.22849957,0.00499319,-0.0006
 3145,0.00530938,-0.00002563,-0.00132659,0.00505786,0.00004314,0.000205
 33,0.00006843,0.00003943,-0.00111163,0.00398253,-0.00149600,0.00145577
 ,0.00532628,0.00397350,-0.00050708,-0.05933179,-0.00007127,0.00003500,
 -0.00072847,0.00029825,-0.00001158,-0.00165626,0.00002183,0.00000860,0
 .00010880,-0.00018377,-0.00005981,0.00013772,-0.00036728,-0.00051204,0
 .00098639,-0.00246952,0.00280037,0.19021179,0.00169718,-0.00387321,0.0
 0087515,-0.00175140,-0.00041745,-0.00088184,-0.00007745,0.00097794,0.0
 0002570,0.00026686,0.00042690,-0.00021579,-0.00199776,0.00111570,0.003
 36586,-0.01763549,0.00900646,0.02434734,-0.00003003,0.00001532,0.00006
 108,-0.00006585,-0.00010831,0.00039074,-0.00022657,-0.00002281,-0.0001
 5704,-0.00004857,-0.00003340,0.00014584,-0.00160087,0.00025839,0.00063
 686,-0.02751420,0.00517871,0.01365494,0.04231301,-0.00213441,0.0005869
 8,0.00041468,0.00086554,0.00124790,0.00034541,0.00008886,-0.00094715,-
 0.00029738,-0.00050406,0.00101523,0.00069953,0.00026445,-0.00257225,0.
 00112169,0.00446908,0.00197245,-0.00544373,-0.00002986,0.00008671,-0.0
 0007436,-0.00075077,0.00005957,-0.00012468,0.00003396,0.00001787,-0.00
 002139,0.00020854,0.00005549,0.00005776,-0.00065682,0.00085505,-0.0005
 0695,0.00648241,-0.03053644,-0.01917950,-0.01098930,0.04453493,-0.0009
 8467,0.00291417,-0.00129033,0.00179283,0.00065090,0.00041263,0.0001234
 6,-0.00089250,-0.00025399,-0.00009141,0.00005701,0.00035811,0.00071234
 ,-0.00182574,-0.00213625,0.01390911,-0.00734456,-0.01074662,0.00003880
 ,0.00002252,-0.00007756,-0.00053205,0.00011363,-0.00038215,0.00023570,
 0.00003762,0.00007174,0.00015965,0.00008694,-0.00014317,0.00058128,0.0
 0006164,-0.00127529,0.01647835,-0.01904151,-0.07010832,-0.03465992,0.0
 3784532,0.12530951,0.00151988,-0.00399796,-0.00215880,-0.00183642,-0.0
 0069673,0.00115387,-0.00008756,0.00109106,0.00015858,0.00031725,0.0003
 7643,0.00028614,-0.00266988,0.00199392,-0.00297288,-0.02360324,0.01444
 836,-0.01964468,-0.00004832,0.00002526,-0.00006111,-0.00006456,-0.0000
 3988,-0.00045912,-0.00023107,-0.00006342,0.00020163,-0.00010020,-0.000
 01579,-0.00016030,-0.00180747,0.00038226,-0.00047642,-0.03353937,0.011
 91809,-0.01775026,0.00322365,-0.00016578,0.00021752,0.05584458,-0.0022
 3374,0.00103679,0.00040481,0.00109318,0.00141079,-0.00033760,0.0001477
 9,-0.00112510,0.00010917,-0.00061484,0.00112989,-0.00045071,0.00017703
 ,-0.00265408,-0.00132687,0.00779112,-0.00048722,0.00571856,-0.00000616
 ,0.00007177,0.00010409,-0.00079228,0.00002847,0.00033812,0.00007465,0.
 00002316,0.00000165,0.00022601,0.00007868,-0.00005830,-0.00041977,0.00
 069849,0.00095535,0.01372979,-0.03862150,0.02288700,0.00000413,0.00388
 172,0.00080085,-0.02573323,0.06063127,0.00002782,-0.00179033,-0.001562
 94,-0.00122889,-0.00037520,0.00033470,-0.00011188,0.00054414,-0.000068
 34,-0.00001821,0.00002565,0.00019332,-0.00057084,0.00138890,-0.0013919
 0,-0.01026220,0.00664637,-0.00231172,-0.00004618,0.00000064,-0.0000441
 1,0.00033196,-0.00002117,-0.00035076,-0.00017281,-0.00004027,0.0000708
 4,-0.00012821,-0.00004557,-0.00011465,-0.00058372,0.00023855,-0.000917
 91,-0.02028178,0.02301977,-0.05601138,-0.00645344,0.00611534,-0.032006
 81,0.04197802,-0.04575384,0.09571419,-0.00793921,-0.00233371,0.0005179
 7,-0.00035875,-0.00277426,-0.00020073,-0.00048445,0.00059496,0.0000784
 9,0.00017103,-0.00119162,-0.00012576,-0.00308297,0.00180564,0.00046844
 ,-0.01039998,-0.01971710,-0.00066792,-0.00008545,-0.00017199,-0.000011
 60,-0.00790865,-0.00482291,0.00016518,0.00005555,0.00002510,0.00000347
 ,-0.00024751,-0.00005205,0.00000618,-0.00001506,0.00000246,-0.00002576
 ,-0.02835640,-0.01186642,-0.00066055,0.00344747,0.00281819,0.00201902,
 0.00308274,0.00655633,-0.00247963,0.05212166,0.00046765,-0.00467820,-0
 .00053883,0.00064446,0.00184615,0.00008579,0.00056812,-0.00151799,-0.0
 0017088,-0.00203296,0.00029674,0.00020342,-0.00003823,0.00311927,0.000
 26030,-0.00960082,-0.01561016,-0.00096619,-0.00002676,0.00010707,0.000
 01545,-0.00173273,0.00045078,0.00026134,-0.00036435,-0.00005889,0.0000
 1927,-0.00024030,0.00001044,0.00003339,0.00056180,0.00059202,0.0000366
 6,-0.01827159,-0.08260666,-0.00405238,-0.00153907,-0.02025806,-0.01348
 629,0.00047740,-0.02610311,0.01004702,0.03112737,0.14441059,0.00078370
 ,-0.00029811,0.00052446,0.00012123,0.00038130,0.00036771,0.00007551,-0
 .00017277,-0.00025023,-0.00020526,0.00013005,0.00004033,0.00029496,0.0
 0010214,0.00035704,0.00029095,-0.00008634,0.00338159,0.00000203,0.0000
 2801,-0.00003011,0.00045589,0.00052850,-0.00072955,-0.00003307,-0.0000
 1440,0.00007235,-0.00001176,0.00001691,-0.00011876,0.00002722,0.000085
 00,-0.00030557,-0.00126694,-0.00460819,-0.02335298,-0.00113548,-0.0209
 5173,-0.00773149,-0.00031219,0.01660770,-0.00153254,0.00091320,0.00825
 193,0.02930773\\-0.00001974,0.00002261,0.00000804,0.00000458,-0.000001
 44,-0.00000400,-0.00000334,0.00000539,0.00000823,0.00000743,-0.0000059
 4,0.00000074,0.00001684,0.00000885,-0.00000911,-0.00000157,-0.00002136
 ,-0.00000438,0.00000557,-0.00000172,-0.00000444,-0.00000028,-0.0000090
 4,0.00000169,0.00000437,-0.00000463,-0.00000075,-0.00000072,0.00000778
 ,-0.00000042,0.00000036,0.00000382,0.00000734,-0.00001385,0.00000546,-
 0.00000127,-0.00000236,-0.00000079,-0.00000538,-0.00000305,-0.00001100
 ,0.00000987,0.00000575,0.00000201,-0.00000615\\\@


 IT PROBABLY IS NOT POSSIBLE FOR A SCIENTIST TO INTERROGATE NATURE 
 FROM A WHOLLY DISINTERESTED VIEWPOINT.
 EVEN IF HE HAS NO PARTICULAR AXE TO GRIND, HE IS LIKELY TO HAVE 
 A DISTINCTIVE WAY OF VIEWING NATURE.

                                                   -- JOHN LOSEE
 Job cpu time:       0 days  0 hours  0 minutes  9.0 seconds.
 Elapsed time:       0 days  0 hours  0 minutes  9.0 seconds.
 File lengths (MBytes):  RWF=     36 Int=      0 D2E=      0 Chk=      2 Scr=      1
 Normal termination of Gaussian 16 at Mon Jun 16 22:24:11 2025.
