 Entering Gaussian System, Link 0=g16
 Input=/home/gaussian/Documents/Summer_Internship/Acid_Base_adduct/Adduct/py - BCl3/py_BCl3_adduct_sp.com
 Output=/home/gaussian/Documents/Summer_Internship/Acid_Base_adduct/Adduct/py - BCl3/py_BCl3_adduct_sp.log
 Initial command:
 /usr/local/g16/l1.exe "/home/gaussian/tmp/Gau-79984.inp" -scrdir="/home/gaussian/tmp/"
 Entering Link 1 = /usr/local/g16/l1.exe PID=     79987.
  
 Copyright (c) 1988-2017, Gaussian, Inc.  All Rights Reserved.
  
 This is part of the Gaussian(R) 16 program.  It is based on
 the Gaussian(R) 09 system (copyright 2009, Gaussian, Inc.),
 the Gaussian(R) 03 system (copyright 2003, Gaussian, Inc.),
 the Gaussian(R) 98 system (copyright 1998, Gaussian, Inc.),
 the Gaussian(R) 94 system (copyright 1995, Gaussian, Inc.),
 the Gaussian 92(TM) system (copyright 1992, Gaussian, Inc.),
 the Gaussian 90(TM) system (copyright 1990, Gaussian, Inc.),
 the Gaussian 88(TM) system (copyright 1988, Gaussian, Inc.),
 the Gaussian 86(TM) system (copyright 1986, Carnegie Mellon
 University), and the Gaussian 82(TM) system (copyright 1983,
 Carnegie Mellon University). Gaussian is a federally registered
 trademark of Gaussian, Inc.
  
 This software contains proprietary and confidential information,
 including trade secrets, belonging to Gaussian, Inc.
  
 This software is provided under written license and may be
 used, copied, transmitted, or stored only in accord with that
 written license.
  
 The following legend is applicable only to US Government
 contracts under FAR:
  
                    RESTRICTED RIGHTS LEGEND
  
 Use, reproduction and disclosure by the US Government is
 subject to restrictions as set forth in subparagraphs (a)
 and (c) of the Commercial Computer Software - Restricted
 Rights clause in FAR 52.227-19.
  
 Gaussian, Inc.
 340 Quinnipiac St., Bldg. 40, Wallingford CT 06492
  
  
 ---------------------------------------------------------------
 Warning -- This program may not be used in any manner that
 competes with the business of Gaussian, Inc. or will provide
 assistance to any competitor of Gaussian, Inc.  The licensee
 of this program is prohibited from giving any competitor of
 Gaussian, Inc. access to this program.  By using this program,
 the user acknowledges that Gaussian, Inc. is engaged in the
 business of creating and licensing software in the field of
 computational chemistry and represents and warrants to the
 licensee that it is not a competitor of Gaussian, Inc. and that
 it will not use this program in any manner prohibited above.
 ---------------------------------------------------------------
  

 Cite this work as:
 Gaussian 16, Revision B.01,
 M. J. Frisch, G. W. Trucks, H. B. Schlegel, G. E. Scuseria, 
 M. A. Robb, J. R. Cheeseman, G. Scalmani, V. Barone, 
 G. A. Petersson, H. Nakatsuji, X. Li, M. Caricato, A. V. Marenich, 
 J. Bloino, B. G. Janesko, R. Gomperts, B. Mennucci, H. P. Hratchian, 
 J. V. Ortiz, A. F. Izmaylov, J. L. Sonnenberg, D. Williams-Young, 
 F. Ding, F. Lipparini, F. Egidi, J. Goings, B. Peng, A. Petrone, 
 T. Henderson, D. Ranasinghe, V. G. Zakrzewski, J. Gao, N. Rega, 
 G. Zheng, W. Liang, M. Hada, M. Ehara, K. Toyota, R. Fukuda, 
 J. Hasegawa, M. Ishida, T. Nakajima, Y. Honda, O. Kitao, H. Nakai, 
 T. Vreven, K. Throssell, J. A. Montgomery, Jr., J. E. Peralta, 
 F. Ogliaro, M. J. Bearpark, J. J. Heyd, E. N. Brothers, K. N. Kudin, 
 V. N. Staroverov, T. A. Keith, R. Kobayashi, J. Normand, 
 K. Raghavachari, A. P. Rendell, J. C. Burant, S. S. Iyengar, 
 J. Tomasi, M. Cossi, J. M. Millam, M. Klene, C. Adamo, R. Cammi, 
 J. W. Ochterski, R. L. Martin, K. Morokuma, O. Farkas, 
 J. B. Foresman, and D. J. Fox, Gaussian, Inc., Wallingford CT, 2016.
 
 ******************************************
 Gaussian 16:  EM64L-G16RevB.01 20-Dec-2017
                16-Jun-2025 
 ******************************************
 %chk=py_BCl3_adduct_sp.chk
 -------------------------------------
 # hf/3-21g pop=full geom=connectivity
 -------------------------------------
 1/38=1,57=2,172=1/1;
 2/12=2,17=6,18=5,40=1/2;
 3/5=5,11=9,25=1,30=1/1,2,3;
 4//1;
 5/5=2,38=5/2;
 6/7=3,28=1/1;
 99/5=1,9=1/99;
 -------------------
 Title Card Required
 -------------------
 Symbolic Z-matrix:
 Charge =  0 Multiplicity = 1
 C                    -1.31324   1.21862   0.00002 
 C                    -2.68884   1.22258   0. 
 C                    -3.36355   0.01718  -0.0001 
 C                    -2.64167  -1.16705  -0.00016 
 C                    -1.27354  -1.1094   -0.00015 
 N                    -0.62288   0.07078  -0.0001 
 H                    -4.43419  -0.00379  -0.00017 
 H                    -0.74349   2.11839   0.00012 
 H                    -3.21058   2.15508   0.00008 
 H                    -3.12937  -2.11776  -0.00023 
 H                    -0.66624  -1.9864   -0.00012 
 B                     0.98504   0.01729   0.00001 
 Cl                    1.48599  -0.93419   1.55813 
 Cl                    1.48635  -0.93537  -1.55725 
 Cl                    1.69259   1.76137  -0.00069 
 
                          Input orientation:                          
 ---------------------------------------------------------------------
 Center     Atomic      Atomic             Coordinates (Angstroms)
 Number     Number       Type             X           Y           Z
 ---------------------------------------------------------------------
      1          6           0       -1.313242    1.218621    0.000022
      2          6           0       -2.688836    1.222578    0.000004
      3          6           0       -3.363553    0.017177   -0.000098
      4          6           0       -2.641668   -1.167049   -0.000160
      5          6           0       -1.273541   -1.109397   -0.000154
      6          7           0       -0.622880    0.070782   -0.000102
      7          1           0       -4.434185   -0.003786   -0.000171
      8          1           0       -0.743493    2.118390    0.000121
      9          1           0       -3.210584    2.155079    0.000078
     10          1           0       -3.129369   -2.117761   -0.000227
     11          1           0       -0.666236   -1.986403   -0.000119
     12          5           0        0.985040    0.017294    0.000006
     13         17           0        1.485989   -0.934188    1.558130
     14         17           0        1.486354   -0.935365   -1.557247
     15         17           0        1.692590    1.761374   -0.000687
 ---------------------------------------------------------------------
                    Distance matrix (angstroms):
                    1          2          3          4          5
     1  C    0.000000
     2  C    1.375600   0.000000
     3  C    2.376393   1.381389   0.000000
     4  C    2.730593   2.390092   1.386906   0.000000
     5  C    2.328357   2.727850   2.374304   1.369341   0.000000
     6  N    1.339453   2.365335   2.741197   2.368065   1.347658
     7  H    3.351800   2.133123   1.070837   2.136890   3.348439
     8  H    1.064987   2.141691   3.358543   3.794361   3.271018
     9  H    2.115859   1.068541   2.143368   3.370490   3.795911
    10  H    3.798653   3.369263   2.147744   1.068506   2.112083
    11  H    3.269678   3.793214   3.360037   2.138615   1.066752
    12  B    2.593316   3.866533   4.348593   3.815191   2.524009
    13  Cl   3.859790   4.950612   5.181817   4.418149   3.173949
    14  Cl   3.860373   4.951157   5.182050   4.418004   3.173617
    15  Cl   3.054441   4.414430   5.348533   5.230818   4.127864
                    6          7          8          9         10
     6  N    0.000000
     7  H    3.812034   0.000000
     8  H    2.051157   4.257328   0.000000
     9  H    3.322726   2.481511   2.467364   0.000000
    10  H    3.327493   2.484237   4.861829   4.273612   0.000000
    11  H    2.057642   4.257724   4.105520   4.860615   2.466633
    12  B    1.608809   5.419266   2.720741   4.708862   4.635388
    13  Cl   2.808092   6.192125   4.088547   5.833429   5.013068
    14  Cl   2.808185   6.192343   4.089380   5.834152   5.012711
    15  Cl   2.866968   6.375983   2.462105   4.918955   6.188617
                   11         12         13         14         15
    11  H    0.000000
    12  B    2.596443   0.000000
    13  Cl   2.857861   1.893150   0.000000
    14  Cl   2.857092   1.893122   3.115377   0.000000
    15  Cl   4.428306   1.882138   3.120681   3.120547   0.000000
 Stoichiometry    C5H5BCl3N
 Framework group  C1[X(C5H5BCl3N)]
 Deg. of freedom    39
 Full point group                 C1      NOp   1
 Largest Abelian subgroup         C1      NOp   1
 Largest concise Abelian subgroup C1      NOp   1
                         Standard orientation:                         
 ---------------------------------------------------------------------
 Center     Atomic      Atomic             Coordinates (Angstroms)
 Number     Number       Type             X           Y           Z
 ---------------------------------------------------------------------
      1          6           0       -1.313242    1.218621    0.000022
      2          6           0       -2.688836    1.222578    0.000004
      3          6           0       -3.363553    0.017177   -0.000098
      4          6           0       -2.641668   -1.167049   -0.000160
      5          6           0       -1.273541   -1.109397   -0.000154
      6          7           0       -0.622880    0.070782   -0.000102
      7          1           0       -4.434185   -0.003786   -0.000171
      8          1           0       -0.743493    2.118390    0.000121
      9          1           0       -3.210584    2.155079    0.000078
     10          1           0       -3.129369   -2.117761   -0.000227
     11          1           0       -0.666236   -1.986403   -0.000119
     12          5           0        0.985040    0.017294    0.000006
     13         17           0        1.485989   -0.934188    1.558130
     14         17           0        1.486354   -0.935365   -1.557247
     15         17           0        1.692590    1.761374   -0.000687
 ---------------------------------------------------------------------
 Rotational constants (GHZ):           1.1920932           0.6115619           0.5547982
 Standard basis: 3-21G (6D, 7F)
 There are   112 symmetry adapted cartesian basis functions of A   symmetry.
 There are   112 symmetry adapted basis functions of A   symmetry.
   112 basis functions,   201 primitive gaussians,   112 cartesian basis functions
    49 alpha electrons       49 beta electrons
       nuclear repulsion energy       755.4035903135 Hartrees.
 NAtoms=   15 NActive=   15 NUniq=   15 SFac= 1.00D+00 NAtFMM=   60 NAOKFM=F Big=F
 Integral buffers will be    131072 words long.
 Raffenetti 1 integral format.
 Two-electron integral symmetry is turned on.
 One-electron integrals computed using PRISM.
 NBasis=   112 RedAO= T EigKep=  2.66D-03  NBF=   112
 NBsUse=   112 1.00D-06 EigRej= -1.00D+00 NBFU=   112
 ExpMin= 1.24D-01 ExpMax= 1.38D+03 ExpMxC= 1.38D+03 IAcc=3 IRadAn=         5 AccDes= 0.00D+00
 Harris functional with IExCor=  205 and IRadAn=       5 diagonalized for initial guess.
 HarFok:  IExCor=  205 AccDes= 0.00D+00 IRadAn=         5 IDoV= 1 UseB2=F ITyADJ=14
 ICtDFT=  3500011 ScaDFX=  1.000000  1.000000  1.000000  1.000000
 FoFCou: FMM=F IPFlag=           0 FMFlag=      100000 FMFlg1=           0
         NFxFlg=           0 DoJE=T BraDBF=F KetDBF=T FulRan=T
         wScrn=  0.000000 ICntrl=       500 IOpCl=  0 I1Cent=   200000004 NGrid=           0
         NMat0=    1 NMatS0=      1 NMatT0=    0 NMatD0=    1 NMtDS0=    0 NMtDT0=    0
 Petite list used in FoFCou.
 Keep R1 ints in memory in canonical form, NReq=20873909.
 Requested convergence on RMS density matrix=1.00D-08 within 128 cycles.
 Requested convergence on MAX density matrix=1.00D-06.
 Requested convergence on             energy=1.00D-06.
 No special actions if energy rises.
 SCF Done:  E(RHF) =  -1641.91951198     A.U. after   13 cycles
            NFock= 13  Conv=0.81D-08     -V/T= 2.0010

 **********************************************************************

            Population analysis using the SCF Density.

 **********************************************************************

 Orbital symmetries:
       Occupied  (A) (A) (A) (A) (A) (A) (A) (A) (A) (A) (A) (A)
                 (A) (A) (A) (A) (A) (A) (A) (A) (A) (A) (A) (A)
                 (A) (A) (A) (A) (A) (A) (A) (A) (A) (A) (A) (A)
                 (A) (A) (A) (A) (A) (A) (A) (A) (A) (A) (A) (A)
                 (A)
       Virtual   (A) (A) (A) (A) (A) (A) (A) (A) (A) (A) (A) (A)
                 (A) (A) (A) (A) (A) (A) (A) (A) (A) (A) (A) (A)
                 (A) (A) (A) (A) (A) (A) (A) (A) (A) (A) (A) (A)
                 (A) (A) (A) (A) (A) (A) (A) (A) (A) (A) (A) (A)
                 (A) (A) (A) (A) (A) (A) (A) (A) (A) (A) (A) (A)
                 (A) (A) (A)
 The electronic state is 1-A.
 Alpha  occ. eigenvalues -- -104.07705-104.06681-104.06662 -15.63416 -11.30882
 Alpha  occ. eigenvalues --  -11.30832 -11.27894 -11.25360 -11.25344 -10.47133
 Alpha  occ. eigenvalues --  -10.46180 -10.46119  -7.93443  -7.93114  -7.93080
 Alpha  occ. eigenvalues --   -7.92483  -7.92471  -7.92139  -7.92138  -7.92130
 Alpha  occ. eigenvalues --   -7.92114  -7.71855  -1.38659  -1.18278  -1.12748
 Alpha  occ. eigenvalues --   -1.11067  -1.06062  -1.05312  -0.95112  -0.94765
 Alpha  occ. eigenvalues --   -0.83736  -0.75692  -0.74076  -0.71587  -0.68948
 Alpha  occ. eigenvalues --   -0.65714  -0.62277  -0.59646  -0.56745  -0.53204
 Alpha  occ. eigenvalues --   -0.52878  -0.47613  -0.45406  -0.44244  -0.44049
 Alpha  occ. eigenvalues --   -0.42313  -0.42068  -0.41521  -0.40868
 Alpha virt. eigenvalues --    0.02700   0.07631   0.20862   0.23275   0.24281
 Alpha virt. eigenvalues --    0.25397   0.27446   0.28699   0.29963   0.31728
 Alpha virt. eigenvalues --    0.31872   0.33811   0.41655   0.42622   0.45777
 Alpha virt. eigenvalues --    0.47363   0.64010   0.65260   0.67930   0.70935
 Alpha virt. eigenvalues --    0.72486   0.77411   0.78656   0.80832   0.80851
 Alpha virt. eigenvalues --    0.81498   0.82486   0.85693   0.86770   0.88658
 Alpha virt. eigenvalues --    0.88735   0.89275   0.91180   0.93839   0.96434
 Alpha virt. eigenvalues --    0.97566   0.99061   1.00626   1.01282   1.03031
 Alpha virt. eigenvalues --    1.07766   1.08853   1.16984   1.18708   1.22431
 Alpha virt. eigenvalues --    1.24954   1.28745   1.29146   1.34150   1.43999
 Alpha virt. eigenvalues --    1.47068   1.52186   1.52955   1.60670   1.62466
 Alpha virt. eigenvalues --    1.66170   1.68920   1.79288   1.91123   2.15051
 Alpha virt. eigenvalues --    2.17327   2.28543   3.19334
     Molecular Orbital Coefficients:
                           1         2         3         4         5
                           O         O         O         O         O
     Eigenvalues --  -104.07705-104.06681-104.06662 -15.63416 -11.30882
   1 1   C  1S         -0.00005  -0.00000  -0.00000  -0.00014   0.86480
   2        2S         -0.00037  -0.00000  -0.00003  -0.00046   0.08633
   3        2PX         0.00018  -0.00000  -0.00004   0.00103  -0.00023
   4        2PY        -0.00011   0.00000   0.00000  -0.00081  -0.00209
   5        2PZ        -0.00000   0.00017  -0.00000   0.00000  -0.00000
   6        3S          0.00274  -0.00000  -0.00013   0.02788  -0.06064
   7        3PX        -0.00173   0.00001   0.00040  -0.00374   0.01529
   8        3PY         0.00154   0.00000   0.00002  -0.02564   0.00280
   9        3PZ         0.00000  -0.00050   0.00001  -0.00000  -0.00000
  10 2   C  1S          0.00004  -0.00000  -0.00001   0.00047  -0.00159
  11        2S          0.00024  -0.00000  -0.00006   0.00228  -0.00305
  12        2PX         0.00001  -0.00000  -0.00002  -0.00038  -0.00134
  13        2PY         0.00002   0.00000   0.00001  -0.00063  -0.00013
  14        2PZ         0.00000  -0.00003   0.00000  -0.00000  -0.00000
  15        3S         -0.00247   0.00001   0.00042  -0.02370   0.02298
  16        3PX        -0.00147   0.00001   0.00034  -0.00706   0.01697
  17        3PY        -0.00017  -0.00000  -0.00021   0.02207   0.00135
  18        3PZ        -0.00000   0.00019  -0.00000   0.00000   0.00000
  19 3   C  1S         -0.00002   0.00000   0.00001  -0.00035  -0.00153
  20        2S         -0.00010   0.00000   0.00002  -0.00159  -0.00061
  21        2PX        -0.00007  -0.00000  -0.00002   0.00018  -0.00021
  22        2PY        -0.00001   0.00000   0.00000  -0.00000  -0.00112
  23        2PZ        -0.00000  -0.00000   0.00000   0.00000  -0.00000
  24        3S          0.00043  -0.00001  -0.00065   0.03022   0.00298
  25        3PX         0.00105  -0.00001  -0.00030   0.01677   0.00160
  26        3PY        -0.00022   0.00001   0.00026   0.00070   0.00504
  27        3PZ         0.00000   0.00005  -0.00000   0.00000   0.00000
  28 4   C  1S          0.00003  -0.00000  -0.00001   0.00049   0.00063
  29        2S          0.00018  -0.00000  -0.00005   0.00239   0.00198
  30        2PX        -0.00000  -0.00000  -0.00001  -0.00040   0.00052
  31        2PY        -0.00001  -0.00000  -0.00005   0.00062  -0.00009
  32        2PZ        -0.00000   0.00006  -0.00000   0.00000  -0.00000
  33        3S         -0.00236  -0.00000   0.00010  -0.02427  -0.01861
  34        3PX        -0.00104  -0.00001  -0.00019  -0.00718  -0.01288
  35        3PY        -0.00044   0.00002   0.00084  -0.02169  -0.00306
  36        3PZ         0.00000  -0.00034   0.00001  -0.00000  -0.00000
  37 5   C  1S          0.00000  -0.00000   0.00000  -0.00022  -0.47593
  38        2S          0.00003   0.00000   0.00004  -0.00088  -0.04855
  39        2PX         0.00018   0.00000   0.00013   0.00099   0.00048
  40        2PY         0.00006   0.00000   0.00009   0.00102  -0.00208
  41        2PZ         0.00000  -0.00025   0.00001   0.00000  -0.00000
  42        3S          0.00110   0.00001   0.00023   0.02960   0.03673
  43        3PX        -0.00198  -0.00001  -0.00033  -0.00524  -0.01489
  44        3PY        -0.00025  -0.00003  -0.00113   0.02370   0.00727
  45        3PZ        -0.00000   0.00068  -0.00001   0.00000   0.00000
  46 6   N  1S         -0.00005  -0.00000  -0.00004   0.98672   0.00012
  47        2S         -0.00033  -0.00000  -0.00018   0.10676   0.00075
  48        2PX        -0.00001   0.00000   0.00007  -0.00234   0.00013
  49        2PY        -0.00006   0.00000   0.00000  -0.00002   0.00032
  50        2PZ         0.00000  -0.00000   0.00000   0.00000   0.00000
  51        3S          0.00175   0.00004   0.00164  -0.09003  -0.00184
  52        3PX         0.00034   0.00000   0.00021   0.01514  -0.00020
  53        3PY         0.00062  -0.00001  -0.00050  -0.00002  -0.00375
  54        3PZ        -0.00000  -0.00041   0.00001  -0.00000  -0.00000
  55 7   H  1S          0.00012   0.00000  -0.00000   0.00037   0.00000
  56        2S          0.00033  -0.00000  -0.00005   0.00362   0.00075
  57 8   H  1S          0.00036  -0.00000  -0.00004   0.00043  -0.00241
  58        2S         -0.00223  -0.00000  -0.00010   0.00782   0.00848
  59 9   H  1S          0.00007   0.00000   0.00002  -0.00160  -0.00080
  60        2S          0.00004   0.00000   0.00012  -0.00641   0.00106
  61 10  H  1S          0.00003   0.00000   0.00007  -0.00156   0.00015
  62        2S         -0.00014   0.00001   0.00029  -0.00627  -0.00183
  63 11  H  1S          0.00022   0.00001   0.00031   0.00050   0.00182
  64        2S         -0.00046  -0.00002  -0.00103   0.00565   0.00024
  65 12  B  1S          0.00007   0.00000   0.00020  -0.00080  -0.00028
  66        2S          0.00051   0.00004   0.00171  -0.00327  -0.00183
  67        2PX         0.00039   0.00000   0.00013  -0.00155   0.00054
  68        2PY         0.00014   0.00000   0.00001   0.00014  -0.00031
  69        2PZ        -0.00000  -0.00010   0.00000  -0.00000  -0.00000
  70        3S         -0.00529  -0.00020  -0.00904   0.01860   0.00626
  71        3PX        -0.00222  -0.00003  -0.00122  -0.00546  -0.00180
  72        3PY        -0.00521   0.00006   0.00249   0.00090   0.00538
  73        3PZ         0.00000   0.00498  -0.00011  -0.00000   0.00000
  74 13  Cl 1S         -0.00771  -0.68126   0.71259   0.00000  -0.00001
  75        2S         -0.00046  -0.03674   0.03835   0.00002   0.00001
  76        2PX        -0.00001   0.00006  -0.00005  -0.00002   0.00005
  77        2PY        -0.00005  -0.00008   0.00007   0.00006  -0.00003
  78        2PZ         0.00002   0.00016  -0.00010  -0.00005  -0.00001
  79        3S          0.00044   0.01374  -0.01398   0.00125   0.00023
  80        3PX         0.00002  -0.00022   0.00021  -0.00003  -0.00032
  81        3PY         0.00022   0.00032  -0.00026  -0.00027   0.00022
  82        3PZ        -0.00013  -0.00069   0.00035   0.00020   0.00011
  83        4S         -0.00048  -0.01003   0.01044  -0.00454   0.00007
  84        4PX         0.00028   0.00095  -0.00088   0.00196   0.00068
  85        4PY         0.00022  -0.00161   0.00134  -0.00092  -0.00108
  86        4PZ         0.00035   0.00227  -0.00257   0.00177  -0.00060
  87 14  Cl 1S         -0.00771   0.71262   0.68123   0.00000  -0.00001
  88        2S         -0.00046   0.03843   0.03666   0.00002   0.00001
  89        2PX        -0.00001  -0.00006  -0.00005  -0.00002   0.00005
  90        2PY        -0.00005   0.00008   0.00006   0.00006  -0.00003
  91        2PZ        -0.00002   0.00017   0.00009   0.00005   0.00001
  92        3S          0.00044  -0.01435  -0.01335   0.00126   0.00023
  93        3PX         0.00002   0.00023   0.00020  -0.00003  -0.00032
  94        3PY         0.00022  -0.00034  -0.00024  -0.00027   0.00022
  95        3PZ         0.00013  -0.00070  -0.00032  -0.00020  -0.00011
  96        4S         -0.00048   0.01049   0.00998  -0.00454   0.00007
  97        4PX         0.00028  -0.00099  -0.00084   0.00196   0.00068
  98        4PY         0.00022   0.00168   0.00127  -0.00092  -0.00108
  99        4PZ        -0.00035   0.00239   0.00246  -0.00177   0.00061
 100 15  Cl 1S          0.98581   0.00025   0.01092   0.00001  -0.00003
 101        2S          0.05316   0.00001   0.00052  -0.00007   0.00007
 102        2PX        -0.00015   0.00000   0.00001   0.00006   0.00003
 103        2PY        -0.00020   0.00000   0.00006  -0.00005  -0.00004
 104        2PZ         0.00000   0.00003  -0.00000  -0.00000  -0.00000
 105        3S         -0.02027   0.00000   0.00003   0.00246   0.00217
 106        3PX         0.00062  -0.00000  -0.00005  -0.00054  -0.00032
 107        3PY         0.00082  -0.00001  -0.00031   0.00016   0.00022
 108        3PZ        -0.00000  -0.00013   0.00000   0.00000   0.00000
 109        4S          0.01604   0.00001   0.00059  -0.00667  -0.00657
 110        4PX        -0.00240   0.00000   0.00002   0.00365   0.00290
 111        4PY        -0.00424  -0.00001  -0.00028   0.00229   0.00175
 112        4PZ         0.00000  -0.00042   0.00001  -0.00000  -0.00000
                           6         7         8         9        10
                           O         O         O         O         O
     Eigenvalues --   -11.30832 -11.27894 -11.25360 -11.25344 -10.47133
   1 1   C  1S          0.47543   0.00403  -0.00029   0.00133   0.00009
   2        2S          0.04501  -0.00025   0.00097  -0.00352   0.00187
   3        2PX         0.00049   0.00114  -0.00038   0.00186  -0.00085
   4        2PY         0.00058   0.00044   0.00004   0.00004   0.00056
   5        2PZ         0.00000   0.00000  -0.00000   0.00000   0.00000
   6        3S         -0.02380  -0.00814  -0.00500   0.03800  -0.01448
   7        3PX        -0.00430   0.00182   0.00167  -0.02062   0.00868
   8        3PY        -0.01020   0.00303   0.00024  -0.01260  -0.00842
   9        3PZ        -0.00000   0.00000  -0.00000  -0.00000  -0.00000
  10 2   C  1S         -0.00085  -0.00738  -0.31956   0.93414  -0.00011
  11        2S         -0.00090  -0.00496  -0.03220   0.09492  -0.00114
  12        2PX        -0.00123   0.00014   0.00014   0.00109  -0.00005
  13        2PY         0.00004   0.00156   0.00143  -0.00105  -0.00010
  14        2PZ        -0.00000   0.00000   0.00000  -0.00000  -0.00000
  15        3S         -0.00115   0.03503   0.01778  -0.09543   0.01261
  16        3PX         0.00149   0.00057  -0.00084  -0.01516   0.00752
  17        3PY         0.00759  -0.02159  -0.00121   0.02465   0.00104
  18        3PZ         0.00000  -0.00000  -0.00000   0.00000   0.00000
  19 3   C  1S         -0.00595   0.98721   0.00449   0.00849   0.00003
  20        2S         -0.00237   0.09949  -0.00217  -0.00463   0.00048
  21        2PX        -0.00094   0.00146  -0.00072  -0.00148   0.00034
  22        2PY         0.00032   0.00003   0.00118  -0.00067   0.00005
  23        2PZ        -0.00000   0.00000   0.00000  -0.00000   0.00000
  24        3S          0.01095  -0.09149   0.02321   0.04828  -0.00211
  25        3PX         0.00766  -0.02389   0.01354   0.02723  -0.00556
  26        3PY        -0.00081  -0.00056  -0.01322   0.00732   0.00110
  27        3PZ         0.00000  -0.00000  -0.00000   0.00000  -0.00000
  28 4   C  1S         -0.00121  -0.00778   0.93407   0.31979  -0.00010
  29        2S         -0.00232  -0.00493   0.09479   0.03275  -0.00091
  30        2PX        -0.00182   0.00018   0.00073   0.00078   0.00005
  31        2PY        -0.00007  -0.00150   0.00174  -0.00044   0.00006
  32        2PZ        -0.00000  -0.00000   0.00000  -0.00000   0.00000
  33        3S          0.01060   0.03471  -0.08677  -0.04494   0.01279
  34        3PX         0.00951  -0.00014  -0.01131  -0.00987   0.00577
  35        3PY        -0.00573   0.02152  -0.02045  -0.01466   0.00242
  36        3PZ         0.00000   0.00000  -0.00000  -0.00000  -0.00000
  37 5   C  1S          0.86447   0.00428   0.00086   0.00041  -0.00000
  38        2S          0.08383  -0.00030  -0.00341  -0.00139  -0.00014
  39        2PX         0.00025   0.00113   0.00185   0.00094  -0.00096
  40        2PY         0.00077  -0.00038   0.00007  -0.00003  -0.00028
  41        2PZ         0.00000   0.00000   0.00000   0.00000  -0.00000
  42        3S         -0.05076  -0.00800   0.03345   0.01983  -0.00613
  43        3PX         0.00336   0.00208  -0.01862  -0.01237   0.01101
  44        3PY         0.00498  -0.00316   0.00912   0.00741   0.00113
  45        3PZ        -0.00000  -0.00000   0.00000   0.00000   0.00000
  46 6   N  1S          0.00031  -0.00007   0.00016   0.00031   0.00022
  47        2S          0.00168  -0.00059   0.00092   0.00175   0.00162
  48        2PX         0.00011   0.00023  -0.00002  -0.00013   0.00008
  49        2PY        -0.00006   0.00002   0.00016  -0.00013   0.00032
  50        2PZ         0.00000  -0.00000   0.00000   0.00000  -0.00000
  51        3S         -0.00177   0.00426  -0.00663  -0.01349  -0.00924
  52        3PX         0.00138  -0.00188   0.00325   0.00754  -0.00196
  53        3PY         0.00042  -0.00012   0.00263  -0.00087  -0.00352
  54        3PZ        -0.00000   0.00000  -0.00000  -0.00000   0.00000
  55 7   H  1S          0.00019  -0.00239   0.00003   0.00003  -0.00059
  56        2S          0.00322   0.00616   0.00325   0.00669  -0.00177
  57 8   H  1S         -0.00002  -0.00024   0.00022   0.00021  -0.00182
  58        2S          0.01216   0.00081   0.00033   0.00475   0.01237
  59 9   H  1S         -0.00097  -0.00009   0.00046  -0.00260  -0.00034
  60        2S         -0.00183   0.00461  -0.00280   0.00437  -0.00028
  61 10  H  1S         -0.00117  -0.00007  -0.00232  -0.00125  -0.00013
  62        2S         -0.00067   0.00463   0.00514   0.00037   0.00080
  63 11  H  1S         -0.00103  -0.00022   0.00004   0.00033  -0.00113
  64        2S          0.01207   0.00051   0.00349   0.00341   0.00241
  65 12  B  1S         -0.00051  -0.00003  -0.00013  -0.00019  -0.00052
  66        2S         -0.00358  -0.00017  -0.00078  -0.00118  -0.00316
  67        2PX         0.00149   0.00001   0.00012   0.00040  -0.00209
  68        2PY        -0.00001  -0.00003   0.00014  -0.00004  -0.00093
  69        2PZ        -0.00000  -0.00000  -0.00000  -0.00000   0.00000
  70        3S          0.00837   0.00117   0.00159   0.00089   0.03054
  71        3PX        -0.00541  -0.00044  -0.00081  -0.00070   0.01263
  72        3PY        -0.00083   0.00056  -0.00365  -0.00071   0.03059
  73        3PZ         0.00000  -0.00000   0.00000   0.00000  -0.00001
  74 13  Cl 1S          0.00001  -0.00000  -0.00000  -0.00000   0.00774
  75        2S          0.00000   0.00000   0.00001   0.00001  -0.02475
  76        2PX        -0.00004   0.00000  -0.00001   0.00000   0.00010
  77        2PY         0.00003   0.00001   0.00001  -0.00001   0.00007
  78        2PZ        -0.00001   0.00000  -0.00001  -0.00000   0.00008
  79        3S          0.00033   0.00005   0.00022   0.00017  -0.00507
  80        3PX         0.00023  -0.00001   0.00005  -0.00004  -0.00007
  81        3PY        -0.00020  -0.00004  -0.00006   0.00008  -0.00115
  82        3PZ         0.00006  -0.00000   0.00005   0.00002   0.00079
  83        4S         -0.00175  -0.00010  -0.00131  -0.00048   0.00375
  84        4PX         0.00092   0.00011   0.00019   0.00021  -0.00171
  85        4PY         0.00001  -0.00002   0.00013  -0.00020  -0.00144
  86        4PZ         0.00083   0.00003   0.00074   0.00015  -0.00217
  87 14  Cl 1S          0.00001  -0.00000  -0.00000  -0.00000   0.00774
  88        2S          0.00000   0.00000   0.00001   0.00001  -0.02476
  89        2PX        -0.00004   0.00000  -0.00001   0.00000   0.00010
  90        2PY         0.00003   0.00001   0.00001  -0.00001   0.00007
  91        2PZ         0.00001  -0.00000   0.00001   0.00000  -0.00008
  92        3S          0.00033   0.00005   0.00022   0.00017  -0.00507
  93        3PX         0.00023  -0.00001   0.00005  -0.00004  -0.00007
  94        3PY        -0.00020  -0.00004  -0.00006   0.00008  -0.00115
  95        3PZ        -0.00006   0.00000  -0.00005  -0.00002  -0.00078
  96        4S         -0.00175  -0.00010  -0.00130  -0.00048   0.00374
  97        4PX         0.00093   0.00011   0.00019   0.00021  -0.00171
  98        4PY         0.00001  -0.00002   0.00013  -0.00019  -0.00144
  99        4PZ        -0.00083  -0.00003  -0.00073  -0.00015   0.00217
 100 15  Cl 1S         -0.00001  -0.00001   0.00001   0.00002  -0.30567
 101        2S          0.00003   0.00002  -0.00002  -0.00004   0.98199
 102        2PX         0.00006   0.00002   0.00001  -0.00004  -0.00431
 103        2PY        -0.00005  -0.00000  -0.00000  -0.00003  -0.00698
 104        2PZ        -0.00000  -0.00000   0.00000   0.00000   0.00000
 105        3S          0.00084   0.00041  -0.00040  -0.00081   0.14897
 106        3PX        -0.00044  -0.00014  -0.00007   0.00032  -0.00432
 107        3PY         0.00031   0.00002   0.00002   0.00022  -0.00604
 108        3PZ         0.00000   0.00000  -0.00000  -0.00000   0.00000
 109        4S         -0.00170  -0.00098   0.00195   0.00142  -0.09363
 110        4PX         0.00221   0.00057  -0.00022  -0.00085   0.01386
 111        4PY        -0.00042   0.00024  -0.00087  -0.00072   0.02481
 112        4PZ        -0.00000  -0.00000   0.00000  -0.00000  -0.00001
                          11        12        13        14        15
                           O         O         O         O         O
     Eigenvalues --   -10.46180 -10.46119  -7.93443  -7.93114  -7.93080
   1 1   C  1S         -0.00000  -0.00001  -0.00002  -0.00012   0.00000
   2        2S          0.00000   0.00025   0.00028  -0.00084   0.00000
   3        2PX         0.00000   0.00013   0.00094   0.00074   0.00000
   4        2PY         0.00000   0.00001   0.00012  -0.00048   0.00000
   5        2PZ        -0.00090   0.00001  -0.00000  -0.00000  -0.00021
   6        3S         -0.00001  -0.00027   0.00312   0.00911  -0.00000
   7        3PX        -0.00000  -0.00144  -0.00583  -0.00581  -0.00000
   8        3PY         0.00000   0.00012  -0.00099   0.00645  -0.00000
   9        3PZ         0.00273  -0.00002   0.00000   0.00000   0.00100
  10 2   C  1S         -0.00000   0.00001   0.00008   0.00009   0.00000
  11        2S          0.00000   0.00020   0.00056   0.00050   0.00000
  12        2PX         0.00000   0.00013   0.00004  -0.00012  -0.00000
  13        2PY        -0.00000  -0.00007  -0.00011   0.00002  -0.00000
  14        2PZ         0.00014  -0.00000   0.00000   0.00000   0.00007
  15        3S          0.00000  -0.00125  -0.00568  -0.00643  -0.00000
  16        3PX        -0.00000  -0.00135  -0.00357  -0.00458  -0.00000
  17        3PY         0.00000   0.00082   0.00152  -0.00192   0.00000
  18        3PZ        -0.00104   0.00001  -0.00000  -0.00000  -0.00049
  19 3   C  1S         -0.00000  -0.00003  -0.00002  -0.00003  -0.00000
  20        2S         -0.00000  -0.00007  -0.00007  -0.00024   0.00000
  21        2PX         0.00000   0.00013  -0.00002  -0.00014   0.00000
  22        2PY        -0.00000  -0.00004   0.00016   0.00005   0.00000
  23        2PZ         0.00002  -0.00000   0.00000  -0.00000  -0.00002
  24        3S          0.00002   0.00296   0.00084   0.00079   0.00000
  25        3PX         0.00000   0.00121   0.00145   0.00182  -0.00000
  26        3PY        -0.00001  -0.00130  -0.00021  -0.00206  -0.00000
  27        3PZ        -0.00025   0.00000  -0.00000   0.00000   0.00017
  28 4   C  1S         -0.00000   0.00001   0.00002   0.00001  -0.00000
  29        2S          0.00000   0.00021   0.00010   0.00001  -0.00000
  30        2PX         0.00000   0.00008   0.00010   0.00003   0.00000
  31        2PY         0.00000   0.00024  -0.00004   0.00001   0.00000
  32        2PZ        -0.00031   0.00000  -0.00000   0.00000  -0.00001
  33        3S          0.00001  -0.00013  -0.00162  -0.00040   0.00000
  34        3PX         0.00001   0.00105  -0.00062   0.00146   0.00000
  35        3PY        -0.00003  -0.00415   0.00035  -0.00189  -0.00000
  36        3PZ         0.00183  -0.00001   0.00000  -0.00000  -0.00001
  37 5   C  1S          0.00000   0.00008   0.00005  -0.00003  -0.00000
  38        2S         -0.00000  -0.00018   0.00021  -0.00042  -0.00000
  39        2PX        -0.00001  -0.00063  -0.00007  -0.00035  -0.00000
  40        2PY        -0.00000  -0.00047  -0.00000  -0.00031   0.00000
  41        2PZ         0.00128  -0.00001   0.00000   0.00000   0.00013
  42        3S         -0.00002  -0.00179  -0.00150   0.00047  -0.00000
  43        3PX         0.00002   0.00166  -0.00161   0.00234   0.00000
  44        3PY         0.00004   0.00573  -0.00282   0.00192  -0.00000
  45        3PZ        -0.00370   0.00002  -0.00000  -0.00000  -0.00007
  46 6   N  1S          0.00000   0.00021   0.00000  -0.00009   0.00000
  47        2S          0.00001   0.00099   0.00019  -0.00062   0.00000
  48        2PX        -0.00000  -0.00025   0.00043   0.00011  -0.00000
  49        2PY        -0.00000  -0.00002   0.00048   0.00012   0.00000
  50        2PZ        -0.00005  -0.00000  -0.00000  -0.00000   0.00034
  51        3S         -0.00007  -0.00911   0.00125   0.00451  -0.00000
  52        3PX        -0.00001  -0.00202  -0.00168   0.00009   0.00000
  53        3PY         0.00002   0.00270  -0.00171   0.00140  -0.00000
  54        3PZ         0.00251  -0.00002   0.00000   0.00000  -0.00182
  55 7   H  1S         -0.00000  -0.00000   0.00015   0.00017  -0.00000
  56        2S         -0.00000   0.00015   0.00037   0.00061  -0.00000
  57 8   H  1S         -0.00000   0.00013   0.00024   0.00092   0.00000
  58        2S          0.00001   0.00073   0.00094  -0.01006   0.00000
  59 9   H  1S         -0.00000  -0.00007  -0.00001   0.00022  -0.00000
  60        2S         -0.00000  -0.00056  -0.00091   0.00061  -0.00000
  61 10  H  1S         -0.00000  -0.00033   0.00010  -0.00011  -0.00000
  62        2S         -0.00001  -0.00150   0.00009  -0.00035   0.00000
  63 11  H  1S         -0.00001  -0.00162   0.00019  -0.00018  -0.00000
  64        2S          0.00005   0.00551  -0.00186   0.00071  -0.00000
  65 12  B  1S         -0.00001  -0.00150   0.00030  -0.00034  -0.00000
  66        2S         -0.00007  -0.01016  -0.00129  -0.00058  -0.00000
  67        2PX        -0.00001  -0.00087   0.00070  -0.00067  -0.00000
  68        2PY         0.00000   0.00009   0.00104  -0.00053  -0.00000
  69        2PZ         0.00068  -0.00001  -0.00000   0.00000  -0.00111
  70        3S          0.00038   0.05475  -0.00499  -0.00025   0.00000
  71        3PX         0.00006   0.00732  -0.00440   0.00606   0.00000
  72        3PY        -0.00011  -0.01456  -0.00843   0.00007   0.00000
  73        3PZ        -0.02910   0.00021   0.00000   0.00000   0.00789
  74 13  Cl 1S          0.21479  -0.21771   0.00007  -0.00001  -0.00004
  75        2S         -0.69001   0.69964  -0.00031   0.00007   0.00020
  76        2PX         0.00205  -0.00210  -0.00000  -0.00417  -0.00217
  77        2PY        -0.00257   0.00267   0.00654  -0.00326  -0.01010
  78        2PZ         0.00436  -0.00470  -0.00358   0.00060   0.00232
  79        3S         -0.10304   0.10258   0.00200  -0.00041  -0.00055
  80        3PX         0.00169  -0.00156   0.00002  -0.00058  -0.00041
  81        3PY        -0.00238   0.00191   0.00138  -0.00059  -0.00161
  82        3PZ         0.00470  -0.00289  -0.00070   0.00011   0.00037
  83        4S          0.05958  -0.06095  -0.00372   0.00002  -0.00196
  84        4PX        -0.00566   0.00514   0.00066  -0.00014   0.00135
  85        4PY         0.00959  -0.00782  -0.00190   0.00065   0.00083
  86        4PZ        -0.01338   0.01526   0.00185   0.00026   0.00056
  87 14  Cl 1S         -0.21779  -0.21470   0.00007  -0.00001   0.00004
  88        2S          0.69967   0.68998  -0.00031   0.00007  -0.00020
  89        2PX        -0.00208  -0.00207  -0.00000  -0.00418   0.00217
  90        2PY         0.00261   0.00263   0.00654  -0.00328   0.01011
  91        2PZ         0.00443   0.00463   0.00358  -0.00060   0.00232
  92        3S          0.10446   0.10114   0.00200  -0.00041   0.00055
  93        3PX        -0.00172  -0.00153   0.00002  -0.00058   0.00041
  94        3PY         0.00241   0.00188   0.00138  -0.00059   0.00161
  95        3PZ         0.00474   0.00283   0.00070  -0.00011   0.00037
  96        4S         -0.06042  -0.06012  -0.00372   0.00003   0.00196
  97        4PX         0.00573   0.00507   0.00066  -0.00014  -0.00135
  98        4PY        -0.00970  -0.00770  -0.00190   0.00065  -0.00083
  99        4PZ        -0.01358  -0.01507  -0.00185  -0.00026   0.00056
 100 15  Cl 1S         -0.00008  -0.01105  -0.00312  -0.00057  -0.00000
 101        2S          0.00025   0.03569   0.01084   0.00202   0.00000
 102        2PX        -0.00000  -0.00020   0.36626   0.90231   0.00031
 103        2PY        -0.00000  -0.00049   0.90161  -0.36662   0.00026
 104        2PZ        -0.00010   0.00000  -0.00036  -0.00019   0.97411
 105        3S          0.00003   0.00416  -0.00695  -0.00174   0.00000
 106        3PX         0.00000   0.00014   0.03150   0.07491   0.00003
 107        3PY         0.00001   0.00144   0.07693  -0.03008   0.00002
 108        3PZ         0.00062  -0.00000  -0.00003  -0.00002   0.07950
 109        4S         -0.00004  -0.00593   0.01434   0.00155  -0.00000
 110        4PX         0.00000   0.00023  -0.01272  -0.02627  -0.00001
 111        4PY         0.00002   0.00251  -0.03061   0.01040  -0.00001
 112        4PZ         0.00267  -0.00002   0.00001   0.00001  -0.02594
                          16        17        18        19        20
                           O         O         O         O         O
     Eigenvalues --    -7.92483  -7.92471  -7.92139  -7.92138  -7.92130
   1 1   C  1S         -0.00000   0.00004  -0.00003  -0.00001  -0.00000
   2        2S         -0.00001   0.00022  -0.00021  -0.00005  -0.00000
   3        2PX         0.00001  -0.00020  -0.00001  -0.00000  -0.00001
   4        2PY        -0.00000   0.00005   0.00007   0.00002  -0.00000
   5        2PZ        -0.00024  -0.00001  -0.00001   0.00003   0.00003
   6        3S          0.00014  -0.00383   0.00096   0.00022  -0.00004
   7        3PX        -0.00007   0.00210   0.00121   0.00030   0.00010
   8        3PY        -0.00010   0.00262  -0.00080  -0.00018   0.00002
   9        3PZ         0.00147   0.00005  -0.00003   0.00010  -0.00052
  10 2   C  1S          0.00000  -0.00005   0.00000   0.00000  -0.00000
  11        2S          0.00001  -0.00025   0.00003   0.00000  -0.00001
  12        2PX        -0.00000   0.00009   0.00000   0.00000   0.00000
  13        2PY        -0.00000   0.00010  -0.00001  -0.00000   0.00000
  14        2PZ         0.00004   0.00000   0.00001  -0.00006   0.00001
  15        3S         -0.00010   0.00276  -0.00023  -0.00003   0.00010
  16        3PX        -0.00006   0.00181   0.00064   0.00016   0.00005
  17        3PY         0.00006  -0.00163   0.00072   0.00016  -0.00003
  18        3PZ        -0.00053  -0.00002  -0.00006   0.00024   0.00009
  19 3   C  1S         -0.00000   0.00002  -0.00000  -0.00000   0.00000
  20        2S         -0.00000   0.00011  -0.00006  -0.00001   0.00000
  21        2PX         0.00000  -0.00004  -0.00008  -0.00002   0.00000
  22        2PY         0.00000  -0.00012   0.00001   0.00000  -0.00000
  23        2PZ        -0.00001  -0.00000  -0.00000   0.00002   0.00000
  24        3S          0.00008  -0.00238  -0.00064  -0.00016  -0.00001
  25        3PX         0.00003  -0.00084   0.00038   0.00008  -0.00003
  26        3PY        -0.00004   0.00100   0.00131   0.00031  -0.00001
  27        3PZ         0.00002   0.00000   0.00011  -0.00048   0.00013
  28 4   C  1S         -0.00000   0.00002   0.00003   0.00001  -0.00000
  29        2S         -0.00001   0.00019   0.00011   0.00003  -0.00000
  30        2PX        -0.00000   0.00002  -0.00010  -0.00002  -0.00000
  31        2PY         0.00000  -0.00004  -0.00009  -0.00002   0.00000
  32        2PZ        -0.00011  -0.00000   0.00006  -0.00023   0.00010
  33        3S          0.00008  -0.00215  -0.00359  -0.00083   0.00004
  34        3PX         0.00009  -0.00253  -0.00267  -0.00062   0.00002
  35        3PY        -0.00006   0.00185   0.00226   0.00053  -0.00003
  36        3PZ         0.00054   0.00002  -0.00036   0.00151  -0.00062
  37 5   C  1S         -0.00000   0.00002   0.00002   0.00001   0.00000
  38        2S         -0.00002   0.00053   0.00046   0.00011   0.00001
  39        2PX        -0.00003   0.00094   0.00082   0.00019   0.00000
  40        2PY        -0.00001   0.00029   0.00036   0.00008  -0.00001
  41        2PZ         0.00045   0.00002  -0.00023   0.00094  -0.00050
  42        3S         -0.00004   0.00108   0.00240   0.00055  -0.00007
  43        3PX         0.00016  -0.00431  -0.00522  -0.00123   0.00000
  44        3PY         0.00011  -0.00311  -0.00543  -0.00126   0.00011
  45        3PZ        -0.00094  -0.00003   0.00070  -0.00291   0.00122
  46 6   N  1S         -0.00000   0.00006  -0.00006  -0.00001   0.00000
  47        2S         -0.00003   0.00080  -0.00025  -0.00006   0.00001
  48        2PX        -0.00003   0.00085   0.00015   0.00004  -0.00000
  49        2PY         0.00001  -0.00036   0.00008   0.00002  -0.00001
  50        2PZ         0.00051   0.00002  -0.00007   0.00029  -0.00033
  51        3S         -0.00004   0.00106   0.00413   0.00097  -0.00003
  52        3PX         0.00015  -0.00429  -0.00077  -0.00018   0.00002
  53        3PY        -0.00003   0.00083  -0.00240  -0.00056   0.00005
  54        3PZ        -0.00138  -0.00005   0.00020  -0.00084   0.00058
  55 7   H  1S         -0.00000   0.00004   0.00008   0.00002  -0.00000
  56        2S          0.00000  -0.00014   0.00019   0.00004  -0.00001
  57 8   H  1S          0.00001  -0.00028  -0.00009  -0.00002  -0.00001
  58        2S          0.00003  -0.00085  -0.00001  -0.00001  -0.00001
  59 9   H  1S         -0.00000   0.00013  -0.00003  -0.00001   0.00000
  60        2S         -0.00002   0.00064  -0.00009  -0.00002   0.00001
  61 10  H  1S         -0.00001   0.00019   0.00023   0.00005  -0.00000
  62        2S         -0.00001   0.00032   0.00076   0.00018  -0.00001
  63 11  H  1S         -0.00002   0.00050   0.00164   0.00038  -0.00002
  64        2S          0.00007  -0.00192  -0.00613  -0.00141   0.00014
  65 12  B  1S         -0.00003   0.00096  -0.00070  -0.00016   0.00001
  66        2S          0.00004  -0.00099  -0.00165  -0.00038   0.00003
  67        2PX         0.00000  -0.00006  -0.00079  -0.00019  -0.00001
  68        2PY         0.00000  -0.00005   0.00004   0.00001   0.00003
  69        2PZ         0.00104   0.00004   0.00010  -0.00049  -0.00089
  70        3S          0.00025  -0.00689   0.00364   0.00085  -0.00006
  71        3PX         0.00014  -0.00384   0.00573   0.00136   0.00005
  72        3PY        -0.00005   0.00129   0.00098   0.00019  -0.00023
  73        3PZ        -0.00959  -0.00034  -0.00049   0.00246   0.00623
  74 13  Cl 1S         -0.00209  -0.00217  -0.00017  -0.00024   0.00014
  75        2S          0.00732   0.00749   0.00059   0.00086  -0.00045
  76        2PX         0.17110   0.19142   0.44087   0.56358  -0.49180
  77        2PY        -0.32892  -0.36336   0.27184   0.57405   0.31324
  78        2PZ         0.54962   0.58216   0.02560   0.16821   0.34066
  79        3S         -0.00586  -0.00303   0.00007  -0.00046  -0.00012
  80        3PX         0.01472   0.01643   0.03631   0.04615  -0.04031
  81        3PY        -0.02804  -0.03091   0.02223   0.04699   0.02581
  82        3PZ         0.04747   0.04906   0.00209   0.01408   0.02827
  83        4S          0.01160   0.00560  -0.00109  -0.00052  -0.00199
  84        4PX        -0.00627  -0.00591  -0.01245  -0.01440   0.01338
  85        4PY         0.01152   0.01157  -0.00752  -0.01536  -0.00957
  86        4PZ        -0.01997  -0.01704   0.00023  -0.00457  -0.00899
  87 14  Cl 1S          0.00224  -0.00202  -0.00026   0.00014  -0.00014
  88        2S         -0.00784   0.00695   0.00092  -0.00050   0.00044
  89        2PX        -0.18450   0.17883   0.65654  -0.30394   0.49389
  90        2PY         0.35452  -0.33931   0.49073  -0.39989  -0.34409
  91        2PZ         0.58961  -0.54098  -0.08977   0.14521   0.36126
  92        3S          0.00606  -0.00260  -0.00014   0.00044   0.00011
  93        3PX        -0.01587   0.01535   0.05395  -0.02480   0.04046
  94        3PY         0.03022  -0.02886   0.04015  -0.03274  -0.02832
  95        3PZ         0.05083  -0.04550  -0.00747   0.01216   0.02993
  96        4S         -0.01197   0.00476  -0.00116  -0.00002   0.00192
  97        4PX         0.00668  -0.00545  -0.01786   0.00724  -0.01339
  98        4PY        -0.01234   0.01073  -0.01332   0.01059   0.01035
  99        4PZ        -0.02113   0.01556   0.00162  -0.00435  -0.00952
 100 15  Cl 1S         -0.00000   0.00004  -0.00004  -0.00001   0.00000
 101        2S          0.00001  -0.00022   0.00023   0.00005  -0.00001
 102        2PX        -0.00007   0.00205   0.00501   0.00117  -0.00002
 103        2PY        -0.00033   0.00908  -0.00735  -0.00169   0.00016
 104        2PZ        -0.00924  -0.00033  -0.00268   0.01164   0.00303
 105        3S         -0.00008   0.00217  -0.00150  -0.00035   0.00003
 106        3PX         0.00000  -0.00004   0.00019   0.00004  -0.00000
 107        3PY         0.00001  -0.00024   0.00026   0.00006  -0.00001
 108        3PZ        -0.00014  -0.00000  -0.00000   0.00001   0.00009
 109        4S          0.00008  -0.00226   0.00032   0.00008   0.00005
 110        4PX        -0.00002   0.00055   0.00014   0.00002  -0.00004
 111        4PY        -0.00006   0.00169  -0.00057  -0.00013   0.00000
 112        4PZ        -0.00044  -0.00002  -0.00039   0.00165  -0.00059
                          21        22        23        24        25
                           O         O         O         O         O
     Eigenvalues --    -7.92114  -7.71855  -1.38659  -1.18278  -1.12748
   1 1   C  1S          0.00003  -0.00013  -0.09428  -0.01718  -0.12946
   2        2S          0.00031  -0.00182   0.10991   0.02345   0.14463
   3        2PX         0.00052  -0.00195   0.02169  -0.09440  -0.03520
   4        2PY         0.00002   0.00081  -0.08720   0.02368  -0.01277
   5        2PZ         0.00000  -0.00000  -0.00001   0.00000  -0.00000
   6        3S          0.00117  -0.00368   0.07829   0.02267   0.27065
   7        3PX        -0.00486   0.01674   0.01820  -0.00521  -0.04293
   8        3PY        -0.00059  -0.00073   0.07635  -0.00929   0.01652
   9        3PZ        -0.00001   0.00000   0.00001  -0.00000   0.00000
  10 2   C  1S          0.00005  -0.00017  -0.04039  -0.11287  -0.10249
  11        2S          0.00031  -0.00088   0.03849   0.12488   0.11095
  12        2PX        -0.00002   0.00024   0.03090  -0.00739   0.06397
  13        2PY        -0.00003  -0.00031  -0.01969  -0.07027   0.00160
  14        2PZ         0.00000   0.00000  -0.00000  -0.00001   0.00000
  15        3S         -0.00403   0.01442   0.13133   0.23488   0.22165
  16        3PX        -0.00254   0.00753   0.02689   0.01476  -0.00686
  17        3PY         0.00080   0.00015  -0.08544  -0.00837  -0.03012
  18        3PZ         0.00000  -0.00000  -0.00001  -0.00000  -0.00000
  19 3   C  1S         -0.00002  -0.00001  -0.02786  -0.14468   0.00195
  20        2S         -0.00011  -0.00012   0.03807   0.16177  -0.00222
  21        2PX        -0.00005   0.00016   0.02533   0.06892  -0.00228
  22        2PY         0.00011   0.00005   0.00061   0.00248   0.08655
  23        2PZ         0.00000  -0.00000   0.00000   0.00000   0.00001
  24        3S          0.00085   0.00072  -0.06028   0.30779  -0.00495
  25        3PX         0.00114  -0.00339  -0.05186   0.02274   0.00071
  26        3PY        -0.00049  -0.00080  -0.00168  -0.00004  -0.01392
  27        3PZ         0.00000   0.00000  -0.00000  -0.00000  -0.00000
  28 4   C  1S          0.00001  -0.00021  -0.04030  -0.11211   0.10607
  29        2S          0.00008  -0.00107   0.03833   0.12408  -0.11472
  30        2PX         0.00008   0.00035   0.03024  -0.00875  -0.06399
  31        2PY         0.00000   0.00030   0.02079   0.06912  -0.00249
  32        2PZ         0.00000   0.00000   0.00000   0.00000  -0.00000
  33        3S          0.00017   0.01782   0.13071   0.23539  -0.23236
  34        3PX         0.00055   0.01028   0.02467   0.01646   0.00561
  35        3PY        -0.00017  -0.00075   0.08468   0.00826  -0.02941
  36        3PZ        -0.00001  -0.00000   0.00000  -0.00000  -0.00000
  37 5   C  1S         -0.00006  -0.00015  -0.09307  -0.01725   0.12819
  38        2S         -0.00079  -0.00158   0.10960   0.02325  -0.14441
  39        2PX        -0.00050  -0.00197   0.01795  -0.09470   0.03971
  40        2PY         0.00007  -0.00088   0.08595  -0.02708  -0.00780
  41        2PZ        -0.00001  -0.00000   0.00000  -0.00000  -0.00000
  42        3S          0.00173  -0.00479   0.07119   0.02432  -0.26317
  43        3PX         0.00256   0.02203   0.01921  -0.00077   0.04030
  44        3PY        -0.00142   0.00387  -0.07110   0.01019   0.01478
  45        3PZ         0.00001   0.00000  -0.00000   0.00000  -0.00000
  46 6   N  1S          0.00000  -0.00002  -0.19149   0.08217  -0.00172
  47        2S         -0.00013   0.00041   0.16233  -0.07283   0.00123
  48        2PX        -0.00004   0.00118  -0.06616  -0.02822  -0.00730
  49        2PY         0.00024  -0.00011  -0.00095   0.00087   0.14929
  50        2PZ        -0.00001   0.00000   0.00001  -0.00000   0.00001
  51        3S         -0.00106   0.00068   0.65307  -0.28925   0.00877
  52        3PX        -0.00031  -0.00347  -0.09929  -0.01405  -0.00578
  53        3PY        -0.00062   0.00089  -0.00280   0.00269   0.13733
  54        3PZ         0.00001  -0.00000   0.00001  -0.00000   0.00001
  55 7   H  1S          0.00010  -0.00052   0.00600   0.05874  -0.00092
  56        2S          0.00034  -0.00090  -0.01615  -0.00070   0.00022
  57 8   H  1S          0.00044  -0.00159   0.02450   0.00107   0.06850
  58        2S          0.00061  -0.00183  -0.04144  -0.00021   0.00551
  59 9   H  1S          0.00000  -0.00042   0.01392   0.04372   0.05033
  60        2S         -0.00050   0.00027   0.02249  -0.00280   0.00947
  61 10  H  1S         -0.00001  -0.00052   0.01381   0.04332  -0.05175
  62        2S          0.00011   0.00015   0.02193  -0.00282  -0.00918
  63 11  H  1S         -0.00001  -0.00185   0.02419   0.00043  -0.06754
  64        2S         -0.00257   0.00069  -0.03442  -0.00107  -0.01078
  65 12  B  1S         -0.00011   0.99031  -0.02649   0.03694   0.00563
  66        2S         -0.00028   0.10374   0.04246  -0.04234  -0.00376
  67        2PX         0.00086  -0.00317  -0.03886   0.02186   0.00026
  68        2PY        -0.00137  -0.00098   0.00139  -0.00113   0.02194
  69        2PZ        -0.00002   0.00000  -0.00000   0.00000   0.00000
  70        3S          0.00035  -0.09064   0.00171  -0.04336  -0.01681
  71        3PX        -0.00542   0.00064   0.02026  -0.00198  -0.00093
  72        3PY         0.00907   0.01115  -0.00790   0.00903  -0.01981
  73        3PZ         0.00016  -0.00001   0.00000  -0.00001  -0.00000
  74 13  Cl 1S          0.00007  -0.00013   0.00228  -0.00752  -0.00598
  75        2S         -0.00028   0.00058  -0.01325   0.04394   0.03506
  76        2PX        -0.35923  -0.00005   0.00249  -0.00346  -0.00278
  77        2PY         0.45462   0.00107  -0.00169   0.00366   0.00078
  78        2PZ         0.40227  -0.00115   0.00289  -0.00618  -0.00382
  79        3S          0.00031  -0.00638   0.01551  -0.05668  -0.04342
  80        3PX        -0.02921  -0.00023  -0.00453   0.00691   0.00605
  81        3PY         0.03695  -0.00045   0.00372  -0.00765  -0.00205
  82        3PZ         0.03230   0.00029  -0.00594   0.01277   0.00769
  83        4S          0.00197   0.02606   0.01138  -0.03456  -0.03997
  84        4PX         0.00902  -0.00312  -0.00785   0.00408   0.00329
  85        4PY        -0.01127   0.00584   0.00032  -0.00136   0.00263
  86        4PZ        -0.01077  -0.01119  -0.00079   0.00115   0.00719
  87 14  Cl 1S          0.00007  -0.00013   0.00228  -0.00752  -0.00599
  88        2S         -0.00027   0.00058  -0.01325   0.04395   0.03510
  89        2PX        -0.33977  -0.00005   0.00249  -0.00346  -0.00278
  90        2PY         0.43417   0.00107  -0.00170   0.00367   0.00078
  91        2PZ        -0.38452   0.00115  -0.00289   0.00618   0.00382
  92        3S          0.00032  -0.00638   0.01551  -0.05668  -0.04347
  93        3PX        -0.02761  -0.00023  -0.00453   0.00691   0.00606
  94        3PY         0.03527  -0.00045   0.00372  -0.00766  -0.00206
  95        3PZ        -0.03082  -0.00029   0.00593  -0.01276  -0.00769
  96        4S          0.00206   0.02605   0.01139  -0.03458  -0.04003
  97        4PX         0.00848  -0.00312  -0.00786   0.00409   0.00330
  98        4PY        -0.01067   0.00585   0.00032  -0.00136   0.00262
  99        4PZ         0.01030   0.01118   0.00079  -0.00115  -0.00720
 100 15  Cl 1S         -0.00001  -0.00006   0.00221  -0.00787   0.00651
 101        2S          0.00009   0.00027  -0.01289   0.04604  -0.03825
 102        2PX        -0.00166  -0.00001   0.00250  -0.00428   0.00414
 103        2PY        -0.00280  -0.00119   0.00280  -0.00659   0.00236
 104        2PZ         0.00012   0.00000  -0.00000   0.00000  -0.00000
 105        3S         -0.00033  -0.00259   0.01032  -0.05595   0.04143
 106        3PX        -0.00008  -0.00058  -0.00315   0.00801  -0.00791
 107        3PY         0.00020   0.00006  -0.00573   0.01329  -0.00475
 108        3PZ         0.00000  -0.00000   0.00000  -0.00001   0.00000
 109        4S         -0.00238   0.01350   0.02381  -0.04822   0.06350
 110        4PX         0.00181  -0.00076  -0.01567   0.00897  -0.01283
 111        4PY         0.00024  -0.00655  -0.00301   0.00640  -0.01114
 112        4PZ        -0.00001   0.00000   0.00000  -0.00000   0.00001
                          26        27        28        29        30
                           O         O         O         O         O
     Eigenvalues --    -1.11067  -1.06062  -1.05312  -0.95112  -0.94765
   1 1   C  1S          0.00926   0.00915   0.00001   0.10269   0.03891
   2        2S         -0.00937  -0.01179  -0.00001  -0.11618  -0.03953
   3        2PX        -0.01597   0.03108   0.00000   0.05079  -0.17535
   4        2PY         0.02705  -0.00257  -0.00000  -0.05307   0.06483
   5        2PZ         0.00000  -0.00000   0.00289  -0.00000   0.00001
   6        3S         -0.00933  -0.00989  -0.00002  -0.27408  -0.11088
   7        3PX        -0.01151   0.01500   0.00000   0.02944  -0.01323
   8        3PY         0.00634   0.00482  -0.00000  -0.04234   0.00274
   9        3PZ        -0.00000   0.00000   0.00398  -0.00001  -0.00000
  10 2   C  1S         -0.02629   0.03061   0.00000  -0.00169  -0.11018
  11        2S          0.02998  -0.03258  -0.00000   0.00235   0.11396
  12        2PX        -0.01571  -0.00550  -0.00001  -0.16020  -0.00130
  13        2PY        -0.01607   0.00252  -0.00000  -0.08803   0.02999
  14        2PZ        -0.00000  -0.00000   0.00073  -0.00001   0.00000
  15        3S          0.04284  -0.07521  -0.00001  -0.01615   0.35454
  16        3PX        -0.00834  -0.00195  -0.00000  -0.04634   0.02899
  17        3PY         0.00227   0.00340   0.00000  -0.00104   0.00424
  18        3PZ         0.00000  -0.00000  -0.00067   0.00000   0.00000
  19 3   C  1S         -0.04075   0.00505  -0.00001  -0.12164   0.04374
  20        2S          0.04459  -0.00559   0.00001   0.12762  -0.04575
  21        2PX         0.00973   0.00007   0.00000  -0.04650   0.01400
  22        2PY         0.00413  -0.02996  -0.00000   0.05420   0.15861
  23        2PZ         0.00000  -0.00000   0.00027   0.00000   0.00001
  24        3S          0.10029  -0.01357   0.00002   0.39492  -0.14248
  25        3PX         0.01246  -0.00036   0.00000   0.01237  -0.00667
  26        3PY         0.00198  -0.00412   0.00000   0.02235   0.06334
  27        3PZ        -0.00000  -0.00000   0.00025  -0.00000   0.00001
  28 4   C  1S         -0.01754  -0.02809  -0.00001   0.06683   0.08618
  29        2S          0.02095   0.02985   0.00001  -0.06912  -0.08982
  30        2PX        -0.02063   0.01352  -0.00001  -0.12790   0.10429
  31        2PY         0.01517  -0.00200   0.00000   0.08078  -0.02965
  32        2PZ         0.00000  -0.00000   0.00098   0.00000   0.00000
  33        3S          0.01543   0.07070   0.00001  -0.22893  -0.26082
  34        3PX        -0.01505   0.00383  -0.00000  -0.05344   0.00971
  35        3PY        -0.00251   0.00452   0.00000   0.00204   0.00125
  36        3PZ         0.00000   0.00000   0.00106   0.00000   0.00000
  37 5   C  1S          0.01777  -0.01638   0.00000   0.05536  -0.09496
  38        2S         -0.01801   0.01901  -0.00000  -0.06564   0.10442
  39        2PX        -0.00976  -0.02995  -0.00001   0.14605   0.10382
  40        2PY        -0.02586  -0.00328  -0.00000   0.08572   0.01706
  41        2PZ        -0.00000   0.00000   0.00610   0.00000   0.00000
  42        3S         -0.02694   0.03048  -0.00001  -0.14567   0.25900
  43        3PX        -0.02278  -0.01222  -0.00001   0.02999  -0.00350
  44        3PY        -0.00972   0.00046   0.00000   0.03336  -0.02239
  45        3PZ        -0.00000  -0.00000   0.00227  -0.00000   0.00000
  46 6   N  1S          0.02970  -0.00093   0.00000  -0.06794   0.02397
  47        2S         -0.02345   0.00004  -0.00000   0.06182  -0.02190
  48        2PX         0.05403  -0.00759   0.00001   0.07348  -0.01709
  49        2PY         0.00389   0.01089   0.00000  -0.07812  -0.22208
  50        2PZ        -0.00000  -0.00000   0.01664  -0.00000  -0.00002
  51        3S         -0.11308   0.00529  -0.00001   0.26543  -0.09598
  52        3PX         0.03694  -0.00492   0.00001   0.06966  -0.01570
  53        3PY         0.00208   0.00491  -0.00000  -0.07794  -0.21343
  54        3PZ        -0.00000  -0.00000   0.01403  -0.00000  -0.00002
  55 7   H  1S          0.02158  -0.00303   0.00000   0.10740  -0.03921
  56        2S          0.00490  -0.00047   0.00000   0.04344  -0.01644
  57 8   H  1S          0.00546   0.00513  -0.00001  -0.08312  -0.04344
  58        2S         -0.00144  -0.00489   0.00000  -0.01590  -0.01909
  59 9   H  1S          0.01365  -0.01728  -0.00000   0.00124   0.08919
  60        2S         -0.00030  -0.00341  -0.00000  -0.00449   0.03387
  61 10  H  1S          0.00942   0.01589   0.00000  -0.05301  -0.06964
  62        2S         -0.00109   0.00404  -0.00000  -0.02310  -0.02334
  63 11  H  1S          0.00067   0.00218  -0.00001  -0.03635   0.08814
  64        2S         -0.00516   0.00024   0.00000   0.00013   0.02926
  65 12  B  1S         -0.08553   0.00821  -0.00001  -0.02473   0.00674
  66        2S          0.09314  -0.00823   0.00001   0.02672  -0.01068
  67        2PX         0.04641   0.00569  -0.00001  -0.05183   0.01452
  68        2PY         0.00874   0.10434   0.00001   0.00391  -0.00404
  69        2PZ        -0.00001  -0.00001   0.10558  -0.00001   0.00000
  70        3S          0.15380  -0.02053   0.00002   0.03558  -0.00124
  71        3PX        -0.01380  -0.00082   0.00000  -0.00086   0.00021
  72        3PY        -0.02478  -0.00408  -0.00000   0.00436   0.00600
  73        3PZ         0.00002  -0.00000  -0.01109   0.00000   0.00000
  74 13  Cl 1S          0.03714  -0.03475   0.05575  -0.00829  -0.00377
  75        2S         -0.21764   0.20427  -0.32792   0.04901   0.02226
  76        2PX         0.00632  -0.00626   0.00912   0.00404   0.00187
  77        2PY        -0.01312   0.00270  -0.01212  -0.00156   0.00144
  78        2PZ         0.02179  -0.01420   0.01526   0.00162   0.00055
  79        3S          0.28089  -0.25342   0.40346  -0.06040  -0.02735
  80        3PX        -0.01261   0.01254  -0.01809  -0.00873  -0.00433
  81        3PY         0.02726  -0.00455   0.02455   0.00355  -0.00251
  82        3PZ        -0.04505   0.02881  -0.02977  -0.00359  -0.00121
  83        4S          0.19129  -0.22657   0.37878  -0.06166  -0.02526
  84        4PX        -0.00273   0.01070  -0.01871  -0.00375  -0.00112
  85        4PY         0.00598  -0.00832   0.02134  -0.00146  -0.00536
  86        4PZ        -0.00670   0.02049  -0.03376   0.00143  -0.00099
  87 14  Cl 1S          0.03716  -0.03478  -0.05573  -0.00829  -0.00378
  88        2S         -0.21771   0.20445   0.32776   0.04900   0.02231
  89        2PX         0.00633  -0.00627  -0.00912   0.00404   0.00187
  90        2PY        -0.01314   0.00272   0.01213  -0.00156   0.00144
  91        2PZ        -0.02179   0.01420   0.01524  -0.00162  -0.00055
  92        3S          0.28097  -0.25364  -0.40325  -0.06040  -0.02742
  93        3PX        -0.01263   0.01256   0.01809  -0.00873  -0.00434
  94        3PY         0.02730  -0.00458  -0.02456   0.00356  -0.00251
  95        3PZ         0.04503  -0.02883  -0.02972   0.00359   0.00121
  96        4S          0.19138  -0.22677  -0.37860  -0.06165  -0.02531
  97        4PX        -0.00274   0.01071   0.01871  -0.00375  -0.00113
  98        4PY         0.00599  -0.00835  -0.02136  -0.00146  -0.00536
  99        4PZ         0.00671  -0.02051  -0.03373  -0.00143   0.00099
 100 15  Cl 1S          0.04626   0.05934  -0.00001  -0.00113   0.01034
 101        2S         -0.27132  -0.34902   0.00007   0.00668  -0.06112
 102        2PX         0.01238   0.01369  -0.00000   0.00085  -0.00522
 103        2PY         0.02763   0.01798  -0.00001   0.00238  -0.00083
 104        2PZ        -0.00001  -0.00001  -0.00574   0.00000   0.00000
 105        3S          0.34099   0.42878  -0.00009  -0.00634   0.07917
 106        3PX        -0.02447  -0.02687   0.00000  -0.00213   0.01073
 107        3PY        -0.05678  -0.03552   0.00001  -0.00470   0.00197
 108        3PZ         0.00002   0.00002   0.01251  -0.00000  -0.00000
 109        4S          0.27835   0.40539  -0.00009  -0.01754   0.06343
 110        4PX        -0.01758  -0.02944   0.00001   0.00201   0.00892
 111        4PY        -0.02479  -0.03821   0.00001  -0.00035   0.00075
 112        4PZ         0.00001   0.00002   0.00494  -0.00000  -0.00000
                          31        32        33        34        35
                           O         O         O         O         O
     Eigenvalues --    -0.83736  -0.75692  -0.74076  -0.71587  -0.68948
   1 1   C  1S         -0.02178   0.02552   0.05877   0.02407   0.01564
   2        2S          0.01946  -0.02763  -0.06272  -0.02655  -0.02028
   3        2PX         0.06629   0.17860  -0.08806  -0.02245   0.16720
   4        2PY         0.17685  -0.14935  -0.06530  -0.11005   0.18885
   5        2PZ         0.00002  -0.00002  -0.00001  -0.00003   0.00001
   6        3S          0.13460  -0.14154  -0.18598  -0.11373  -0.00734
   7        3PX         0.05077   0.07215  -0.07786  -0.03531   0.14294
   8        3PY         0.07774  -0.04888  -0.08955  -0.07883   0.15640
   9        3PZ         0.00001  -0.00000  -0.00001  -0.00002   0.00001
  10 2   C  1S         -0.02214  -0.01624  -0.06034  -0.02843   0.01014
  11        2S          0.02158   0.01569   0.06600   0.02597  -0.01470
  12        2PX        -0.04863  -0.21494  -0.01236  -0.06365  -0.16175
  13        2PY         0.11704  -0.09253   0.01026   0.20347   0.14813
  14        2PZ         0.00001  -0.00001   0.00000   0.00001   0.00001
  15        3S          0.06937   0.06524   0.17251   0.13077   0.01075
  16        3PX        -0.03907  -0.10968  -0.03025  -0.06049  -0.10129
  17        3PY         0.08954  -0.05720   0.04696   0.15650   0.12560
  18        3PZ         0.00001  -0.00001   0.00001   0.00001   0.00001
  19 3   C  1S         -0.00802  -0.00317   0.05498   0.03881   0.00112
  20        2S          0.00570   0.00317  -0.05623  -0.04601  -0.00133
  21        2PX        -0.10566  -0.02466   0.20326  -0.18496  -0.00033
  22        2PY        -0.00792   0.24829   0.02078  -0.01169  -0.02380
  23        2PZ        -0.00000   0.00002   0.00001  -0.00001  -0.00001
  24        3S          0.05649   0.01160  -0.19128  -0.09602  -0.00161
  25        3PX        -0.06197  -0.01788   0.18026  -0.12510   0.00111
  26        3PY        -0.00390   0.12459   0.01284  -0.00711  -0.00316
  27        3PZ        -0.00000   0.00001   0.00001  -0.00001  -0.00000
  28 4   C  1S         -0.02555   0.02217  -0.05895  -0.02832  -0.01212
  29        2S          0.02498  -0.02218   0.06468   0.02562   0.01687
  30        2PX        -0.05274   0.21045   0.01405  -0.07372   0.15430
  31        2PY        -0.11631  -0.09691  -0.02649  -0.20086   0.14876
  32        2PZ        -0.00001  -0.00000  -0.00000  -0.00002   0.00000
  33        3S          0.08240  -0.08133   0.16689   0.13363  -0.00532
  34        3PX        -0.03806   0.10738  -0.01636  -0.06276   0.09424
  35        3PY        -0.08909  -0.05790  -0.05617  -0.15586   0.12143
  36        3PZ        -0.00001  -0.00000  -0.00000  -0.00002   0.00000
  37 5   C  1S         -0.01699  -0.03283   0.05785   0.02411  -0.01292
  38        2S          0.01475   0.03551  -0.06156  -0.02730   0.01693
  39        2PX         0.07231  -0.15283  -0.11549  -0.00851  -0.17836
  40        2PY        -0.16701  -0.16357   0.03652   0.10797   0.18800
  41        2PZ        -0.00000  -0.00000  -0.00000  -0.00001  -0.00001
  42        3S          0.11062   0.16307  -0.17867  -0.11155  -0.00130
  43        3PX         0.05284  -0.05697  -0.09415  -0.02276  -0.15111
  44        3PY        -0.07295  -0.06515   0.07116   0.07373   0.15866
  45        3PZ         0.00000   0.00000  -0.00000  -0.00001  -0.00001
  46 6   N  1S         -0.00774   0.00041  -0.03367  -0.03244  -0.00183
  47        2S          0.00593  -0.00027   0.03272   0.02806   0.00124
  48        2PX         0.23256  -0.01491   0.17591  -0.14934   0.00245
  49        2PY         0.00248   0.23255   0.02129  -0.00779  -0.07668
  50        2PZ         0.00001   0.00002   0.00000  -0.00002  -0.00002
  51        3S          0.01201  -0.00056   0.12776   0.14811   0.00983
  52        3PX         0.25891  -0.01923   0.21539  -0.16272   0.00485
  53        3PY         0.00019   0.24885   0.01940  -0.00816  -0.07654
  54        3PZ         0.00001   0.00002   0.00000  -0.00002  -0.00002
  55 7   H  1S          0.06129   0.01439  -0.17304   0.07526  -0.00071
  56        2S          0.02799   0.00747  -0.08764   0.05211   0.00002
  57 8   H  1S          0.11148  -0.04270  -0.11364  -0.08974   0.13883
  58        2S          0.04813  -0.02006  -0.04198  -0.04075   0.06948
  59 9   H  1S          0.08153   0.02975   0.06514   0.15411   0.12187
  60        2S          0.03170   0.01973   0.02003   0.08709   0.07819
  61 10  H  1S          0.08508  -0.02695   0.06496   0.15611  -0.11628
  62        2S          0.03333  -0.01666   0.01983   0.08827  -0.07550
  63 11  H  1S          0.10488   0.05821  -0.10748  -0.08394  -0.14621
  64        2S          0.04625   0.02341  -0.04228  -0.03736  -0.07083
  65 12  B  1S         -0.05190   0.00632  -0.08117   0.04554   0.00355
  66        2S          0.06150  -0.00550   0.08774  -0.04977  -0.00236
  67        2PX        -0.08503   0.00730  -0.07060   0.03738  -0.00425
  68        2PY         0.00177   0.02391   0.01130  -0.00079   0.00700
  69        2PZ        -0.00000   0.00000  -0.00001  -0.00000  -0.00000
  70        3S          0.06854  -0.01489   0.19677  -0.11045  -0.01882
  71        3PX         0.00094  -0.00003  -0.01050   0.00822   0.00093
  72        3PY        -0.00822  -0.00426  -0.00171   0.01443   0.01313
  73        3PZ         0.00001   0.00000   0.00001  -0.00001  -0.00000
  74 13  Cl 1S         -0.00925   0.00225  -0.00812   0.00591   0.00212
  75        2S          0.05499  -0.01343   0.04867  -0.03543  -0.01272
  76        2PX         0.01221  -0.00449   0.01090  -0.01237  -0.00567
  77        2PY        -0.00397   0.00121  -0.01734   0.00705  -0.00239
  78        2PZ         0.00963  -0.00568   0.02015  -0.01635  -0.00655
  79        3S         -0.06725   0.01615  -0.05434   0.04033   0.01425
  80        3PX        -0.02626   0.00986  -0.02318   0.02670   0.01241
  81        3PY         0.00841  -0.00282   0.03700  -0.01504   0.00516
  82        3PZ        -0.02070   0.01219  -0.04302   0.03500   0.01411
  83        4S         -0.07983   0.01895  -0.10023   0.07001   0.02502
  84        4PX        -0.01383   0.00533  -0.00928   0.01248   0.00551
  85        4PY         0.00140   0.00110   0.01316  -0.00331   0.00560
  86        4PZ        -0.00393   0.00686  -0.00820   0.00978   0.00449
  87 14  Cl 1S         -0.00925   0.00225  -0.00812   0.00591   0.00212
  88        2S          0.05500  -0.01345   0.04866  -0.03543  -0.01274
  89        2PX         0.01221  -0.00450   0.01090  -0.01238  -0.00568
  90        2PY        -0.00397   0.00122  -0.01735   0.00706  -0.00239
  91        2PZ        -0.00963   0.00568  -0.02013   0.01634   0.00655
  92        3S         -0.06726   0.01616  -0.05433   0.04033   0.01427
  93        3PX        -0.02627   0.00987  -0.02317   0.02671   0.01244
  94        3PY         0.00842  -0.00284   0.03704  -0.01505   0.00515
  95        3PZ         0.02068  -0.01219   0.04298  -0.03498  -0.01412
  96        4S         -0.07983   0.01896  -0.10021   0.07000   0.02504
  97        4PX        -0.01384   0.00534  -0.00927   0.01248   0.00552
  98        4PY         0.00140   0.00108   0.01317  -0.00331   0.00560
  99        4PZ         0.00393  -0.00686   0.00819  -0.00977  -0.00450
 100 15  Cl 1S         -0.00994  -0.00220  -0.00756   0.00674  -0.00282
 101        2S          0.05906   0.01309   0.04528  -0.04030   0.01692
 102        2PX         0.01656   0.00508   0.01036  -0.01997   0.01504
 103        2PY         0.00659   0.00509   0.02968  -0.01405  -0.00327
 104        2PZ        -0.00000  -0.00000  -0.00001   0.00001  -0.00000
 105        3S         -0.07562  -0.01779  -0.05077   0.05102  -0.02171
 106        3PX        -0.03494  -0.01119  -0.02236   0.04239  -0.03209
 107        3PY        -0.01404  -0.01093  -0.06297   0.02999   0.00687
 108        3PZ         0.00001   0.00001   0.00002  -0.00002   0.00001
 109        4S         -0.07485  -0.00937  -0.09313   0.05961  -0.02435
 110        4PX        -0.02246  -0.00791  -0.00605   0.02768  -0.02091
 111        4PY        -0.00362  -0.00914  -0.02296   0.01168   0.00764
 112        4PZ         0.00000   0.00001  -0.00000  -0.00001   0.00001
                          36        37        38        39        40
                           O         O         O         O         O
     Eigenvalues --    -0.65714  -0.62277  -0.59646  -0.56745  -0.53204
   1 1   C  1S          0.00000  -0.01613  -0.01151   0.00431  -0.00000
   2        2S         -0.00000   0.02227   0.01348  -0.00244   0.00001
   3        2PX         0.00002  -0.12930   0.00126  -0.18007   0.00001
   4        2PY        -0.00002  -0.03912   0.14819  -0.01592  -0.00002
   5        2PZ         0.18069   0.00001   0.00003   0.00000  -0.04126
   6        3S         -0.00001   0.03111   0.05857  -0.01942  -0.00002
   7        3PX         0.00000  -0.11328   0.06758  -0.12632  -0.00000
   8        3PY        -0.00002  -0.02323   0.15166  -0.07908  -0.00002
   9        3PZ         0.15693   0.00000   0.00003  -0.00001  -0.03874
  10 2   C  1S         -0.00000   0.01522   0.00218  -0.00328   0.00000
  11        2S          0.00000  -0.01583  -0.00160   0.00478  -0.00000
  12        2PX        -0.00002   0.13620  -0.00709   0.16878  -0.00001
  13        2PY         0.00002   0.04898  -0.23528   0.01685   0.00002
  14        2PZ         0.11172   0.00001  -0.00001  -0.00000  -0.10792
  15        3S          0.00001  -0.04409  -0.00425   0.01867  -0.00000
  16        3PX        -0.00002   0.09202   0.05461   0.12972  -0.00001
  17        3PY         0.00002  -0.01647  -0.24275  -0.00547   0.00002
  18        3PZ         0.09779   0.00000  -0.00001  -0.00000  -0.11282
  19 3   C  1S          0.00000   0.00101   0.00097   0.00431   0.00000
  20        2S         -0.00000  -0.00067  -0.00079  -0.00364  -0.00000
  21        2PX        -0.00000  -0.21387  -0.02946  -0.13841  -0.00000
  22        2PY        -0.00002  -0.02160   0.26196  -0.01679   0.00001
  23        2PZ         0.09049  -0.00001   0.00002  -0.00002  -0.12947
  24        3S         -0.00001  -0.02216  -0.00539  -0.00997  -0.00002
  25        3PX         0.00000  -0.24198  -0.03259  -0.18545  -0.00001
  26        3PY        -0.00001  -0.01392   0.16976  -0.01436   0.00002
  27        3PZ         0.08015  -0.00001   0.00001  -0.00002  -0.13094
  28 4   C  1S         -0.00000   0.01451  -0.00060  -0.00184  -0.00001
  29        2S          0.00000  -0.01428   0.00029   0.00284   0.00001
  30        2PX        -0.00001   0.14057   0.05202   0.15938   0.00003
  31        2PY        -0.00000  -0.00682  -0.24223   0.00995   0.00001
  32        2PZ         0.11178   0.00000  -0.00001  -0.00000  -0.11206
  33        3S          0.00001  -0.05024  -0.00006   0.02212   0.00001
  34        3PX        -0.00001   0.09461  -0.01998   0.13485   0.00001
  35        3PY        -0.00000   0.05562  -0.24038   0.03340   0.00002
  36        3PZ         0.09858   0.00001  -0.00001  -0.00000  -0.11461
  37 5   C  1S          0.00000  -0.01656   0.01030   0.00282   0.00001
  38        2S         -0.00000   0.02444  -0.01139  -0.00217  -0.00001
  39        2PX        -0.00000  -0.13544  -0.04706  -0.17064  -0.00004
  40        2PY         0.00001   0.02321   0.15595  -0.02168   0.00001
  41        2PZ         0.17868   0.00001   0.00000  -0.00000  -0.04880
  42        3S         -0.00002   0.03107  -0.05772  -0.01420  -0.00006
  43        3PX        -0.00001  -0.12158  -0.10522  -0.09828  -0.00006
  44        3PY         0.00001   0.00587   0.16137   0.04034   0.00001
  45        3PZ         0.15248   0.00000   0.00000  -0.00000  -0.05299
  46 6   N  1S          0.00000   0.01875   0.00037  -0.01942   0.00000
  47        2S         -0.00000  -0.01575  -0.00067   0.01580  -0.00000
  48        2PX        -0.00002  -0.01529   0.00750   0.19736  -0.00001
  49        2PY        -0.00003   0.00916  -0.16246   0.01536   0.00003
  50        2PZ         0.31550   0.00002  -0.00000   0.00001   0.03599
  51        3S          0.00000  -0.08366  -0.00112   0.07474  -0.00002
  52        3PX        -0.00002  -0.03450   0.01096   0.29055  -0.00001
  53        3PY        -0.00003   0.00951  -0.18396   0.01470   0.00004
  54        3PZ         0.34838   0.00002   0.00000   0.00002   0.03120
  55 7   H  1S         -0.00000   0.15460   0.01742   0.10668   0.00000
  56        2S          0.00000   0.09505   0.01104   0.06713   0.00000
  57 8   H  1S         -0.00000  -0.05362   0.10935  -0.08172  -0.00000
  58        2S          0.00001  -0.04927   0.05402  -0.03634   0.00003
  59 9   H  1S          0.00003  -0.03429  -0.15307  -0.05062   0.00001
  60        2S          0.00001  -0.01259  -0.09676  -0.04193   0.00001
  61 10  H  1S          0.00000  -0.05761   0.14324  -0.06336  -0.00001
  62        2S          0.00000  -0.02760   0.09047  -0.04871  -0.00001
  63 11  H  1S         -0.00001  -0.04361  -0.12737  -0.06239  -0.00002
  64        2S         -0.00000  -0.04551  -0.06481  -0.02759  -0.00001
  65 12  B  1S          0.00001  -0.10323  -0.00439   0.03487  -0.00001
  66        2S         -0.00001   0.10438   0.00427  -0.03149   0.00000
  67        2PX        -0.00001   0.09345  -0.00533  -0.19642  -0.00003
  68        2PY        -0.00001   0.00919  -0.01743   0.01777  -0.00020
  69        2PZ         0.07394  -0.00001   0.00000   0.00000   0.22806
  70        3S         -0.00003   0.39599   0.01165  -0.22472   0.00008
  71        3PX        -0.00000   0.03706  -0.00174  -0.09195  -0.00004
  72        3PY         0.00000  -0.01900  -0.00431   0.03998  -0.00021
  73        3PZ         0.03776   0.00002   0.00000  -0.00001   0.18569
  74 13  Cl 1S         -0.00650  -0.01156  -0.00008   0.00746  -0.00985
  75        2S          0.03902   0.06993   0.00049  -0.04542   0.05983
  76        2PX         0.02311   0.00006  -0.00095   0.02623   0.04213
  77        2PY        -0.01739  -0.04730  -0.00545   0.03152  -0.10251
  78        2PZ         0.01547   0.06860   0.00327  -0.07481   0.07059
  79        3S         -0.05067  -0.06944   0.00008   0.04129  -0.06707
  80        3PX        -0.04900   0.00062   0.00213  -0.05718  -0.09120
  81        3PY         0.03704   0.10157   0.01161  -0.06776   0.22112
  82        3PZ        -0.03304  -0.14713  -0.00708   0.16112  -0.15000
  83        4S         -0.05876  -0.19174  -0.00393   0.14242  -0.15595
  84        4PX        -0.03702   0.01232   0.00175  -0.04984  -0.05271
  85        4PY         0.02104   0.04401   0.00914  -0.02838   0.14178
  86        4PZ        -0.01535  -0.05441  -0.00340   0.07803  -0.09207
  87 14  Cl 1S          0.00650  -0.01156  -0.00008   0.00747   0.00983
  88        2S         -0.03901   0.06993   0.00048  -0.04545  -0.05972
  89        2PX        -0.02310   0.00007  -0.00096   0.02619  -0.04208
  90        2PY         0.01740  -0.04736  -0.00546   0.03160   0.10265
  91        2PZ         0.01544  -0.06857  -0.00326   0.07482   0.07022
  92        3S          0.05065  -0.06944   0.00010   0.04132   0.06696
  93        3PX         0.04899   0.00060   0.00216  -0.05711   0.09109
  94        3PY        -0.03708   0.10171   0.01163  -0.06792  -0.22143
  95        3PZ        -0.03298   0.14706   0.00707  -0.16113  -0.14920
  96        4S          0.05875  -0.19173  -0.00392   0.14246   0.15564
  97        4PX         0.03701   0.01232   0.00177  -0.04979   0.05266
  98        4PY        -0.02106   0.04408   0.00916  -0.02846  -0.14199
[...]
 110        4PX        -0.00000   0.00001  -0.00010  -0.00010   0.00006
 111        4PY         0.00002  -0.00042  -0.00015  -0.00488  -0.00098
 112        4PZ         0.00001  -0.00010   0.00003  -0.00194  -0.00028
                          96        97        98        99       100
  96        4S          0.74495
  97        4PX         0.00000   0.51165
  98        4PY         0.00000   0.00000   0.46481
  99        4PZ         0.00000   0.00000   0.00000   0.36137
 100 15  Cl 1S         -0.00000   0.00000  -0.00000  -0.00000   2.14393
 101        2S          0.00001  -0.00000   0.00006   0.00002  -0.14850
 102        2PX        -0.00000   0.00000   0.00000  -0.00000   0.00000
 103        2PY         0.00002   0.00000   0.00010   0.00004   0.00000
 104        2PZ         0.00001  -0.00000   0.00005   0.00001   0.00000
 105        3S         -0.00014  -0.00000  -0.00038  -0.00023  -0.00221
 106        3PX         0.00001  -0.00015  -0.00006   0.00005   0.00000
 107        3PY        -0.00110  -0.00008  -0.00422  -0.00149   0.00000
 108        3PZ        -0.00088   0.00004  -0.00229  -0.00044   0.00000
 109        4S          0.00037  -0.00029  -0.01030   0.00086   0.00613
 110        4PX         0.00005  -0.00139  -0.00057   0.00036   0.00000
 111        4PY        -0.00480  -0.00075  -0.02386  -0.00569   0.00000
 112        4PZ        -0.00504   0.00029  -0.01225  -0.00131   0.00000
                         101       102       103       104       105
 101        2S          2.38483
 102        2PX         0.00000   2.04573
 103        2PY         0.00000   0.00000   2.02075
 104        2PZ         0.00000   0.00000   0.00000   2.05385
 105        3S         -0.11320   0.00000   0.00000   0.00000   0.72495
 106        3PX         0.00000  -0.05268   0.00000   0.00000   0.00000
 107        3PY         0.00000   0.00000  -0.03520   0.00000   0.00000
 108        3PZ         0.00000   0.00000   0.00000  -0.05889   0.00000
 109        4S         -0.18107   0.00000   0.00000   0.00000   0.51832
 110        4PX         0.00000  -0.02291   0.00000   0.00000   0.00000
 111        4PY         0.00000   0.00000  -0.01787   0.00000   0.00000
 112        4PZ         0.00000   0.00000   0.00000  -0.02344   0.00000
                         106       107       108       109       110
 106        3PX         0.71021
 107        3PY         0.00000   0.59529
 108        3PZ         0.00000   0.00000   0.74763
 109        4S          0.00000   0.00000   0.00000   0.74750
 110        4PX         0.36037  -0.00000   0.00000   0.00000   0.49673
 111        4PY         0.00000   0.25340   0.00000   0.00000   0.00000
 112        4PZ         0.00000   0.00000   0.38129   0.00000   0.00000
                         111       112
 111        4PY         0.31864
 112        4PZ         0.00000   0.52227
     Gross orbital populations:
                           1
   1 1   C  1S          1.98752
   2        2S          0.41539
   3        2PX         0.64071
   4        2PY         0.58297
   5        2PZ         0.36116
   6        3S          0.73915
   7        3PX         0.27575
   8        3PY         0.26754
   9        3PZ         0.47930
  10 2   C  1S          1.98832
  11        2S          0.39795
  12        2PX         0.61140
  13        2PY         0.61042
  14        2PZ         0.42423
  15        3S          0.92404
  16        3PX         0.29997
  17        3PY         0.48159
  18        3PZ         0.61673
  19 3   C  1S          1.98843
  20        2S          0.40861
  21        2PX         0.61608
  22        2PY         0.63832
  23        2PZ         0.34454
  24        3S          0.88771
  25        3PX         0.50006
  26        3PY         0.25020
  27        3PZ         0.49704
  28 4   C  1S          1.98834
  29        2S          0.39838
  30        2PX         0.61438
  31        2PY         0.60879
  32        2PZ         0.42289
  33        3S          0.92605
  34        3PX         0.28894
  35        3PY         0.49420
  36        3PZ         0.61375
  37 5   C  1S          1.98737
  38        2S          0.41669
  39        2PX         0.64403
  40        2PY         0.57336
  41        2PZ         0.36618
  42        3S          0.72280
  43        3PX         0.28367
  44        3PY         0.25710
  45        3PZ         0.47692
  46 6   N  1S          1.98981
  47        2S          0.36147
  48        2PX         0.64263
  49        2PY         0.60710
  50        2PZ         0.57380
  51        3S          1.44404
  52        3PX         0.84905
  53        3PY         0.65316
  54        3PZ         0.81847
  55 7   H  1S          0.47509
  56        2S          0.22726
  57 8   H  1S          0.47020
  58        2S          0.16466
  59 9   H  1S          0.47149
  60        2S          0.23618
  61 10  H  1S          0.47129
  62        2S          0.23474
  63 11  H  1S          0.47112
  64        2S          0.17327
  65 12  B  1S          1.99008
  66        2S          0.33941
  67        2PX         0.34326
  68        2PY         0.38922
  69        2PZ         0.38893
  70        3S          0.65354
  71        3PX         0.13072
  72        3PY         0.22301
  73        3PZ         0.19403
  74 13  Cl 1S          1.99861
  75        2S          1.95929
  76        2PX         1.97037
  77        2PY         1.96913
  78        2PZ         1.96617
  79        3S          1.10916
  80        3PX         1.06355
  81        3PY         1.02683
  82        3PZ         0.94482
  83        4S          0.89994
  84        4PX         0.87219
  85        4PY         0.79705
  86        4PZ         0.64037
  87 14  Cl 1S          1.99861
  88        2S          1.95929
  89        2PX         1.97037
  90        2PY         1.96912
  91        2PZ         1.96617
  92        3S          1.10916
  93        3PX         1.06352
  94        3PY         1.02672
  95        3PZ         0.94496
  96        4S          0.89995
  97        4PX         0.87215
  98        4PY         0.79684
  99        4PZ         0.64061
 100 15  Cl 1S          1.99858
 101        2S          1.95869
 102        2PX         1.96937
 103        2PY         1.96492
 104        2PZ         1.97114
 105        3S          1.10909
 106        3PX         1.04519
 107        3PY         0.91294
 108        3PZ         1.08313
 109        4S          0.91889
 110        4PX         0.85397
 111        4PY         0.59503
 112        4PZ         0.87812
          Condensed to atoms (all electrons):
               1          2          3          4          5          6
     1  C    4.914481   0.458113  -0.110934  -0.000331  -0.102191   0.305284
     2  C    0.458113   5.289131   0.407642  -0.098032  -0.000100  -0.043705
     3  C   -0.110934   0.407642   5.233510   0.404766  -0.114215  -0.030152
     4  C   -0.000331  -0.098032   0.404766   5.271498   0.481733  -0.042705
     5  C   -0.102191  -0.000100  -0.114215   0.481733   4.892084   0.301400
     6  N    0.305284  -0.043705  -0.030152  -0.042705   0.301400   7.535888
     7  H    0.001731  -0.026768   0.389897  -0.026599   0.001750  -0.000052
     8  H    0.369777  -0.027474   0.002567  -0.000446   0.001961  -0.031333
     9  H   -0.026628   0.390751  -0.026841   0.002227  -0.000060   0.002210
    10  H   -0.000076   0.002214  -0.026432   0.389690  -0.025738   0.002142
    11  H    0.001853  -0.000389   0.002512  -0.026832   0.378422  -0.027571
    12  B   -0.044267   0.002417  -0.001277   0.000817  -0.067428   0.084962
    13  Cl  -0.001098  -0.000111  -0.000000  -0.000015  -0.009723  -0.041509
    14  Cl  -0.001095  -0.000111  -0.000000  -0.000014  -0.009733  -0.041492
    15  Cl  -0.015125   0.001059  -0.000046  -0.000042  -0.000043  -0.033830
               7          8          9         10         11         12
     1  C    0.001731   0.369777  -0.026628  -0.000076   0.001853  -0.044267
     2  C   -0.026768  -0.027474   0.390751   0.002214  -0.000389   0.002417
     3  C    0.389897   0.002567  -0.026841  -0.026432   0.002512  -0.001277
     4  C   -0.026599  -0.000446   0.002227   0.389690  -0.026832   0.000817
     5  C    0.001750   0.001961  -0.000060  -0.025738   0.378422  -0.067428
     6  N   -0.000052  -0.031333   0.002210   0.002142  -0.027571   0.084962
     7  H    0.364543  -0.000018  -0.001070  -0.001045  -0.000020   0.000010
     8  H   -0.000018   0.322324  -0.000862   0.000000  -0.000002  -0.007390
     9  H   -0.001070  -0.000862   0.367962  -0.000017   0.000000  -0.000031
    10  H   -0.001045   0.000000  -0.000017   0.366189  -0.000889  -0.000030
    11  H   -0.000020  -0.000002   0.000000  -0.000889   0.325923  -0.009617
    12  B    0.000010  -0.007390  -0.000031  -0.000030  -0.009617   3.995568
    13  Cl   0.000000   0.000306   0.000001   0.000010   0.000428   0.232042
    14  Cl   0.000000   0.000306   0.000001   0.000010   0.000427   0.232035
    15  Cl   0.000000   0.005142   0.000028   0.000000   0.000139   0.234395
              13         14         15
     1  C   -0.001098  -0.001095  -0.015125
     2  C   -0.000111  -0.000111   0.001059
     3  C   -0.000000  -0.000000  -0.000046
     4  C   -0.000015  -0.000014  -0.000042
     5  C   -0.009723  -0.009733  -0.000043
     6  N   -0.041509  -0.041492  -0.033830
     7  H    0.000000   0.000000   0.000000
     8  H    0.000306   0.000306   0.005142
     9  H    0.000001   0.000001   0.000028
    10  H    0.000010   0.000010   0.000000
    11  H    0.000428   0.000427   0.000139
    12  B    0.232042   0.232035   0.234395
    13  Cl  17.221345  -0.098201  -0.086010
    14  Cl  -0.098201  17.221377  -0.086028
    15  Cl  -0.086010  -0.086028  17.239411
 Mulliken charges:
               1
     1  C    0.250506
     2  C   -0.354638
     3  C   -0.130996
     4  C   -0.355714
     5  C    0.271881
     6  N   -0.939536
     7  H    0.297641
     8  H    0.365143
     9  H    0.292329
    10  H    0.293972
    11  H    0.355616
    12  B    0.347794
    13  Cl  -0.217465
    14  Cl  -0.217482
    15  Cl  -0.259051
 Sum of Mulliken charges =  -0.00000
 Mulliken charges with hydrogens summed into heavy atoms:
               1
     1  C    0.615649
     2  C   -0.062309
     3  C    0.166645
     4  C   -0.061742
     5  C    0.627496
     6  N   -0.939536
    12  B    0.347794
    13  Cl  -0.217465
    14  Cl  -0.217482
    15  Cl  -0.259051
 Electronic spatial extent (au):  <R**2>=           2182.9957
 Charge=             -0.0000 electrons
 Dipole moment (field-independent basis, Debye):
    X=            -11.1116    Y=              0.4042    Z=             -0.0006  Tot=             11.1190
 Quadrupole moment (field-independent basis, Debye-Ang):
   XX=            -71.3193   YY=            -77.1254   ZZ=            -91.6281
   XY=             -0.2878   XZ=              0.0011   YZ=              0.0012
 Traceless Quadrupole moment (field-independent basis, Debye-Ang):
   XX=              8.7050   YY=              2.8988   ZZ=            -11.6038
   XY=             -0.2878   XZ=              0.0011   YZ=              0.0012
 Octapole moment (field-independent basis, Debye-Ang**2):
  XXX=            -84.0237  YYY=             -3.3252  ZZZ=             -0.0078  XYY=            -28.5293
  XXY=             -0.5945  XXZ=             -0.0012  XZZ=             -1.8903  YZZ=              5.7439
  YYZ=              0.0061  XYZ=             -0.0019
 Hexadecapole moment (field-independent basis, Debye-Ang**3):
 XXXX=          -1491.1289 YYYY=           -662.6582 ZZZZ=           -491.3655 XXXY=             -3.0216
 XXXZ=              0.0164 YYYX=             -7.9348 YYYZ=              0.0044 ZZZX=             -0.0120
 ZZZY=              0.0003 XXYY=           -382.8149 XXZZ=           -411.4669 YYZZ=           -207.1979
 XXYZ=              0.0047 YYXZ=              0.0074 ZZXY=              7.0635
 N-N= 7.554035903135D+02 E-N=-5.406458749830D+03  KE= 1.640287770840D+03
 Orbital energies and kinetic energies (alpha):
                                 1                 2
   1         O              -104.077053        136.076464
   2         O              -104.066806        136.077006
   3         O              -104.066616        136.081724
   4         O               -15.634157         21.925181
   5         O               -11.308818         15.872355
   6         O               -11.308323         15.868539
   7         O               -11.278937         15.875327
   8         O               -11.253604         15.871921
   9         O               -11.253440         15.875529
  10         O               -10.471325         22.336829
  11         O               -10.461798         22.339492
  12         O               -10.461192         22.355010
  13         O                -7.934426         20.333946
  14         O                -7.931137         20.357653
  15         O                -7.930802         20.365607
  16         O                -7.924828         20.331339
  17         O                -7.924711         20.338013
  18         O                -7.921395         20.362306
  19         O                -7.921377         20.362993
  20         O                -7.921304         20.361625
  21         O                -7.921138         20.369249
  22         O                -7.718549         10.822750
  23         O                -1.386595          1.879214
  24         O                -1.182785          1.650072
  25         O                -1.127475          1.680454
  26         O                -1.110666          2.544002
  27         O                -1.060621          2.868371
  28         O                -1.053117          2.928881
  29         O                -0.951123          1.627777
  30         O                -0.947651          1.623264
  31         O                -0.837359          1.208090
  32         O                -0.756917          1.533852
  33         O                -0.740757          1.502481
  34         O                -0.715870          1.290774
  35         O                -0.689481          1.235726
  36         O                -0.657139          1.183614
  37         O                -0.622772          1.726266
  38         O                -0.596460          1.409506
  39         O                -0.567452          1.727177
  40         O                -0.532039          1.718228
  41         O                -0.528779          1.991444
  42         O                -0.476128          1.503393
  43         O                -0.454061          2.210753
  44         O                -0.442437          2.221915
  45         O                -0.440490          1.779398
  46         O                -0.423134          1.682098
  47         O                -0.420677          2.358190
  48         O                -0.415213          2.086309
  49         O                -0.408680          2.411779
  50         V                 0.027002          1.413644
  51         V                 0.076306          1.267803
  52         V                 0.208616          1.024536
  53         V                 0.232747          2.116844
  54         V                 0.242805          1.653218
  55         V                 0.253974          1.578383
  56         V                 0.274459          1.129570
  57         V                 0.286995          1.243793
  58         V                 0.299627          1.680504
  59         V                 0.317281          1.228763
  60         V                 0.318724          1.939051
  61         V                 0.338106          1.416718
  62         V                 0.416547          1.725162
  63         V                 0.426217          1.501309
  64         V                 0.457773          1.701113
  65         V                 0.473633          1.939638
  66         V                 0.640096          1.787080
  67         V                 0.652595          2.147796
  68         V                 0.679297          2.581218
  69         V                 0.709353          2.735774
  70         V                 0.724859          2.542290
  71         V                 0.774110          3.078883
  72         V                 0.786560          3.278725
  73         V                 0.808321          3.227729
  74         V                 0.808512          3.245983
  75         V                 0.814985          3.458179
  76         V                 0.824863          2.845885
  77         V                 0.856927          2.927276
  78         V                 0.867704          3.197757
  79         V                 0.886584          2.914008
  80         V                 0.887352          2.871437
  81         V                 0.892754          2.716800
  82         V                 0.911804          3.004967
  83         V                 0.938388          3.514715
  84         V                 0.964345          3.017543
  85         V                 0.975661          2.781557
  86         V                 0.990614          2.903113
  87         V                 1.006262          2.774163
  88         V                 1.012821          3.114863
  89         V                 1.030310          2.769881
  90         V                 1.077665          3.363568
  91         V                 1.088533          2.833220
  92         V                 1.169836          3.402476
  93         V                 1.187083          3.005441
  94         V                 1.224315          3.333732
  95         V                 1.249545          3.278979
  96         V                 1.287446          3.204526
  97         V                 1.291455          3.278200
  98         V                 1.341505          3.229007
  99         V                 1.439988          2.894890
 100         V                 1.470683          2.929859
 101         V                 1.521861          4.000468
 102         V                 1.529554          2.707510
 103         V                 1.606704          3.157008
 104         V                 1.624662          2.762983
 105         V                 1.661701          3.134377
 106         V                 1.689196          2.993691
 107         V                 1.792878          3.179281
 108         V                 1.911227          3.658871
 109         V                 2.150513          4.347367
 110         V                 2.173270          3.700186
 111         V                 2.285425          3.697638
 112         V                 3.193340          5.094497
 Total kinetic energy from orbitals= 1.640287770840D+03
 1\1\GINC-IISERK51\SP\RHF\3-21G\C5H5B1Cl3N1\GAUSSIAN\16-Jun-2025\0\\# h
 f/3-21g pop=full geom=connectivity\\Title Card Required\\0,1\C,0,-1.31
 3242,1.218621,0.000022\C,0,-2.688836,1.222578,0.000004\C,0,-3.363553,0
 .017177,-0.000098\C,0,-2.641668,-1.167049,-0.00016\C,0,-1.273541,-1.10
 9397,-0.000154\N,0,-0.62288,0.070782,-0.000102\H,0,-4.434185,-0.003786
 ,-0.000171\H,0,-0.743493,2.11839,0.000121\H,0,-3.210584,2.155079,0.000
 078\H,0,-3.129369,-2.117761,-0.000227\H,0,-0.666236,-1.986403,-0.00011
 9\B,0,0.98504,0.017294,0.000006\Cl,0,1.485989,-0.934188,1.55813\Cl,0,1
 .486354,-0.935365,-1.557247\Cl,0,1.69259,1.761374,-0.000687\\Version=E
 M64L-G16RevB.01\State=1-A\HF=-1641.919512\RMSD=8.070e-09\Dipole=-4.371
 6537,0.1590289,-0.0002222\Quadrupole=6.4719311,2.155209,-8.6271401,-0.
 2139684,0.0008046,0.0008878\PG=C01 [X(C5H5B1Cl3N1)]\\@


 KNOWING HOW CONTENTED, FREE, AND JOYFUL IS LIFE IN
 THE REALMS OF SCIENCE, ONE FERVENTLY WISHES THAT
 MANY WOULD ENTER HER PORTALS.
   --  DMITRI IVANOVICH MENDELEEV
 "FIRST PRINCIPLES OF CHEMISTRY", LONGMANS, GREEN,
 AND CO.  LONDON, 1891
 Job cpu time:       0 days  0 hours  0 minutes  1.6 seconds.
 Elapsed time:       0 days  0 hours  0 minutes  1.6 seconds.
 File lengths (MBytes):  RWF=     10 Int=      0 D2E=      0 Chk=      2 Scr=      1
 Normal termination of Gaussian 16 at Mon Jun 16 22:25:32 2025.
