 Entering Gaussian System, Link 0=g16
 Input=/home/gaussian/Documents/Summer_Internship/Acid_Base_adduct/Adduct/py - BCl3/py_only_adduct_sp.com
 Output=/home/gaussian/Documents/Summer_Internship/Acid_Base_adduct/Adduct/py - BCl3/py_only_adduct_sp.log
 Initial command:
 /usr/local/g16/l1.exe "/home/gaussian/tmp/Gau-80097.inp" -scrdir="/home/gaussian/tmp/"
 Entering Link 1 = /usr/local/g16/l1.exe PID=     80100.
  
 Copyright (c) 1988-2017, Gaussian, Inc.  All Rights Reserved.
  
 This is part of the Gaussian(R) 16 program.  It is based on
 the Gaussian(R) 09 system (copyright 2009, Gaussian, Inc.),
 the Gaussian(R) 03 system (copyright 2003, Gaussian, Inc.),
 the Gaussian(R) 98 system (copyright 1998, Gaussian, Inc.),
 the Gaussian(R) 94 system (copyright 1995, Gaussian, Inc.),
 the Gaussian 92(TM) system (copyright 1992, Gaussian, Inc.),
 the Gaussian 90(TM) system (copyright 1990, Gaussian, Inc.),
 the Gaussian 88(TM) system (copyright 1988, Gaussian, Inc.),
 the Gaussian 86(TM) system (copyright 1986, Carnegie Mellon
 University), and the Gaussian 82(TM) system (copyright 1983,
 Carnegie Mellon University). Gaussian is a federally registered
 trademark of Gaussian, Inc.
  
 This software contains proprietary and confidential information,
 including trade secrets, belonging to Gaussian, Inc.
  
 This software is provided under written license and may be
 used, copied, transmitted, or stored only in accord with that
 written license.
  
 The following legend is applicable only to US Government
 contracts under FAR:
  
                    RESTRICTED RIGHTS LEGEND
  
 Use, reproduction and disclosure by the US Government is
 subject to restrictions as set forth in subparagraphs (a)
 and (c) of the Commercial Computer Software - Restricted
 Rights clause in FAR 52.227-19.
  
 Gaussian, Inc.
 340 Quinnipiac St., Bldg. 40, Wallingford CT 06492
  
  
 ---------------------------------------------------------------
 Warning -- This program may not be used in any manner that
 competes with the business of Gaussian, Inc. or will provide
 assistance to any competitor of Gaussian, Inc.  The licensee
 of this program is prohibited from giving any competitor of
 Gaussian, Inc. access to this program.  By using this program,
 the user acknowledges that Gaussian, Inc. is engaged in the
 business of creating and licensing software in the field of
 computational chemistry and represents and warrants to the
 licensee that it is not a competitor of Gaussian, Inc. and that
 it will not use this program in any manner prohibited above.
 ---------------------------------------------------------------
  

 Cite this work as:
 Gaussian 16, Revision B.01,
 M. J. Frisch, G. W. Trucks, H. B. Schlegel, G. E. Scuseria, 
 M. A. Robb, J. R. Cheeseman, G. Scalmani, V. Barone, 
 G. A. Petersson, H. Nakatsuji, X. Li, M. Caricato, A. V. Marenich, 
 J. Bloino, B. G. Janesko, R. Gomperts, B. Mennucci, H. P. Hratchian, 
 J. V. Ortiz, A. F. Izmaylov, J. L. Sonnenberg, D. Williams-Young, 
 F. Ding, F. Lipparini, F. Egidi, J. Goings, B. Peng, A. Petrone, 
 T. Henderson, D. Ranasinghe, V. G. Zakrzewski, J. Gao, N. Rega, 
 G. Zheng, W. Liang, M. Hada, M. Ehara, K. Toyota, R. Fukuda, 
 J. Hasegawa, M. Ishida, T. Nakajima, Y. Honda, O. Kitao, H. Nakai, 
 T. Vreven, K. Throssell, J. A. Montgomery, Jr., J. E. Peralta, 
 F. Ogliaro, M. J. Bearpark, J. J. Heyd, E. N. Brothers, K. N. Kudin, 
 V. N. Staroverov, T. A. Keith, R. Kobayashi, J. Normand, 
 K. Raghavachari, A. P. Rendell, J. C. Burant, S. S. Iyengar, 
 J. Tomasi, M. Cossi, J. M. Millam, M. Klene, C. Adamo, R. Cammi, 
 J. W. Ochterski, R. L. Martin, K. Morokuma, O. Farkas, 
 J. B. Foresman, and D. J. Fox, Gaussian, Inc., Wallingford CT, 2016.
 
 ******************************************
 Gaussian 16:  EM64L-G16RevB.01 20-Dec-2017
                16-Jun-2025 
 ******************************************
 %chk=py_only_adduct_sp.chk
 -------------------------------------
 # hf/3-21g pop=full geom=connectivity
 -------------------------------------
 1/38=1,57=2,172=1/1;
 2/12=2,17=6,18=5,40=1/2;
 3/5=5,11=9,25=1,30=1/1,2,3;
 4//1;
 5/5=2,38=5/2;
 6/7=3,28=1/1;
 99/5=1,9=1/99;
 -------------------
 Title Card Required
 -------------------
 Symbolic Z-matrix:
 Charge =  0 Multiplicity = 1
 C                    -1.31324   1.21862   0.00002 
 C                    -2.68884   1.22258   0. 
 C                    -3.36355   0.01718  -0.0001 
 C                    -2.64167  -1.16705  -0.00016 
 C                    -1.27354  -1.1094   -0.00015 
 N                    -0.62288   0.07078  -0.0001 
 H                    -4.43419  -0.00379  -0.00017 
 H                    -0.74349   2.11839   0.00012 
 H                    -3.21058   2.15508   0.00008 
 H                    -3.12937  -2.11776  -0.00023 
 H                    -0.66624  -1.9864   -0.00012 
 
                          Input orientation:                          
 ---------------------------------------------------------------------
 Center     Atomic      Atomic             Coordinates (Angstroms)
 Number     Number       Type             X           Y           Z
 ---------------------------------------------------------------------
      1          6           0       -1.313242    1.218621    0.000022
      2          6           0       -2.688836    1.222578    0.000004
      3          6           0       -3.363553    0.017177   -0.000098
      4          6           0       -2.641668   -1.167049   -0.000160
      5          6           0       -1.273541   -1.109397   -0.000154
      6          7           0       -0.622880    0.070782   -0.000102
      7          1           0       -4.434185   -0.003786   -0.000171
      8          1           0       -0.743493    2.118390    0.000121
      9          1           0       -3.210584    2.155079    0.000078
     10          1           0       -3.129369   -2.117761   -0.000227
     11          1           0       -0.666236   -1.986403   -0.000119
 ---------------------------------------------------------------------
                    Distance matrix (angstroms):
                    1          2          3          4          5
     1  C    0.000000
     2  C    1.375600   0.000000
     3  C    2.376393   1.381389   0.000000
     4  C    2.730593   2.390092   1.386906   0.000000
     5  C    2.328357   2.727850   2.374304   1.369341   0.000000
     6  N    1.339453   2.365335   2.741197   2.368065   1.347658
     7  H    3.351800   2.133123   1.070837   2.136890   3.348439
     8  H    1.064987   2.141691   3.358543   3.794361   3.271018
     9  H    2.115859   1.068541   2.143368   3.370490   3.795911
    10  H    3.798653   3.369263   2.147744   1.068506   2.112083
    11  H    3.269678   3.793214   3.360037   2.138615   1.066752
                    6          7          8          9         10
     6  N    0.000000
     7  H    3.812034   0.000000
     8  H    2.051157   4.257328   0.000000
     9  H    3.322726   2.481511   2.467364   0.000000
    10  H    3.327493   2.484237   4.861829   4.273612   0.000000
    11  H    2.057642   4.257724   4.105520   4.860615   2.466633
                   11
    11  H    0.000000
 Stoichiometry    C5H5N
 Framework group  C1[X(C5H5N)]
 Deg. of freedom    27
 Full point group                 C1      NOp   1
 Largest Abelian subgroup         C1      NOp   1
 Largest concise Abelian subgroup C1      NOp   1
                         Standard orientation:                         
 ---------------------------------------------------------------------
 Center     Atomic      Atomic             Coordinates (Angstroms)
 Number     Number       Type             X           Y           Z
 ---------------------------------------------------------------------
      1          6           0        1.172928   -0.698910    0.000102
      2          6           0        1.184727    0.676639    0.000084
      3          6           0       -0.016809    1.358217   -0.000018
      4          6           0       -1.205130    0.643094   -0.000080
      5          6           0       -1.155279   -0.725339   -0.000074
      6          7           0        0.021172   -1.382717   -0.000022
      7          1           0       -0.031668    2.428951   -0.000091
      8          1           0        2.069434   -1.273779    0.000201
      9          1           0        2.120187    1.193063    0.000158
     10          1           0       -2.153047    1.136207   -0.000147
     11          1           0       -2.035732   -1.327635   -0.000039
 ---------------------------------------------------------------------
 Rotational constants (GHZ):           6.0472907           5.9803011           3.0068047
 Standard basis: 3-21G (6D, 7F)
 There are    64 symmetry adapted cartesian basis functions of A   symmetry.
 There are    64 symmetry adapted basis functions of A   symmetry.
    64 basis functions,   105 primitive gaussians,    64 cartesian basis functions
    21 alpha electrons       21 beta electrons
       nuclear repulsion energy       207.5237449086 Hartrees.
 NAtoms=   11 NActive=   11 NUniq=   11 SFac= 1.00D+00 NAtFMM=   60 NAOKFM=F Big=F
 Integral buffers will be    131072 words long.
 Raffenetti 1 integral format.
 Two-electron integral symmetry is turned on.
 One-electron integrals computed using PRISM.
 NBasis=    64 RedAO= T EigKep=  2.86D-03  NBF=    64
 NBsUse=    64 1.00D-06 EigRej= -1.00D+00 NBFU=    64
 ExpMin= 1.83D-01 ExpMax= 2.43D+02 ExpMxC= 2.43D+02 IAcc=3 IRadAn=         5 AccDes= 0.00D+00
 Harris functional with IExCor=  205 and IRadAn=       5 diagonalized for initial guess.
 HarFok:  IExCor=  205 AccDes= 0.00D+00 IRadAn=         5 IDoV= 1 UseB2=F ITyADJ=14
 ICtDFT=  3500011 ScaDFX=  1.000000  1.000000  1.000000  1.000000
 FoFCou: FMM=F IPFlag=           0 FMFlag=      100000 FMFlg1=           0
         NFxFlg=           0 DoJE=T BraDBF=F KetDBF=T FulRan=T
         wScrn=  0.000000 ICntrl=       500 IOpCl=  0 I1Cent=   200000004 NGrid=           0
         NMat0=    1 NMatS0=      1 NMatT0=    0 NMatD0=    1 NMtDS0=    0 NMtDT0=    0
 Petite list used in FoFCou.
 Keep R1 ints in memory in canonical form, NReq=2987501.
 Requested convergence on RMS density matrix=1.00D-08 within 128 cycles.
 Requested convergence on MAX density matrix=1.00D-06.
 Requested convergence on             energy=1.00D-06.
 No special actions if energy rises.
 SCF Done:  E(RHF) =  -245.310911991     A.U. after   13 cycles
            NFock= 13  Conv=0.66D-08     -V/T= 2.0019

 **********************************************************************

            Population analysis using the SCF Density.

 **********************************************************************

 Orbital symmetries:
       Occupied  (A) (A) (A) (A) (A) (A) (A) (A) (A) (A) (A) (A)
                 (A) (A) (A) (A) (A) (A) (A) (A) (A)
       Virtual   (A) (A) (A) (A) (A) (A) (A) (A) (A) (A) (A) (A)
                 (A) (A) (A) (A) (A) (A) (A) (A) (A) (A) (A) (A)
                 (A) (A) (A) (A) (A) (A) (A) (A) (A) (A) (A) (A)
                 (A) (A) (A) (A) (A) (A) (A)
 The electronic state is 1-A.
 Alpha  occ. eigenvalues --  -15.49091 -11.21681 -11.21633 -11.20095 -11.18658
 Alpha  occ. eigenvalues --  -11.18644  -1.26750  -1.09174  -1.04494  -0.86470
 Alpha  occ. eigenvalues --   -0.85676  -0.73380  -0.66503  -0.65540  -0.61529
 Alpha  occ. eigenvalues --   -0.57548  -0.54576  -0.52135  -0.39810  -0.37993
 Alpha  occ. eigenvalues --   -0.35876
 Alpha virt. eigenvalues --    0.12841   0.14107   0.26321   0.31566   0.33840
 Alpha virt. eigenvalues --    0.36177   0.36237   0.36635   0.44423   0.49573
 Alpha virt. eigenvalues --    0.53251   0.54840   0.73360   0.75977   0.91295
 Alpha virt. eigenvalues --    0.93493   0.93870   0.99493   1.03280   1.03965
 Alpha virt. eigenvalues --    1.04030   1.09241   1.09356   1.11458   1.12584
 Alpha virt. eigenvalues --    1.12654   1.28564   1.30068   1.36478   1.39193
 Alpha virt. eigenvalues --    1.48506   1.51521   1.54754   1.62193   1.65222
 Alpha virt. eigenvalues --    1.67413   1.69739   1.73655   1.83730   1.97506
 Alpha virt. eigenvalues --    2.24595   2.30165   3.23925
     Molecular Orbital Coefficients:
                           1         2         3         4         5
                           O         O         O         O         O
     Eigenvalues --   -15.49091 -11.21681 -11.21633 -11.20095 -11.18658
   1 1   C  1S         -0.00028   0.77684   0.60842   0.00832  -0.00086
   2        2S         -0.00131   0.07751   0.05766   0.00008   0.00115
   3        2PX        -0.00100  -0.00186   0.00048   0.00041  -0.00001
   4        2PY        -0.00089   0.00066  -0.00001  -0.00110   0.00036
   5        2PZ        -0.00000  -0.00000  -0.00000   0.00000  -0.00000
   6        3S          0.03485  -0.05483  -0.03125  -0.00797  -0.00673
   7        3PX        -0.02883   0.00500  -0.00924   0.00307   0.00104
   8        3PY         0.00516  -0.01685  -0.00033  -0.00192  -0.00226
   9        3PZ        -0.00000   0.00000  -0.00000   0.00000   0.00000
  10 2   C  1S          0.00055  -0.00249  -0.00214  -0.01268  -0.38231
  11        2S          0.00260  -0.00296  -0.00150  -0.00547  -0.03853
  12        2PX        -0.00066  -0.00011  -0.00002   0.00157   0.00142
  13        2PY         0.00057   0.00113   0.00145  -0.00014  -0.00012
  14        2PZ        -0.00000  -0.00000  -0.00000   0.00000   0.00000
  15        3S         -0.02813   0.02281   0.00340   0.03521   0.02402
  16        3PX         0.02459   0.00003   0.00783  -0.02154  -0.00305
  17        3PY         0.00858  -0.01672  -0.00469  -0.00040   0.00056
  18        3PZ         0.00000   0.00000   0.00000  -0.00000  -0.00000
  19 3   C  1S         -0.00040  -0.00142  -0.01205   0.98703   0.00697
  20        2S         -0.00184  -0.00038  -0.00312   0.09951  -0.00153
  21        2PX         0.00001  -0.00120   0.00014   0.00002   0.00130
  22        2PY        -0.00015   0.00010   0.00097  -0.00136   0.00060
  23        2PZ         0.00000  -0.00000  -0.00000  -0.00000   0.00000
  24        3S          0.03425   0.00167   0.01264  -0.09144   0.01952
  25        3PX         0.00032   0.00528  -0.00049  -0.00046  -0.01441
  26        3PY        -0.01923  -0.00096  -0.00810   0.02367  -0.01122
  27        3PZ         0.00000   0.00000   0.00000  -0.00000  -0.00000
  28 4   C  1S          0.00055   0.00173  -0.00234  -0.01335   0.91013
  29        2S          0.00260   0.00257  -0.00219  -0.00547   0.09213
  30        2PX         0.00064  -0.00007  -0.00001  -0.00151   0.00161
  31        2PY         0.00058  -0.00080   0.00173  -0.00015  -0.00054
  32        2PZ         0.00000  -0.00000   0.00000  -0.00000   0.00000
  33        3S         -0.02801  -0.02188   0.00909   0.03486  -0.08154
  34        3PX        -0.02471  -0.00243  -0.00726   0.02135  -0.01920
  35        3PY         0.00804   0.01527  -0.00881   0.00004   0.00904
  36        3PZ        -0.00000  -0.00000  -0.00000   0.00000  -0.00000
  37 5   C  1S         -0.00030  -0.60899   0.77640   0.00837   0.00221
  38        2S         -0.00131  -0.06149   0.07452   0.00008  -0.00321
  39        2PX         0.00104  -0.00190  -0.00004  -0.00038  -0.00007
  40        2PY        -0.00087  -0.00071   0.00018  -0.00111  -0.00148
  41        2PZ         0.00000  -0.00000   0.00000   0.00000   0.00000
  42        3S          0.03447   0.04620  -0.04372  -0.00801   0.03043
  43        3PX         0.02828   0.00666   0.00775  -0.00295   0.00910
  44        3PY         0.00609   0.01668  -0.00418  -0.00202   0.01533
  45        3PZ         0.00000   0.00000  -0.00000  -0.00000   0.00000
  46 6   N  1S          0.98667   0.00003   0.00025  -0.00008   0.00013
  47        2S          0.10548   0.00011   0.00111  -0.00070   0.00076
  48        2PX        -0.00004   0.00010  -0.00006   0.00000   0.00031
  49        2PY         0.00537  -0.00004  -0.00006  -0.00014   0.00000
  50        2PZ         0.00000   0.00000  -0.00000  -0.00000   0.00000
  51        3S         -0.08834   0.00002   0.00015   0.00467  -0.00563
  52        3PX         0.00010  -0.00264   0.00028  -0.00001   0.00226
  53        3PY        -0.02488  -0.00039  -0.00274   0.00141  -0.00290
  54        3PZ        -0.00000  -0.00000  -0.00000   0.00000   0.00000
  55 7   H  1S          0.00044   0.00002   0.00016  -0.00239  -0.00002
  56        2S          0.00420   0.00041   0.00333   0.00627   0.00272
  57 8   H  1S          0.00085  -0.00231  -0.00040  -0.00020   0.00028
  58        2S          0.00747   0.00492   0.01145   0.00054  -0.00012
  59 9   H  1S         -0.00176  -0.00063  -0.00115  -0.00009   0.00064
  60        2S         -0.00698   0.00145  -0.00156   0.00455  -0.00317
  61 10  H  1S         -0.00176   0.00033  -0.00126  -0.00008  -0.00228
  62        2S         -0.00699  -0.00186  -0.00113   0.00451   0.00535
  63 11  H  1S          0.00085   0.00213  -0.00093  -0.00019  -0.00019
  64        2S          0.00738  -0.00200   0.01221   0.00057   0.00370
                           6         7         8         9        10
                           O         O         O         O         O
     Eigenvalues --   -11.18644  -1.26750  -1.09174  -1.04494  -0.86470
   1 1   C  1S          0.00280  -0.10217   0.01057   0.12245   0.07647
   2        2S         -0.00326   0.11854  -0.00836  -0.13526  -0.08594
   3        2PX         0.00013  -0.08769   0.04741   0.00287  -0.10687
   4        2PY        -0.00165  -0.00806   0.09078  -0.05177  -0.11024
   5        2PZ         0.00000  -0.00001   0.00000   0.00000  -0.00001
   6        3S          0.03600   0.09503  -0.01408  -0.26908  -0.22078
   7        3PX        -0.01259   0.06539  -0.01624  -0.00572  -0.04161
   8        3PY         0.01894  -0.01528   0.01318  -0.05084  -0.04906
   9        3PZ        -0.00000   0.00001  -0.00000  -0.00000  -0.00000
  10 2   C  1S          0.91018  -0.05575  -0.10750   0.11644   0.04813
  11        2S          0.09230   0.05584   0.11987  -0.12618  -0.05104
  12        2PX        -0.00083  -0.02802  -0.06877  -0.00130  -0.10603
  13        2PY        -0.00093  -0.03531   0.02837   0.06068   0.14481
  14        2PZ        -0.00000  -0.00000  -0.00001  -0.00000  -0.00001
  15        3S         -0.09199   0.15906   0.21084  -0.25264  -0.14961
  16        3PX         0.02414  -0.08002   0.00911   0.02088  -0.02810
  17        3PY         0.01384  -0.02809  -0.00109  -0.01007   0.04520
  18        3PZ         0.00000  -0.00001   0.00000   0.00000  -0.00000
  19 3   C  1S          0.01580  -0.04303  -0.15281   0.00325  -0.12150
  20        2S         -0.00403   0.05459   0.16658  -0.00356   0.12574
  21        2PX        -0.00059   0.00075   0.00104  -0.09871   0.00108
  22        2PY         0.00149  -0.03521  -0.06069  -0.00041   0.05157
  23        2PZ        -0.00000   0.00000   0.00000  -0.00001  -0.00000
  24        3S          0.04865  -0.02429   0.35401  -0.00780   0.38433
  25        3PX         0.00643  -0.00091   0.00104   0.00893   0.00087
  26        3PY        -0.02723   0.04745  -0.03352   0.00059   0.00031
  27        3PZ         0.00000  -0.00000  -0.00000   0.00000  -0.00000
  28 4   C  1S          0.38241  -0.05556  -0.10961  -0.11441   0.04937
  29        2S          0.03897   0.05565   0.12213   0.12399  -0.05245
  30        2PX        -0.00038   0.02873   0.06699  -0.00264   0.10089
  31        2PY        -0.00077  -0.03480   0.02665  -0.06529   0.14508
  32        2PZ        -0.00000   0.00000   0.00000  -0.00000   0.00000
  33        3S         -0.04897   0.15864   0.21521   0.24823  -0.15399
  34        3PX        -0.01537   0.08020  -0.00806   0.02095   0.02679
  35        3PY         0.01005  -0.02655  -0.00088   0.01000   0.04620
  36        3PZ        -0.00000   0.00000  -0.00000   0.00000   0.00000
  37 5   C  1S          0.00130  -0.10047   0.00538  -0.12472   0.07261
  38        2S         -0.00159   0.11666  -0.00249   0.13766  -0.08195
  39        2PX        -0.00008   0.08567  -0.04804   0.00213   0.10901
  40        2PY        -0.00095  -0.00418   0.09017   0.05202  -0.11053
  41        2PZ         0.00000   0.00000  -0.00000   0.00000   0.00000
  42        3S          0.02128   0.09329  -0.00424   0.27418  -0.20826
  43        3PX         0.00794  -0.06373   0.01507  -0.00784   0.04254
  44        3PY         0.01231  -0.01780   0.01533   0.05051  -0.04659
  45        3PZ         0.00000  -0.00000   0.00000   0.00000  -0.00000
  46 6   N  1S          0.00032  -0.16996   0.10295  -0.00142  -0.07829
  47        2S          0.00185   0.14581  -0.09165   0.00106   0.07243
  48        2PX        -0.00013   0.00086  -0.00294  -0.11520  -0.00343
  49        2PY        -0.00001   0.09706  -0.02709  -0.00125   0.00218
  50        2PZ        -0.00000   0.00000  -0.00000  -0.00001   0.00000
  51        3S         -0.01393   0.55759  -0.34819   0.00517   0.29341
  52        3PX        -0.00083  -0.00035  -0.00160  -0.08627  -0.00309
  53        3PY        -0.00717   0.13323  -0.05222  -0.00008   0.02516
  54        3PZ        -0.00000   0.00001  -0.00000  -0.00001   0.00000
  55 7   H  1S         -0.00005   0.01093   0.06784  -0.00162   0.11354
  56        2S          0.00674  -0.01698   0.00765  -0.00024   0.05206
  57 8   H  1S          0.00002   0.02665  -0.00573  -0.06446  -0.07353
  58        2S          0.00517  -0.03078   0.00291  -0.01559  -0.02767
  59 9   H  1S         -0.00260   0.01886   0.04549  -0.06044  -0.04601
  60        2S          0.00443   0.01919  -0.00472  -0.01096  -0.01899
  61 10  H  1S         -0.00142   0.01877   0.04656   0.05940  -0.04675
  62        2S          0.00091   0.01920  -0.00444   0.01106  -0.01922
  63 11  H  1S          0.00021   0.02608  -0.00347   0.06523  -0.06909
  64        2S          0.00362  -0.03034   0.00301   0.01541  -0.02540
                          11        12        13        14        15
                           O         O         O         O         O
     Eigenvalues --    -0.85676  -0.73380  -0.66503  -0.65540  -0.61529
   1 1   C  1S          0.08648  -0.02390   0.01113   0.05378   0.01589
   2        2S         -0.09141   0.02064  -0.01224  -0.05825  -0.02064
   3        2PX         0.02988   0.13595  -0.15462  -0.11817   0.17195
   4        2PY         0.12870  -0.12503  -0.19339   0.04283  -0.16457
   5        2PZ         0.00000   0.00002  -0.00002  -0.00002   0.00002
   6        3S         -0.27376   0.10567  -0.04470  -0.19437  -0.01228
   7        3PX         0.00461   0.09466  -0.07559  -0.10445   0.14000
   8        3PY        -0.01329  -0.08563  -0.06798   0.03231  -0.11389
   9        3PZ         0.00000   0.00001  -0.00001  -0.00002   0.00001
  10 2   C  1S         -0.09788   0.00454  -0.00922  -0.05424   0.01577
  11        2S          0.09902  -0.00899   0.01071   0.05335  -0.01990
  12        2PX        -0.00131   0.12837  -0.11211   0.17245   0.16485
  13        2PY         0.08132   0.09335   0.21036   0.07774   0.15734
  14        2PZ        -0.00000   0.00001  -0.00001   0.00001   0.00001
  15        3S          0.33204   0.00724   0.01702   0.20778  -0.02577
  16        3PX        -0.00184   0.08649  -0.06610   0.15359   0.13613
  17        3PY        -0.00882   0.05538   0.13250   0.06678   0.11333
  18        3PZ         0.00000   0.00001  -0.00001   0.00001   0.00001
  19 3   C  1S          0.00232  -0.02967   0.00080   0.05939   0.00068
  20        2S         -0.00230   0.02624  -0.00068  -0.06499  -0.00079
  21        2PX         0.17635  -0.00195   0.24702  -0.00326  -0.04924
  22        2PY         0.00091   0.20379   0.00263   0.02254   0.00213
  23        2PZ         0.00001  -0.00001   0.00002  -0.00000  -0.00001
  24        3S         -0.00761   0.12935  -0.00339  -0.17538  -0.00176
  25        3PX         0.07772  -0.00133   0.12582  -0.00138  -0.02297
  26        3PY         0.00099   0.13219   0.00107  -0.01548   0.00155
  27        3PZ         0.00001  -0.00001   0.00001   0.00000  -0.00000
  28 4   C  1S          0.09748   0.00482   0.00768  -0.05410  -0.01666
  29        2S         -0.09854  -0.00926  -0.00886   0.05318   0.02079
  30        2PX        -0.00143  -0.13106  -0.11013  -0.17379   0.16490
  31        2PY        -0.08630   0.08852  -0.21184   0.08239  -0.15373
  32        2PZ         0.00000  -0.00001  -0.00000  -0.00002   0.00001
  33        3S         -0.33123   0.00611  -0.01217   0.20760   0.02980
  34        3PX        -0.00241  -0.08814  -0.06599  -0.15555   0.13573
  35        3PY         0.00707   0.05255  -0.13266   0.06828  -0.10971
  36        3PZ         0.00000  -0.00001  -0.00000  -0.00001   0.00001
  37 5   C  1S         -0.08878  -0.02458  -0.00982   0.05427  -0.01462
  38        2S          0.09358   0.02129   0.01144  -0.05883   0.01933
  39        2PX         0.03155  -0.13219  -0.15660   0.11442   0.17160
  40        2PY        -0.12558  -0.12865   0.19011   0.03747   0.17299
  41        2PZ         0.00000   0.00000  -0.00000  -0.00001  -0.00001
  42        3S          0.28188   0.10822   0.03765  -0.19468   0.00645
  43        3PX         0.00373  -0.09194  -0.07587   0.10112   0.14083
  44        3PY         0.01447  -0.08769   0.06664   0.03054   0.11906
  45        3PZ         0.00000   0.00000  -0.00000  -0.00001  -0.00000
  46 6   N  1S          0.00009  -0.02274  -0.00038  -0.05175  -0.00104
  47        2S         -0.00038   0.02148   0.00065   0.04799   0.00086
  48        2PX        -0.20925   0.00105   0.24430  -0.00230  -0.05757
  49        2PY        -0.00251  -0.11318   0.00349   0.02656  -0.00153
  50        2PZ        -0.00001   0.00000   0.00002  -0.00001  -0.00001
  51        3S          0.00013   0.08149   0.00105   0.20036   0.00447
  52        3PX        -0.16027   0.00080   0.20847  -0.00195  -0.05143
  53        3PY        -0.00152  -0.08496   0.00253   0.02042  -0.00107
  54        3PZ        -0.00001   0.00000   0.00002  -0.00001  -0.00001
  55 7   H  1S         -0.00247   0.13944  -0.00129  -0.04563   0.00111
  56        2S         -0.00125   0.07996  -0.00077  -0.01620   0.00095
  57 8   H  1S         -0.08529   0.11788  -0.02790  -0.13058   0.13507
  58        2S         -0.04453   0.05852  -0.01133  -0.07366   0.09214
  59 9   H  1S          0.08985   0.08314   0.01275   0.17053   0.13091
  60        2S          0.04272   0.04959   0.00763   0.10219   0.09699
  61 10  H  1S         -0.08979   0.08268  -0.00918   0.17280  -0.12789
  62        2S         -0.04265   0.04925  -0.00579   0.10374  -0.09497
  63 11  H  1S          0.08706   0.11824   0.02421  -0.12660  -0.14006
  64        2S          0.04529   0.05904   0.00892  -0.07122  -0.09576
                          16        17        18        19        20
                           O         O         O         O         O
     Eigenvalues --    -0.57548  -0.54576  -0.52135  -0.39810  -0.37993
   1 1   C  1S         -0.02926  -0.00000  -0.00371  -0.02135   0.00000
   2        2S          0.03590   0.00000   0.00444   0.02464  -0.00000
   3        2PX        -0.07985  -0.00005   0.18313  -0.04808  -0.00001
   4        2PY         0.13171   0.00001  -0.00558  -0.16518   0.00002
   5        2PZ        -0.00003   0.19134   0.00004  -0.00000   0.10835
   6        3S          0.06906   0.00001   0.01198   0.10172  -0.00002
   7        3PX        -0.05961  -0.00005   0.19066   0.01876  -0.00002
   8        3PY         0.12629   0.00002  -0.06416   0.01261  -0.00001
   9        3PZ        -0.00003   0.18934   0.00004   0.00000   0.14954
  10 2   C  1S          0.02568   0.00000  -0.00104   0.02276  -0.00000
  11        2S         -0.02731  -0.00000   0.00126  -0.02020   0.00000
  12        2PX         0.07806   0.00002  -0.21627   0.00726   0.00001
  13        2PY        -0.14167  -0.00001   0.02436   0.16001  -0.00002
  14        2PZ        -0.00002   0.16323   0.00000  -0.00003  -0.15479
  15        3S         -0.08054  -0.00002   0.01197  -0.19220   0.00003
  16        3PX         0.00114   0.00002  -0.22643   0.00069   0.00002
  17        3PY        -0.09234   0.00000  -0.03608   0.19854  -0.00003
  18        3PZ        -0.00002   0.15141   0.00000  -0.00004  -0.18854
  19 3   C  1S          0.00471   0.00000   0.00043  -0.00231   0.00000
  20        2S         -0.00680  -0.00000  -0.00029   0.00170  -0.00000
  21        2PX        -0.00746  -0.00003   0.24665   0.00141   0.00002
  22        2PY         0.32063   0.00005   0.00838  -0.05208  -0.00001
  23        2PZ        -0.00004   0.15320   0.00003  -0.00003  -0.27621
  24        3S         -0.01809  -0.00001  -0.00203  -0.00972  -0.00000
  25        3PX        -0.00587  -0.00002   0.16245   0.00198   0.00002
  26        3PY         0.32007   0.00004   0.00803  -0.12559  -0.00001
  27        3PZ        -0.00004   0.14591   0.00003  -0.00004  -0.31431
  28 4   C  1S          0.02596   0.00000   0.00156   0.02225  -0.00000
  29        2S         -0.02741  -0.00000  -0.00163  -0.01998   0.00000
  30        2PX        -0.06929  -0.00000  -0.21877  -0.01111   0.00001
  31        2PY        -0.14215  -0.00001  -0.03449   0.15771  -0.00002
  32        2PZ        -0.00003   0.16323  -0.00000  -0.00002  -0.16143
  33        3S         -0.08244  -0.00001  -0.01393  -0.19109   0.00003
  34        3PX         0.00548   0.00001  -0.22921  -0.00601   0.00001
  35        3PY        -0.09216  -0.00001   0.02669   0.19648  -0.00002
  36        3PZ        -0.00002   0.15134  -0.00000  -0.00002  -0.19625
  37 5   C  1S         -0.02907  -0.00000   0.00331  -0.02164   0.00000
  38        2S          0.03576   0.00000  -0.00421   0.02443  -0.00001
  39        2PX         0.06760   0.00000   0.18520   0.05501  -0.00001
  40        2PY         0.13129   0.00002   0.01644  -0.16294   0.00002
  41        2PZ        -0.00002   0.19020   0.00001   0.00002   0.09449
  42        3S          0.06914   0.00001  -0.01026   0.10647  -0.00002
  43        3PX         0.04867  -0.00001   0.19251  -0.01486   0.00000
  44        3PY         0.12394   0.00002   0.07382   0.01420  -0.00000
  45        3PZ        -0.00002   0.18839   0.00001   0.00002   0.13424
  46 6   N  1S          0.03509   0.00001  -0.00019   0.07285  -0.00001
  47        2S         -0.03666  -0.00001  -0.00018  -0.07217   0.00001
  48        2PX         0.00134  -0.00000  -0.18919  -0.00560  -0.00002
  49        2PY         0.17527   0.00003  -0.00083   0.41116  -0.00006
  50        2PZ        -0.00003   0.22156   0.00000   0.00003   0.26676
  51        3S         -0.13088  -0.00002   0.00149  -0.27850   0.00003
  52        3PX         0.00106  -0.00000  -0.17592  -0.00702  -0.00002
  53        3PY         0.16171   0.00003  -0.00024   0.50140  -0.00007
  54        3PZ        -0.00002   0.22972   0.00001   0.00004   0.32368
  55 7   H  1S          0.22609   0.00003   0.00347  -0.05101   0.00000
  56        2S          0.16208   0.00002   0.00266  -0.03128  -0.00000
  57 8   H  1S         -0.06056  -0.00002   0.12845   0.08844  -0.00001
  58        2S         -0.04212  -0.00001   0.08450   0.10737  -0.00001
  59 9   H  1S         -0.02995   0.00002  -0.13892   0.05361  -0.00000
  60        2S         -0.00780   0.00001  -0.10136   0.06956  -0.00001
  61 10  H  1S         -0.03306  -0.00001   0.13875   0.05325  -0.00000
  62        2S         -0.00994  -0.00001   0.10137   0.06893  -0.00001
  63 11  H  1S         -0.05501  -0.00000  -0.13170   0.08605  -0.00001
  64        2S         -0.03882  -0.00001  -0.08727   0.10526  -0.00002
                          21        22        23        24        25
                           O         V         V         V         V
     Eigenvalues --    -0.35876   0.12841   0.14107   0.26321   0.31566
   1 1   C  1S         -0.00000  -0.00000  -0.00000   0.03999   0.03100
   2        2S          0.00000   0.00000   0.00000  -0.02660  -0.00353
   3        2PX        -0.00004   0.00001  -0.00003  -0.05609  -0.14490
   4        2PY        -0.00001  -0.00000  -0.00000   0.02346   0.06979
   5        2PZ         0.23328  -0.14711   0.24755  -0.00001  -0.00003
   6        3S          0.00001   0.00001   0.00002  -0.44183  -0.62613
   7        3PX        -0.00004   0.00003  -0.00007  -0.22840  -0.46393
   8        3PY         0.00000  -0.00001  -0.00001   0.10802   0.31779
   9        3PZ         0.26517  -0.24418   0.52780  -0.00003  -0.00008
  10 2   C  1S          0.00000  -0.00000   0.00000   0.04357   0.03810
  11        2S         -0.00000   0.00000  -0.00000  -0.01655  -0.00266
  12        2PX        -0.00002   0.00001   0.00002  -0.09400  -0.15180
  13        2PY         0.00001  -0.00000  -0.00000  -0.07998  -0.06840
  14        2PZ         0.23853  -0.13418  -0.22775  -0.00001  -0.00000
  15        3S         -0.00000   0.00003   0.00000  -0.61906  -0.76021
  16        3PX        -0.00002   0.00003   0.00004  -0.34644  -0.53342
  17        3PY         0.00001  -0.00001  -0.00001  -0.23106  -0.30944
  18        3PZ         0.28971  -0.32127  -0.51564  -0.00005  -0.00000
  19 3   C  1S         -0.00000  -0.00000  -0.00000   0.05466  -0.00069
  20        2S          0.00000   0.00000  -0.00000  -0.02244   0.00013
  21        2PX        -0.00001  -0.00002  -0.00001   0.00179  -0.02890
  22        2PY        -0.00000   0.00002  -0.00000  -0.14491  -0.00178
  23        2PZ         0.00793   0.28194  -0.00389   0.00002  -0.00001
  24        3S          0.00000   0.00002   0.00000  -0.75640   0.01153
  25        3PX        -0.00001  -0.00004  -0.00001   0.00723   0.04534
  26        3PY        -0.00000   0.00005   0.00000  -0.52799  -0.00573
  27        3PZ         0.00945   0.63375  -0.00837   0.00007  -0.00002
  28 4   C  1S          0.00000  -0.00000  -0.00000   0.04417  -0.03740
  29        2S         -0.00000  -0.00000  -0.00000  -0.01675   0.00277
  30        2PX         0.00002   0.00001  -0.00001   0.09621  -0.15408
  31        2PY         0.00001  -0.00000   0.00001  -0.07721   0.06331
  32        2PZ        -0.23417  -0.12363   0.23387   0.00000  -0.00000
  33        3S         -0.00001   0.00002   0.00001  -0.62709   0.74607
  34        3PX         0.00002   0.00003  -0.00003   0.35334  -0.54910
  35        3PY         0.00000  -0.00000   0.00001  -0.22194   0.29013
  36        3PZ        -0.28425  -0.29656   0.53137   0.00001  -0.00003
  37 5   C  1S         -0.00000  -0.00001  -0.00000   0.03986  -0.02927
  38        2S          0.00000   0.00001   0.00000  -0.02639   0.00247
  39        2PX        -0.00000   0.00000  -0.00000   0.05669  -0.14482
  40        2PY        -0.00001  -0.00000  -0.00001   0.02643  -0.07239
  41        2PZ        -0.24066  -0.15333  -0.24353  -0.00001  -0.00000
  42        3S          0.00001   0.00003   0.00001  -0.44223   0.60639
  43        3PX        -0.00001  -0.00002  -0.00001   0.22592  -0.45570
  44        3PY        -0.00001  -0.00002  -0.00001   0.12028  -0.32291
  45        3PZ        -0.27456  -0.25570  -0.52384  -0.00003   0.00001
  46 6   N  1S          0.00000   0.00000   0.00000   0.00844  -0.00102
  47        2S         -0.00000  -0.00000  -0.00000  -0.00687   0.00045
  48        2PX         0.00001  -0.00002  -0.00000   0.00109  -0.03470
  49        2PY         0.00001  -0.00000   0.00000  -0.05229   0.00058
  50        2PZ        -0.00372   0.27149  -0.00613   0.00001   0.00001
  51        3S         -0.00001  -0.00002  -0.00001  -0.06624   0.00969
  52        3PX         0.00001  -0.00004  -0.00001   0.00222  -0.00168
  53        3PY         0.00002  -0.00000   0.00000  -0.13978   0.00159
  54        3PZ        -0.00465   0.49814  -0.01209   0.00002   0.00001
  55 7   H  1S         -0.00000  -0.00001  -0.00000   0.05209   0.00026
  56        2S         -0.00000  -0.00003  -0.00000   1.11257   0.00299
  57 8   H  1S         -0.00000  -0.00000  -0.00000   0.02495   0.02037
  58        2S         -0.00000  -0.00002  -0.00001   0.57196   1.00686
  59 9   H  1S          0.00000  -0.00000   0.00000   0.04028   0.01747
  60        2S          0.00001  -0.00002   0.00001   0.89918   1.11486
  61 10  H  1S         -0.00000  -0.00000  -0.00000   0.04042  -0.01792
  62        2S         -0.00000  -0.00002  -0.00001   0.90384  -1.11328
  63 11  H  1S          0.00001  -0.00001  -0.00001   0.02547  -0.02038
  64        2S          0.00001  -0.00004  -0.00002   0.57736  -0.99293
                          26        27        28        29        30
                           V         V         V         V         V
     Eigenvalues --     0.33840   0.36177   0.36237   0.36635   0.44423
   1 1   C  1S          0.07912   0.03257   0.00010   0.07627   0.04506
   2        2S         -0.03796  -0.03485  -0.00008  -0.03927  -0.01446
   3        2PX        -0.06853  -0.03813  -0.00010  -0.10306   0.13007
   4        2PY         0.12206   0.00526   0.00002   0.01233  -0.02623
   5        2PZ         0.00003   0.00039  -0.21213   0.00007   0.00002
   6        3S         -1.07632  -0.04258  -0.00069  -1.05732  -0.47339
   7        3PX        -0.48749  -0.51210  -0.00123  -0.73953   0.77737
   8        3PY         0.47153   0.22883   0.00047   0.02453   0.35400
   9        3PZ         0.00005   0.00102  -0.58038   0.00015   0.00011
  10 2   C  1S          0.00394  -0.07389  -0.00017  -0.08383   0.02806
  11        2S          0.00628   0.06084   0.00013   0.03334   0.01914
  12        2PX         0.03251   0.04734   0.00012   0.07912   0.04097
  13        2PY        -0.01944   0.06566   0.00012   0.01889  -0.00500
  14        2PZ        -0.00004  -0.00039   0.21430  -0.00007  -0.00000
  15        3S         -0.14916   0.59698   0.00159   1.29756  -0.89353
  16        3PX         0.34222   0.76892   0.00174   0.60798   0.75401
  17        3PY        -0.19106   0.66226   0.00121   0.10449  -0.16472
  18        3PZ        -0.00008  -0.00113   0.63073  -0.00018   0.00002
  19 3   C  1S         -0.06435   0.09990   0.00017   0.00167  -0.07380
  20        2S          0.00514  -0.07382  -0.00014  -0.00157   0.02089
  21        2PX        -0.00221   0.00393  -0.00000  -0.07293  -0.00199
  22        2PY         0.14080  -0.07163  -0.00013  -0.00208  -0.21476
  23        2PZ         0.00003   0.00039  -0.20375   0.00007   0.00002
  24        3S          1.33714  -0.91365  -0.00137  -0.00886   1.37558
  25        3PX        -0.00774   0.02804  -0.00006  -0.39893  -0.01690
  26        3PY         0.48726  -1.05290  -0.00196  -0.02801  -1.42383
  27        3PZ         0.00007   0.00122  -0.62314   0.00020   0.00008
  28 4   C  1S          0.00332  -0.07776  -0.00011   0.08031   0.03054
  29        2S          0.00679   0.06239   0.00011  -0.03062   0.01930
  30        2PX        -0.03068  -0.05132  -0.00008   0.07567  -0.04199
  31        2PY        -0.02228   0.06653   0.00011  -0.01631  -0.01120
  32        2PZ        -0.00004  -0.00040   0.21406  -0.00007  -0.00001
  33        3S         -0.14378   0.65756   0.00071  -1.26671  -0.95322
  34        3PX        -0.33633  -0.80651  -0.00141   0.56725  -0.76638
  35        3PY        -0.20950   0.65197   0.00108  -0.07080  -0.21578
  36        3PZ        -0.00010  -0.00123   0.63015  -0.00020  -0.00008
  37 5   C  1S          0.08096   0.03578   0.00006  -0.07389   0.04752
  38        2S         -0.03868  -0.03653  -0.00006   0.03753  -0.01539
  39        2PX         0.06524   0.04190   0.00007  -0.09894  -0.13058
  40        2PY         0.12568   0.00757   0.00002  -0.01673  -0.02422
  41        2PZ         0.00003   0.00039  -0.21171   0.00008   0.00000
  42        3S         -1.10063  -0.08249  -0.00006   1.03895  -0.50961
  43        3PX         0.47742   0.53355   0.00084  -0.70665  -0.78191
  44        3PY         0.48789   0.24711   0.00050  -0.03920   0.35741
  45        3PZ         0.00006   0.00108  -0.57860   0.00022  -0.00000
  46 6   N  1S         -0.04951   0.00582   0.00000   0.00024  -0.13145
  47        2S          0.03209   0.03014   0.00006   0.00084   0.03412
  48        2PX        -0.00273  -0.00166   0.00000   0.05577  -0.00769
  49        2PY         0.04693   0.03011   0.00007   0.00164   0.13592
  50        2PZ        -0.00003  -0.00044   0.23981  -0.00009  -0.00000
  51        3S          0.38823  -0.34311  -0.00056  -0.01191   1.69693
  52        3PX        -0.00408   0.00094  -0.00003   0.03543  -0.02447
  53        3PY        -0.01796  -0.14462  -0.00025  -0.00314   0.58771
  54        3PZ        -0.00006  -0.00097   0.52401  -0.00020   0.00001
  55 7   H  1S          0.01157   0.00765   0.00003   0.00050  -0.00351
  56        2S         -1.12196   1.44746   0.00253   0.02705   0.95748
  57 8   H  1S          0.01119   0.02426   0.00004   0.00397   0.00731
  58        2S          1.26459   0.61770   0.00176   1.17373  -0.30067
  59 9   H  1S         -0.01066  -0.01496  -0.00002   0.01709  -0.02655
  60        2S         -0.16119  -1.28841  -0.00290  -1.11632  -0.25729
  61 10  H  1S         -0.01072  -0.01409  -0.00003  -0.01750  -0.03089
  62        2S         -0.15649  -1.33625  -0.00208   1.05552  -0.24072
  63 11  H  1S          0.01111   0.02467   0.00003  -0.00329   0.00345
  64        2S          1.27955   0.66460   0.00109  -1.13191  -0.26954
                          31        32        33        34        35
                           V         V         V         V         V
     Eigenvalues --     0.49573   0.53251   0.54840   0.73360   0.75977
   1 1   C  1S          0.01720   0.03381   0.10244  -0.00258   0.08702
   2        2S         -0.01095  -0.00131  -0.01990  -0.03834   0.11306
   3        2PX         0.05684  -0.08028   0.12357   0.01522  -0.02598
   4        2PY        -0.12781  -0.20922  -0.04963   0.07024  -0.10722
   5        2PZ         0.00001   0.00000   0.00002   0.00000   0.00000
   6        3S         -0.17143  -1.10982  -2.08012  -0.21536  -2.21500
   7        3PX         0.18255  -0.54214   0.94608  -1.32823   1.27862
   8        3PY        -1.30664  -1.32179  -0.59308  -1.99344  -1.30730
   9        3PZ         0.00001  -0.00001   0.00012  -0.00013   0.00015
  10 2   C  1S         -0.09083  -0.01643  -0.03046   0.02233  -0.13699
  11        2S          0.00325  -0.01088   0.02089  -0.01690   0.07055
  12        2PX        -0.13867   0.12269  -0.08057   0.14087  -0.13085
  13        2PY        -0.00337  -0.12097  -0.10196  -0.22240  -0.18641
  14        2PZ        -0.00001   0.00000  -0.00001   0.00002  -0.00002
  15        3S          2.22954   0.58013   0.30199  -0.30398   3.03984
  16        3PX        -1.07365   1.02481  -0.07417   1.30841  -2.06240
  17        3PY        -0.28728  -1.50540  -1.56598  -1.83492  -1.18204
  18        3PZ        -0.00008   0.00008   0.00001   0.00015  -0.00015
  19 3   C  1S         -0.00040  -0.07651   0.00462   0.00032   0.11213
  20        2S         -0.00044  -0.00909   0.00125  -0.00148   0.02936
  21        2PX        -0.14189   0.01545   0.20444   0.06413   0.00087
  22        2PY         0.00055  -0.02586   0.00352   0.00335   0.08498
  23        2PZ        -0.00001   0.00001   0.00001   0.00000  -0.00001
  24        3S          0.00700   2.16517  -0.12960   0.01988  -3.02587
  25        3PX        -1.83270   0.12140   0.96355   2.72364  -0.05041
  26        3PY        -0.00986  -0.61120   0.04921   0.03756   2.39063
  27        3PZ        -0.00013   0.00006   0.00006   0.00018  -0.00006
  28 4   C  1S          0.08902  -0.01619   0.03291  -0.02351  -0.13681
  29        2S         -0.00434  -0.01402  -0.01731   0.01592   0.07082
  30        2PX        -0.14511  -0.12527  -0.06498   0.13611   0.13638
  31        2PY        -0.00692  -0.10529   0.11495   0.22670  -0.18365
  32        2PZ        -0.00001  -0.00002  -0.00000   0.00000   0.00001
  33        3S         -2.16864   0.67036  -0.43494   0.28325   3.04729
  34        3PX        -1.09801  -0.94902   0.00616   1.26784   2.07749
  35        3PY         0.22094  -1.32034   1.76601   1.84852  -1.15985
  36        3PZ        -0.00005  -0.00008   0.00000   0.00005   0.00012
  37 5   C  1S         -0.01725   0.01982  -0.10494   0.00429   0.08802
  38        2S          0.01051   0.00119   0.02168   0.03316   0.11132
  39        2PX         0.05921   0.10316   0.11140   0.00887   0.02192
  40        2PY         0.12081  -0.20228   0.07835  -0.07244  -0.09607
  41        2PZ        -0.00000   0.00001  -0.00000  -0.00001   0.00002
  42        3S          0.17156  -0.84890   2.19943   0.23273  -2.24530
  43        3PX         0.20119   0.70499   0.80309  -1.38715  -1.22495
  44        3PY         1.25098  -1.27236   0.83127   1.94139  -1.38155
  45        3PZ        -0.00000   0.00007   0.00001  -0.00006  -0.00005
  46 6   N  1S          0.00382   0.08150  -0.00811  -0.00052  -0.08562
  47        2S         -0.00065  -0.00964   0.00071   0.00050   0.03737
  48        2PX        -0.11989   0.02088   0.24088  -0.23219  -0.00416
  49        2PY        -0.00193   0.04216   0.00056  -0.00092   0.13705
  50        2PZ        -0.00001  -0.00001   0.00002  -0.00002  -0.00000
  51        3S         -0.05877  -1.25923   0.13676  -0.01238   1.50170
  52        3PX        -0.57063   0.08369   0.96045  -1.48234  -0.00972
  53        3PY        -0.01461  -0.02451   0.02666  -0.01222   0.90611
  54        3PZ        -0.00004  -0.00005   0.00008  -0.00012   0.00001
  55 7   H  1S          0.00291   0.14317  -0.00996   0.00225   0.09811
  56        2S         -0.01520   0.02741  -0.00094  -0.00453  -0.88209
  57 8   H  1S          0.06541  -0.04367  -0.06429  -0.07438   0.11632
  58        2S         -0.71056  -0.03758  -0.31250  -0.02089  -0.63467
  59 9   H  1S          0.07987   0.08788  -0.08776  -0.00671  -0.12239
  60        2S          0.43243  -0.25986   0.55871  -0.05967   0.96450
  61 10  H  1S         -0.07452   0.10405   0.07176   0.00616  -0.12369
  62        2S         -0.44481  -0.32671  -0.52180   0.07113   0.96689
  63 11  H  1S         -0.06632  -0.03223   0.06913   0.07802   0.11258
  64        2S          0.71483  -0.01381   0.31711   0.00669  -0.63285
                          36        37        38        39        40
                           V         V         V         V         V
     Eigenvalues --     0.91295   0.93493   0.93870   0.99493   1.03280
   1 1   C  1S         -0.05130  -0.04084  -0.00002  -0.02646  -0.00000
   2        2S         -0.00333   0.10802   0.00005  -0.09333   0.00002
   3        2PX        -0.27061  -0.42358  -0.00022  -0.13406   0.00010
   4        2PY        -0.21425   0.04200   0.00004  -0.30942   0.00008
   5        2PZ        -0.00001  -0.00026   0.53075   0.00002  -0.56461
   6        3S          0.07224   0.16177   0.00008   0.04696   0.00001
   7        3PX        -0.31148   0.23533   0.00013   0.13168  -0.00010
   8        3PY        -0.20727  -0.28254  -0.00013   0.54309  -0.00003
   9        3PZ        -0.00005   0.00022  -0.44285  -0.00002   0.49455
  10 2   C  1S          0.03657   0.00191   0.00000  -0.03118   0.00001
  11        2S         -0.03241   0.01278   0.00001  -0.01018   0.00002
  12        2PX        -0.09519  -0.19855  -0.00011  -0.28590   0.00006
  13        2PY         0.40077  -0.06871  -0.00004   0.48373  -0.00000
  14        2PZ        -0.00000  -0.00019   0.43899  -0.00003  -0.52823
  15        3S         -0.19841   0.07217   0.00002  -0.11629   0.00000
  16        3PX         0.68448   0.48173   0.00022   0.08012  -0.00006
  17        3PY        -0.96334   0.02326   0.00005  -0.33573   0.00006
  18        3PZ         0.00007   0.00014  -0.23607   0.00002   0.42241
  19 3   C  1S         -0.00175  -0.02104  -0.00001   0.08831  -0.00000
  20        2S          0.00535   0.05079   0.00002  -0.03512   0.00000
  21        2PX         0.56361   0.00046  -0.00004   0.03735   0.00012
  22        2PY        -0.00120  -0.26095  -0.00009   0.27491  -0.00000
  23        2PZ         0.00004  -0.00018   0.44841   0.00003  -0.00647
  24        3S          0.04644   0.50977   0.00024  -0.12552  -0.00001
  25        3PX         0.24782   0.00190   0.00001  -0.07530  -0.00016
  26        3PY        -0.01155   0.11901   0.00002  -0.08128  -0.00001
  27        3PZ         0.00001   0.00011  -0.30142  -0.00002   0.00878
  28 4   C  1S         -0.03344   0.00152   0.00000  -0.03843  -0.00001
  29        2S          0.03937   0.01089   0.00001  -0.02253  -0.00003
  30        2PX        -0.08008   0.20360   0.00005   0.27750  -0.00004
  31        2PY        -0.40883  -0.05336  -0.00003   0.47962   0.00002
  32        2PZ         0.00000  -0.00017   0.43962   0.00000   0.53047
  33        3S          0.17028   0.06721   0.00001  -0.14746  -0.00001
  34        3PX         0.60025  -0.48137  -0.00021  -0.09664   0.00004
  35        3PY         0.97344   0.00376  -0.00000  -0.38583  -0.00006
  36        3PZ         0.00002   0.00007  -0.23695   0.00001  -0.42871
  37 5   C  1S          0.05030  -0.04113  -0.00002  -0.02393   0.00000
  38        2S          0.00639   0.10856   0.00005  -0.10588  -0.00003
  39        2PX        -0.27930   0.43261   0.00017   0.15623   0.00004
  40        2PY         0.22919   0.03863   0.00003  -0.35076  -0.00006
  41        2PZ        -0.00001  -0.00018   0.53063   0.00003   0.56699
  42        3S         -0.04147   0.13989   0.00005   0.01995  -0.00001
  43        3PX        -0.27904  -0.25046  -0.00006  -0.15857  -0.00006
  44        3PY         0.14761  -0.25611  -0.00012   0.55357   0.00002
  45        3PZ        -0.00001   0.00019  -0.44224  -0.00003  -0.49675
  46 6   N  1S          0.00176   0.05275   0.00002   0.02238   0.00000
  47        2S          0.00049  -0.05126  -0.00002  -0.06312  -0.00000
  48        2PX        -0.23243   0.00180  -0.00000   0.00742   0.00002
  49        2PY         0.00480   0.05081   0.00002  -0.21259  -0.00001
  50        2PZ        -0.00002  -0.00005   0.06894   0.00000   0.00036
  51        3S         -0.04563  -0.21465  -0.00011   0.27184   0.00001
  52        3PX        -0.60256  -0.01416  -0.00000  -0.00024   0.00003
  53        3PY        -0.01545  -0.05521  -0.00002  -0.10075   0.00001
  54        3PZ        -0.00004  -0.00007   0.11420   0.00001   0.00077
  55 7   H  1S         -0.00512  -0.33747  -0.00016   0.43603  -0.00000
  56        2S          0.00773   0.14871   0.00007  -0.17470   0.00001
  57 8   H  1S         -0.13936  -0.40122  -0.00016  -0.11785   0.00000
  58        2S          0.08495   0.10808   0.00005   0.11303   0.00002
  59 9   H  1S          0.12572  -0.30427  -0.00012  -0.06053   0.00008
  60        2S         -0.13079  -0.04087  -0.00002   0.07931  -0.00004
  61 10  H  1S         -0.12427  -0.30614  -0.00012  -0.10355  -0.00006
  62        2S          0.11369  -0.04050  -0.00003   0.09863   0.00003
  63 11  H  1S          0.12838  -0.40355  -0.00015  -0.11791  -0.00000
  64        2S         -0.08255   0.11310   0.00006   0.10991  -0.00001
                          41        42        43        44        45
                           V         V         V         V         V
     Eigenvalues --     1.03965   1.04030   1.09241   1.09356   1.11458
   1 1   C  1S          0.00735   0.00000  -0.00000   0.01416  -0.03305
   2        2S         -0.10031  -0.00004  -0.00005  -0.09082  -0.20815
   3        2PX        -0.23998  -0.00004  -0.00008  -0.14041   0.14988
   4        2PY        -0.58462  -0.00021  -0.00004  -0.49126   0.29087
   5        2PZ         0.00006  -0.51814   0.53372  -0.00012  -0.00014
   6        3S         -0.04789  -0.00002   0.00011   0.26450   0.27378
   7        3PX         0.00864  -0.00003   0.00015   0.12269   0.05663
   8        3PY         0.23734   0.00004   0.00005   0.76969  -0.48037
   9        3PZ        -0.00012   0.60689  -0.73431   0.00015   0.00024
  10 2   C  1S         -0.06291  -0.00002  -0.00001  -0.01397  -0.00715
  11        2S         -0.11328  -0.00004  -0.00007  -0.26089  -0.14740
  12        2PX        -0.05174  -0.00006   0.00008   0.34310  -0.16647
  13        2PY        -0.01406  -0.00001   0.00001  -0.23916   0.37374
  14        2PZ        -0.00016   0.23701  -0.57915   0.00014   0.00018
  15        3S         -0.23685  -0.00005   0.00004  -0.25223   0.45711
  16        3PX         0.30116   0.00014  -0.00012  -0.26855   0.06709
  17        3PY        -0.43684  -0.00016   0.00009   0.45173  -0.10410
  18        3PZ         0.00017  -0.23292   0.76408  -0.00017  -0.00030
  19 3   C  1S          0.00385   0.00000  -0.00001  -0.02835  -0.00010
  20        2S         -0.00776   0.00001  -0.00006  -0.35511  -0.00290
  21        2PX        -0.58714  -0.00027  -0.00008   0.02454  -0.38348
  22        2PY         0.00916   0.00005   0.00004   0.25233  -0.00020
  23        2PZ        -0.00032   0.75998   0.00954  -0.00001  -0.00016
  24        3S          0.01524   0.00001  -0.00001   0.00624  -0.05418
  25        3PX         1.10881   0.00044   0.00000  -0.00536  -0.04818
  26        3PY        -0.01016  -0.00004  -0.00003  -0.23612   0.01564
  27        3PZ         0.00032  -0.66894  -0.01083   0.00000   0.00020
  28 4   C  1S          0.06033   0.00002  -0.00000  -0.01763   0.00461
  29        2S          0.10268   0.00004  -0.00001  -0.27050   0.14394
  30        2PX        -0.02712  -0.00000  -0.00012  -0.32880  -0.18138
  31        2PY         0.05784   0.00001  -0.00012  -0.24022  -0.39065
  32        2PZ        -0.00000   0.23204   0.57959  -0.00012  -0.00000
  33        3S          0.16727   0.00007  -0.00014  -0.21951  -0.43210
  34        3PX         0.25165   0.00007   0.00010   0.26024   0.15651
  35        3PY         0.45231   0.00016   0.00011   0.46045   0.11876
  36        3PZ         0.00003  -0.22272  -0.76248   0.00015  -0.00001
  37 5   C  1S         -0.01132  -0.00000   0.00001   0.01488   0.03315
  38        2S          0.08372   0.00003   0.00005  -0.10585   0.22668
  39        2PX        -0.23549  -0.00008   0.00007   0.14241   0.20235
  40        2PY         0.53002   0.00018  -0.00016  -0.47737  -0.31848
  41        2PZ         0.00028  -0.50282  -0.54266   0.00010   0.00008
  42        3S          0.11726   0.00003  -0.00002   0.26371  -0.30969
  43        3PX         0.01472  -0.00001  -0.00004  -0.15922  -0.04430
  44        3PY        -0.13992  -0.00007   0.00026   0.74310   0.52120
  45        3PZ        -0.00031   0.58728   0.74381  -0.00015  -0.00010
  46 6   N  1S          0.00272  -0.00000   0.00000   0.01365  -0.00034
  47        2S         -0.00394   0.00000  -0.00000  -0.02729  -0.00158
  48        2PX        -0.16540  -0.00006  -0.00002   0.00319  -0.08286
  49        2PY        -0.01409   0.00000  -0.00005  -0.21925  -0.02089
  50        2PZ         0.00001  -0.05078  -0.00045   0.00000  -0.00001
  51        3S         -0.00285  -0.00000   0.00007   0.32320   0.05313
  52        3PX        -0.24409  -0.00008  -0.00002  -0.00957  -0.01628
  53        3PY        -0.02077   0.00000  -0.00002  -0.08916   0.01753
  54        3PZ         0.00004  -0.17217  -0.00109  -0.00000  -0.00002
  55 7   H  1S          0.01451   0.00000  -0.00008  -0.44078  -0.00257
  56        2S          0.00169  -0.00001   0.00005   0.28667  -0.00053
  57 8   H  1S         -0.00146  -0.00001  -0.00008   0.08357  -0.55029
  58        2S          0.00945  -0.00002   0.00002   0.09740   0.11324
  59 9   H  1S         -0.37991  -0.00015  -0.00011  -0.26802  -0.28020
  60        2S          0.14083   0.00006   0.00005   0.13232   0.10475
  61 10  H  1S          0.35807   0.00012   0.00001  -0.30084   0.28314
  62        2S         -0.14330  -0.00005  -0.00000   0.14678  -0.07908
  63 11  H  1S         -0.02216  -0.00001   0.00012   0.05940   0.57555
  64        2S          0.01814  -0.00001  -0.00000   0.09791  -0.14342
                          46        47        48        49        50
                           V         V         V         V         V
     Eigenvalues --     1.12584   1.12654   1.28564   1.30068   1.36478
   1 1   C  1S         -0.02770  -0.00007  -0.00534  -0.02650  -0.01857
   2        2S          0.40803   0.00109  -0.00962   0.05837   0.13620
   3        2PX        -0.53237  -0.00139  -0.06021   0.45233   0.23754
   4        2PY        -0.05221  -0.00019   0.11698  -0.36760  -0.43840
   5        2PZ         0.00045  -0.20098  -0.00000   0.00007   0.00002
   6        3S         -0.19354  -0.00057  -0.87104   0.34727   0.47797
   7        3PX         0.81713   0.00207   0.68594  -1.25962  -0.65302
   8        3PY         0.36249   0.00103  -0.63279   1.03081   1.21506
   9        3PZ        -0.00110   0.46705   0.00007  -0.00015  -0.00006
  10 2   C  1S          0.01591   0.00004  -0.01837   0.02322   0.01180
  11        2S          0.18164   0.00050  -0.03654  -0.04641  -0.00881
  12        2PX         0.12041   0.00028   0.57196  -0.43838  -0.11898
  13        2PY        -0.10579  -0.00031   0.34052  -0.28148  -0.37361
  14        2PZ        -0.00152   0.59931   0.00005  -0.00003  -0.00000
  15        3S         -0.29408  -0.00082   1.31276  -0.52045  -0.47327
  16        3PX        -0.64827  -0.00162  -1.98230   1.19307   0.20830
  17        3PY         0.25253   0.00062  -1.07085   0.79835   1.01338
  18        3PZ         0.00253  -1.01242  -0.00014   0.00009   0.00000
  19 3   C  1S         -0.02142  -0.00005   0.02653   0.00065   0.02835
  20        2S          0.23530   0.00061  -0.08512   0.00003  -0.10117
  21        2PX         0.01240   0.00015   0.00619  -0.00767   0.00178
  22        2PY        -0.10463  -0.00031  -0.70503  -0.01645  -0.58553
  23        2PZ         0.00174  -0.66567   0.00006   0.00001   0.00003
  24        3S         -0.85370  -0.00219  -1.47977  -0.01559   0.06120
  25        3PX         0.02424  -0.00004  -0.01503   0.16777   0.01207
  26        3PY         0.08755   0.00030   2.58518   0.04591   0.80608
  27        3PZ        -0.00302   1.16435  -0.00013  -0.00000  -0.00005
  28 4   C  1S          0.01551   0.00004  -0.01792  -0.02331   0.01039
  29        2S          0.17511   0.00043  -0.03926   0.04782  -0.00649
  30        2PX        -0.10587  -0.00027  -0.57364  -0.46065   0.11586
  31        2PY        -0.08767  -0.00013   0.31641   0.27789  -0.37771
  32        2PZ        -0.00157   0.59835  -0.00004  -0.00003   0.00002
  33        3S         -0.26197  -0.00059   1.30163   0.55240  -0.48326
  34        3PX         0.65593   0.00173   1.99289   1.26639  -0.20898
  35        3PY         0.30097   0.00067  -0.96851  -0.78727   1.03610
  36        3PZ         0.00268  -1.01302   0.00014   0.00007  -0.00001
  37 5   C  1S         -0.02844  -0.00008  -0.00706   0.02587  -0.01905
  38        2S          0.39531   0.00098  -0.01060  -0.06144   0.14516
  39        2PX         0.51674   0.00132   0.03602   0.44015  -0.24141
  40        2PY        -0.01084   0.00001   0.10616   0.38085  -0.46287
  41        2PZ         0.00055  -0.21001  -0.00001  -0.00003   0.00001
  42        3S         -0.17919  -0.00045  -0.85068  -0.36691   0.47033
  43        3PX        -0.85826  -0.00223  -0.62429  -1.23617   0.64273
  44        3PY         0.33290   0.00076  -0.60320  -1.07154   1.27735
  45        3PZ        -0.00126   0.47681  -0.00000   0.00001  -0.00002
  46 6   N  1S          0.00283   0.00001  -0.00850  -0.00014   0.00699
  47        2S         -0.00624  -0.00002  -0.04117  -0.00070   0.03900
  48        2PX         0.00338   0.00004   0.00106   0.00102  -0.00120
  49        2PY        -0.38404  -0.00100  -0.05404  -0.00048   0.08418
  50        2PZ         0.00028  -0.11184  -0.00000  -0.00001   0.00001
  51        3S          0.91289   0.00237   0.52967  -0.00010  -0.17504
  52        3PX        -0.02753  -0.00006  -0.00561  -0.02980  -0.00151
  53        3PY         0.27243   0.00071   0.29423   0.00064  -0.46124
  54        3PZ         0.00026  -0.09693   0.00001  -0.00000  -0.00000
  55 7   H  1S          0.18962   0.00050   0.35479   0.00981   0.53281
  56        2S         -0.02987  -0.00009  -1.45060  -0.03018  -1.04901
  57 8   H  1S          0.29501   0.00086  -0.06066  -0.33788  -0.31933
  58        2S         -0.31451  -0.00084  -0.28627   1.13953   0.92381
  59 9   H  1S          0.40586   0.00110  -0.28767   0.36496   0.21315
  60        2S         -0.04030  -0.00011   1.23743  -1.02519  -0.51860
  61 10  H  1S          0.38798   0.00095  -0.28281  -0.37325   0.20223
  62        2S         -0.03497  -0.00006   1.21615   1.05665  -0.50031
  63 11  H  1S          0.26080   0.00058  -0.08179   0.33383  -0.32819
  64        2S         -0.31034  -0.00079  -0.23437  -1.13521   0.96314
                          51        52        53        54        55
                           V         V         V         V         V
     Eigenvalues --     1.39193   1.48506   1.51521   1.54754   1.62193
   1 1   C  1S          0.02620  -0.00279   0.01905   0.00001   0.00414
   2        2S         -0.16023   0.26957  -0.30777  -0.00017  -0.57797
   3        2PX        -0.31555   0.43461  -0.12156  -0.00007  -0.35369
   4        2PY         0.26722  -0.07289   0.02292   0.00005   0.15286
   5        2PZ        -0.00004   0.00006  -0.00004   0.07694  -0.00003
   6        3S          0.00150  -1.61486   0.53949   0.00041   1.99270
   7        3PX         0.20793  -1.47358  -1.03442  -0.00016   1.16276
   8        3PY        -0.88076  -0.19382   0.11422   0.00002   0.28348
   9        3PZ         0.00003  -0.00019   0.00005  -0.48927   0.00014
  10 2   C  1S          0.02223  -0.00355   0.01699   0.00001   0.01585
  11        2S         -0.13434   0.22160  -0.32705  -0.00021  -0.38939
  12        2PX        -0.56239   0.13390  -0.34485  -0.00014   0.13538
  13        2PY         0.07809   0.53607  -0.03003  -0.00008  -0.23565
  14        2PZ        -0.00005   0.00000  -0.00002  -0.04378   0.00003
  15        3S         -0.10738  -1.71879   0.07979   0.00035  -0.32304
  16        3PX         1.37839   0.59986   1.60042   0.00052  -0.47038
  17        3PY        -0.85733  -2.51083  -0.06391   0.00036   1.43383
  18        3PZ         0.00013   0.00011   0.00008   0.25914  -0.00012
  19 3   C  1S         -0.00009   0.00022   0.00385   0.00000   0.01047
  20        2S          0.00522   0.00063  -0.37223  -0.00018  -0.08190
  21        2PX        -0.46570  -0.45065   0.00883   0.00007  -0.00609
  22        2PY         0.01343  -0.00625  -0.55075  -0.00016   0.28735
  23        2PZ        -0.00003  -0.00002   0.00001   0.06232  -0.00002
  24        3S          0.00241   0.03159   2.39888   0.00075  -1.35597
  25        3PX         1.81326   3.19236  -0.01628  -0.00040   0.02156
  26        3PY        -0.01301   0.02478   0.43159   0.00004  -1.55936
  27        3PZ         0.00013   0.00020   0.00000  -0.21424   0.00011
  28 4   C  1S         -0.02325   0.00329   0.01668   0.00001   0.01623
  29        2S          0.13484  -0.22633  -0.32399  -0.00013  -0.40296
  30        2PX        -0.55519   0.15438   0.34059   0.00008  -0.12382
  31        2PY        -0.08453  -0.53557  -0.01770   0.00002  -0.23677
  32        2PZ        -0.00003   0.00002   0.00003  -0.04353   0.00001
  33        3S          0.09810   1.68182   0.07051  -0.00015  -0.31651
  34        3PX         1.34390   0.49713  -1.58551  -0.00047   0.38341
  35        3PY         0.87583   2.54017  -0.12448  -0.00028   1.44973
  36        3PZ         0.00007  -0.00002  -0.00013   0.25952  -0.00007
  37 5   C  1S         -0.02527   0.00381   0.01842   0.00001   0.00399
  38        2S          0.15854  -0.26980  -0.30353  -0.00012  -0.58115
  39        2PX        -0.30082   0.43076   0.11169   0.00000   0.34215
  40        2PY        -0.26507   0.08156   0.02503   0.00001   0.16174
  41        2PZ         0.00001   0.00001  -0.00002   0.07718  -0.00000
  42        3S         -0.00405   1.63354   0.51607   0.00001   2.00924
  43        3PX         0.16207  -1.46027   1.03728   0.00034  -1.11159
  44        3PY         0.85523   0.16427   0.14535  -0.00001   0.25884
  45        3PZ        -0.00003  -0.00004   0.00016  -0.48769   0.00005
  46 6   N  1S         -0.00016   0.00006   0.03574   0.00001  -0.00206
  47        2S         -0.00034  -0.00051  -0.05676  -0.00000  -0.00928
  48        2PX         0.07298   0.19781   0.00136   0.00006  -0.00575
  49        2PY        -0.00062   0.00352  -0.02702  -0.00004   0.36983
  50        2PZ        -0.00000  -0.00010   0.00035  -1.07801   0.00006
  51        3S          0.00295  -0.00900  -1.04850  -0.00029   0.41683
  52        3PX        -0.33897  -0.26810   0.00278  -0.00010   0.01137
  53        3PY         0.00363  -0.00698  -0.41623  -0.00005  -0.28145
  54        3PZ        -0.00001   0.00009  -0.00042   1.29776  -0.00009
  55 7   H  1S         -0.00948   0.00605   0.08525   0.00007   0.71110
  56        2S          0.03209   0.00196  -0.78259  -0.00025   0.44349
  57 8   H  1S          0.37794   0.29126   0.68142   0.00019  -0.12855
  58        2S         -0.79645   0.68954  -0.19093  -0.00014  -0.78797
  59 9   H  1S          0.37658   0.15752  -0.15187  -0.00010   0.10568
  60        2S         -0.83605   0.57081  -0.71942  -0.00037  -0.27654
  61 10  H  1S         -0.38043  -0.16475  -0.14742   0.00004   0.09191
  62        2S          0.83884  -0.58646  -0.70832  -0.00019  -0.29505
  63 11  H  1S         -0.36983  -0.28572   0.67581   0.00021  -0.11478
  64        2S          0.77004  -0.68165  -0.18010  -0.00005  -0.76890
                          56        57        58        59        60
                           V         V         V         V         V
     Eigenvalues --     1.65222   1.67413   1.69739   1.73655   1.83730
   1 1   C  1S          0.00471  -0.00458   0.00433   0.01012   0.00107
   2        2S         -0.27249   0.13693   0.03733  -0.95315  -0.97562
   3        2PX         0.04769  -0.27348  -0.14430   0.01588  -0.06638
   4        2PY         0.20103  -0.03628  -0.12027  -0.14043  -0.19472
   5        2PZ         0.00000  -0.00002  -0.00001  -0.00000   0.00000
   6        3S         -0.92889  -0.72320  -0.76187   1.78951   1.97548
   7        3PX         0.99357   2.07141   0.65939   0.17289   0.22435
   8        3PY        -1.39905   0.22777  -0.03243  -0.05038   0.68421
   9        3PZ         0.00015   0.00018   0.00005  -0.00000  -0.00002
  10 2   C  1S         -0.00569  -0.00545  -0.00302   0.00678  -0.00235
  11        2S         -0.33560   0.56939  -0.01407  -0.32972   0.62568
  12        2PX        -0.07907   0.24040   0.02920   0.31200   0.02601
  13        2PY        -0.01777  -0.03154   0.27714   0.02330  -0.03274
  14        2PZ        -0.00000   0.00002   0.00000   0.00002  -0.00000
  15        3S          1.79993  -1.34565   0.55145  -0.09875  -1.04247
  16        3PX        -0.79243  -1.65318  -1.45634  -1.16750  -0.86624
  17        3PY        -0.94689  -0.44909  -1.30091  -0.08854   0.38579
  18        3PZ        -0.00007  -0.00013  -0.00008  -0.00008  -0.00005
  19 3   C  1S          0.01865  -0.00096   0.01855  -0.00031   0.00006
  20        2S         -0.67825   0.03413  -0.80144  -0.01056   0.77690
  21        2PX        -0.01191  -0.40825  -0.00701  -0.02861   0.00381
  22        2PY        -0.08907  -0.00539  -0.14006  -0.00314  -0.27421
  23        2PZ         0.00000  -0.00003   0.00002  -0.00000   0.00002
  24        3S          0.09471   0.00887   0.30985   0.01449  -1.58496
  25        3PX         0.01504   0.81108  -0.00240  -0.09054  -0.00817
  26        3PY         1.20602  -0.03029   2.32224   0.01340   1.44441
  27        3PZ        -0.00003   0.00005  -0.00012  -0.00001  -0.00008
  28 4   C  1S         -0.00516   0.00533  -0.00270  -0.00636  -0.00346
  29        2S         -0.36440  -0.54171  -0.03192   0.33665   0.59428
  30        2PX         0.09118   0.24299  -0.03581   0.31212  -0.03187
  31        2PY        -0.01731   0.04019   0.27173  -0.00937  -0.03690
  32        2PZ         0.00001   0.00001  -0.00001   0.00002  -0.00001
  33        3S          1.87983   1.23810   0.58704   0.09838  -0.98954
  34        3PX         0.72422  -1.76964   1.46114  -1.15171   0.90184
  35        3PY        -0.88931   0.45539  -1.22113   0.03709   0.40168
  36        3PZ         0.00002  -0.00008   0.00013  -0.00006   0.00008
  37 5   C  1S          0.00549   0.00314   0.00377  -0.00895   0.00151
  38        2S         -0.29180  -0.11232   0.01907   0.94506  -0.97112
  39        2PX        -0.06679  -0.28074   0.14337   0.00998   0.07115
  40        2PY         0.20080   0.01941  -0.11642   0.14297  -0.19543
  41        2PZ        -0.00002  -0.00000   0.00000   0.00001   0.00000
  42        3S         -0.84575   0.74827  -0.71302  -1.78732   1.93355
  43        3PX        -0.82340   2.17872  -0.61538   0.15451  -0.27733
  44        3PY        -1.44523  -0.09050  -0.03940   0.03861   0.67517
  45        3PZ         0.00006   0.00002  -0.00003  -0.00003  -0.00002
  46 6   N  1S         -0.06085   0.00212   0.00322  -0.00062   0.00870
  47        2S          0.21236  -0.00586  -0.05773   0.00029  -0.03309
  48        2PX        -0.00854  -0.39640  -0.01197   0.49689   0.00602
  49        2PY        -0.69469   0.00402   0.54698   0.00416  -0.09360
  50        2PZ         0.00008  -0.00009  -0.00002   0.00001  -0.00002
  51        3S          0.40730  -0.01815   0.68868   0.00092  -0.22008
  52        3PX         0.04001   1.34526   0.01994  -1.01735  -0.01400
  53        3PY         1.54346  -0.01968  -0.57338  -0.00422  -0.12170
  54        3PZ        -0.00010   0.00019   0.00004  -0.00003   0.00003
  55 7   H  1S         -0.15856   0.00206  -0.59729  -0.00373  -0.29246
  56        2S         -0.60726   0.02363  -0.93778  -0.00870  -0.33140
  57 8   H  1S         -0.32851  -0.37533  -0.02521  -0.17017  -0.04463
  58        2S         -0.51216  -0.48971  -0.19502  -0.34633  -0.28981
  59 9   H  1S          0.33985   0.55517   0.54601   0.32967   0.20169
  60        2S          0.03011   0.70803   0.53818   0.36775   0.37316
  61 10  H  1S          0.30614  -0.59179   0.53019  -0.32243   0.21068
  62        2S         -0.00865  -0.72206   0.52096  -0.35752   0.37801
  63 11  H  1S         -0.31149   0.40182  -0.01580   0.16684  -0.04945
  64        2S         -0.48656   0.53691  -0.18703   0.33236  -0.29163
                          61        62        63        64
                           V         V         V         V
     Eigenvalues --     1.97506   2.24595   2.30165   3.23925
   1 1   C  1S          0.00724   0.02623  -0.01604   0.03962
   2        2S          0.08397   0.96146  -0.13043   0.11304
   3        2PX         0.12451  -0.29621  -0.01944   0.14280
   4        2PY        -0.00667   0.02613   0.13614   0.08670
   5        2PZ         0.00001  -0.00003  -0.00001   0.00001
   6        3S         -1.99791  -1.94419   2.16579  -2.83956
   7        3PX         0.83132   1.07839  -0.54800   2.02281
   8        3PY         0.66838  -2.08830   1.04485  -0.81469
   9        3PZ         0.00010   0.00009  -0.00006   0.00022
  10 2   C  1S         -0.00585  -0.02637   0.05235  -0.05054
  11        2S         -1.01647  -0.70092   1.09505  -0.46148
  12        2PX         0.23563   0.13168  -0.01092   0.05172
  13        2PY         0.04745  -0.02298  -0.20595  -0.00972
  14        2PZ         0.00002   0.00001  -0.00000   0.00000
  15        3S          1.79801   2.75069  -5.14927   3.28709
  16        3PX        -1.30983  -1.02143   2.57047  -2.31891
  17        3PY        -0.16221  -1.33331   1.38802  -0.96756
  18        3PZ        -0.00012  -0.00005   0.00017  -0.00018
  19 3   C  1S         -0.00056   0.00023  -0.06449   0.04293
  20        2S          0.00971   0.01626  -1.43292   0.37923
  21        2PX        -0.06041  -0.20587  -0.00480   0.00027
  22        2PY        -0.00467  -0.00661   0.20495  -0.01204
  23        2PZ        -0.00001  -0.00002  -0.00001   0.00000
  24        3S         -0.02020  -0.05304   6.08330  -3.74043
  25        3PX        -0.78209   0.02828   0.06369  -0.03574
  26        3PY        -0.00403   0.03753  -3.84476   2.20327
  27        3PZ        -0.00005  -0.00001   0.00013  -0.00006
  28 4   C  1S          0.00617   0.02527   0.05331  -0.05057
  29        2S          1.03325   0.69290   1.09957  -0.46202
  30        2PX         0.23606   0.13359   0.01579  -0.05130
  31        2PY        -0.04211   0.02833  -0.20424  -0.01072
  32        2PZ         0.00002   0.00001   0.00000  -0.00001
  33        3S         -1.84949  -2.71143  -5.17125   3.28346
  34        3PX        -1.30915  -1.02400  -2.60708   2.33799
  35        3PY         0.16254   1.30525   1.35532  -0.92074
  36        3PZ        -0.00008  -0.00005  -0.00017   0.00013
  37 5   C  1S         -0.00822  -0.02498  -0.01565   0.04082
  38        2S         -0.10978  -0.96635  -0.15101   0.11750
  39        2PX         0.13062  -0.29985   0.00901  -0.14292
  40        2PY         0.00335  -0.03692   0.13382   0.08204
  41        2PZ         0.00000  -0.00001   0.00000  -0.00002
  42        3S          2.05957   1.96750   2.23342  -2.83335
  43        3PX         0.84771   1.01865   0.53987  -1.98077
  44        3PY        -0.60308   2.11837   1.09703  -0.88368
  45        3PZ         0.00004   0.00002   0.00002  -0.00005
  46 6   N  1S          0.00021   0.00057   0.03044  -0.05191
  47        2S         -0.00361   0.00400  -0.40040  -2.02202
  48        2PX        -0.69461   0.65094   0.00428   0.00346
  49        2PY        -0.00440   0.00574  -0.08729  -0.22848
  50        2PZ        -0.00005   0.00004  -0.00000  -0.00000
  51        3S          0.01443  -0.00749  -0.19662   4.96907
  52        3PX         2.31157  -1.44977  -0.00085  -0.01045
  53        3PY         0.01807  -0.01602  -0.19863   1.73003
  54        3PZ         0.00017  -0.00008  -0.00000   0.00005
  55 7   H  1S         -0.00050  -0.00384   0.31926  -0.09825
  56        2S         -0.00115  -0.00764   0.66858  -0.44684
  57 8   H  1S          0.17840  -0.34122   0.04485  -0.12929
  58        2S          0.09193  -0.49688   0.09022  -0.51155
  59 9   H  1S          0.18794   0.11133  -0.19361   0.20798
  60        2S          0.12346   0.28227  -0.46975   0.56627
  61 10  H  1S         -0.18664  -0.10888  -0.19544   0.20847
  62        2S         -0.12137  -0.27762  -0.47338   0.56824
  63 11  H  1S         -0.17725   0.33988   0.04826  -0.12881
  64        2S         -0.09412   0.49444   0.09781  -0.50778
     Density Matrix:
                           1         2         3         4         5
   1 1   C  1S          2.03553
   2        2S          0.09273   0.12763
   3        2PX        -0.00566  -0.00010   0.30082
   4        2PY        -0.00229   0.00876  -0.00713   0.33264
   5        2PZ        -0.00000   0.00000   0.00001  -0.00000   0.20554
   6        3S         -0.32570   0.20979   0.07923  -0.03555   0.00001
   7        3PX        -0.03588   0.03398   0.19565  -0.06644  -0.00000
   8        3PY        -0.05037   0.02617  -0.08057   0.13299  -0.00001
   9        3PZ        -0.00000   0.00000  -0.00001  -0.00001   0.22858
  10 2   C  1S          0.01893  -0.03171   0.00002  -0.07788   0.00000
  11        2S         -0.02815   0.02574  -0.00074   0.07903  -0.00000
  12        2PX        -0.00079  -0.00150   0.01411   0.00350  -0.00001
  13        2PY         0.07727  -0.08359  -0.00463  -0.25184   0.00000
  14        2PZ        -0.00000   0.00000  -0.00002   0.00001   0.14021
  15        3S          0.01865   0.03380   0.01691   0.24069   0.00000
  16        3PX         0.04322  -0.03915  -0.00784  -0.01868  -0.00001
  17        3PY        -0.01469  -0.02390  -0.02566  -0.19720   0.00000
  18        3PZ         0.00000  -0.00000  -0.00002   0.00000   0.15226
  19 3   C  1S         -0.00454   0.00244  -0.00250   0.01175  -0.00000
  20        2S         -0.00038  -0.00215   0.00251  -0.01274   0.00000
  21        2PX         0.00688  -0.00771   0.00802  -0.02876   0.00000
  22        2PY        -0.00862   0.01004  -0.00368   0.02928  -0.00000
  23        2PZ         0.00000  -0.00000   0.00000  -0.00000   0.00247
  24        3S          0.06098  -0.04877   0.03519  -0.06823   0.00000
  25        3PX         0.02467  -0.01723   0.01815  -0.02583   0.00000
  26        3PY        -0.04247   0.03458  -0.00775   0.08375  -0.00000
  27        3PZ         0.00000  -0.00000   0.00000  -0.00000  -0.00786
  28 4   C  1S         -0.00327   0.00287  -0.00570   0.00261  -0.00000
  29        2S          0.00689  -0.00545   0.00834  -0.00256   0.00000
  30        2PX         0.00644  -0.00743   0.00786  -0.01657   0.00000
  31        2PY        -0.00333   0.00273  -0.01577  -0.01375  -0.00000
  32        2PZ         0.00000  -0.00000   0.00001   0.00000  -0.08177
  33        3S         -0.03458   0.01142   0.00034   0.01227  -0.00000
  34        3PX        -0.02807   0.01679  -0.02488  -0.01587   0.00000
  35        3PY         0.02438  -0.01164   0.00214  -0.01851  -0.00000
  36        3PZ        -0.00000  -0.00000   0.00001   0.00000  -0.11723
  37 5   C  1S         -0.00651  -0.00090  -0.01395  -0.00533  -0.00000
  38        2S         -0.00096  -0.00311   0.01671   0.00574   0.00000
  39        2PX         0.01404  -0.01710   0.05522   0.01827   0.00001
  40        2PY        -0.00497   0.00537  -0.01671  -0.00375  -0.00000
  41        2PZ         0.00000  -0.00000   0.00000   0.00000  -0.01902
  42        3S          0.04982  -0.02968   0.08686   0.01051   0.00001
  43        3PX         0.05274  -0.03448   0.09078   0.02632   0.00001
  44        3PY         0.03688  -0.01421   0.01077  -0.00146   0.00000
  45        3PZ         0.00000  -0.00000   0.00001   0.00000  -0.02692
  46 6   N  1S          0.01472  -0.01949   0.04746   0.02402   0.00001
  47        2S         -0.00960   0.01235  -0.04265  -0.02296  -0.00001
  48        2PX        -0.06021   0.06512  -0.17635  -0.11341  -0.00003
  49        2PY        -0.04045   0.04891  -0.12672  -0.06741  -0.00002
  50        2PZ        -0.00001   0.00001  -0.00003  -0.00001   0.14085
  51        3S         -0.03752   0.04320  -0.16906  -0.08479  -0.00002
  52        3PX        -0.04875   0.04820  -0.15490  -0.09143  -0.00003
  53        3PY        -0.05330   0.05858  -0.13695  -0.11817  -0.00002
  54        3PZ        -0.00001   0.00000  -0.00003  -0.00001   0.15588
  55 7   H  1S         -0.00672   0.00766  -0.00037   0.02437   0.00000
  56        2S          0.00241   0.00288  -0.00327   0.02145   0.00000
  57 8   H  1S         -0.06863   0.06801   0.17124  -0.12148   0.00002
  58        2S          0.00142   0.02228   0.10468  -0.09714   0.00001
  59 9   H  1S          0.00773  -0.01156  -0.01201  -0.03075  -0.00000
  60        2S          0.00836  -0.00901  -0.01949  -0.04728  -0.00000
  61 10  H  1S         -0.00301   0.00224  -0.00243   0.00113  -0.00000
  62        2S         -0.01327   0.00993  -0.01205  -0.00545  -0.00000
  63 11  H  1S         -0.00541   0.00871  -0.02588  -0.01529  -0.00000
  64        2S          0.01084   0.00183  -0.02486  -0.02015  -0.00000
                           6         7         8         9        10
   6        3S          0.55656
   7        3PX         0.09294   0.18575
   8        3PY         0.05336  -0.08246   0.10489
   9        3PZ         0.00001  -0.00001  -0.00001   0.25706
  10 2   C  1S          0.06407  -0.01845   0.02183  -0.00000   2.03870
  11        2S          0.02035  -0.00964   0.02097  -0.00000   0.10295
  12        2PX         0.01785  -0.03266   0.02407  -0.00002  -0.00046
  13        2PY        -0.16846   0.02831  -0.13106   0.00000   0.00183
  14        2PZ         0.00001  -0.00002   0.00001   0.14202   0.00000
  15        3S         -0.09774  -0.00814   0.01647   0.00000  -0.42468
  16        3PX        -0.05393  -0.06504   0.00708  -0.00002   0.04650
  17        3PY        -0.01341   0.00465  -0.06386   0.00000   0.03073
  18        3PZ         0.00000  -0.00002   0.00000   0.15460   0.00000
  19 3   C  1S          0.00370  -0.00310   0.01537  -0.00000   0.01816
  20        2S         -0.01812   0.01134  -0.01978   0.00000  -0.03184
  21        2PX        -0.05858   0.04691  -0.05048   0.00001  -0.06638
  22        2PY         0.03992  -0.00988   0.03879  -0.00000   0.03746
[...]
  35        3PY         0.11078   0.00000   0.00000   0.00000   0.17683
  36        3PZ         0.00000   0.13006   0.00000   0.00000   0.00000
  37 5   C  1S         -0.00122  -0.00000   0.00103  -0.00017   0.00182
  38        2S          0.01463   0.00000   0.00932   0.00070   0.01141
  39        2PX         0.00013   0.00000   0.00019  -0.00177   0.00043
  40        2PY         0.06424   0.00000   0.05069   0.00033   0.03975
  41        2PZ         0.00000   0.00851   0.00000   0.00000   0.00000
  42        3S          0.03539   0.00000  -0.05341   0.00115   0.00539
  43        3PX        -0.00035   0.00000  -0.00013  -0.03386  -0.00008
  44        3PY         0.02686   0.00000   0.00888  -0.00020   0.01015
  45        3PZ        -0.00000   0.02700  -0.00000   0.00000   0.00000
  46 6   N  1S          0.00000  -0.00000  -0.00030  -0.00038  -0.00031
  47        2S         -0.00000   0.00000   0.00077   0.00022   0.00082
  48        2PX        -0.00001   0.00000  -0.00105  -0.00037  -0.00274
  49        2PY        -0.00005  -0.00000  -0.00347   0.00093  -0.00591
  50        2PZ        -0.00000  -0.00000  -0.00000  -0.00000  -0.00000
  51        3S         -0.00046   0.00000   0.01527   0.00486   0.01041
  52        3PX        -0.00096  -0.00000  -0.00598  -0.00084  -0.01180
  53        3PY        -0.00501  -0.00000  -0.03121   0.00564  -0.03509
  54        3PZ        -0.00000  -0.00028  -0.00000  -0.00000  -0.00000
  55 7   H  1S         -0.00010   0.00000  -0.00181  -0.00015  -0.00520
  56        2S         -0.00176  -0.00000  -0.00828  -0.00165  -0.00923
  57 8   H  1S         -0.00000   0.00000  -0.00000  -0.00000  -0.00001
  58        2S         -0.00001   0.00000  -0.00031  -0.00018  -0.00038
  59 9   H  1S          0.00000  -0.00000   0.00002   0.00012   0.00001
  60        2S          0.00001  -0.00000   0.00006   0.00187   0.00016
  61 10  H  1S          0.01400   0.00000   0.06138   0.07351   0.02143
  62        2S          0.00804   0.00000   0.03686   0.05739   0.01972
  63 11  H  1S         -0.00015  -0.00000  -0.00382  -0.00216  -0.00677
  64        2S         -0.00418  -0.00000  -0.01917  -0.00233  -0.02007
                          36        37        38        39        40
  36        3PZ         0.28443
  37 5   C  1S         -0.00000   2.03551
  38        2S          0.00000   0.01778   0.12740
  39        2PX        -0.00000   0.00000   0.00000   0.29794
  40        2PY         0.00000   0.00000   0.00000   0.00000   0.33385
  41        2PZ         0.02894   0.00000   0.00000   0.00000   0.00000
  42        3S          0.00000  -0.05908   0.16025   0.00000   0.00000
  43        3PX         0.00000   0.00000   0.00000   0.10206   0.00000
  44        3PY         0.00000   0.00000   0.00000   0.00000   0.07218
  45        3PZ         0.08326   0.00000   0.00000   0.00000   0.00000
  46 6   N  1S         -0.00000   0.00000  -0.00008  -0.00053  -0.00014
  47        2S          0.00000  -0.00001   0.00080   0.00479   0.00135
  48        2PX        -0.00000  -0.00021   0.00628   0.02442   0.01045
  49        2PY         0.00000  -0.00008   0.00250   0.01172   0.00103
  50        2PZ        -0.00046  -0.00000   0.00000   0.00000   0.00000
  51        3S          0.00000  -0.00148   0.01016   0.03521   0.00914
  52        3PX        -0.00000  -0.00450   0.01947   0.03004   0.01811
  53        3PY        -0.00000  -0.00264   0.01267   0.02751  -0.00693
  54        3PZ        -0.00518  -0.00000   0.00000   0.00000   0.00000
  55 7   H  1S         -0.00000  -0.00000   0.00000  -0.00000   0.00000
  56        2S         -0.00000   0.00000   0.00001   0.00000   0.00007
  57 8   H  1S          0.00000  -0.00000   0.00000   0.00000   0.00000
  58        2S          0.00000   0.00000   0.00000   0.00011   0.00001
  59 9   H  1S         -0.00000  -0.00000   0.00000   0.00000   0.00000
  60        2S         -0.00000  -0.00000   0.00000   0.00001  -0.00000
  61 10  H  1S          0.00000   0.00000  -0.00002  -0.00003  -0.00013
  62        2S          0.00000   0.00009  -0.00069  -0.00077  -0.00327
  63 11  H  1S         -0.00000  -0.00148   0.01412   0.04274   0.02215
  64        2S         -0.00000   0.00009   0.00918   0.01981   0.01347
                          41        42        43        44        45
  41        2PZ         0.20605
  42        3S          0.00000   0.56139
  43        3PX         0.00000   0.00000   0.18231
  44        3PY         0.00000   0.00000   0.00000   0.10891
  45        3PZ         0.12123   0.00000   0.00000   0.00000   0.25779
  46 6   N  1S         -0.00000   0.00421   0.00540  -0.00174   0.00000
  47        2S          0.00000  -0.00630  -0.00172   0.00504  -0.00000
  48        2PX         0.00000   0.01972   0.01068  -0.00315   0.00000
  49        2PY         0.00000   0.00649   0.00201   0.00439  -0.00000
  50        2PZ         0.00501   0.00000   0.00000  -0.00000   0.01995
  51        3S          0.00000  -0.07228  -0.02103   0.02989  -0.00000
  52        3PX         0.00000   0.05268   0.00747  -0.00688   0.00000
  53        3PY         0.00000   0.02857   0.00051   0.01780  -0.00000
  54        3PZ         0.02631   0.00000   0.00000  -0.00000   0.07962
  55 7   H  1S         -0.00000   0.00002   0.00000   0.00009  -0.00000
  56        2S         -0.00000   0.00031   0.00015   0.00121  -0.00000
  57 8   H  1S          0.00000   0.00005   0.00017  -0.00000   0.00000
  58        2S          0.00000   0.00079   0.00207  -0.00014   0.00000
  59 9   H  1S          0.00000   0.00000  -0.00001   0.00000  -0.00000
  60        2S         -0.00000   0.00014  -0.00017   0.00009  -0.00000
  61 10  H  1S         -0.00000  -0.00228  -0.00192  -0.00178  -0.00000
  62        2S         -0.00000  -0.00592  -0.00303  -0.00344  -0.00000
  63 11  H  1S          0.00000   0.07220   0.06640   0.02136  -0.00000
  64        2S         -0.00000   0.06616   0.04429   0.01633  -0.00000
                          46        47        48        49        50
  46 6   N  1S          2.05774
  47        2S          0.02131   0.11072
  48        2PX         0.00000   0.00000   0.31182
  49        2PY         0.00000   0.00000   0.00000   0.44700
  50        2PZ         0.00000   0.00000   0.00000   0.00000   0.24053
  51        3S         -0.10238   0.24279   0.00000   0.00000   0.00000
  52        3PX         0.00000   0.00000   0.13489   0.00000   0.00000
  53        3PY         0.00000   0.00000   0.00000   0.26723   0.00000
  54        3PZ         0.00000   0.00000   0.00000   0.00000   0.14165
  55 7   H  1S          0.00000  -0.00000   0.00000   0.00000  -0.00000
  56        2S          0.00000  -0.00000   0.00000   0.00000  -0.00000
  57 8   H  1S          0.00000  -0.00001  -0.00005   0.00000  -0.00000
  58        2S          0.00043  -0.00170  -0.00144   0.00014  -0.00000
  59 9   H  1S         -0.00000   0.00000   0.00000   0.00000   0.00000
  60        2S         -0.00000   0.00001   0.00002   0.00007   0.00000
  61 10  H  1S         -0.00000   0.00000   0.00000   0.00000  -0.00000
  62        2S         -0.00000   0.00001   0.00002   0.00007  -0.00000
  63 11  H  1S          0.00000  -0.00001  -0.00005   0.00000  -0.00000
  64        2S          0.00042  -0.00164  -0.00135   0.00007   0.00000
                          51        52        53        54        55
  51        3S          1.33561
  52        3PX         0.00000   0.22052
  53        3PY         0.00000   0.00000   0.61400
  54        3PZ         0.00000   0.00000   0.00000   0.31512
  55 7   H  1S          0.00000   0.00000  -0.00000  -0.00000   0.18578
  56        2S         -0.00004   0.00000   0.00003  -0.00000   0.07282
  57 8   H  1S         -0.00240  -0.00319   0.00025  -0.00000  -0.00000
  58        2S         -0.02213  -0.00823   0.00110  -0.00000  -0.00000
  59 9   H  1S          0.00000   0.00001   0.00002   0.00000  -0.00000
  60        2S          0.00033   0.00032   0.00166   0.00000  -0.00027
  61 10  H  1S          0.00000   0.00001   0.00002  -0.00000  -0.00000
  62        2S          0.00033   0.00036   0.00158  -0.00000  -0.00026
  63 11  H  1S         -0.00234  -0.00304   0.00012  -0.00000  -0.00000
  64        2S         -0.02165  -0.00762   0.00055   0.00000  -0.00000
                          56        57        58        59        60
  56        2S          0.07418
  57 8   H  1S         -0.00000   0.19108
  58        2S         -0.00003   0.07514   0.08419
  59 9   H  1S         -0.00025  -0.00000  -0.00013   0.18529
  60        2S         -0.00072  -0.00010   0.00044   0.07480   0.08068
  61 10  H  1S         -0.00025   0.00000   0.00000  -0.00000  -0.00000
  62        2S         -0.00070   0.00000   0.00000  -0.00000  -0.00001
  63 11  H  1S         -0.00000  -0.00000  -0.00000   0.00000   0.00000
  64        2S         -0.00003  -0.00000   0.00004   0.00000   0.00000
                          61        62        63        64
  61 10  H  1S          0.18524
  62        2S          0.07466   0.08033
  63 11  H  1S         -0.00000  -0.00011   0.19058
  64        2S         -0.00014   0.00040   0.07519   0.08422
     Gross orbital populations:
                           1
   1 1   C  1S          1.98720
   2        2S          0.40877
   3        2PX         0.58331
   4        2PY         0.62504
   5        2PZ         0.39349
   6        3S          0.75196
   7        3PX         0.29589
   8        3PY         0.26669
   9        3PZ         0.56416
  10 2   C  1S          1.98837
  11        2S          0.39768
  12        2PX         0.60226
  13        2PY         0.62305
  14        2PZ         0.41218
  15        3S          0.91878
  16        3PX         0.46565
  17        3PY         0.31566
  18        3PZ         0.61216
  19 3   C  1S          1.98823
  20        2S          0.40113
  21        2PX         0.62887
  22        2PY         0.59911
  23        2PZ         0.38426
  24        3S          0.87770
  25        3PX         0.25032
  26        3PY         0.48274
  27        3PZ         0.56171
  28 4   C  1S          1.98837
  29        2S          0.39775
  30        2PX         0.60000
  31        2PY         0.62561
  32        2PZ         0.41230
  33        3S          0.91824
  34        3PX         0.47496
  35        3PY         0.30579
  36        3PZ         0.61194
  37 5   C  1S          1.98720
  38        2S          0.40826
  39        2PX         0.57847
  40        2PY         0.62720
  41        2PZ         0.39422
  42        3S          0.75600
  43        3PX         0.29334
  44        3PY         0.27148
  45        3PZ         0.56557
  46 6   N  1S          1.99029
  47        2S          0.38274
  48        2PX         0.57083
  49        2PY         0.75539
  50        2PZ         0.43195
  51        3S          1.45024
  52        3PX         0.52219
  53        3PY         0.90582
  54        3PZ         0.65605
  55 7   H  1S          0.47863
  56        2S          0.26653
  57 8   H  1S          0.48626
  58        2S          0.25432
  59 9   H  1S          0.47791
  60        2S          0.27472
  61 10  H  1S          0.47783
  62        2S          0.27438
  63 11  H  1S          0.48524
  64        2S          0.25559
          Condensed to atoms (all electrons):
               1          2          3          4          5          6
     1  C    4.933429   0.368571  -0.107379  -0.002145  -0.128198   0.423814
     2  C    0.368571   5.415656   0.425317  -0.093131  -0.002897  -0.075666
     3  C   -0.107379   0.425317   5.221574   0.421804  -0.107930  -0.023956
     4  C   -0.002145  -0.093131   0.421804   5.415337   0.370480  -0.075488
     5  C   -0.128198  -0.002897  -0.107930   0.370480   4.939975   0.421688
     6  N    0.423814  -0.075666  -0.023956  -0.075488   0.421688   7.064046
     7  H    0.001865  -0.030427   0.398941  -0.030200   0.001869  -0.000003
     8  H    0.406648  -0.059926   0.003107  -0.000883   0.003071  -0.037222
     9  H   -0.023144   0.386862  -0.030446   0.002327   0.000068   0.002439
    10  H    0.000055   0.002311  -0.030082   0.386901  -0.023219   0.002406
    11  H    0.003005  -0.000877   0.003117  -0.060035   0.406821  -0.036551
               7          8          9         10         11
     1  C    0.001865   0.406648  -0.023144   0.000055   0.003005
     2  C   -0.030427  -0.059926   0.386862   0.002311  -0.000877
     3  C    0.398941   0.003107  -0.030446  -0.030082   0.003117
     4  C   -0.030200  -0.000883   0.002327   0.386901  -0.060035
     5  C    0.001869   0.003071   0.000068  -0.023219   0.406821
     6  N   -0.000003  -0.037222   0.002439   0.002406  -0.036551
     7  H    0.405610  -0.000026  -0.001240  -0.001201  -0.000026
     8  H   -0.000026   0.425563   0.000205   0.000004   0.000040
     9  H   -0.001240   0.000205   0.415575  -0.000015   0.000004
    10  H   -0.001201   0.000004  -0.000015   0.414900   0.000148
    11  H   -0.000026   0.000040   0.000004   0.000148   0.425181
 Mulliken charges:
               1
     1  C    0.123478
     2  C   -0.335794
     3  C   -0.174067
     4  C   -0.334968
     5  C    0.118271
     6  N   -0.665507
     7  H    0.254838
     8  H    0.259418
     9  H    0.247364
    10  H    0.247792
    11  H    0.259174
 Sum of Mulliken charges =  -0.00000
 Mulliken charges with hydrogens summed into heavy atoms:
               1
     1  C    0.382897
     2  C   -0.088430
     3  C    0.080771
     4  C   -0.087176
     5  C    0.377446
     6  N   -0.665507
 Electronic spatial extent (au):  <R**2>=            430.0226
 Charge=             -0.0000 electrons
 Dipole moment (field-independent basis, Debye):
    X=             -0.0292    Y=              2.3560    Z=              0.0001  Tot=              2.3561
 Quadrupole moment (field-independent basis, Debye-Ang):
   XX=            -28.6952   YY=            -36.6682   ZZ=            -38.8179
   XY=              0.0898   XZ=              0.0006   YZ=             -0.0004
 Traceless Quadrupole moment (field-independent basis, Debye-Ang):
   XX=              6.0319   YY=             -1.9411   ZZ=             -4.0908
   XY=              0.0898   XZ=              0.0006   YZ=             -0.0004
 Octapole moment (field-independent basis, Debye-Ang**2):
  XXX=              0.1299  YYY=             15.5083  ZZZ=              0.0000  XYY=             -0.3185
  XXY=             -2.9758  XXZ=              0.0007  XZZ=              0.0437  YZZ=             -1.9047
  YYZ=             -0.0001  XYZ=              0.0001
 Hexadecapole moment (field-independent basis, Debye-Ang**3):
 XXXX=           -240.4507 YYYY=           -265.8038 ZZZZ=            -39.3598 XXXY=             -0.1421
 XXXZ=             -0.0051 YYYX=              0.5902 YYYZ=             -0.0012 ZZZX=             -0.0095
 ZZZY=              0.0008 XXYY=            -75.5288 XXZZ=            -58.1623 YYZZ=            -53.9827
 XXYZ=             -0.0006 YYXZ=             -0.0017 ZZXY=             -0.0437
 N-N= 2.075237449086D+02 E-N=-9.863778146365D+02  KE= 2.448536449143D+02
 Orbital energies and kinetic energies (alpha):
                                 1                 2
   1         O               -15.490911         21.929111
   2         O               -11.216813         15.871927
   3         O               -11.216332         15.867290
   4         O               -11.200950         15.874631
   5         O               -11.186576         15.871615
   6         O               -11.186436         15.875745
   7         O                -1.267504          1.798419
   8         O                -1.091744          1.708080
   9         O                -1.044936          1.644634
  10         O                -0.864703          1.560169
  11         O                -0.856762          1.550422
  12         O                -0.733797          0.999949
  13         O                -0.665035          1.547732
  14         O                -0.655401          1.273008
  15         O                -0.615293          1.207640
  16         O                -0.575480          1.365536
  17         O                -0.545761          0.983400
  18         O                -0.521350          1.420059
  19         O                -0.398096          1.844045
  20         O                -0.379934          1.181360
  21         O                -0.358757          1.052051
  22         V                 0.128414          1.406093
  23         V                 0.141071          1.240166
  24         V                 0.263212          0.923280
  25         V                 0.315663          0.947838
  26         V                 0.338399          1.148435
  27         V                 0.361768          1.157991
  28         V                 0.362373          1.614316
  29         V                 0.366349          1.193266
  30         V                 0.444229          1.775093
  31         V                 0.495732          1.489899
  32         V                 0.532506          1.626790
  33         V                 0.548401          1.892487
  34         V                 0.733598          1.534780
  35         V                 0.759773          2.790182
  36         V                 0.912954          2.550900
  37         V                 0.934926          2.297224
  38         V                 0.938695          2.555545
  39         V                 0.994933          2.838190
  40         V                 1.032799          2.629295
  41         V                 1.039652          3.017719
  42         V                 1.040297          2.675525
  43         V                 1.092413          2.770341
  44         V                 1.093563          2.858386
  45         V                 1.114580          2.790746
  46         V                 1.125845          3.045555
  47         V                 1.126543          2.803179
  48         V                 1.285643          3.406118
  49         V                 1.300679          3.294400
  50         V                 1.364783          3.273816
  51         V                 1.391932          3.326110
  52         V                 1.485062          3.009759
  53         V                 1.515214          2.923719
  54         V                 1.547538          3.921605
  55         V                 1.621926          2.972438
  56         V                 1.652215          3.297798
  57         V                 1.674129          2.952464
  58         V                 1.697386          3.029458
  59         V                 1.736550          3.328630
  60         V                 1.837304          3.213271
  61         V                 1.975061          3.568915
  62         V                 2.245949          3.701407
  63         V                 2.301652          3.502168
  64         V                 3.239247          5.037653
 Total kinetic energy from orbitals= 2.448536449143D+02
 1\1\GINC-IISERK51\SP\RHF\3-21G\C5H5N1\GAUSSIAN\16-Jun-2025\0\\# hf/3-2
 1g pop=full geom=connectivity\\Title Card Required\\0,1\C,0,-1.313242,
 1.218621,0.000022\C,0,-2.688836,1.222578,0.000004\C,0,-3.363553,0.0171
 77,-0.000098\C,0,-2.641668,-1.167049,-0.00016\C,0,-1.273541,-1.109397,
 -0.000154\N,0,-0.62288,0.070782,-0.000102\H,0,-4.434185,-0.003786,-0.0
 00171\H,0,-0.743493,2.11839,0.000121\H,0,-3.210584,2.155079,0.000078\H
 ,0,-3.129369,-2.117761,-0.000227\H,0,-0.666236,-1.986403,-0.000119\\Ve
 rsion=EM64L-G16RevB.01\State=1-A\HF=-245.310912\RMSD=6.577e-09\Dipole=
 -0.9268256,-0.0167891,0.0000353\Quadrupole=-1.4421872,4.4836042,-3.041
 417,-0.1005349,0.0003205,0.0004726\PG=C01 [X(C5H5N1)]\\@


 TIMES HAVE CHANGED. IN THE BIBLE WHEN AN ASS
 SPOKE IT WAS CONSIDERED A MIRACLE.
 Job cpu time:       0 days  0 hours  0 minutes  0.7 seconds.
 Elapsed time:       0 days  0 hours  0 minutes  0.7 seconds.
 File lengths (MBytes):  RWF=      6 Int=      0 D2E=      0 Chk=      1 Scr=      1
 Normal termination of Gaussian 16 at Mon Jun 16 22:33:25 2025.
