 Entering Gaussian System, Link 0=g16
 Input=/home/gaussian/Documents/Summer_Internship/Acid_Base_adduct/Acid/AlCl3/MX4-/AlCl4_ion_sp.com
 Output=/home/gaussian/Documents/Summer_Internship/Acid_Base_adduct/Acid/AlCl3/MX4-/AlCl4_ion_sp.log
 Initial command:
 /usr/local/g16/l1.exe "/home/gaussian/tmp/Gau-31302.inp" -scrdir="/home/gaussian/tmp/"
 Entering Link 1 = /usr/local/g16/l1.exe PID=     31305.
  
 Copyright (c) 1988-2017, Gaussian, Inc.  All Rights Reserved.
  
 This is part of the Gaussian(R) 16 program.  It is based on
 the Gaussian(R) 09 system (copyright 2009, Gaussian, Inc.),
 the Gaussian(R) 03 system (copyright 2003, Gaussian, Inc.),
 the Gaussian(R) 98 system (copyright 1998, Gaussian, Inc.),
 the Gaussian(R) 94 system (copyright 1995, Gaussian, Inc.),
 the Gaussian 92(TM) system (copyright 1992, Gaussian, Inc.),
 the Gaussian 90(TM) system (copyright 1990, Gaussian, Inc.),
 the Gaussian 88(TM) system (copyright 1988, Gaussian, Inc.),
 the Gaussian 86(TM) system (copyright 1986, Carnegie Mellon
 University), and the Gaussian 82(TM) system (copyright 1983,
 Carnegie Mellon University). Gaussian is a federally registered
 trademark of Gaussian, Inc.
  
 This software contains proprietary and confidential information,
 including trade secrets, belonging to Gaussian, Inc.
  
 This software is provided under written license and may be
 used, copied, transmitted, or stored only in accord with that
 written license.
  
 The following legend is applicable only to US Government
 contracts under FAR:
  
                    RESTRICTED RIGHTS LEGEND
  
 Use, reproduction and disclosure by the US Government is
 subject to restrictions as set forth in subparagraphs (a)
 and (c) of the Commercial Computer Software - Restricted
 Rights clause in FAR 52.227-19.
  
 Gaussian, Inc.
 340 Quinnipiac St., Bldg. 40, Wallingford CT 06492
  
  
 ---------------------------------------------------------------
 Warning -- This program may not be used in any manner that
 competes with the business of Gaussian, Inc. or will provide
 assistance to any competitor of Gaussian, Inc.  The licensee
 of this program is prohibited from giving any competitor of
 Gaussian, Inc. access to this program.  By using this program,
 the user acknowledges that Gaussian, Inc. is engaged in the
 business of creating and licensing software in the field of
 computational chemistry and represents and warrants to the
 licensee that it is not a competitor of Gaussian, Inc. and that
 it will not use this program in any manner prohibited above.
 ---------------------------------------------------------------
  

 Cite this work as:
 Gaussian 16, Revision B.01,
 M. J. Frisch, G. W. Trucks, H. B. Schlegel, G. E. Scuseria, 
 M. A. Robb, J. R. Cheeseman, G. Scalmani, V. Barone, 
 G. A. Petersson, H. Nakatsuji, X. Li, M. Caricato, A. V. Marenich, 
 J. Bloino, B. G. Janesko, R. Gomperts, B. Mennucci, H. P. Hratchian, 
 J. V. Ortiz, A. F. Izmaylov, J. L. Sonnenberg, D. Williams-Young, 
 F. Ding, F. Lipparini, F. Egidi, J. Goings, B. Peng, A. Petrone, 
 T. Henderson, D. Ranasinghe, V. G. Zakrzewski, J. Gao, N. Rega, 
 G. Zheng, W. Liang, M. Hada, M. Ehara, K. Toyota, R. Fukuda, 
 J. Hasegawa, M. Ishida, T. Nakajima, Y. Honda, O. Kitao, H. Nakai, 
 T. Vreven, K. Throssell, J. A. Montgomery, Jr., J. E. Peralta, 
 F. Ogliaro, M. J. Bearpark, J. J. Heyd, E. N. Brothers, K. N. Kudin, 
 V. N. Staroverov, T. A. Keith, R. Kobayashi, J. Normand, 
 K. Raghavachari, A. P. Rendell, J. C. Burant, S. S. Iyengar, 
 J. Tomasi, M. Cossi, J. M. Millam, M. Klene, C. Adamo, R. Cammi, 
 J. W. Ochterski, R. L. Martin, K. Morokuma, O. Farkas, 
 J. B. Foresman, and D. J. Fox, Gaussian, Inc., Wallingford CT, 2016.
 
 ******************************************
 Gaussian 16:  EM64L-G16RevB.01 20-Dec-2017
                13-Jun-2025 
 ******************************************
 %chk=AlCl4_ion_sp.chk
 -------------------------------------
 # hf/3-21g pop=full geom=connectivity
 -------------------------------------
 1/38=1,57=2,172=1/1;
 2/12=2,17=6,18=5,40=1/2;
 3/5=5,11=9,25=1,30=1/1,2,3;
 4//1;
 5/5=2,38=5/2;
 6/7=3,28=1/1;
 99/5=1,9=1/99;
 -------------------
 Title Card Required
 -------------------
 Symbolic Z-matrix:
 Charge = -1 Multiplicity = 1
 Al                    0.        0.        0. 
 Cl                    1.29085   1.29085   1.29085 
 Cl                   -1.29085  -1.29085   1.29085 
 Cl                    1.29085  -1.29085  -1.29085 
 Cl                   -1.29085   1.29085  -1.29085 
 
                          Input orientation:                          
 ---------------------------------------------------------------------
 Center     Atomic      Atomic             Coordinates (Angstroms)
 Number     Number       Type             X           Y           Z
 ---------------------------------------------------------------------
      1         13           0        0.000000    0.000000    0.000000
      2         17           0        1.290854    1.290854    1.290854
      3         17           0       -1.290854   -1.290854    1.290854
      4         17           0        1.290854   -1.290854   -1.290854
      5         17           0       -1.290854    1.290854   -1.290854
 ---------------------------------------------------------------------
                    Distance matrix (angstroms):
                    1          2          3          4          5
     1  Al   0.000000
     2  Cl   2.235825   0.000000
     3  Cl   2.235825   3.651086   0.000000
     4  Cl   2.235825   3.651086   3.651086   0.000000
     5  Cl   2.235825   3.651086   3.651086   3.651086   0.000000
 Stoichiometry    AlCl4(1-)
 Framework group  TD[O(Al),4C3(Cl)]
 Deg. of freedom     1
 Full point group                 TD      NOp  24
 Largest Abelian subgroup         D2      NOp   4
 Largest concise Abelian subgroup D2      NOp   4
                         Standard orientation:                         
 ---------------------------------------------------------------------
 Center     Atomic      Atomic             Coordinates (Angstroms)
 Number     Number       Type             X           Y           Z
 ---------------------------------------------------------------------
      1         13           0        0.000000    0.000000    0.000000
      2         17           0        1.290854    1.290854    1.290854
      3         17           0       -1.290854   -1.290854    1.290854
      4         17           0        1.290854   -1.290854   -1.290854
      5         17           0       -1.290854    1.290854   -1.290854
 ---------------------------------------------------------------------
 Rotational constants (GHZ):           1.0841555           1.0841555           1.0841555
 Standard basis: 3-21G (6D, 7F)
 There are    17 symmetry adapted cartesian basis functions of A   symmetry.
 There are    16 symmetry adapted cartesian basis functions of B1  symmetry.
 There are    16 symmetry adapted cartesian basis functions of B2  symmetry.
 There are    16 symmetry adapted cartesian basis functions of B3  symmetry.
 There are    17 symmetry adapted basis functions of A   symmetry.
 There are    16 symmetry adapted basis functions of B1  symmetry.
 There are    16 symmetry adapted basis functions of B2  symmetry.
 There are    16 symmetry adapted basis functions of B3  symmetry.
    65 basis functions,   135 primitive gaussians,    65 cartesian basis functions
    41 alpha electrons       41 beta electrons
       nuclear repulsion energy       460.5466083877 Hartrees.
 NAtoms=    5 NActive=    5 NUniq=    2 SFac= 4.00D+00 NAtFMM=   60 NAOKFM=F Big=F
 Integral buffers will be    131072 words long.
 Raffenetti 1 integral format.
 Two-electron integral symmetry is turned on.
 One-electron integrals computed using PRISM.
 NBasis=    65 RedAO= T EigKep=  2.40D-02  NBF=    17    16    16    16
 NBsUse=    65 1.00D-06 EigRej= -1.00D+00 NBFU=    17    16    16    16
 ExpMin= 6.39D-02 ExpMax= 1.38D+03 ExpMxC= 1.38D+03 IAcc=3 IRadAn=         5 AccDes= 0.00D+00
 Harris functional with IExCor=  205 and IRadAn=       5 diagonalized for initial guess.
 HarFok:  IExCor=  205 AccDes= 0.00D+00 IRadAn=         5 IDoV= 1 UseB2=F ITyADJ=14
 ICtDFT=  3500011 ScaDFX=  1.000000  1.000000  1.000000  1.000000
 FoFCou: FMM=F IPFlag=           0 FMFlag=      100000 FMFlg1=           0
         NFxFlg=           0 DoJE=T BraDBF=F KetDBF=T FulRan=T
         wScrn=  0.000000 ICntrl=       500 IOpCl=  0 I1Cent=   200000004 NGrid=           0
         NMat0=    1 NMatS0=      1 NMatT0=    0 NMatD0=    1 NMtDS0=    0 NMtDT0=    0
 Petite list used in FoFCou.
 Initial guess orbital symmetries:
       Occupied  (A1) (T2) (T2) (T2) (A1) (A1) (T2) (T2) (T2) (T2)
                 (T2) (T2) (A1) (T2) (T2) (T2) (T1) (T1) (T1) (E)
                 (E) (A1) (T2) (T2) (T2) (A1) (T2) (T2) (T2) (A1)
                 (T2) (T2) (T2) (E) (E) (T2) (T2) (T2) (T1) (T1)
                 (T1)
       Virtual   (A1) (T2) (T2) (T2) (A1) (T2) (T2) (T2) (T2) (T2)
                 (T2) (E) (E) (A1) (T1) (T1) (T1) (T2) (T2) (T2)
                 (T2) (T2) (T2) (A1)
 The electronic state of the initial guess is 1-A1.
 Keep R1 ints in memory in symmetry-blocked form, NReq=3122512.
 Requested convergence on RMS density matrix=1.00D-08 within 128 cycles.
 Requested convergence on MAX density matrix=1.00D-06.
 Requested convergence on             energy=1.00D-06.
 No special actions if energy rises.
 SCF Done:  E(RHF) =  -2070.20143326     A.U. after    9 cycles
            NFock=  9  Conv=0.21D-08     -V/T= 2.0011

 **********************************************************************

            Population analysis using the SCF Density.

 **********************************************************************

 Orbital symmetries:
       Occupied  (A1) (T2) (T2) (T2) (A1) (A1) (T2) (T2) (T2) (T2)
                 (T2) (T2) (A1) (T2) (T2) (T2) (T1) (T1) (T1) (E)
                 (E) (A1) (T2) (T2) (T2) (A1) (T2) (T2) (T2) (A1)
                 (T2) (T2) (T2) (E) (E) (T2) (T2) (T2) (T1) (T1)
                 (T1)
       Virtual   (A1) (T2) (T2) (T2) (A1) (T2) (T2) (T2) (T2) (T2)
                 (T2) (E) (E) (A1) (T1) (T1) (T1) (T2) (T2) (T2)
                 (T2) (T2) (T2) (A1)
 The electronic state is 1-A1.
 Alpha  occ. eigenvalues -- -103.94716-103.94676-103.94676-103.94676 -58.05133
 Alpha  occ. eigenvalues --  -10.33891 -10.33760 -10.33760 -10.33760  -7.80109
 Alpha  occ. eigenvalues --   -7.80109  -7.80109  -7.80094  -7.79835  -7.79835
 Alpha  occ. eigenvalues --   -7.79835  -7.79819  -7.79819  -7.79819  -7.79789
 Alpha  occ. eigenvalues --   -7.79789  -4.84511  -3.15026  -3.15026  -3.15026
 Alpha  occ. eigenvalues --   -0.94630  -0.92137  -0.92137  -0.92137  -0.45534
 Alpha  occ. eigenvalues --   -0.36959  -0.36959  -0.36959  -0.32573  -0.32573
 Alpha  occ. eigenvalues --   -0.31197  -0.31197  -0.31197  -0.30074  -0.30074
 Alpha  occ. eigenvalues --   -0.30074
 Alpha virt. eigenvalues --    0.25452   0.31512   0.31512   0.31512   0.42350
 Alpha virt. eigenvalues --    0.49999   0.49999   0.49999   0.89375   0.89375
 Alpha virt. eigenvalues --    0.89375   0.89662   0.89662   0.92880   1.02673
 Alpha virt. eigenvalues --    1.02673   1.02673   1.09037   1.09037   1.09037
 Alpha virt. eigenvalues --    1.15286   1.15286   1.15286   1.32691
     Molecular Orbital Coefficients:
                           1         2         3         4         5
                        (A1)--O   (T2)--O   (T2)--O   (T2)--O   (A1)--O
     Eigenvalues --  -103.94716-103.94676-103.94676-103.94676 -58.05133
   1 1   Al 1S         -0.00002   0.00000   0.00000   0.00000   0.98850
   2        2S          0.00054   0.00000   0.00000   0.00000   0.04453
   3        2PX         0.00000  -0.00003   0.00000   0.00000   0.00000
   4        2PY         0.00000   0.00000  -0.00003   0.00000   0.00000
   5        2PZ         0.00000   0.00000   0.00000  -0.00003   0.00000
   6        3S          0.00096   0.00000   0.00000   0.00000  -0.01119
   7        3PX         0.00000  -0.00062   0.00000   0.00000   0.00000
   8        3PY         0.00000   0.00000  -0.00062   0.00000   0.00000
   9        3PZ         0.00000   0.00000   0.00000  -0.00062   0.00000
  10        4S         -0.01215   0.00000   0.00000   0.00000  -0.00489
  11        4PX         0.00000  -0.00394   0.00000   0.00000   0.00000
  12        4PY         0.00000   0.00000  -0.00394   0.00000   0.00000
  13        4PZ         0.00000   0.00000   0.00000  -0.00394   0.00000
  14 2   Cl 1S          0.49293   0.49294   0.49294   0.49294  -0.00002
  15        2S          0.02666   0.02657   0.02657   0.02657   0.00012
  16        2PX        -0.00008  -0.00002  -0.00008  -0.00008  -0.00001
  17        2PY        -0.00008  -0.00008  -0.00002  -0.00008  -0.00001
  18        2PZ        -0.00008  -0.00008  -0.00008  -0.00002  -0.00001
  19        3S         -0.01104  -0.00969  -0.00969  -0.00969  -0.00232
  20        3PX         0.00037   0.00002   0.00033   0.00033   0.00021
  21        3PY         0.00037   0.00033   0.00002   0.00033   0.00021
  22        3PZ         0.00037   0.00033   0.00033   0.00002   0.00021
  23        4S          0.00949   0.00643   0.00643   0.00643   0.00480
  24        4PX        -0.00148   0.00005  -0.00099  -0.00099  -0.00173
  25        4PY        -0.00148  -0.00099   0.00005  -0.00099  -0.00173
  26        4PZ        -0.00148  -0.00099  -0.00099   0.00005  -0.00173
  27 3   Cl 1S          0.49293  -0.49294  -0.49294   0.49294  -0.00002
  28        2S          0.02666  -0.02657  -0.02657   0.02657   0.00012
  29        2PX         0.00008  -0.00002  -0.00008   0.00008   0.00001
  30        2PY         0.00008  -0.00008  -0.00002   0.00008   0.00001
  31        2PZ        -0.00008   0.00008   0.00008  -0.00002  -0.00001
  32        3S         -0.01104   0.00969   0.00969  -0.00969  -0.00232
  33        3PX        -0.00037   0.00002   0.00033  -0.00033  -0.00021
  34        3PY        -0.00037   0.00033   0.00002  -0.00033  -0.00021
  35        3PZ         0.00037  -0.00033  -0.00033   0.00002   0.00021
  36        4S          0.00949  -0.00643  -0.00643   0.00643   0.00480
  37        4PX         0.00148   0.00005  -0.00099   0.00099   0.00173
  38        4PY         0.00148  -0.00099   0.00005   0.00099   0.00173
  39        4PZ        -0.00148   0.00099   0.00099   0.00005  -0.00173
  40 4   Cl 1S          0.49293   0.49294  -0.49294  -0.49294  -0.00002
  41        2S          0.02666   0.02657  -0.02657  -0.02657   0.00012
  42        2PX        -0.00008  -0.00002   0.00008   0.00008  -0.00001
  43        2PY         0.00008   0.00008  -0.00002  -0.00008   0.00001
  44        2PZ         0.00008   0.00008  -0.00008  -0.00002   0.00001
  45        3S         -0.01104  -0.00969   0.00969   0.00969  -0.00232
  46        3PX         0.00037   0.00002  -0.00033  -0.00033   0.00021
  47        3PY        -0.00037  -0.00033   0.00002   0.00033  -0.00021
  48        3PZ        -0.00037  -0.00033   0.00033   0.00002  -0.00021
  49        4S          0.00949   0.00643  -0.00643  -0.00643   0.00480
  50        4PX        -0.00148   0.00005   0.00099   0.00099  -0.00173
  51        4PY         0.00148   0.00099   0.00005  -0.00099   0.00173
  52        4PZ         0.00148   0.00099  -0.00099   0.00005   0.00173
  53 5   Cl 1S          0.49293  -0.49294   0.49294  -0.49294  -0.00002
  54        2S          0.02666  -0.02657   0.02657  -0.02657   0.00012
  55        2PX         0.00008  -0.00002   0.00008  -0.00008   0.00001
  56        2PY        -0.00008   0.00008  -0.00002   0.00008  -0.00001
  57        2PZ         0.00008  -0.00008   0.00008  -0.00002   0.00001
  58        3S         -0.01104   0.00969  -0.00969   0.00969  -0.00232
  59        3PX        -0.00037   0.00002  -0.00033   0.00033  -0.00021
  60        3PY         0.00037  -0.00033   0.00002  -0.00033   0.00021
  61        3PZ        -0.00037   0.00033  -0.00033   0.00002  -0.00021
  62        4S          0.00949  -0.00643   0.00643  -0.00643   0.00480
  63        4PX         0.00148   0.00005   0.00099  -0.00099   0.00173
  64        4PY        -0.00148   0.00099   0.00005   0.00099  -0.00173
  65        4PZ         0.00148  -0.00099   0.00099   0.00005   0.00173
                           6         7         8         9        10
                        (A1)--O   (T2)--O   (T2)--O   (T2)--O   (T2)--O
     Eigenvalues --   -10.33891 -10.33760 -10.33760 -10.33760  -7.80109
   1 1   Al 1S          0.00018   0.00000   0.00000   0.00000   0.00000
   2        2S         -0.00294   0.00000   0.00000   0.00000   0.00000
   3        2PX         0.00000   0.00000   0.00013   0.00000  -0.00035
   4        2PY         0.00000   0.00013   0.00000   0.00000   0.00000
   5        2PZ         0.00000   0.00000   0.00000   0.00013   0.00000
   6        3S         -0.00555   0.00000   0.00000   0.00000   0.00000
   7        3PX         0.00000   0.00000   0.00360   0.00000  -0.00402
   8        3PY         0.00000   0.00360   0.00000   0.00000   0.00000
   9        3PZ         0.00000   0.00000   0.00000   0.00360   0.00000
  10        4S          0.06868   0.00000   0.00000   0.00000   0.00000
  11        4PX         0.00000   0.00000   0.02250   0.00000  -0.00389
  12        4PY         0.00000   0.02250   0.00000   0.00000   0.00000
  13        4PZ         0.00000   0.00000   0.00000   0.02250   0.00000
  14 2   Cl 1S         -0.15287  -0.15296  -0.15296  -0.15296  -0.00138
  15        2S          0.49092   0.49143   0.49143   0.49143   0.00479
  16        2PX        -0.00199  -0.00201  -0.00222  -0.00201   0.29027
  17        2PY        -0.00199  -0.00222  -0.00201  -0.00201   0.27626
  18        2PZ        -0.00199  -0.00201  -0.00201  -0.00222   0.27626
  19        3S          0.07918   0.07195   0.07195   0.07195  -0.00291
  20        3PX        -0.00245  -0.00225  -0.00057  -0.00225   0.02468
  21        3PY        -0.00245  -0.00057  -0.00225  -0.00225   0.02332
  22        3PZ        -0.00245  -0.00225  -0.00225  -0.00057   0.02332
  23        4S         -0.05434  -0.03756  -0.03756  -0.03756   0.00490
  24        4PX         0.00840   0.00573  -0.00014   0.00573  -0.00879
  25        4PY         0.00840  -0.00014   0.00573   0.00573  -0.00861
  26        4PZ         0.00840   0.00573   0.00573  -0.00014  -0.00861
  27 3   Cl 1S         -0.15287   0.15296   0.15296  -0.15296   0.00138
  28        2S          0.49092  -0.49143  -0.49143   0.49143  -0.00479
  29        2PX         0.00199  -0.00201  -0.00222   0.00201   0.29027
  30        2PY         0.00199  -0.00222  -0.00201   0.00201   0.27626
  31        2PZ        -0.00199   0.00201   0.00201  -0.00222  -0.27626
  32        3S          0.07918  -0.07195  -0.07195   0.07195   0.00291
  33        3PX         0.00245  -0.00225  -0.00057   0.00225   0.02468
  34        3PY         0.00245  -0.00057  -0.00225   0.00225   0.02332
  35        3PZ        -0.00245   0.00225   0.00225  -0.00057  -0.02332
  36        4S         -0.05434   0.03756   0.03756  -0.03756  -0.00490
  37        4PX        -0.00840   0.00573  -0.00014  -0.00573  -0.00879
  38        4PY        -0.00840  -0.00014   0.00573  -0.00573  -0.00861
  39        4PZ         0.00840  -0.00573  -0.00573  -0.00014   0.00861
  40 4   Cl 1S         -0.15287   0.15296  -0.15296   0.15296  -0.00138
  41        2S          0.49092  -0.49143   0.49143  -0.49143   0.00479
  42        2PX        -0.00199   0.00201  -0.00222   0.00201   0.29027
  43        2PY         0.00199  -0.00222   0.00201  -0.00201  -0.27626
  44        2PZ         0.00199  -0.00201   0.00201  -0.00222  -0.27626
  45        3S          0.07918  -0.07195   0.07195  -0.07195  -0.00291
  46        3PX        -0.00245   0.00225  -0.00057   0.00225   0.02468
  47        3PY         0.00245  -0.00057   0.00225  -0.00225  -0.02332
  48        3PZ         0.00245  -0.00225   0.00225  -0.00057  -0.02332
  49        4S         -0.05434   0.03756  -0.03756   0.03756   0.00490
  50        4PX         0.00840  -0.00573  -0.00014  -0.00573  -0.00879
  51        4PY        -0.00840  -0.00014  -0.00573   0.00573   0.00861
  52        4PZ        -0.00840   0.00573  -0.00573  -0.00014   0.00861
  53 5   Cl 1S         -0.15287  -0.15296   0.15296   0.15296   0.00138
  54        2S          0.49092   0.49143  -0.49143  -0.49143  -0.00479
  55        2PX         0.00199   0.00201  -0.00222  -0.00201   0.29027
  56        2PY        -0.00199  -0.00222   0.00201   0.00201  -0.27626
  57        2PZ         0.00199   0.00201  -0.00201  -0.00222   0.27626
  58        3S          0.07918   0.07195  -0.07195  -0.07195   0.00291
  59        3PX         0.00245   0.00225  -0.00057  -0.00225   0.02468
  60        3PY        -0.00245  -0.00057   0.00225   0.00225  -0.02332
  61        3PZ         0.00245   0.00225  -0.00225  -0.00057   0.02332
  62        4S         -0.05434  -0.03756   0.03756   0.03756  -0.00490
  63        4PX        -0.00840  -0.00573  -0.00014   0.00573  -0.00879
  64        4PY         0.00840  -0.00014  -0.00573  -0.00573   0.00861
  65        4PZ        -0.00840  -0.00573   0.00573  -0.00014  -0.00861
                          11        12        13        14        15
                        (T2)--O   (T2)--O   (A1)--O   (T2)--O   (T2)--O
     Eigenvalues --    -7.80109  -7.80109  -7.80094  -7.79835  -7.79835
   1 1   Al 1S          0.00000   0.00000   0.00003   0.00000   0.00000
   2        2S          0.00000   0.00000  -0.00048   0.00000   0.00000
   3        2PX         0.00000   0.00000   0.00000   0.00000   0.00005
   4        2PY        -0.00035   0.00000   0.00000   0.00000   0.00000
   5        2PZ         0.00000  -0.00035   0.00000   0.00005   0.00000
   6        3S          0.00000   0.00000  -0.00373   0.00000   0.00000
   7        3PX         0.00000   0.00000   0.00000   0.00000  -0.00039
   8        3PY        -0.00402   0.00000   0.00000   0.00000   0.00000
   9        3PZ         0.00000  -0.00402   0.00000  -0.00039   0.00000
  10        4S          0.00000   0.00000  -0.02329   0.00000   0.00000
  11        4PX         0.00000   0.00000   0.00000   0.00000   0.01770
  12        4PY        -0.00389   0.00000   0.00000   0.00000   0.00000
  13        4PZ         0.00000  -0.00389   0.00000   0.01770   0.00000
  14 2   Cl 1S         -0.00138  -0.00138  -0.00141   0.00008   0.00008
  15        2S          0.00479   0.00479   0.00490  -0.00034  -0.00034
  16        2PX         0.27626   0.27626   0.28105  -0.20538   0.39084
  17        2PY         0.29027   0.27626   0.28105  -0.20538  -0.20538
  18        2PZ         0.27626   0.29027   0.28105   0.39084  -0.20538
  19        3S         -0.00291  -0.00291  -0.00483   0.00243   0.00243
  20        3PX         0.02332   0.02332   0.02366  -0.01709   0.03268
  21        3PY         0.02468   0.02332   0.02366  -0.01709  -0.01709
  22        3PZ         0.02332   0.02468   0.02366   0.03268  -0.01709
  23        4S          0.00490   0.00490   0.01074  -0.00712  -0.00712
  24        4PX        -0.00861  -0.00861  -0.00970   0.00721  -0.01179
  25        4PY        -0.00879  -0.00861  -0.00970   0.00721   0.00721
  26        4PZ        -0.00861  -0.00879  -0.00970  -0.01179   0.00721
  27 3   Cl 1S          0.00138  -0.00138  -0.00141   0.00008  -0.00008
  28        2S         -0.00479   0.00479   0.00490  -0.00034   0.00034
  29        2PX         0.27626  -0.27626  -0.28105   0.20538   0.39084
  30        2PY         0.29027  -0.27626  -0.28105   0.20538  -0.20538
  31        2PZ        -0.27626   0.29027   0.28105   0.39084   0.20538
  32        3S          0.00291  -0.00291  -0.00483   0.00243  -0.00243
  33        3PX         0.02332  -0.02332  -0.02366   0.01709   0.03268
  34        3PY         0.02468  -0.02332  -0.02366   0.01709  -0.01709
  35        3PZ        -0.02332   0.02468   0.02366   0.03268   0.01709
  36        4S         -0.00490   0.00490   0.01074  -0.00712   0.00712
  37        4PX        -0.00861   0.00861   0.00970  -0.00721  -0.01179
  38        4PY        -0.00879   0.00861   0.00970  -0.00721   0.00721
  39        4PZ         0.00861  -0.00879  -0.00970  -0.01179  -0.00721
  40 4   Cl 1S          0.00138   0.00138  -0.00141  -0.00008   0.00008
  41        2S         -0.00479  -0.00479   0.00490   0.00034  -0.00034
  42        2PX        -0.27626  -0.27626   0.28105   0.20538   0.39084
  43        2PY         0.29027   0.27626  -0.28105  -0.20538   0.20538
  44        2PZ         0.27626   0.29027  -0.28105   0.39084   0.20538
  45        3S          0.00291   0.00291  -0.00483  -0.00243   0.00243
  46        3PX        -0.02332  -0.02332   0.02366   0.01709   0.03268
  47        3PY         0.02468   0.02332  -0.02366  -0.01709   0.01709
  48        3PZ         0.02332   0.02468  -0.02366   0.03268   0.01709
  49        4S         -0.00490  -0.00490   0.01074   0.00712  -0.00712
  50        4PX         0.00861   0.00861  -0.00970  -0.00721  -0.01179
  51        4PY        -0.00879  -0.00861   0.00970   0.00721  -0.00721
  52        4PZ        -0.00861  -0.00879   0.00970  -0.01179  -0.00721
  53 5   Cl 1S         -0.00138   0.00138  -0.00141  -0.00008  -0.00008
  54        2S          0.00479  -0.00479   0.00490   0.00034   0.00034
  55        2PX        -0.27626   0.27626  -0.28105  -0.20538   0.39084
  56        2PY         0.29027  -0.27626   0.28105   0.20538   0.20538
  57        2PZ        -0.27626   0.29027  -0.28105   0.39084  -0.20538
  58        3S         -0.00291   0.00291  -0.00483  -0.00243  -0.00243
  59        3PX        -0.02332   0.02332  -0.02366  -0.01709   0.03268
  60        3PY         0.02468  -0.02332   0.02366   0.01709   0.01709
  61        3PZ        -0.02332   0.02468  -0.02366   0.03268  -0.01709
  62        4S          0.00490  -0.00490   0.01074   0.00712   0.00712
  63        4PX         0.00861  -0.00861   0.00970   0.00721  -0.01179
  64        4PY        -0.00879   0.00861  -0.00970  -0.00721  -0.00721
  65        4PZ         0.00861  -0.00879   0.00970  -0.01179   0.00721
                          16        17        18        19        20
                        (T2)--O   (T1)--O   (T1)--O   (T1)--O   (E)--O
     Eigenvalues --    -7.79835  -7.79819  -7.79819  -7.79819  -7.79789
   1 1   Al 1S          0.00000   0.00000   0.00000   0.00000  -0.00000
   2        2S          0.00000   0.00000   0.00000   0.00000   0.00000
   3        2PX         0.00000   0.00000   0.00000  -0.00000   0.00000
   4        2PY         0.00005  -0.00000   0.00000   0.00000   0.00000
   5        2PZ         0.00000   0.00000  -0.00000   0.00000   0.00000
   6        3S          0.00000   0.00000   0.00000   0.00000   0.00000
   7        3PX         0.00000   0.00000   0.00000  -0.00000   0.00000
   8        3PY        -0.00039   0.00000   0.00000   0.00000   0.00000
   9        3PZ         0.00000   0.00000   0.00000   0.00000   0.00000
  10        4S          0.00000   0.00000   0.00000   0.00000   0.00000
  11        4PX         0.00000   0.00000   0.00000  -0.00000   0.00000
  12        4PY         0.01770  -0.00000   0.00000   0.00000   0.00000
  13        4PZ         0.00000   0.00000  -0.00000   0.00000   0.00000
  14 2   Cl 1S          0.00008  -0.00000  -0.00000  -0.00000   0.00000
  15        2S         -0.00034   0.00000   0.00000   0.00000  -0.00000
  16        2PX        -0.20538   0.34441   0.34441  -0.00000   0.37003
  17        2PY         0.39084  -0.00000  -0.34441   0.34441  -0.05843
  18        2PZ        -0.20538  -0.34441  -0.00000  -0.34441  -0.31160
  19        3S          0.00243  -0.00000  -0.00000  -0.00000   0.00000
  20        3PX        -0.01709   0.02823   0.02823  -0.00000   0.02956
  21        3PY         0.03268  -0.00000  -0.02823   0.02823  -0.00467
  22        3PZ        -0.01709  -0.02823  -0.00000  -0.02823  -0.02489
  23        4S         -0.00712   0.00000   0.00000   0.00000  -0.00000
  24        4PX         0.00721  -0.00887  -0.00887   0.00000  -0.00812
  25        4PY        -0.01179   0.00000   0.00887  -0.00887   0.00128
  26        4PZ         0.00721   0.00887   0.00000   0.00887   0.00684
  27 3   Cl 1S         -0.00008   0.00000  -0.00000   0.00000   0.00000
  28        2S          0.00034  -0.00000   0.00000  -0.00000  -0.00000
  29        2PX        -0.20538   0.34441  -0.34441  -0.00000  -0.37003
  30        2PY         0.39084  -0.00000   0.34441   0.34441   0.05843
  31        2PZ         0.20538   0.34441  -0.00000   0.34441  -0.31160
  32        3S         -0.00243   0.00000  -0.00000   0.00000   0.00000
  33        3PX        -0.01709   0.02823  -0.02823  -0.00000  -0.02956
  34        3PY         0.03268  -0.00000   0.02823   0.02823   0.00467
  35        3PZ         0.01709   0.02823  -0.00000   0.02823  -0.02489
  36        4S          0.00712  -0.00000   0.00000  -0.00000  -0.00000
  37        4PX         0.00721  -0.00887   0.00887   0.00000   0.00812
  38        4PY        -0.01179   0.00000  -0.00887  -0.00887  -0.00128
  39        4PZ        -0.00721  -0.00887   0.00000  -0.00887   0.00684
  40 4   Cl 1S         -0.00008   0.00000   0.00000  -0.00000   0.00000
  41        2S          0.00034  -0.00000  -0.00000   0.00000  -0.00000
  42        2PX         0.20538  -0.34441  -0.34441  -0.00000   0.37003
  43        2PY         0.39084  -0.00000  -0.34441  -0.34441   0.05843
  44        2PZ        -0.20538  -0.34441  -0.00000   0.34441   0.31160
  45        3S         -0.00243   0.00000   0.00000  -0.00000   0.00000
  46        3PX         0.01709  -0.02823  -0.02823  -0.00000   0.02956
  47        3PY         0.03268  -0.00000  -0.02823  -0.02823   0.00467
  48        3PZ        -0.01709  -0.02823  -0.00000   0.02823   0.02489
  49        4S          0.00712  -0.00000  -0.00000   0.00000  -0.00000
  50        4PX        -0.00721   0.00887   0.00887   0.00000  -0.00812
  51        4PY        -0.01179   0.00000   0.00887   0.00887  -0.00128
  52        4PZ         0.00721   0.00887   0.00000  -0.00887  -0.00684
  53 5   Cl 1S          0.00008  -0.00000   0.00000   0.00000   0.00000
  54        2S         -0.00034   0.00000  -0.00000  -0.00000  -0.00000
  55        2PX         0.20538  -0.34441   0.34441  -0.00000  -0.37003
  56        2PY         0.39084  -0.00000   0.34441  -0.34441  -0.05843
  57        2PZ         0.20538   0.34441  -0.00000  -0.34441   0.31160
  58        3S          0.00243  -0.00000   0.00000   0.00000   0.00000
  59        3PX         0.01709  -0.02823   0.02823  -0.00000  -0.02956
  60        3PY         0.03268  -0.00000   0.02823  -0.02823  -0.00467
  61        3PZ         0.01709   0.02823  -0.00000  -0.02823   0.02489
  62        4S         -0.00712   0.00000  -0.00000  -0.00000  -0.00000
  63        4PX        -0.00721   0.00887  -0.00887   0.00000   0.00812
  64        4PY        -0.01179   0.00000  -0.00887   0.00887   0.00128
  65        4PZ        -0.00721  -0.00887   0.00000   0.00887  -0.00684
                          21        22        23        24        25
                        (E)--O    (A1)--O   (T2)--O   (T2)--O   (T2)--O
     Eigenvalues --    -7.79789  -4.84511  -3.15026  -3.15026  -3.15026
   1 1   Al 1S          0.00000  -0.28400   0.00000   0.00000   0.00000
   2        2S         -0.00000   1.01004   0.00000   0.00000   0.00000
   3        2PX        -0.00000   0.00000   0.97817   0.00000   0.00000
   4        2PY        -0.00000   0.00000   0.00000   0.97817   0.00000
   5        2PZ        -0.00000   0.00000   0.00000   0.00000   0.97817
   6        3S         -0.00000   0.09364   0.00000   0.00000   0.00000
   7        3PX        -0.00000   0.00000   0.09150   0.00000   0.00000
   8        3PY        -0.00000   0.00000   0.00000   0.09150   0.00000
   9        3PZ        -0.00000   0.00000   0.00000   0.00000   0.09150
  10        4S         -0.00000  -0.01207   0.00000   0.00000   0.00000
  11        4PX        -0.00000   0.00000  -0.02559   0.00000   0.00000
  12        4PY        -0.00000   0.00000   0.00000  -0.02559   0.00000
  13        4PZ        -0.00000   0.00000   0.00000   0.00000  -0.02559
  14 2   Cl 1S         -0.00000   0.00005   0.00004   0.00004   0.00004
  15        2S          0.00000  -0.00018  -0.00006  -0.00006  -0.00006
  16        2PX        -0.14617   0.00004   0.00001   0.00006   0.00006
  17        2PY         0.39354   0.00004   0.00006   0.00001   0.00006
  18        2PZ        -0.24737   0.00004   0.00006   0.00006   0.00001
  19        3S         -0.00000   0.00510   0.00048   0.00048   0.00048
  20        3PX        -0.01168  -0.00057   0.00055   0.00035   0.00035
  21        3PY         0.03144  -0.00057   0.00035   0.00055   0.00035
  22        3PZ        -0.01976  -0.00057   0.00035   0.00035   0.00055
  23        4S          0.00000  -0.01042  -0.00260  -0.00260  -0.00260
  24        4PX         0.00321   0.00611   0.00324   0.00449   0.00449
  25        4PY        -0.00863   0.00611   0.00449   0.00324   0.00449
  26        4PZ         0.00543   0.00611   0.00449   0.00449   0.00324
  27 3   Cl 1S         -0.00000   0.00005  -0.00004  -0.00004   0.00004
  28        2S          0.00000  -0.00018   0.00006   0.00006  -0.00006
  29        2PX         0.14617  -0.00004   0.00001   0.00006  -0.00006
  30        2PY        -0.39354  -0.00004   0.00006   0.00001  -0.00006
  31        2PZ        -0.24737   0.00004  -0.00006  -0.00006   0.00001
  32        3S         -0.00000   0.00510  -0.00048  -0.00048   0.00048
  33        3PX         0.01168   0.00057   0.00055   0.00035  -0.00035
  34        3PY        -0.03144   0.00057   0.00035   0.00055  -0.00035
  35        3PZ        -0.01976  -0.00057  -0.00035  -0.00035   0.00055
  36        4S          0.00000  -0.01042   0.00260   0.00260  -0.00260
  37        4PX        -0.00321  -0.00611   0.00324   0.00449  -0.00449
  38        4PY         0.00863  -0.00611   0.00449   0.00324  -0.00449
  39        4PZ         0.00543   0.00611  -0.00449  -0.00449   0.00324
  40 4   Cl 1S         -0.00000   0.00005   0.00004  -0.00004  -0.00004
  41        2S          0.00000  -0.00018  -0.00006   0.00006   0.00006
  42        2PX        -0.14617   0.00004   0.00001  -0.00006  -0.00006
  43        2PY        -0.39354  -0.00004  -0.00006   0.00001   0.00006
  44        2PZ         0.24737  -0.00004  -0.00006   0.00006   0.00001
  45        3S         -0.00000   0.00510   0.00048  -0.00048  -0.00048
  46        3PX        -0.01168  -0.00057   0.00055  -0.00035  -0.00035
  47        3PY        -0.03144   0.00057  -0.00035   0.00055   0.00035
  48        3PZ         0.01976   0.00057  -0.00035   0.00035   0.00055
  49        4S          0.00000  -0.01042  -0.00260   0.00260   0.00260
  50        4PX         0.00321   0.00611   0.00324  -0.00449  -0.00449
  51        4PY         0.00863  -0.00611  -0.00449   0.00324   0.00449
  52        4PZ        -0.00543  -0.00611  -0.00449   0.00449   0.00324
  53 5   Cl 1S         -0.00000   0.00005  -0.00004   0.00004  -0.00004
  54        2S          0.00000  -0.00018   0.00006  -0.00006   0.00006
  55        2PX         0.14617  -0.00004   0.00001  -0.00006   0.00006
  56        2PY         0.39354   0.00004  -0.00006   0.00001  -0.00006
  57        2PZ         0.24737  -0.00004   0.00006  -0.00006   0.00001
  58        3S         -0.00000   0.00510  -0.00048   0.00048  -0.00048
  59        3PX         0.01168   0.00057   0.00055  -0.00035   0.00035
  60        3PY         0.03144  -0.00057  -0.00035   0.00055  -0.00035
  61        3PZ         0.01976   0.00057   0.00035  -0.00035   0.00055
  62        4S          0.00000  -0.01042   0.00260  -0.00260   0.00260
  63        4PX        -0.00321  -0.00611   0.00324  -0.00449   0.00449
  64        4PY        -0.00863   0.00611  -0.00449   0.00324  -0.00449
  65        4PZ        -0.00543  -0.00611   0.00449  -0.00449   0.00324
                          26        27        28        29        30
                        (A1)--O   (T2)--O   (T2)--O   (T2)--O   (A1)--O
     Eigenvalues --    -0.94630  -0.92137  -0.92137  -0.92137  -0.45534
   1 1   Al 1S          0.01794   0.00000   0.00000   0.00000   0.04091
   2        2S         -0.08282   0.00000   0.00000   0.00000  -0.19462
   3        2PX         0.00000   0.00000   0.00000  -0.04358   0.00000
   4        2PY         0.00000  -0.04358   0.00000   0.00000   0.00000
   5        2PZ         0.00000   0.00000  -0.04358   0.00000   0.00000
   6        3S          0.13233   0.00000   0.00000   0.00000   0.36270
   7        3PX         0.00000   0.00000   0.00000   0.05967   0.00000
   8        3PY         0.00000   0.05967   0.00000   0.00000   0.00000
   9        3PZ         0.00000   0.00000   0.05967   0.00000   0.00000
  10        4S         -0.06372   0.00000   0.00000   0.00000   0.02670
  11        4PX         0.00000   0.00000   0.00000  -0.04058   0.00000
  12        4PY         0.00000  -0.04058   0.00000   0.00000   0.00000
  13        4PZ         0.00000   0.00000  -0.04058   0.00000   0.00000
  14 2   Cl 1S          0.03789   0.03960   0.03960   0.03960  -0.01230
  15        2S         -0.22275  -0.23297  -0.23297  -0.23297   0.07391
  16        2PX         0.01028   0.00791   0.00791   0.00634   0.06194
  17        2PY         0.01028   0.00634   0.00791   0.00791   0.06194
  18        2PZ         0.01028   0.00791   0.00634   0.00791   0.06194
  19        3S          0.26610   0.28139   0.28139   0.28139  -0.10492
  20        3PX        -0.02030  -0.01511  -0.01511  -0.01256  -0.13067
  21        3PY        -0.02030  -0.01256  -0.01511  -0.01511  -0.13067
  22        3PZ        -0.02030  -0.01511  -0.01256  -0.01511  -0.13067
  23        4S          0.27293   0.28025   0.28025   0.28025  -0.08542
  24        4PX        -0.02033  -0.01816  -0.01816  -0.01080  -0.10623
  25        4PY        -0.02033  -0.01080  -0.01816  -0.01816  -0.10623
  26        4PZ        -0.02033  -0.01816  -0.01080  -0.01816  -0.10623
  27 3   Cl 1S          0.03789  -0.03960   0.03960  -0.03960  -0.01230
  28        2S         -0.22275   0.23297  -0.23297   0.23297   0.07391
  29        2PX        -0.01028   0.00791  -0.00791   0.00634  -0.06194
  30        2PY        -0.01028   0.00634  -0.00791   0.00791  -0.06194
  31        2PZ         0.01028  -0.00791   0.00634  -0.00791   0.06194
  32        3S          0.26610  -0.28139   0.28139  -0.28139  -0.10492
  33        3PX         0.02030  -0.01511   0.01511  -0.01256   0.13067
  34        3PY         0.02030  -0.01256   0.01511  -0.01511   0.13067
  35        3PZ        -0.02030   0.01511  -0.01256   0.01511  -0.13067
  36        4S          0.27293  -0.28025   0.28025  -0.28025  -0.08542
  37        4PX         0.02033  -0.01816   0.01816  -0.01080   0.10623
  38        4PY         0.02033  -0.01080   0.01816  -0.01816   0.10623
  39        4PZ        -0.02033   0.01816  -0.01080   0.01816  -0.10623
  40 4   Cl 1S          0.03789  -0.03960  -0.03960   0.03960  -0.01230
  41        2S         -0.22275   0.23297   0.23297  -0.23297   0.07391
  42        2PX         0.01028  -0.00791  -0.00791   0.00634   0.06194
  43        2PY        -0.01028   0.00634   0.00791  -0.00791  -0.06194
  44        2PZ        -0.01028   0.00791   0.00634  -0.00791  -0.06194
  45        3S          0.26610  -0.28139  -0.28139   0.28139  -0.10492
  46        3PX        -0.02030   0.01511   0.01511  -0.01256  -0.13067
  47        3PY         0.02030  -0.01256  -0.01511   0.01511   0.13067
  48        3PZ         0.02030  -0.01511  -0.01256   0.01511   0.13067
  49        4S          0.27293  -0.28025  -0.28025   0.28025  -0.08542
  50        4PX        -0.02033   0.01816   0.01816  -0.01080  -0.10623
  51        4PY         0.02033  -0.01080  -0.01816   0.01816   0.10623
  52        4PZ         0.02033  -0.01816  -0.01080   0.01816   0.10623
  53 5   Cl 1S          0.03789   0.03960  -0.03960  -0.03960  -0.01230
  54        2S         -0.22275  -0.23297   0.23297   0.23297   0.07391
  55        2PX        -0.01028  -0.00791   0.00791   0.00634  -0.06194
  56        2PY         0.01028   0.00634  -0.00791  -0.00791   0.06194
  57        2PZ        -0.01028  -0.00791   0.00634   0.00791  -0.06194
  58        3S          0.26610   0.28139  -0.28139  -0.28139  -0.10492
  59        3PX         0.02030   0.01511  -0.01511  -0.01256   0.13067
  60        3PY        -0.02030  -0.01256   0.01511   0.01511  -0.13067
  61        3PZ         0.02030   0.01511  -0.01256  -0.01511   0.13067
  62        4S          0.27293   0.28025  -0.28025  -0.28025  -0.08542
  63        4PX         0.02033   0.01816  -0.01816  -0.01080   0.10623
  64        4PY        -0.02033  -0.01080   0.01816   0.01816  -0.10623
  65        4PZ         0.02033   0.01816  -0.01080  -0.01816   0.10623
                          31        32        33        34        35
                        (T2)--O   (T2)--O   (T2)--O   (E)--O    (E)--O
     Eigenvalues --    -0.36959  -0.36959  -0.36959  -0.32573  -0.32573
   1 1   Al 1S          0.00000   0.00000   0.00000   0.00000  -0.00000
   2        2S          0.00000   0.00000   0.00000  -0.00000   0.00000
   3        2PX        -0.10740   0.00000   0.00000   0.00000   0.00000
   4        2PY         0.00000  -0.10740   0.00000   0.00000   0.00000
   5        2PZ         0.00000   0.00000  -0.10740   0.00000   0.00000
   6        3S          0.00000   0.00000   0.00000   0.00000  -0.00000
   7        3PX         0.22319   0.00000   0.00000   0.00000   0.00000
   8        3PY         0.00000   0.22319   0.00000   0.00000   0.00000
   9        3PZ         0.00000   0.00000   0.22319   0.00000   0.00000
  10        4S          0.00000   0.00000   0.00000  -0.00000  -0.00000
  11        4PX         0.02309   0.00000   0.00000   0.00000   0.00000
  12        4PY         0.00000   0.02309   0.00000   0.00000   0.00000
  13        4PZ         0.00000   0.00000   0.02309   0.00000   0.00000
  14 2   Cl 1S         -0.00569  -0.00569  -0.00569  -0.00000   0.00000
  15        2S          0.03446   0.03446   0.03446   0.00000  -0.00000
  16        2PX        -0.00522   0.08892   0.08892  -0.10598   0.03023
  17        2PY         0.08892  -0.00522   0.08892   0.07917   0.07667
  18        2PZ         0.08892   0.08892  -0.00522   0.02681  -0.10690
  19        3S         -0.04807  -0.04807  -0.04807  -0.00000  -0.00000
  20        3PX         0.01315  -0.18941  -0.18941   0.22591  -0.06443
  21        3PY        -0.18941   0.01315  -0.18941  -0.16875  -0.16343
  22        3PZ        -0.18941  -0.18941   0.01315  -0.05716   0.22786
  23        4S         -0.05330  -0.05330  -0.05330   0.00000   0.00000
  24        4PX         0.01347  -0.15691  -0.15691   0.21561  -0.06149
  25        4PY        -0.15691   0.01347  -0.15691  -0.16106  -0.15598
  26        4PZ        -0.15691  -0.15691   0.01347  -0.05455   0.21747
  27 3   Cl 1S          0.00569   0.00569  -0.00569  -0.00000   0.00000
  28        2S         -0.03446  -0.03446   0.03446   0.00000  -0.00000
  29        2PX        -0.00522   0.08892  -0.08892   0.10598  -0.03023
  30        2PY         0.08892  -0.00522  -0.08892  -0.07917  -0.07667
  31        2PZ        -0.08892  -0.08892  -0.00522   0.02681  -0.10690
  32        3S          0.04807   0.04807  -0.04807  -0.00000  -0.00000
  33        3PX         0.01315  -0.18941   0.18941  -0.22591   0.06443
  34        3PY        -0.18941   0.01315   0.18941   0.16875   0.16343
  35        3PZ         0.18941   0.18941   0.01315  -0.05716   0.22786
  36        4S          0.05330   0.05330  -0.05330   0.00000   0.00000
  37        4PX         0.01347  -0.15691   0.15691  -0.21561   0.06149
  38        4PY        -0.15691   0.01347   0.15691   0.16106   0.15598
  39        4PZ         0.15691   0.15691   0.01347  -0.05455   0.21747
  40 4   Cl 1S         -0.00569   0.00569   0.00569  -0.00000   0.00000
  41        2S          0.03446  -0.03446  -0.03446   0.00000  -0.00000
  42        2PX        -0.00522  -0.08892  -0.08892  -0.10598   0.03023
  43        2PY        -0.08892  -0.00522   0.08892  -0.07917  -0.07667
  44        2PZ        -0.08892   0.08892  -0.00522  -0.02681   0.10690
  45        3S         -0.04807   0.04807   0.04807  -0.00000  -0.00000
  46        3PX         0.01315   0.18941   0.18941   0.22591  -0.06443
  47        3PY         0.18941   0.01315  -0.18941   0.16875   0.16343
  48        3PZ         0.18941  -0.18941   0.01315   0.05716  -0.22786
  49        4S         -0.05330   0.05330   0.05330   0.00000   0.00000
  50        4PX         0.01347   0.15691   0.15691   0.21561  -0.06149
  51        4PY         0.15691   0.01347  -0.15691   0.16106   0.15598
  52        4PZ         0.15691  -0.15691   0.01347   0.05455  -0.21747
  53 5   Cl 1S          0.00569  -0.00569   0.00569  -0.00000   0.00000
  54        2S         -0.03446   0.03446  -0.03446   0.00000  -0.00000
  55        2PX        -0.00522  -0.08892   0.08892   0.10598  -0.03023
  56        2PY        -0.08892  -0.00522  -0.08892   0.07917   0.07667
  57        2PZ         0.08892  -0.08892  -0.00522  -0.02681   0.10690
  58        3S          0.04807  -0.04807   0.04807  -0.00000  -0.00000
  59        3PX         0.01315   0.18941  -0.18941  -0.22591   0.06443
  60        3PY         0.18941   0.01315   0.18941  -0.16875  -0.16343
  61        3PZ        -0.18941   0.18941   0.01315   0.05716  -0.22786
  62        4S          0.05330  -0.05330   0.05330   0.00000   0.00000
  63        4PX         0.01347   0.15691  -0.15691  -0.21561   0.06149
  64        4PY         0.15691   0.01347   0.15691  -0.16106  -0.15598
  65        4PZ        -0.15691   0.15691   0.01347   0.05455  -0.21747
                          36        37        38        39        40
                        (T2)--O   (T2)--O   (T2)--O   (T1)--O   (T1)--O
     Eigenvalues --    -0.31197  -0.31197  -0.31197  -0.30074  -0.30074
   1 1   Al 1S          0.00000   0.00000   0.00000   0.00000   0.00000
   2        2S          0.00000   0.00000   0.00000   0.00000   0.00000
   3        2PX         0.00000   0.03359   0.00000   0.00000   0.00000
   4        2PY         0.00000   0.00000   0.03359   0.00000  -0.00000
   5        2PZ         0.03359   0.00000   0.00000   0.00000   0.00000
   6        3S          0.00000   0.00000   0.00000   0.00000   0.00000
   7        3PX         0.00000  -0.06606   0.00000  -0.00000   0.00000
   8        3PY         0.00000   0.00000  -0.06606   0.00000   0.00000
   9        3PZ        -0.06606   0.00000   0.00000   0.00000   0.00000
  10        4S          0.00000   0.00000   0.00000   0.00000   0.00000
  11        4PX         0.00000   0.13204   0.00000   0.00000   0.00000
  12        4PY         0.00000   0.00000   0.13204   0.00000  -0.00000
  13        4PZ         0.13204   0.00000   0.00000   0.00000   0.00000
  14 2   Cl 1S          0.00174   0.00174   0.00174   0.00000  -0.00000
  15        2S         -0.01033  -0.01033  -0.01033  -0.00000   0.00000
  16        2PX        -0.00432  -0.13792  -0.00432   0.00000  -0.09959
  17        2PY        -0.00432  -0.00432  -0.13792  -0.09959   0.00000
  18        2PZ        -0.13792  -0.00432  -0.00432   0.09959   0.09959
  19        3S          0.03319   0.03319   0.03319   0.00000  -0.00000
  20        3PX         0.00645   0.29587   0.00645  -0.00000   0.21478
  21        3PY         0.00645   0.00645   0.29587   0.21478  -0.00000
  22        3PZ         0.29587   0.00645   0.00645  -0.21478  -0.21478
  23        4S         -0.04535  -0.04535  -0.04535   0.00000   0.00000
  24        4PX         0.02429   0.26782   0.02429  -0.00000   0.19435
  25        4PY         0.02429   0.02429   0.26782   0.19435  -0.00000
  26        4PZ         0.26782   0.02429   0.02429  -0.19435  -0.19435
  27 3   Cl 1S          0.00174  -0.00174  -0.00174  -0.00000   0.00000
  28        2S         -0.01033   0.01033   0.01033   0.00000  -0.00000
  29        2PX         0.00432  -0.13792  -0.00432   0.00000  -0.09959
  30        2PY         0.00432  -0.00432  -0.13792  -0.09959   0.00000
  31        2PZ        -0.13792   0.00432   0.00432  -0.09959  -0.09959
  32        3S          0.03319  -0.03319  -0.03319  -0.00000   0.00000
  33        3PX        -0.00645   0.29587   0.00645  -0.00000   0.21478
  34        3PY        -0.00645   0.00645   0.29587   0.21478  -0.00000
  35        3PZ         0.29587  -0.00645  -0.00645   0.21478   0.21478
  36        4S         -0.04535   0.04535   0.04535  -0.00000  -0.00000
  37        4PX        -0.02429   0.26782   0.02429  -0.00000   0.19435
  38        4PY        -0.02429   0.02429   0.26782   0.19435  -0.00000
  39        4PZ         0.26782  -0.02429  -0.02429   0.19435   0.19435
  40 4   Cl 1S         -0.00174   0.00174  -0.00174   0.00000   0.00000
  41        2S          0.01033  -0.01033   0.01033  -0.00000  -0.00000
  42        2PX         0.00432  -0.13792   0.00432   0.00000   0.09959
  43        2PY        -0.00432   0.00432  -0.13792   0.09959   0.00000
  44        2PZ        -0.13792   0.00432  -0.00432  -0.09959   0.09959
  45        3S         -0.03319   0.03319  -0.03319   0.00000   0.00000
  46        3PX        -0.00645   0.29587  -0.00645  -0.00000  -0.21478
  47        3PY         0.00645  -0.00645   0.29587  -0.21478  -0.00000
  48        3PZ         0.29587  -0.00645   0.00645   0.21478  -0.21478
  49        4S          0.04535  -0.04535   0.04535   0.00000  -0.00000
  50        4PX        -0.02429   0.26782  -0.02429  -0.00000  -0.19435
  51        4PY         0.02429  -0.02429   0.26782  -0.19435  -0.00000
  52        4PZ         0.26782  -0.02429   0.02429   0.19435  -0.19435
  53 5   Cl 1S         -0.00174  -0.00174   0.00174  -0.00000  -0.00000
  54        2S          0.01033   0.01033  -0.01033   0.00000   0.00000
  55        2PX        -0.00432  -0.13792   0.00432   0.00000   0.09959
  56        2PY         0.00432   0.00432  -0.13792   0.09959   0.00000
  57        2PZ        -0.13792  -0.00432   0.00432   0.09959  -0.09959
  58        3S         -0.03319  -0.03319   0.03319  -0.00000  -0.00000
  59        3PX         0.00645   0.29587  -0.00645  -0.00000  -0.21478
  60        3PY        -0.00645  -0.00645   0.29587  -0.21478  -0.00000
  61        3PZ         0.29587   0.00645  -0.00645  -0.21478   0.21478
  62        4S          0.04535   0.04535  -0.04535  -0.00000   0.00000
  63        4PX         0.02429   0.26782  -0.02429  -0.00000  -0.19435
  64        4PY        -0.02429  -0.02429   0.26782  -0.19435  -0.00000
  65        4PZ         0.26782   0.02429  -0.02429  -0.19435   0.19435
                          41        42        43        44        45
                        (T1)--O   (A1)--V   (T2)--V   (T2)--V   (T2)--V
     Eigenvalues --    -0.30074   0.25452   0.31512   0.31512   0.31512
   1 1   Al 1S          0.00000   0.05150   0.00000   0.00000   0.00000
   2        2S          0.00000  -0.29208   0.00000   0.00000   0.00000
   3        2PX         0.00000   0.00000  -0.12996   0.00000   0.00000
   4        2PY         0.00000   0.00000   0.00000  -0.12996   0.00000
   5        2PZ        -0.00000   0.00000   0.00000   0.00000  -0.12996
   6        3S          0.00000   0.32422   0.00000   0.00000   0.00000
   7        3PX         0.00000   0.00000   0.30346   0.00000   0.00000
   8        3PY         0.00000   0.00000   0.00000   0.30346   0.00000
   9        3PZ         0.00000   0.00000   0.00000   0.00000   0.30346
  10        4S          0.00000   1.58701   0.00000   0.00000   0.00000
  11        4PX         0.00000   0.00000   1.55301   0.00000   0.00000
  12        4PY         0.00000   0.00000   0.00000   1.55301   0.00000
  13        4PZ        -0.00000   0.00000   0.00000   0.00000   1.55301
  14 2   Cl 1S         -0.00000  -0.01581  -0.01000  -0.01000  -0.01000
  15        2S          0.00000   0.09866   0.06355   0.06355   0.06355
  16        2PX        -0.09959  -0.04997   0.03008  -0.03927  -0.03927
  17        2PY         0.09959  -0.04997  -0.03927   0.03008  -0.03927
  18        2PZ         0.00000  -0.04997  -0.03927  -0.03927   0.03008
  19        3S         -0.00000  -0.11470  -0.03081  -0.03081  -0.03081
  20        3PX         0.21478   0.10527  -0.06984   0.07920   0.07920
  21        3PY        -0.21478   0.10527   0.07920  -0.06984   0.07920
  22        3PZ        -0.00000   0.10527   0.07920   0.07920  -0.06984
  23        4S          0.00000  -0.40698  -0.49550  -0.49550  -0.49550
  24        4PX         0.19435   0.22713  -0.06554   0.25198   0.25198
  25        4PY        -0.19435   0.22713   0.25198  -0.06554   0.25198
  26        4PZ        -0.00000   0.22713   0.25198   0.25198  -0.06554
  27 3   Cl 1S         -0.00000  -0.01581   0.01000   0.01000  -0.01000
  28        2S          0.00000   0.09866  -0.06355  -0.06355   0.06355
  29        2PX         0.09959   0.04997   0.03008  -0.03927   0.03927
  30        2PY        -0.09959   0.04997  -0.03927   0.03008   0.03927
  31        2PZ         0.00000  -0.04997   0.03927   0.03927   0.03008
  32        3S         -0.00000  -0.11470   0.03081   0.03081  -0.03081
  33        3PX        -0.21478  -0.10527  -0.06984   0.07920  -0.07920
  34        3PY         0.21478  -0.10527   0.07920  -0.06984  -0.07920
  35        3PZ        -0.00000   0.10527  -0.07920  -0.07920  -0.06984
  36        4S          0.00000  -0.40698   0.49550   0.49550  -0.49550
  37        4PX        -0.19435  -0.22713  -0.06554   0.25198  -0.25198
  38        4PY         0.19435  -0.22713   0.25198  -0.06554  -0.25198
  39        4PZ        -0.00000   0.22713  -0.25198  -0.25198  -0.06554
  40 4   Cl 1S          0.00000  -0.01581  -0.01000   0.01000   0.01000
  41        2S         -0.00000   0.09866   0.06355  -0.06355  -0.06355
  42        2PX         0.09959  -0.04997   0.03008   0.03927   0.03927
  43        2PY         0.09959   0.04997   0.03927   0.03008  -0.03927
  44        2PZ         0.00000   0.04997   0.03927  -0.03927   0.03008
  45        3S          0.00000  -0.11470  -0.03081   0.03081   0.03081
  46        3PX        -0.21478   0.10527  -0.06984  -0.07920  -0.07920
  47        3PY        -0.21478  -0.10527  -0.07920  -0.06984   0.07920
  48        3PZ        -0.00000  -0.10527  -0.07920   0.07920  -0.06984
  49        4S         -0.00000  -0.40698  -0.49550   0.49550   0.49550
  50        4PX        -0.19435   0.22713  -0.06554  -0.25198  -0.25198
  51        4PY        -0.19435  -0.22713  -0.25198  -0.06554   0.25198
  52        4PZ        -0.00000  -0.22713  -0.25198   0.25198  -0.06554
  53 5   Cl 1S          0.00000  -0.01581   0.01000  -0.01000   0.01000
  54        2S         -0.00000   0.09866  -0.06355   0.06355  -0.06355
  55        2PX        -0.09959   0.04997   0.03008   0.03927  -0.03927
  56        2PY        -0.09959  -0.04997   0.03927   0.03008   0.03927
  57        2PZ         0.00000   0.04997  -0.03927   0.03927   0.03008
  58        3S          0.00000  -0.11470   0.03081  -0.03081   0.03081
  59        3PX         0.21478  -0.10527  -0.06984  -0.07920   0.07920
  60        3PY         0.21478   0.10527  -0.07920  -0.06984  -0.07920
  61        3PZ        -0.00000  -0.10527   0.07920  -0.07920  -0.06984
  62        4S         -0.00000  -0.40698   0.49550  -0.49550   0.49550
  63        4PX         0.19435  -0.22713  -0.06554  -0.25198   0.25198
  64        4PY         0.19435   0.22713  -0.25198  -0.06554  -0.25198
  65        4PZ        -0.00000  -0.22713   0.25198  -0.25198  -0.06554
                          46        47        48        49        50
                        (A1)--V   (T2)--V   (T2)--V   (T2)--V   (T2)--V
     Eigenvalues --     0.42350   0.49999   0.49999   0.49999   0.89375
   1 1   Al 1S         -0.05394   0.00000   0.00000   0.00000   0.00000
   2        2S          0.07071   0.00000   0.00000   0.00000   0.00000
   3        2PX         0.00000  -0.32649   0.00000   0.00000   0.00000
   4        2PY         0.00000   0.00000  -0.32649   0.00000   0.00000
   5        2PZ         0.00000   0.00000   0.00000  -0.32649   0.01085
   6        3S         -1.89632   0.00000   0.00000   0.00000   0.00000
   7        3PX         0.00000   1.50860   0.00000   0.00000   0.00000
   8        3PY         0.00000   0.00000   1.50860   0.00000   0.00000
   9        3PZ         0.00000   0.00000   0.00000   1.50860   0.04048
  10        4S          2.42572   0.00000   0.00000   0.00000   0.00000
  11        4PX         0.00000  -1.29000   0.00000   0.00000   0.00000
  12        4PY         0.00000   0.00000  -1.29000   0.00000   0.00000
  13        4PZ         0.00000   0.00000   0.00000  -1.29000  -0.15899
  14 2   Cl 1S         -0.00449  -0.00254  -0.00254  -0.00254  -0.02612
  15        2S          0.02929   0.01585   0.01585   0.01585   0.15956
  16        2PX         0.02459  -0.02942  -0.02310  -0.02310   0.08490
  17        2PY         0.02459  -0.02310  -0.02942  -0.02310   0.08490
  18        2PZ         0.02459  -0.02310  -0.02310  -0.02942  -0.00693
  19        3S         -0.00589  -0.03404  -0.03404  -0.03404  -0.70220
  20        3PX        -0.06230   0.06433   0.05084   0.05084  -0.29070
  21        3PY        -0.06230   0.05084   0.06433   0.05084  -0.29070
  22        3PZ        -0.06230   0.05084   0.05084   0.06433   0.02090
  23        4S         -0.40617   0.15003   0.15003   0.15003   0.70302
  24        4PX         0.04357   0.17030   0.07915   0.07915   0.25404
  25        4PY         0.04357   0.07915   0.17030   0.07915   0.25404
  26        4PZ         0.04357   0.07915   0.07915   0.17030  -0.00295
  27 3   Cl 1S         -0.00449   0.00254   0.00254  -0.00254  -0.02612
  28        2S          0.02929  -0.01585  -0.01585   0.01585   0.15956
  29        2PX        -0.02459  -0.02942  -0.02310   0.02310  -0.08490
  30        2PY        -0.02459  -0.02310  -0.02942   0.02310  -0.08490
  31        2PZ         0.02459   0.02310   0.02310  -0.02942  -0.00693
  32        3S         -0.00589   0.03404   0.03404  -0.03404  -0.70220
  33        3PX         0.06230   0.06433   0.05084  -0.05084   0.29070
  34        3PY         0.06230   0.05084   0.06433  -0.05084   0.29070
  35        3PZ        -0.06230  -0.05084  -0.05084   0.06433   0.02090
  36        4S         -0.40617  -0.15003  -0.15003   0.15003   0.70302
  37        4PX        -0.04357   0.17030   0.07915  -0.07915  -0.25404
  38        4PY        -0.04357   0.07915   0.17030  -0.07915  -0.25404
  39        4PZ         0.04357  -0.07915  -0.07915   0.17030  -0.00295
  40 4   Cl 1S         -0.00449  -0.00254   0.00254   0.00254   0.02612
  41        2S          0.02929   0.01585  -0.01585  -0.01585  -0.15956
  42        2PX         0.02459  -0.02942   0.02310   0.02310  -0.08490
  43        2PY        -0.02459   0.02310  -0.02942  -0.02310   0.08490
  44        2PZ        -0.02459   0.02310  -0.02310  -0.02942  -0.00693
  45        3S         -0.00589  -0.03404   0.03404   0.03404   0.70220
  46        3PX        -0.06230   0.06433  -0.05084  -0.05084   0.29070
  47        3PY         0.06230  -0.05084   0.06433   0.05084  -0.29070
  48        3PZ         0.06230  -0.05084   0.05084   0.06433   0.02090
  49        4S         -0.40617   0.15003  -0.15003  -0.15003  -0.70302
  50        4PX         0.04357   0.17030  -0.07915  -0.07915  -0.25404
  51        4PY        -0.04357  -0.07915   0.17030   0.07915   0.25404
  52        4PZ        -0.04357  -0.07915   0.07915   0.17030  -0.00295
  53 5   Cl 1S         -0.00449   0.00254  -0.00254   0.00254   0.02612
  54        2S          0.02929  -0.01585   0.01585  -0.01585  -0.15956
  55        2PX        -0.02459  -0.02942   0.02310  -0.02310   0.08490
  56        2PY         0.02459   0.02310  -0.02942   0.02310  -0.08490
  57        2PZ        -0.02459  -0.02310   0.02310  -0.02942  -0.00693
  58        3S         -0.00589   0.03404  -0.03404   0.03404   0.70220
  59        3PX         0.06230   0.06433  -0.05084   0.05084  -0.29070
  60        3PY        -0.06230  -0.05084   0.06433  -0.05084   0.29070
  61        3PZ         0.06230   0.05084  -0.05084   0.06433   0.02090
  62        4S         -0.40617  -0.15003   0.15003  -0.15003  -0.70302
  63        4PX        -0.04357   0.17030  -0.07915   0.07915   0.25404
  64        4PY         0.04357  -0.07915   0.17030  -0.07915  -0.25404
  65        4PZ        -0.04357   0.07915  -0.07915   0.17030  -0.00295
                          51        52        53        54        55
                        (T2)--V   (T2)--V   (E)--V    (E)--V    (A1)--V
     Eigenvalues --     0.89375   0.89375   0.89662   0.89662   0.92880
   1 1   Al 1S          0.00000   0.00000  -0.00000   0.00000   0.00408
   2        2S          0.00000   0.00000   0.00000  -0.00000   0.04930
   3        2PX         0.01085   0.00000   0.00000   0.00000   0.00000
   4        2PY         0.00000   0.01085   0.00000   0.00000   0.00000
   5        2PZ         0.00000   0.00000   0.00000   0.00000   0.00000
   6        3S          0.00000   0.00000  -0.00000   0.00000   0.60479
   7        3PX         0.04048   0.00000   0.00000   0.00000   0.00000
   8        3PY         0.00000   0.04048   0.00000   0.00000   0.00000
   9        3PZ         0.00000   0.00000   0.00000   0.00000   0.00000
  10        4S          0.00000   0.00000  -0.00000  -0.00000  -0.21034
  11        4PX        -0.15899   0.00000   0.00000   0.00000   0.00000
  12        4PY         0.00000  -0.15899   0.00000   0.00000   0.00000
  13        4PZ         0.00000   0.00000   0.00000   0.00000   0.00000
  14 2   Cl 1S         -0.02612  -0.02612   0.00000   0.00000  -0.01486
  15        2S          0.15956   0.15956  -0.00000  -0.00000   0.09130
  16        2PX        -0.00693   0.08490   0.04795  -0.13699   0.09153
  17        2PY         0.08490  -0.00693   0.09466   0.11002   0.09153
  18        2PZ         0.08490   0.08490  -0.14261   0.02697   0.09153
  19        3S         -0.70220  -0.70220  -0.00000   0.00000  -0.37437
  20        3PX         0.02090  -0.29070  -0.16489   0.47109  -0.32317
  21        3PY        -0.29070   0.02090  -0.32553  -0.37834  -0.32317
  22        3PZ        -0.29070  -0.29070   0.49042  -0.09275  -0.32317
  23        4S          0.70302   0.70302   0.00000  -0.00000   0.34903
  24        4PX        -0.00295   0.25404   0.15143  -0.43266   0.34004
  25        4PY         0.25404  -0.00295   0.29897   0.34747   0.34004
  26        4PZ         0.25404   0.25404  -0.45041   0.08518   0.34004
  27 3   Cl 1S          0.02612   0.02612   0.00000   0.00000  -0.01486
  28        2S         -0.15956  -0.15956  -0.00000  -0.00000   0.09130
  29        2PX        -0.00693   0.08490  -0.04795   0.13699  -0.09153
  30        2PY         0.08490  -0.00693  -0.09466  -0.11002  -0.09153
  31        2PZ        -0.08490  -0.08490  -0.14261   0.02697   0.09153
  32        3S          0.70220   0.70220  -0.00000   0.00000  -0.37437
  33        3PX         0.02090  -0.29070   0.16489  -0.47109   0.32317
  34        3PY        -0.29070   0.02090   0.32553   0.37834   0.32317
  35        3PZ         0.29070   0.29070   0.49042  -0.09275  -0.32317
  36        4S         -0.70302  -0.70302   0.00000  -0.00000   0.34903
  37        4PX        -0.00295   0.25404  -0.15143   0.43266  -0.34004
  38        4PY         0.25404  -0.00295  -0.29897  -0.34747  -0.34004
  39        4PZ        -0.25404  -0.25404  -0.45041   0.08518   0.34004
  40 4   Cl 1S         -0.02612   0.02612   0.00000   0.00000  -0.01486
  41        2S          0.15956  -0.15956  -0.00000  -0.00000   0.09130
  42        2PX        -0.00693  -0.08490   0.04795  -0.13699   0.09153
  43        2PY        -0.08490  -0.00693  -0.09466  -0.11002  -0.09153
  44        2PZ        -0.08490   0.08490   0.14261  -0.02697  -0.09153
  45        3S         -0.70220   0.70220  -0.00000   0.00000  -0.37437
  46        3PX         0.02090   0.29070  -0.16489   0.47109  -0.32317
  47        3PY         0.29070   0.02090   0.32553   0.37834   0.32317
  48        3PZ         0.29070  -0.29070  -0.49042   0.09275   0.32317
  49        4S          0.70302  -0.70302   0.00000  -0.00000   0.34903
  50        4PX        -0.00295  -0.25404   0.15143  -0.43266   0.34004
  51        4PY        -0.25404  -0.00295  -0.29897  -0.34747  -0.34004
  52        4PZ        -0.25404   0.25404   0.45041  -0.08518  -0.34004
  53 5   Cl 1S          0.02612  -0.02612   0.00000   0.00000  -0.01486
  54        2S         -0.15956   0.15956  -0.00000  -0.00000   0.09130
  55        2PX        -0.00693  -0.08490  -0.04795   0.13699  -0.09153
  56        2PY        -0.08490  -0.00693   0.09466   0.11002   0.09153
  57        2PZ         0.08490  -0.08490   0.14261  -0.02697  -0.09153
  58        3S          0.70220  -0.70220  -0.00000   0.00000  -0.37437
  59        3PX         0.02090   0.29070   0.16489  -0.47109   0.32317
  60        3PY         0.29070   0.02090  -0.32553  -0.37834  -0.32317
  61        3PZ        -0.29070   0.29070  -0.49042   0.09275   0.32317
  62        4S         -0.70302   0.70302   0.00000  -0.00000   0.34903
  63        4PX        -0.00295  -0.25404  -0.15143   0.43266  -0.34004
  64        4PY        -0.25404  -0.00295   0.29897   0.34747   0.34004
  65        4PZ         0.25404  -0.25404   0.45041  -0.08518  -0.34004
                          56        57        58        59        60
                        (T1)--V   (T1)--V   (T1)--V   (T2)--V   (T2)--V
     Eigenvalues --     1.02673   1.02673   1.02673   1.09037   1.09037
   1 1   Al 1S          0.00000   0.00000   0.00000   0.00000   0.00000
   2        2S          0.00000   0.00000   0.00000   0.00000   0.00000
   3        2PX        -0.00000   0.00000   0.00000  -0.01272   0.00000
   4        2PY         0.00000  -0.00000   0.00000   0.00000   0.00000
   5        2PZ         0.00000   0.00000  -0.00000   0.00000  -0.01272
   6        3S          0.00000   0.00000   0.00000   0.00000   0.00000
   7        3PX         0.00000   0.00000   0.00000   0.40418   0.00000
   8        3PY         0.00000   0.00000   0.00000   0.00000   0.00000
   9        3PZ         0.00000   0.00000   0.00000   0.00000   0.40418
  10        4S          0.00000   0.00000   0.00000   0.00000   0.00000
  11        4PX         0.00000   0.00000   0.00000  -0.29018   0.00000
  12        4PY         0.00000   0.00000   0.00000   0.00000   0.00000
  13        4PZ         0.00000   0.00000   0.00000   0.00000  -0.29018
  14 2   Cl 1S          0.00000   0.00000   0.00000   0.00993   0.00993
  15        2S         -0.00000  -0.00000  -0.00000  -0.06042  -0.06042
  16        2PX        -0.00000   0.12553   0.12553   0.16411   0.04184
  17        2PY         0.12553   0.00000  -0.12553   0.04184   0.04184
  18        2PZ        -0.12553  -0.12553   0.00000   0.04184   0.16411
  19        3S          0.00000   0.00000   0.00000   0.30547   0.30547
  20        3PX         0.00000  -0.44531  -0.44531  -0.59537  -0.15505
  21        3PY        -0.44531  -0.00000   0.44531  -0.15505  -0.15505
  22        3PZ         0.44531   0.44531  -0.00000  -0.15505  -0.59537
  23        4S         -0.00000  -0.00000  -0.00000  -0.29870  -0.29870
  24        4PX        -0.00000   0.45406   0.45406   0.68130   0.19577
  25        4PY         0.45406   0.00000  -0.45406   0.19577   0.19577
  26        4PZ        -0.45406  -0.45406   0.00000   0.19577   0.68130
  27 3   Cl 1S         -0.00000  -0.00000   0.00000  -0.00993   0.00993
  28        2S          0.00000   0.00000  -0.00000   0.06042  -0.06042
  29        2PX        -0.00000   0.12553  -0.12553   0.16411  -0.04184
  30        2PY         0.12553   0.00000   0.12553   0.04184  -0.04184
  31        2PZ         0.12553   0.12553   0.00000  -0.04184   0.16411
  32        3S         -0.00000  -0.00000   0.00000  -0.30547   0.30547
  33        3PX         0.00000  -0.44531   0.44531  -0.59537   0.15505
  34        3PY        -0.44531  -0.00000  -0.44531  -0.15505   0.15505
  35        3PZ        -0.44531  -0.44531  -0.00000   0.15505  -0.59537
  36        4S          0.00000   0.00000  -0.00000   0.29870  -0.29870
  37        4PX        -0.00000   0.45406  -0.45406   0.68130  -0.19577
  38        4PY         0.45406   0.00000   0.45406   0.19577  -0.19577
  39        4PZ         0.45406   0.45406   0.00000  -0.19577   0.68130
  40 4   Cl 1S          0.00000  -0.00000  -0.00000   0.00993  -0.00993
  41        2S         -0.00000   0.00000   0.00000  -0.06042   0.06042
  42        2PX        -0.00000  -0.12553  -0.12553   0.16411  -0.04184
  43        2PY        -0.12553   0.00000  -0.12553  -0.04184   0.04184
  44        2PZ         0.12553  -0.12553   0.00000  -0.04184   0.16411
  45        3S          0.00000  -0.00000  -0.00000   0.30547  -0.30547
  46        3PX         0.00000   0.44531   0.44531  -0.59537   0.15505
  47        3PY         0.44531  -0.00000   0.44531   0.15505  -0.15505
  48        3PZ        -0.44531   0.44531  -0.00000   0.15505  -0.59537
  49        4S         -0.00000   0.00000   0.00000  -0.29870   0.29870
  50        4PX        -0.00000  -0.45406  -0.45406   0.68130  -0.19577
  51        4PY        -0.45406   0.00000  -0.45406  -0.19577   0.19577
  52        4PZ         0.45406  -0.45406   0.00000  -0.19577   0.68130
  53 5   Cl 1S         -0.00000   0.00000  -0.00000  -0.00993  -0.00993
  54        2S          0.00000  -0.00000   0.00000   0.06042   0.06042
  55        2PX        -0.00000  -0.12553   0.12553   0.16411   0.04184
  56        2PY        -0.12553   0.00000   0.12553  -0.04184  -0.04184
  57        2PZ        -0.12553   0.12553   0.00000   0.04184   0.16411
  58        3S         -0.00000   0.00000  -0.00000  -0.30547  -0.30547
  59        3PX         0.00000   0.44531  -0.44531  -0.59537  -0.15505
  60        3PY         0.44531  -0.00000  -0.44531   0.15505   0.15505
  61        3PZ         0.44531  -0.44531  -0.00000  -0.15505  -0.59537
  62        4S          0.00000  -0.00000   0.00000   0.29870   0.29870
  63        4PX        -0.00000  -0.45406   0.45406   0.68130   0.19577
  64        4PY        -0.45406   0.00000   0.45406  -0.19577  -0.19577
  65        4PZ        -0.45406   0.45406   0.00000   0.19577   0.68130
                          61        62        63        64        65
                        (T2)--V   (T2)--V   (T2)--V   (T2)--V   (A1)--V
     Eigenvalues --     1.09037   1.15286   1.15286   1.15286   1.32691
   1 1   Al 1S          0.00000   0.00000   0.00000   0.00000   0.02028
   2        2S          0.00000   0.00000   0.00000   0.00000  -0.17722
   3        2PX         0.00000  -0.02528   0.00000   0.00000   0.00000
   4        2PY        -0.01272   0.00000   0.00000  -0.02528   0.00000
   5        2PZ         0.00000   0.00000  -0.02528   0.00000   0.00000
   6        3S          0.00000   0.00000   0.00000   0.00000   0.00199
   7        3PX         0.00000   0.27439   0.00000   0.00000   0.00000
   8        3PY         0.40418   0.00000   0.00000   0.27439   0.00000
   9        3PZ         0.00000   0.00000   0.27439   0.00000   0.00000
  10        4S          0.00000   0.00000   0.00000   0.00000   3.07359
  11        4PX         0.00000   1.45113   0.00000   0.00000   0.00000
  12        4PY        -0.29018   0.00000   0.00000   1.45113   0.00000
  13        4PZ         0.00000   0.00000   1.45113   0.00000   0.00000
  14 2   Cl 1S          0.00993   0.02262   0.02262   0.02262   0.03200
  15        2S         -0.06042  -0.13574  -0.13574  -0.13574  -0.19112
  16        2PX         0.04184  -0.06951   0.08441   0.08441   0.04432
  17        2PY         0.16411   0.08441   0.08441  -0.06951   0.04432
  18        2PZ         0.04184   0.08441  -0.06951   0.08441   0.04432
  19        3S          0.30547   0.78823   0.78823   0.78823   1.22695
  20        3PX        -0.15505   0.26019  -0.32435  -0.32435  -0.19295
  21        3PY        -0.59537  -0.32435  -0.32435   0.26019  -0.19295
  22        3PZ        -0.15505  -0.32435   0.26019  -0.32435  -0.19295
  23        4S         -0.29870  -1.21453  -1.21453  -1.21453  -1.97384
  24        4PX         0.19577  -0.32458   0.54481   0.54481   0.49876
  25        4PY         0.68130   0.54481   0.54481  -0.32458   0.49876
  26        4PZ         0.19577   0.54481  -0.32458   0.54481   0.49876
  27 3   Cl 1S         -0.00993  -0.02262   0.02262  -0.02262   0.03200
  28        2S          0.06042   0.13574  -0.13574   0.13574  -0.19112
  29        2PX         0.04184  -0.06951  -0.08441   0.08441  -0.04432
  30        2PY         0.16411   0.08441  -0.08441  -0.06951  -0.04432
  31        2PZ        -0.04184  -0.08441  -0.06951  -0.08441   0.04432
  32        3S         -0.30547  -0.78823   0.78823  -0.78823   1.22695
  33        3PX        -0.15505   0.26019   0.32435  -0.32435   0.19295
  34        3PY        -0.59537  -0.32435   0.32435   0.26019   0.19295
  35        3PZ         0.15505   0.32435   0.26019   0.32435  -0.19295
  36        4S          0.29870   1.21453  -1.21453   1.21453  -1.97384
  37        4PX         0.19577  -0.32458  -0.54481   0.54481  -0.49876
  38        4PY         0.68130   0.54481  -0.54481  -0.32458  -0.49876
  39        4PZ        -0.19577  -0.54481  -0.32458  -0.54481   0.49876
  40 4   Cl 1S         -0.00993   0.02262  -0.02262  -0.02262   0.03200
  41        2S          0.06042  -0.13574   0.13574   0.13574  -0.19112
  42        2PX        -0.04184  -0.06951  -0.08441  -0.08441   0.04432
  43        2PY         0.16411  -0.08441   0.08441  -0.06951  -0.04432
  44        2PZ         0.04184  -0.08441  -0.06951   0.08441  -0.04432
  45        3S         -0.30547   0.78823  -0.78823  -0.78823   1.22695
  46        3PX         0.15505   0.26019   0.32435   0.32435  -0.19295
  47        3PY        -0.59537   0.32435  -0.32435   0.26019   0.19295
  48        3PZ        -0.15505   0.32435   0.26019  -0.32435   0.19295
  49        4S          0.29870  -1.21453   1.21453   1.21453  -1.97384
  50        4PX        -0.19577  -0.32458  -0.54481  -0.54481   0.49876
  51        4PY         0.68130  -0.54481   0.54481  -0.32458  -0.49876
  52        4PZ         0.19577  -0.54481  -0.32458   0.54481  -0.49876
  53 5   Cl 1S          0.00993  -0.02262  -0.02262   0.02262   0.03200
  54        2S         -0.06042   0.13574   0.13574  -0.13574  -0.19112
  55        2PX        -0.04184  -0.06951   0.08441  -0.08441  -0.04432
  56        2PY         0.16411  -0.08441  -0.08441  -0.06951   0.04432
  57        2PZ        -0.04184   0.08441  -0.06951  -0.08441  -0.04432
  58        3S          0.30547  -0.78823  -0.78823   0.78823   1.22695
  59        3PX         0.15505   0.26019  -0.32435   0.32435   0.19295
  60        3PY        -0.59537   0.32435   0.32435   0.26019  -0.19295
  61        3PZ         0.15505  -0.32435   0.26019   0.32435   0.19295
  62        4S         -0.29870   1.21453   1.21453  -1.21453  -1.97384
  63        4PX        -0.19577  -0.32458   0.54481  -0.54481  -0.49876
  64        4PY         0.68130  -0.54481  -0.54481  -0.32458   0.49876
  65        4PZ        -0.19577   0.54481  -0.32458  -0.54481  -0.49876
     Density Matrix:
                           1         2         3         4         5
   1 1   Al 1S          2.11958
   2        2S         -0.50457   2.13381
   3        2PX         0.00000   0.00000   1.94275
   4        2PY         0.00000   0.00000  -0.00000   1.94275
   5        2PZ         0.00000   0.00000   0.00000  -0.00000   1.94275
   6        3S         -0.04088   0.02511   0.00000   0.00000   0.00000
   7        3PX         0.00000   0.00000   0.12144  -0.00000  -0.00000
   8        3PY         0.00000   0.00000  -0.00000   0.12144   0.00000
   9        3PZ         0.00000   0.00000  -0.00000   0.00000   0.12144
  10        4S         -0.00288  -0.02506   0.00000   0.00000   0.00000
  11        4PX         0.00000   0.00000  -0.04261   0.00000   0.00000
  12        4PY         0.00000   0.00000   0.00000  -0.04261  -0.00000
  13        4PZ         0.00000   0.00000   0.00000  -0.00000  -0.04261
  14 2   Cl 1S          0.00020   0.00004  -0.00211  -0.00211  -0.00211
  15        2S         -0.00141   0.00491   0.01221   0.01221   0.01221
  16        2PX         0.00542  -0.02599  -0.00885  -0.02018  -0.02018
  17        2PY         0.00542  -0.02599  -0.02018  -0.00885  -0.02018
  18        2PZ         0.00542  -0.02599  -0.02018  -0.02018  -0.00885
  19        3S         -0.00648   0.00638  -0.01102  -0.01102  -0.01102
  20        3PX        -0.01068   0.05309   0.01920   0.04310   0.04310
  21        3PY        -0.01068   0.05309   0.04310   0.01920   0.04310
  22        3PZ        -0.01068   0.05309   0.04310   0.04310   0.01920
  23        4S          0.01819  -0.03227  -0.02112  -0.02112  -0.02112
  24        4PX        -0.01632   0.05686   0.02238   0.04572   0.04572
  25        4PY        -0.01632   0.05686   0.04572   0.02238   0.04572
  26        4PZ        -0.01632   0.05686   0.04572   0.04572   0.02238
  27 3   Cl 1S          0.00020   0.00004   0.00211   0.00211  -0.00211
  28        2S         -0.00141   0.00491  -0.01221  -0.01221   0.01221
  29        2PX        -0.00542   0.02599  -0.00885  -0.02018   0.02018
  30        2PY        -0.00542   0.02599  -0.02018  -0.00885   0.02018
  31        2PZ         0.00542  -0.02599   0.02018   0.02018  -0.00885
  32        3S         -0.00648   0.00638   0.01102   0.01102  -0.01102
  33        3PX         0.01068  -0.05309   0.01920   0.04310  -0.04310
  34        3PY         0.01068  -0.05309   0.04310   0.01920  -0.04310
  35        3PZ        -0.01068   0.05309  -0.04310  -0.04310   0.01920
  36        4S          0.01819  -0.03227   0.02112   0.02112  -0.02112
  37        4PX         0.01632  -0.05686   0.02238   0.04572  -0.04572
  38        4PY         0.01632  -0.05686   0.04572   0.02238  -0.04572
  39        4PZ        -0.01632   0.05686  -0.04572  -0.04572   0.02238
  40 4   Cl 1S          0.00020   0.00004  -0.00211   0.00211   0.00211
  41        2S         -0.00141   0.00491   0.01221  -0.01221  -0.01221
  42        2PX         0.00542  -0.02599  -0.00885   0.02018   0.02018
  43        2PY        -0.00542   0.02599   0.02018  -0.00885  -0.02018
  44        2PZ        -0.00542   0.02599   0.02018  -0.02018  -0.00885
  45        3S         -0.00648   0.00638  -0.01102   0.01102   0.01102
  46        3PX        -0.01068   0.05309   0.01920  -0.04310  -0.04310
  47        3PY         0.01068  -0.05309  -0.04310   0.01920   0.04310
  48        3PZ         0.01068  -0.05309  -0.04310   0.04310   0.01920
  49        4S          0.01819  -0.03227  -0.02112   0.02112   0.02112
  50        4PX        -0.01632   0.05686   0.02238  -0.04572  -0.04572
  51        4PY         0.01632  -0.05686  -0.04572   0.02238   0.04572
  52        4PZ         0.01632  -0.05686  -0.04572   0.04572   0.02238
  53 5   Cl 1S          0.00020   0.00004   0.00211  -0.00211   0.00211
  54        2S         -0.00141   0.00491  -0.01221   0.01221  -0.01221
  55        2PX        -0.00542   0.02599  -0.00885   0.02018  -0.02018
  56        2PY         0.00542  -0.02599   0.02018  -0.00885   0.02018
  57        2PZ        -0.00542   0.02599  -0.02018   0.02018  -0.00885
  58        3S         -0.00648   0.00638   0.01102  -0.01102   0.01102
  59        3PX         0.01068  -0.05309   0.01920  -0.04310   0.04310
  60        3PY        -0.01068   0.05309  -0.04310   0.01920  -0.04310
  61        3PZ         0.01068  -0.05309   0.04310  -0.04310   0.01920
  62        4S          0.01819  -0.03227   0.02112  -0.02112   0.02112
  63        4PX         0.01632  -0.05686   0.02238  -0.04572   0.04572
  64        4PY        -0.01632   0.05686  -0.04572   0.02238  -0.04572
  65        4PZ         0.01632  -0.05686   0.04572  -0.04572   0.02238
                           6         7         8         9        10
   6        3S          0.31601
   7        3PX         0.00000   0.13228
   8        3PY         0.00000  -0.00000   0.13228
   9        3PZ         0.00000  -0.00000  -0.00000   0.13228
  10        4S         -0.00026   0.00000   0.00000   0.00000   0.02070
[...]
  59        3PX        -0.00048   0.00000  -0.00000   0.00000   0.00000
  60        3PY         0.00000  -0.00000   0.00000  -0.00000   0.00000
  61        3PZ        -0.00018  -0.00000   0.00000  -0.00000   0.00000
  62        4S         -0.00141   0.00000  -0.00000   0.00000   0.00000
  63        4PX        -0.00519  -0.00000   0.00000  -0.00000   0.00000
  64        4PY         0.00000   0.00000  -0.00000   0.00000   0.00000
  65        4PZ        -0.00112   0.00000  -0.00000   0.00000   0.00001
                          31        32        33        34        35
  31        2PZ         2.03907
  32        3S          0.00000   0.70379
  33        3PX         0.00000   0.00000   0.66326
  34        3PY        -0.00000   0.00000   0.00000   0.66326
  35        3PZ        -0.04711   0.00000  -0.00000   0.00000   0.66326
  36        4S          0.00000   0.50845   0.00000   0.00000   0.00000
  37        4PX         0.00000   0.00000   0.35877   0.00000  -0.00000
  38        4PY        -0.00000   0.00000   0.00000   0.35877   0.00000
  39        4PZ        -0.02286   0.00000  -0.00000   0.00000   0.35877
  40 4   Cl 1S          0.00000  -0.00000  -0.00000   0.00000  -0.00000
  41        2S          0.00000   0.00000   0.00000  -0.00000   0.00000
  42        2PX         0.00000   0.00000   0.00000   0.00000   0.00000
  43        2PY         0.00000  -0.00000  -0.00000   0.00000  -0.00000
  44        2PZ         0.00000   0.00000   0.00000   0.00000   0.00000
  45        3S          0.00000   0.00000  -0.00000  -0.00000  -0.00000
  46        3PX         0.00000  -0.00000  -0.00000  -0.00000  -0.00000
  47        3PY        -0.00000   0.00000   0.00000  -0.00000   0.00000
  48        3PZ         0.00000  -0.00000  -0.00000  -0.00000  -0.00000
  49        4S          0.00000  -0.00000  -0.00013   0.00000  -0.00013
  50        4PX         0.00001  -0.00002  -0.00018   0.00000  -0.00048
  51        4PY        -0.00000   0.00000   0.00000   0.00001   0.00000
  52        4PZ         0.00000  -0.00002  -0.00048   0.00000  -0.00018
  53 5   Cl 1S          0.00000  -0.00000  -0.00000  -0.00000  -0.00000
  54        2S          0.00000   0.00000   0.00000   0.00000   0.00000
  55        2PX         0.00000   0.00000   0.00000   0.00000   0.00000
  56        2PY         0.00000   0.00000  -0.00000   0.00000   0.00000
  57        2PZ         0.00000   0.00000  -0.00000   0.00000   0.00000
  58        3S          0.00000   0.00000   0.00000  -0.00000  -0.00000
  59        3PX         0.00000  -0.00000  -0.00000  -0.00000  -0.00000
  60        3PY         0.00000  -0.00000   0.00000  -0.00000  -0.00000
  61        3PZ         0.00000  -0.00000   0.00000  -0.00000  -0.00000
  62        4S          0.00000  -0.00000  -0.00000  -0.00013  -0.00013
  63        4PX         0.00000  -0.00000   0.00001  -0.00000  -0.00000
  64        4PY         0.00001  -0.00002  -0.00000  -0.00018  -0.00048
  65        4PZ         0.00000  -0.00002  -0.00000  -0.00048  -0.00018
                          36        37        38        39        40
  36        4S          0.67998
  37        4PX         0.00000   0.52329
  38        4PY         0.00000   0.00000   0.52329
  39        4PZ         0.00000  -0.00000   0.00000   0.52329
  40 4   Cl 1S          0.00000   0.00000  -0.00000   0.00000   2.14382
  41        2S         -0.00000  -0.00000   0.00000  -0.00000  -0.14830
  42        2PX         0.00000   0.00000   0.00000   0.00001   0.00000
  43        2PY         0.00000   0.00000  -0.00000   0.00000   0.00000
  44        2PZ         0.00000   0.00001   0.00000   0.00000   0.00000
  45        3S         -0.00000  -0.00002  -0.00000  -0.00002  -0.00225
  46        3PX        -0.00013  -0.00018  -0.00000  -0.00048   0.00000
  47        3PY        -0.00000  -0.00000   0.00001  -0.00000   0.00000
  48        3PZ        -0.00013  -0.00048  -0.00000  -0.00018   0.00000
  49        4S          0.00000  -0.00141   0.00000  -0.00141   0.00577
  50        4PX        -0.00141  -0.00112  -0.00000  -0.00519   0.00000
  51        4PY        -0.00000   0.00000   0.00028   0.00000   0.00000
  52        4PZ        -0.00141  -0.00519  -0.00000  -0.00112   0.00000
  53 5   Cl 1S          0.00000   0.00000   0.00000   0.00000   0.00000
  54        2S         -0.00000  -0.00000  -0.00000  -0.00000   0.00000
  55        2PX        -0.00000  -0.00000  -0.00000  -0.00000   0.00000
  56        2PY         0.00000  -0.00000   0.00000   0.00001   0.00000
  57        2PZ         0.00000  -0.00000   0.00001   0.00000   0.00000
  58        3S         -0.00000   0.00000  -0.00002  -0.00002  -0.00000
  59        3PX         0.00000   0.00001   0.00000   0.00000  -0.00000
  60        3PY        -0.00013   0.00000  -0.00018  -0.00048  -0.00000
  61        3PZ        -0.00013   0.00000  -0.00048  -0.00018   0.00000
  62        4S          0.00000  -0.00000  -0.00141  -0.00141   0.00000
  63        4PX         0.00000   0.00028  -0.00000  -0.00000   0.00000
  64        4PY        -0.00141   0.00000  -0.00112  -0.00519   0.00000
  65        4PZ        -0.00141   0.00000  -0.00519  -0.00112  -0.00000
                          41        42        43        44        45
  41        2S          2.38047
  42        2PX         0.00000   2.03907
  43        2PY         0.00000   0.00000   2.03907
  44        2PZ         0.00000   0.00000   0.00000   2.03907
  45        3S         -0.10946   0.00000   0.00000   0.00000   0.70379
  46        3PX         0.00000  -0.04711  -0.00000  -0.00000   0.00000
  47        3PY         0.00000  -0.00000  -0.04711  -0.00000   0.00000
  48        3PZ         0.00000  -0.00000  -0.00000  -0.04711   0.00000
  49        4S         -0.17406   0.00000   0.00000   0.00000   0.50845
  50        4PX         0.00000  -0.02286  -0.00000  -0.00000   0.00000
  51        4PY         0.00000  -0.00000  -0.02286  -0.00000   0.00000
  52        4PZ         0.00000  -0.00000  -0.00000  -0.02286   0.00000
  53 5   Cl 1S          0.00000   0.00000   0.00000   0.00000  -0.00000
  54        2S          0.00000   0.00000   0.00000   0.00000   0.00000
  55        2PX         0.00000   0.00000   0.00000   0.00000   0.00000
  56        2PY         0.00000   0.00000   0.00000   0.00000   0.00000
  57        2PZ         0.00000   0.00000   0.00000   0.00000   0.00000
  58        3S          0.00000   0.00000   0.00000   0.00000   0.00000
  59        3PX         0.00000   0.00000   0.00000   0.00000  -0.00000
  60        3PY         0.00000   0.00000   0.00000   0.00000  -0.00000
  61        3PZ         0.00000  -0.00000  -0.00000   0.00000  -0.00000
  62        4S         -0.00000   0.00000   0.00000  -0.00000  -0.00000
  63        4PX        -0.00000   0.00000   0.00001  -0.00000  -0.00002
  64        4PY        -0.00000   0.00001   0.00000  -0.00000  -0.00002
  65        4PZ        -0.00000  -0.00000  -0.00000  -0.00000   0.00000
                          46        47        48        49        50
  46        3PX         0.66326
  47        3PY         0.00000   0.66326
  48        3PZ         0.00000   0.00000   0.66326
  49        4S          0.00000   0.00000   0.00000   0.67998
  50        4PX         0.35877   0.00000   0.00000   0.00000   0.52329
  51        4PY         0.00000   0.35877   0.00000   0.00000   0.00000
  52        4PZ         0.00000   0.00000   0.35877   0.00000   0.00000
  53 5   Cl 1S         -0.00000  -0.00000   0.00000   0.00000   0.00000
  54        2S          0.00000   0.00000   0.00000  -0.00000  -0.00000
  55        2PX         0.00000   0.00000  -0.00000   0.00000   0.00000
  56        2PY         0.00000   0.00000  -0.00000   0.00000   0.00001
  57        2PZ         0.00000   0.00000   0.00000  -0.00000  -0.00000
  58        3S         -0.00000  -0.00000  -0.00000  -0.00000  -0.00002
  59        3PX        -0.00000  -0.00000  -0.00000  -0.00013  -0.00018
  60        3PY        -0.00000  -0.00000  -0.00000  -0.00013  -0.00048
  61        3PZ        -0.00000  -0.00000  -0.00000   0.00000   0.00000
  62        4S         -0.00013  -0.00013   0.00000   0.00000  -0.00141
  63        4PX        -0.00018  -0.00048   0.00000  -0.00141  -0.00112
  64        4PY        -0.00048  -0.00018   0.00000  -0.00141  -0.00519
  65        4PZ         0.00000   0.00000   0.00001   0.00000   0.00000
                          51        52        53        54        55
  51        4PY         0.52329
  52        4PZ         0.00000   0.52329
  53 5   Cl 1S          0.00000  -0.00000   2.14382
  54        2S         -0.00000  -0.00000  -0.14830   2.38047
  55        2PX         0.00001  -0.00000   0.00000   0.00000   2.03907
  56        2PY         0.00000  -0.00000   0.00000   0.00000  -0.00000
  57        2PZ        -0.00000  -0.00000   0.00000   0.00000  -0.00000
  58        3S         -0.00002   0.00000  -0.00225  -0.10946   0.00000
  59        3PX        -0.00048   0.00000   0.00000   0.00000  -0.04711
  60        3PY        -0.00018   0.00000   0.00000   0.00000   0.00000
  61        3PZ         0.00000   0.00001   0.00000   0.00000   0.00000
  62        4S         -0.00141   0.00000   0.00577  -0.17406   0.00000
  63        4PX        -0.00519  -0.00000   0.00000   0.00000  -0.02286
  64        4PY        -0.00112   0.00000   0.00000   0.00000   0.00000
  65        4PZ        -0.00000   0.00028   0.00000   0.00000   0.00000
                          56        57        58        59        60
  56        2PY         2.03907
  57        2PZ        -0.00000   2.03907
  58        3S          0.00000   0.00000   0.70379
  59        3PX         0.00000   0.00000   0.00000   0.66326
  60        3PY        -0.04711   0.00000   0.00000  -0.00000   0.66326
  61        3PZ         0.00000  -0.04711   0.00000  -0.00000  -0.00000
  62        4S          0.00000   0.00000   0.50845   0.00000   0.00000
  63        4PX         0.00000   0.00000   0.00000   0.35877  -0.00000
  64        4PY        -0.02286   0.00000   0.00000  -0.00000   0.35877
  65        4PZ         0.00000  -0.02286   0.00000  -0.00000  -0.00000
                          61        62        63        64        65
  61        3PZ         0.66326
  62        4S          0.00000   0.67998
  63        4PX        -0.00000   0.00000   0.52329
  64        4PY        -0.00000   0.00000  -0.00000   0.52329
  65        4PZ         0.35877   0.00000  -0.00000  -0.00000   0.52329
     Gross orbital populations:
                           1
   1 1   Al 1S          1.99863
   2        2S          1.97513
   3        2PX         1.95989
   4        2PY         1.95989
   5        2PZ         1.95989
   6        3S          0.62023
   7        3PX         0.35311
   8        3PY         0.35311
   9        3PZ         0.35311
  10        4S         -0.05253
  11        4PX         0.02925
  12        4PY         0.02925
  13        4PZ         0.02925
  14 2   Cl 1S          1.99857
  15        2S          1.95811
  16        2PX         1.96851
  17        2PY         1.96851
  18        2PZ         1.96851
  19        3S          1.08924
  20        3PX         0.99940
  21        3PY         0.99940
  22        3PZ         0.99940
  23        4S          0.96328
  24        4PX         0.89834
  25        4PY         0.89834
  26        4PZ         0.89834
  27 3   Cl 1S          1.99857
  28        2S          1.95811
  29        2PX         1.96851
  30        2PY         1.96851
  31        2PZ         1.96851
  32        3S          1.08924
  33        3PX         0.99940
  34        3PY         0.99940
  35        3PZ         0.99940
  36        4S          0.96328
  37        4PX         0.89834
  38        4PY         0.89834
  39        4PZ         0.89834
  40 4   Cl 1S          1.99857
  41        2S          1.95811
  42        2PX         1.96851
  43        2PY         1.96851
  44        2PZ         1.96851
  45        3S          1.08924
  46        3PX         0.99940
  47        3PY         0.99940
  48        3PZ         0.99940
  49        4S          0.96328
  50        4PX         0.89834
  51        4PY         0.89834
  52        4PZ         0.89834
  53 5   Cl 1S          1.99857
  54        2S          1.95811
  55        2PX         1.96851
  56        2PY         1.96851
  57        2PZ         1.96851
  58        3S          1.08924
  59        3PX         0.99940
  60        3PY         0.99940
  61        3PZ         0.99940
  62        4S          0.96328
  63        4PX         0.89834
  64        4PY         0.89834
  65        4PZ         0.89834
          Condensed to atoms (all electrons):
               1          2          3          4          5
     1  Al  10.794398   0.193460   0.193460   0.193460   0.193460
     2  Cl   0.193460  17.478030  -0.021183  -0.021183  -0.021183
     3  Cl   0.193460  -0.021183  17.478030  -0.021183  -0.021183
     4  Cl   0.193460  -0.021183  -0.021183  17.478030  -0.021183
     5  Cl   0.193460  -0.021183  -0.021183  -0.021183  17.478030
 Mulliken charges:
               1
     1  Al   1.431764
     2  Cl  -0.607941
     3  Cl  -0.607941
     4  Cl  -0.607941
     5  Cl  -0.607941
 Sum of Mulliken charges =  -1.00000
 Mulliken charges with hydrogens summed into heavy atoms:
               1
     1  Al   1.431764
     2  Cl  -0.607941
     3  Cl  -0.607941
     4  Cl  -0.607941
     5  Cl  -0.607941
 Electronic spatial extent (au):  <R**2>=           1397.8287
 Charge=             -1.0000 electrons
 Dipole moment (field-independent basis, Debye):
    X=             -0.0000    Y=             -0.0000    Z=             -0.0000  Tot=              0.0000
 Quadrupole moment (field-independent basis, Debye-Ang):
   XX=            -82.4644   YY=            -82.4644   ZZ=            -82.4644
   XY=             -0.0000   XZ=             -0.0000   YZ=             -0.0000
 Traceless Quadrupole moment (field-independent basis, Debye-Ang):
   XX=              0.0000   YY=              0.0000   ZZ=             -0.0000
   XY=             -0.0000   XZ=             -0.0000   YZ=             -0.0000
 Octapole moment (field-independent basis, Debye-Ang**2):
  XXX=             -0.0000  YYY=             -0.0000  ZZZ=             -0.0000  XYY=              0.0000
  XXY=             -0.0000  XXZ=              0.0000  XZZ=             -0.0000  YZZ=             -0.0000
  YYZ=              0.0000  XYZ=            -21.1688
 Hexadecapole moment (field-independent basis, Debye-Ang**3):
 XXXX=           -670.2803 YYYY=           -670.2803 ZZZZ=           -670.2803 XXXY=             -0.0000
 XXXZ=              0.0000 YYYX=             -0.0000 YYYZ=             -0.0000 ZZZX=             -0.0000
 ZZZY=              0.0000 XXYY=           -238.6136 XXZZ=           -238.6136 YYZZ=           -238.6136
 XXYZ=             -0.0000 YYXZ=             -0.0000 ZZXY=             -0.0000
 N-N= 4.605466083877D+02 E-N=-5.867807723732D+03  KE= 2.067991710554D+03
 Symmetry A    KE= 6.361673691978D+02
 Symmetry B1   KE= 4.772747804521D+02
 Symmetry B2   KE= 4.772747804521D+02
 Symmetry B3   KE= 4.772747804521D+02
 Orbital energies and kinetic energies (alpha):
                                 1                 2
   1         (A1)--O        -103.947160        136.068811
   2         (T2)--O        -103.946760        136.078758
   3         (T2)--O        -103.946760        136.078758
   4         (T2)--O        -103.946760        136.078758
   5         (A1)--O         -58.051326         78.656901
   6         (A1)--O         -10.338907         22.313693
   7         (T2)--O         -10.337597         22.345314
   8         (T2)--O         -10.337597         22.345314
   9         (T2)--O         -10.337597         22.345314
  10         (T2)--O          -7.801085         20.341190
  11         (T2)--O          -7.801085         20.341190
  12         (T2)--O          -7.801085         20.341190
  13         (A1)--O          -7.800935         20.346266
  14         (T2)--O          -7.798345         20.354958
  15         (T2)--O          -7.798345         20.354958
  16         (T2)--O          -7.798345         20.354958
  17         (T1)--O          -7.798188         20.362558
  18         (T1)--O          -7.798188         20.362558
  19         (T1)--O          -7.798188         20.362558
  20         (E)--O           -7.797887         20.375254
  21         (E)--O           -7.797887         20.375254
  22         (A1)--O          -4.845108         11.060868
  23         (T2)--O          -3.150262          9.720790
  24         (T2)--O          -3.150262          9.720790
  25         (T2)--O          -3.150262          9.720790
  26         (A1)--O          -0.946305          2.732957
  27         (T2)--O          -0.921369          2.942680
  28         (T2)--O          -0.921369          2.942680
  29         (T2)--O          -0.921369          2.942680
  30         (A1)--O          -0.455343          1.977457
  31         (T2)--O          -0.369591          2.008689
  32         (T2)--O          -0.369591          2.008689
  33         (T2)--O          -0.369591          2.008689
  34         (E)--O           -0.325731          2.088112
  35         (E)--O           -0.325731          2.088112
  36         (T2)--O          -0.311967          2.207267
  37         (T2)--O          -0.311967          2.207267
  38         (T2)--O          -0.311967          2.207267
  39         (T1)--O          -0.300741          2.275186
  40         (T1)--O          -0.300741          2.275186
  41         (T1)--O          -0.300741          2.275186
  42         (A1)--V           0.254517          2.212350
  43         (T2)--V           0.315117          1.121454
  44         (T2)--V           0.315117          1.121454
  45         (T2)--V           0.315117          1.121454
  46         (A1)--V           0.423501          1.159924
  47         (T2)--V           0.499993          1.770552
  48         (T2)--V           0.499993          1.770552
  49         (T2)--V           0.499993          1.770552
  50         (T2)--V           0.893750          3.318451
  51         (T2)--V           0.893750          3.318451
  52         (T2)--V           0.893750          3.318451
  53         (E)--V            0.896616          3.559470
  54         (E)--V            0.896616          3.559470
  55         (A1)--V           0.928801          3.399444
  56         (T1)--V           1.026733          3.626765
  57         (T1)--V           1.026733          3.626765
  58         (T1)--V           1.026733          3.626765
  59         (T2)--V           1.090373          3.793525
  60         (T2)--V           1.090373          3.793525
  61         (T2)--V           1.090373          3.793525
  62         (T2)--V           1.152855          3.610212
  63         (T2)--V           1.152855          3.610212
  64         (T2)--V           1.152855          3.610212
  65         (A1)--V           1.326906          3.692096
 Total kinetic energy from orbitals= 2.067991710554D+03
 1\1\GINC-IISERK51\SP\RHF\3-21G\Al1Cl4(1-)\GAUSSIAN\13-Jun-2025\0\\# hf
 /3-21g pop=full geom=connectivity\\Title Card Required\\-1,1\Al,0,0.,0
 .,0.\Cl,0,1.290854,1.290854,1.290854\Cl,0,-1.290854,-1.290854,1.290854
 \Cl,0,1.290854,-1.290854,-1.290854\Cl,0,-1.290854,1.290854,-1.290854\\
 Version=EM64L-G16RevB.01\State=1-A1\HF=-2070.2014333\RMSD=2.103e-09\Di
 pole=0.,0.,0.\Quadrupole=0.,0.,0.,0.,0.,0.\PG=TD [O(Al1),4C3(Cl1)]\\@


 ALL OUR THINKING ABOUT NATURE MUST NECESSARILY MOVE IN CIRCLES OR SPIRALS;
 FOR WE CAN ONLY UNDERSTAND NATURE IF WE THINK ABOUT HER, AND WE CAN ONLY
 THINK BECAUSE OUR BRAIN IS BUILT IN ACCORDANCE WITH NATURE'S LAWS.

                                             -- TIMOTHY FERRIS, "GALAXIES"
 Job cpu time:       0 days  0 hours  0 minutes  0.4 seconds.
 Elapsed time:       0 days  0 hours  0 minutes  0.4 seconds.
 File lengths (MBytes):  RWF=      6 Int=      0 D2E=      0 Chk=      1 Scr=      1
 Normal termination of Gaussian 16 at Fri Jun 13 21:21:59 2025.
