 Entering Gaussian System, Link 0=g16
 Input=/home/gaussian/Documents/Summer_Internship/Acid_Base_adduct/Acid/AlCl3/MX4-/AlCl4_ion_opt.com
 Output=/home/gaussian/Documents/Summer_Internship/Acid_Base_adduct/Acid/AlCl3/MX4-/AlCl4_ion_opt.log
 Initial command:
 /usr/local/g16/l1.exe "/home/gaussian/tmp/Gau-31291.inp" -scrdir="/home/gaussian/tmp/"
 Entering Link 1 = /usr/local/g16/l1.exe PID=     31294.
  
 Copyright (c) 1988-2017, Gaussian, Inc.  All Rights Reserved.
  
 This is part of the Gaussian(R) 16 program.  It is based on
 the Gaussian(R) 09 system (copyright 2009, Gaussian, Inc.),
 the Gaussian(R) 03 system (copyright 2003, Gaussian, Inc.),
 the Gaussian(R) 98 system (copyright 1998, Gaussian, Inc.),
 the Gaussian(R) 94 system (copyright 1995, Gaussian, Inc.),
 the Gaussian 92(TM) system (copyright 1992, Gaussian, Inc.),
 the Gaussian 90(TM) system (copyright 1990, Gaussian, Inc.),
 the Gaussian 88(TM) system (copyright 1988, Gaussian, Inc.),
 the Gaussian 86(TM) system (copyright 1986, Carnegie Mellon
 University), and the Gaussian 82(TM) system (copyright 1983,
 Carnegie Mellon University). Gaussian is a federally registered
 trademark of Gaussian, Inc.
  
 This software contains proprietary and confidential information,
 including trade secrets, belonging to Gaussian, Inc.
  
 This software is provided under written license and may be
 used, copied, transmitted, or stored only in accord with that
 written license.
  
 The following legend is applicable only to US Government
 contracts under FAR:
  
                    RESTRICTED RIGHTS LEGEND
  
 Use, reproduction and disclosure by the US Government is
 subject to restrictions as set forth in subparagraphs (a)
 and (c) of the Commercial Computer Software - Restricted
 Rights clause in FAR 52.227-19.
  
 Gaussian, Inc.
 340 Quinnipiac St., Bldg. 40, Wallingford CT 06492
  
  
 ---------------------------------------------------------------
 Warning -- This program may not be used in any manner that
 competes with the business of Gaussian, Inc. or will provide
 assistance to any competitor of Gaussian, Inc.  The licensee
 of this program is prohibited from giving any competitor of
 Gaussian, Inc. access to this program.  By using this program,
 the user acknowledges that Gaussian, Inc. is engaged in the
 business of creating and licensing software in the field of
 computational chemistry and represents and warrants to the
 licensee that it is not a competitor of Gaussian, Inc. and that
 it will not use this program in any manner prohibited above.
 ---------------------------------------------------------------
  

 Cite this work as:
 Gaussian 16, Revision B.01,
 M. J. Frisch, G. W. Trucks, H. B. Schlegel, G. E. Scuseria, 
 M. A. Robb, J. R. Cheeseman, G. Scalmani, V. Barone, 
 G. A. Petersson, H. Nakatsuji, X. Li, M. Caricato, A. V. Marenich, 
 J. Bloino, B. G. Janesko, R. Gomperts, B. Mennucci, H. P. Hratchian, 
 J. V. Ortiz, A. F. Izmaylov, J. L. Sonnenberg, D. Williams-Young, 
 F. Ding, F. Lipparini, F. Egidi, J. Goings, B. Peng, A. Petrone, 
 T. Henderson, D. Ranasinghe, V. G. Zakrzewski, J. Gao, N. Rega, 
 G. Zheng, W. Liang, M. Hada, M. Ehara, K. Toyota, R. Fukuda, 
 J. Hasegawa, M. Ishida, T. Nakajima, Y. Honda, O. Kitao, H. Nakai, 
 T. Vreven, K. Throssell, J. A. Montgomery, Jr., J. E. Peralta, 
 F. Ogliaro, M. J. Bearpark, J. J. Heyd, E. N. Brothers, K. N. Kudin, 
 V. N. Staroverov, T. A. Keith, R. Kobayashi, J. Normand, 
 K. Raghavachari, A. P. Rendell, J. C. Burant, S. S. Iyengar, 
 J. Tomasi, M. Cossi, J. M. Millam, M. Klene, C. Adamo, R. Cammi, 
 J. W. Ochterski, R. L. Martin, K. Morokuma, O. Farkas, 
 J. B. Foresman, and D. J. Fox, Gaussian, Inc., Wallingford CT, 2016.
 
 ******************************************
 Gaussian 16:  EM64L-G16RevB.01 20-Dec-2017
                13-Jun-2025 
 ******************************************
 %chk=AlCl4_ion_opt.chk
 ----------------------------------------------
 # opt freq hf/3-21g pop=full geom=connectivity
 ----------------------------------------------
 1/18=20,19=15,38=1,57=2/1,3;
 2/9=110,12=2,17=6,18=5,40=1/2;
 3/5=5,11=9,25=1,30=1,71=1/1,2,3;
 4//1;
 5/5=2,38=5/2;
 6/7=3,28=1/1;
 7//1,2,3,16;
 1/18=20,19=15/3(2);
 2/9=110/2;
 99//99;
 2/9=110/2;
 3/5=5,11=9,25=1,30=1,71=1/1,2,3;
 4/5=5,16=3,69=1/1;
 5/5=2,38=5/2;
 7//1,2,3,16;
 1/18=20,19=15/3(-5);
 2/9=110/2;
 6/7=3,19=2,28=1/1;
 99/9=1/99;
 -------------------
 Title Card Required
 -------------------
 Symbolic Z-matrix:
 Charge = -1 Multiplicity = 1
 Al                    0.39795   0.07296   0. 
 Cl                    0.39795   0.07296   2.24 
 Cl                   -0.658    -1.75599  -0.74667 
 Cl                    2.50984   0.07296  -0.74667 
 Cl                   -0.658     1.90191  -0.74667 
 

 GradGradGradGradGradGradGradGradGradGradGradGradGradGradGradGradGradGrad
 Berny optimization.
 Initialization pass.
                           ----------------------------
                           !    Initial Parameters    !
                           ! (Angstroms and Degrees)  !
 --------------------------                            --------------------------
 ! Name  Definition              Value          Derivative Info.                !
 --------------------------------------------------------------------------------
 ! R1    R(1,2)                  2.24           estimate D2E/DX2                !
 ! R2    R(1,3)                  2.24           estimate D2E/DX2                !
 ! R3    R(1,4)                  2.24           estimate D2E/DX2                !
 ! R4    R(1,5)                  2.24           estimate D2E/DX2                !
 ! A1    A(2,1,3)              109.4712         estimate D2E/DX2                !
 ! A2    A(2,1,4)              109.4712         estimate D2E/DX2                !
 ! A3    A(2,1,5)              109.4712         estimate D2E/DX2                !
 ! A4    A(3,1,4)              109.4712         estimate D2E/DX2                !
 ! A5    A(3,1,5)              109.4712         estimate D2E/DX2                !
 ! A6    A(4,1,5)              109.4712         estimate D2E/DX2                !
 ! D1    D(2,1,4,3)            120.0            estimate D2E/DX2                !
 ! D2    D(2,1,5,3)           -120.0            estimate D2E/DX2                !
 ! D3    D(2,1,5,4)            120.0            estimate D2E/DX2                !
 ! D4    D(3,1,5,4)           -120.0            estimate D2E/DX2                !
 --------------------------------------------------------------------------------
 Trust Radius=3.00D-01 FncErr=1.00D-07 GrdErr=1.00D-07 EigMax=2.50D+02 EigMin=1.00D-04
 Number of steps in this run=     24 maximum allowed number of steps=    100.
 GradGradGradGradGradGradGradGradGradGradGradGradGradGradGradGradGradGrad

                          Input orientation:                          
 ---------------------------------------------------------------------
 Center     Atomic      Atomic             Coordinates (Angstroms)
 Number     Number       Type             X           Y           Z
 ---------------------------------------------------------------------
      1         13           0        0.397951    0.072961    0.000000
      2         17           0        0.397951    0.072961    2.240000
      3         17           0       -0.657995   -1.755991   -0.746667
      4         17           0        2.509843    0.072961   -0.746667
      5         17           0       -0.657995    1.901913   -0.746667
 ---------------------------------------------------------------------
                    Distance matrix (angstroms):
                    1          2          3          4          5
     1  Al   0.000000
     2  Cl   2.240000   0.000000
     3  Cl   2.240000   3.657905   0.000000
     4  Cl   2.240000   3.657905   3.657905   0.000000
     5  Cl   2.240000   3.657905   3.657905   3.657905   0.000000
 Stoichiometry    AlCl4(1-)
 Framework group  TD[O(Al),4C3(Cl)]
 Deg. of freedom     1
 Full point group                 TD      NOp  24
 Largest Abelian subgroup         D2      NOp   4
 Largest concise Abelian subgroup D2      NOp   4
                         Standard orientation:                         
 ---------------------------------------------------------------------
 Center     Atomic      Atomic             Coordinates (Angstroms)
 Number     Number       Type             X           Y           Z
 ---------------------------------------------------------------------
      1         13           0        0.000000    0.000000    0.000000
      2         17           0        1.293265    1.293265    1.293265
      3         17           0       -1.293265   -1.293265    1.293265
      4         17           0        1.293265   -1.293265   -1.293265
      5         17           0       -1.293265    1.293265   -1.293265
 ---------------------------------------------------------------------
 Rotational constants (GHZ):           1.0801176           1.0801176           1.0801176
 Standard basis: 3-21G (6D, 7F)
 There are    17 symmetry adapted cartesian basis functions of A   symmetry.
 There are    16 symmetry adapted cartesian basis functions of B1  symmetry.
 There are    16 symmetry adapted cartesian basis functions of B2  symmetry.
 There are    16 symmetry adapted cartesian basis functions of B3  symmetry.
 There are    17 symmetry adapted basis functions of A   symmetry.
 There are    16 symmetry adapted basis functions of B1  symmetry.
 There are    16 symmetry adapted basis functions of B2  symmetry.
 There are    16 symmetry adapted basis functions of B3  symmetry.
    65 basis functions,   135 primitive gaussians,    65 cartesian basis functions
    41 alpha electrons       41 beta electrons
       nuclear repulsion energy       459.6881641195 Hartrees.
 NAtoms=    5 NActive=    5 NUniq=    2 SFac= 4.00D+00 NAtFMM=   60 NAOKFM=F Big=F
 Integral buffers will be    131072 words long.
 Raffenetti 1 integral format.
 Two-electron integral symmetry is turned on.
 One-electron integrals computed using PRISM.
 NBasis=    65 RedAO= T EigKep=  2.42D-02  NBF=    17    16    16    16
 NBsUse=    65 1.00D-06 EigRej= -1.00D+00 NBFU=    17    16    16    16
 ExpMin= 6.39D-02 ExpMax= 1.38D+03 ExpMxC= 1.38D+03 IAcc=3 IRadAn=         5 AccDes= 0.00D+00
 Harris functional with IExCor=  205 and IRadAn=       5 diagonalized for initial guess.
 HarFok:  IExCor=  205 AccDes= 0.00D+00 IRadAn=         5 IDoV= 1 UseB2=F ITyADJ=14
 ICtDFT=  3500011 ScaDFX=  1.000000  1.000000  1.000000  1.000000
 FoFCou: FMM=F IPFlag=           0 FMFlag=      100000 FMFlg1=           0
         NFxFlg=           0 DoJE=T BraDBF=F KetDBF=T FulRan=T
         wScrn=  0.000000 ICntrl=       500 IOpCl=  0 I1Cent=   200000004 NGrid=           0
         NMat0=    1 NMatS0=      1 NMatT0=    0 NMatD0=    1 NMtDS0=    0 NMtDT0=    0
 Petite list used in FoFCou.
 Initial guess orbital symmetries:
       Occupied  (A1) (T2) (T2) (T2) (A1) (A1) (T2) (T2) (T2) (T2)
                 (T2) (T2) (A1) (T2) (T2) (T2) (T1) (T1) (T1) (E)
                 (E) (A1) (T2) (T2) (T2) (A1) (T2) (T2) (T2) (A1)
                 (T2) (T2) (T2) (E) (E) (T2) (T2) (T2) (T1) (T1)
                 (T1)
       Virtual   (A1) (T2) (T2) (T2) (A1) (T2) (T2) (T2) (T2) (T2)
                 (T2) (E) (E) (A1) (T1) (T1) (T1) (T2) (T2) (T2)
                 (T2) (T2) (T2) (A1)
 The electronic state of the initial guess is 1-A1.
 Keep R1 ints in memory in symmetry-blocked form, NReq=3122512.
 Requested convergence on RMS density matrix=1.00D-08 within 128 cycles.
 Requested convergence on MAX density matrix=1.00D-06.
 Requested convergence on             energy=1.00D-06.
 No special actions if energy rises.
 SCF Done:  E(RHF) =  -2070.20140923     A.U. after    9 cycles
            NFock=  9  Conv=0.21D-08     -V/T= 2.0011

 **********************************************************************

            Population analysis using the SCF Density.

 **********************************************************************

 Orbital symmetries:
       Occupied  (A1) (T2) (T2) (T2) (A1) (A1) (T2) (T2) (T2) (T2)
                 (T2) (T2) (A1) (T2) (T2) (T2) (T1) (T1) (T1) (E)
                 (E) (A1) (T2) (T2) (T2) (A1) (T2) (T2) (T2) (A1)
                 (T2) (T2) (T2) (E) (E) (T2) (T2) (T2) (T1) (T1)
                 (T1)
       Virtual   (A1) (T2) (T2) (T2) (A1) (T2) (T2) (T2) (T2) (T2)
                 (T2) (E) (E) (A1) (T1) (T1) (T1) (T2) (T2) (T2)
                 (T2) (T2) (T2) (A1)
 The electronic state is 1-A1.
 Alpha  occ. eigenvalues -- -103.94741-103.94701-103.94701-103.94701 -58.05231
 Alpha  occ. eigenvalues --  -10.33907 -10.33776 -10.33776 -10.33776  -7.80124
 Alpha  occ. eigenvalues --   -7.80124  -7.80124  -7.80110  -7.79852  -7.79852
 Alpha  occ. eigenvalues --   -7.79852  -7.79836  -7.79836  -7.79836  -7.79806
 Alpha  occ. eigenvalues --   -7.79806  -4.84585  -3.15101  -3.15101  -3.15101
 Alpha  occ. eigenvalues --   -0.94582  -0.92120  -0.92120  -0.92120  -0.45500
 Alpha  occ. eigenvalues --   -0.36922  -0.36922  -0.36922  -0.32561  -0.32561
 Alpha  occ. eigenvalues --   -0.31197  -0.31197  -0.31197  -0.30089  -0.30089
 Alpha  occ. eigenvalues --   -0.30089
 Alpha virt. eigenvalues --    0.25266   0.31421   0.31421   0.31421   0.42328
 Alpha virt. eigenvalues --    0.49940   0.49940   0.49940   0.89336   0.89336
 Alpha virt. eigenvalues --    0.89336   0.89655   0.89655   0.92893   1.02607
 Alpha virt. eigenvalues --    1.02607   1.02607   1.08941   1.08941   1.08941
 Alpha virt. eigenvalues --    1.15272   1.15272   1.15272   1.32746
     Molecular Orbital Coefficients:
                           1         2         3         4         5
                        (A1)--O   (T2)--O   (T2)--O   (T2)--O   (A1)--O
     Eigenvalues --  -103.94741-103.94701-103.94701-103.94701 -58.05231
   1 1   Al 1S         -0.00002   0.00000   0.00000   0.00000   0.98850
   2        2S          0.00054   0.00000   0.00000   0.00000   0.04453
   3        2PX         0.00000   0.00000  -0.00003   0.00000   0.00000
   4        2PY         0.00000  -0.00003   0.00000   0.00000   0.00000
   5        2PZ         0.00000   0.00000   0.00000  -0.00003   0.00000
   6        3S          0.00098   0.00000   0.00000   0.00000  -0.01115
   7        3PX         0.00000   0.00000  -0.00061   0.00000   0.00000
   8        3PY         0.00000  -0.00061   0.00000   0.00000   0.00000
   9        3PZ         0.00000   0.00000   0.00000  -0.00061   0.00000
  10        4S         -0.01210   0.00000   0.00000   0.00000  -0.00484
  11        4PX         0.00000   0.00000  -0.00392   0.00000   0.00000
  12        4PY         0.00000  -0.00392   0.00000   0.00000   0.00000
  13        4PZ         0.00000   0.00000   0.00000  -0.00392   0.00000
  14 2   Cl 1S          0.49293   0.49294   0.49294   0.49294  -0.00002
  15        2S          0.02666   0.02657   0.02657   0.02657   0.00013
  16        2PX        -0.00008  -0.00008  -0.00002  -0.00008  -0.00001
  17        2PY        -0.00008  -0.00002  -0.00008  -0.00008  -0.00001
  18        2PZ        -0.00008  -0.00008  -0.00008  -0.00002  -0.00001
  19        3S         -0.01103  -0.00968  -0.00968  -0.00968  -0.00231
  20        3PX         0.00037   0.00033   0.00002   0.00033   0.00022
  21        3PY         0.00037   0.00002   0.00033   0.00033   0.00022
  22        3PZ         0.00037   0.00033   0.00033   0.00002   0.00022
  23        4S          0.00945   0.00641   0.00641   0.00641   0.00477
  24        4PX        -0.00148  -0.00099   0.00006  -0.00099  -0.00173
  25        4PY        -0.00148   0.00006  -0.00099  -0.00099  -0.00173
  26        4PZ        -0.00148  -0.00099  -0.00099   0.00006  -0.00173
  27 3   Cl 1S          0.49293  -0.49294  -0.49294   0.49294  -0.00002
  28        2S          0.02666  -0.02657  -0.02657   0.02657   0.00013
  29        2PX         0.00008  -0.00008  -0.00002   0.00008   0.00001
  30        2PY         0.00008  -0.00002  -0.00008   0.00008   0.00001
  31        2PZ        -0.00008   0.00008   0.00008  -0.00002  -0.00001
  32        3S         -0.01103   0.00968   0.00968  -0.00968  -0.00231
  33        3PX        -0.00037   0.00033   0.00002  -0.00033  -0.00022
  34        3PY        -0.00037   0.00002   0.00033  -0.00033  -0.00022
  35        3PZ         0.00037  -0.00033  -0.00033   0.00002   0.00022
  36        4S          0.00945  -0.00641  -0.00641   0.00641   0.00477
  37        4PX         0.00148  -0.00099   0.00006   0.00099   0.00173
  38        4PY         0.00148   0.00006  -0.00099   0.00099   0.00173
  39        4PZ        -0.00148   0.00099   0.00099   0.00006  -0.00173
  40 4   Cl 1S          0.49293  -0.49294   0.49294  -0.49294  -0.00002
  41        2S          0.02666  -0.02657   0.02657  -0.02657   0.00013
  42        2PX        -0.00008   0.00008  -0.00002   0.00008  -0.00001
  43        2PY         0.00008  -0.00002   0.00008  -0.00008   0.00001
  44        2PZ         0.00008  -0.00008   0.00008  -0.00002   0.00001
  45        3S         -0.01103   0.00968  -0.00968   0.00968  -0.00231
  46        3PX         0.00037  -0.00033   0.00002  -0.00033   0.00022
  47        3PY        -0.00037   0.00002  -0.00033   0.00033  -0.00022
  48        3PZ        -0.00037   0.00033  -0.00033   0.00002  -0.00022
  49        4S          0.00945  -0.00641   0.00641  -0.00641   0.00477
  50        4PX        -0.00148   0.00099   0.00006   0.00099  -0.00173
  51        4PY         0.00148   0.00006   0.00099  -0.00099   0.00173
  52        4PZ         0.00148  -0.00099   0.00099   0.00006   0.00173
  53 5   Cl 1S          0.49293   0.49294  -0.49294  -0.49294  -0.00002
  54        2S          0.02666   0.02657  -0.02657  -0.02657   0.00013
  55        2PX         0.00008   0.00008  -0.00002  -0.00008   0.00001
  56        2PY        -0.00008  -0.00002   0.00008   0.00008  -0.00001
  57        2PZ         0.00008   0.00008  -0.00008  -0.00002   0.00001
  58        3S         -0.01103  -0.00968   0.00968   0.00968  -0.00231
  59        3PX        -0.00037  -0.00033   0.00002   0.00033  -0.00022
  60        3PY         0.00037   0.00002  -0.00033  -0.00033   0.00022
  61        3PZ        -0.00037  -0.00033   0.00033   0.00002  -0.00022
  62        4S          0.00945   0.00641  -0.00641  -0.00641   0.00477
  63        4PX         0.00148   0.00099   0.00006  -0.00099   0.00173
  64        4PY        -0.00148   0.00006   0.00099   0.00099  -0.00173
  65        4PZ         0.00148   0.00099  -0.00099   0.00006   0.00173
                           6         7         8         9        10
                        (A1)--O   (T2)--O   (T2)--O   (T2)--O   (T2)--O
     Eigenvalues --   -10.33907 -10.33776 -10.33776 -10.33776  -7.80124
   1 1   Al 1S          0.00018   0.00000   0.00000   0.00000   0.00000
   2        2S         -0.00296   0.00000   0.00000   0.00000   0.00000
   3        2PX         0.00000   0.00000   0.00012   0.00000   0.00000
   4        2PY         0.00000   0.00012   0.00000   0.00000  -0.00034
   5        2PZ         0.00000   0.00000   0.00000   0.00012   0.00000
   6        3S         -0.00569   0.00000   0.00000   0.00000   0.00000
   7        3PX         0.00000   0.00000   0.00356   0.00000   0.00000
   8        3PY         0.00000   0.00356   0.00000   0.00000  -0.00403
   9        3PZ         0.00000   0.00000   0.00000   0.00356   0.00000
  10        4S          0.06835   0.00000   0.00000   0.00000   0.00000
  11        4PX         0.00000   0.00000   0.02241   0.00000   0.00000
  12        4PY         0.00000   0.02241   0.00000   0.00000  -0.00392
  13        4PZ         0.00000   0.00000   0.00000   0.02241   0.00000
  14 2   Cl 1S         -0.15287  -0.15296  -0.15296  -0.15296  -0.00137
  15        2S          0.49092   0.49144   0.49144   0.49144   0.00478
  16        2PX        -0.00199  -0.00200  -0.00222  -0.00200   0.27637
  17        2PY        -0.00199  -0.00222  -0.00200  -0.00200   0.29006
  18        2PZ        -0.00199  -0.00200  -0.00200  -0.00222   0.27637
  19        3S          0.07912   0.07191   0.07191   0.07191  -0.00290
  20        3PX        -0.00245  -0.00225  -0.00056  -0.00225   0.02333
  21        3PY        -0.00245  -0.00056  -0.00225  -0.00225   0.02466
  22        3PZ        -0.00245  -0.00225  -0.00225  -0.00056   0.02333
  23        4S         -0.05415  -0.03747  -0.03747  -0.03747   0.00489
  24        4PX         0.00838   0.00571  -0.00014   0.00571  -0.00861
  25        4PY         0.00838  -0.00014   0.00571   0.00571  -0.00877
  26        4PZ         0.00838   0.00571   0.00571  -0.00014  -0.00861
  27 3   Cl 1S         -0.15287   0.15296   0.15296  -0.15296   0.00137
  28        2S          0.49092  -0.49144  -0.49144   0.49144  -0.00478
  29        2PX         0.00199  -0.00200  -0.00222   0.00200   0.27637
  30        2PY         0.00199  -0.00222  -0.00200   0.00200   0.29006
  31        2PZ        -0.00199   0.00200   0.00200  -0.00222  -0.27637
  32        3S          0.07912  -0.07191  -0.07191   0.07191   0.00290
  33        3PX         0.00245  -0.00225  -0.00056   0.00225   0.02333
  34        3PY         0.00245  -0.00056  -0.00225   0.00225   0.02466
  35        3PZ        -0.00245   0.00225   0.00225  -0.00056  -0.02333
  36        4S         -0.05415   0.03747   0.03747  -0.03747  -0.00489
  37        4PX        -0.00838   0.00571  -0.00014  -0.00571  -0.00861
  38        4PY        -0.00838  -0.00014   0.00571  -0.00571  -0.00877
  39        4PZ         0.00838  -0.00571  -0.00571  -0.00014   0.00861
  40 4   Cl 1S         -0.15287   0.15296  -0.15296   0.15296   0.00137
  41        2S          0.49092  -0.49144   0.49144  -0.49144  -0.00478
  42        2PX        -0.00199   0.00200  -0.00222   0.00200  -0.27637
  43        2PY         0.00199  -0.00222   0.00200  -0.00200   0.29006
  44        2PZ         0.00199  -0.00200   0.00200  -0.00222   0.27637
  45        3S          0.07912  -0.07191   0.07191  -0.07191   0.00290
  46        3PX        -0.00245   0.00225  -0.00056   0.00225  -0.02333
  47        3PY         0.00245  -0.00056   0.00225  -0.00225   0.02466
  48        3PZ         0.00245  -0.00225   0.00225  -0.00056   0.02333
  49        4S         -0.05415   0.03747  -0.03747   0.03747  -0.00489
  50        4PX         0.00838  -0.00571  -0.00014  -0.00571   0.00861
  51        4PY        -0.00838  -0.00014  -0.00571   0.00571  -0.00877
  52        4PZ        -0.00838   0.00571  -0.00571  -0.00014  -0.00861
  53 5   Cl 1S         -0.15287  -0.15296   0.15296   0.15296  -0.00137
  54        2S          0.49092   0.49144  -0.49144  -0.49144   0.00478
  55        2PX         0.00199   0.00200  -0.00222  -0.00200  -0.27637
  56        2PY        -0.00199  -0.00222   0.00200   0.00200   0.29006
  57        2PZ         0.00199   0.00200  -0.00200  -0.00222  -0.27637
  58        3S          0.07912   0.07191  -0.07191  -0.07191  -0.00290
  59        3PX         0.00245   0.00225  -0.00056  -0.00225  -0.02333
  60        3PY        -0.00245  -0.00056   0.00225   0.00225   0.02466
  61        3PZ         0.00245   0.00225  -0.00225  -0.00056  -0.02333
  62        4S         -0.05415  -0.03747   0.03747   0.03747   0.00489
  63        4PX        -0.00838  -0.00571  -0.00014   0.00571   0.00861
  64        4PY         0.00838  -0.00014  -0.00571  -0.00571  -0.00877
  65        4PZ        -0.00838  -0.00571   0.00571  -0.00014   0.00861
                          11        12        13        14        15
                        (T2)--O   (T2)--O   (A1)--O   (T2)--O   (T2)--O
     Eigenvalues --    -7.80124  -7.80124  -7.80110  -7.79852  -7.79852
   1 1   Al 1S          0.00000   0.00000   0.00003   0.00000   0.00000
   2        2S          0.00000   0.00000  -0.00044   0.00000   0.00000
   3        2PX         0.00000  -0.00034   0.00000   0.00000   0.00000
   4        2PY         0.00000   0.00000   0.00000   0.00004   0.00000
   5        2PZ        -0.00034   0.00000   0.00000   0.00000   0.00004
   6        3S          0.00000   0.00000  -0.00368   0.00000   0.00000
   7        3PX         0.00000  -0.00403   0.00000   0.00000   0.00000
   8        3PY         0.00000   0.00000   0.00000  -0.00041   0.00000
   9        3PZ        -0.00403   0.00000   0.00000   0.00000  -0.00041
  10        4S          0.00000   0.00000  -0.02334   0.00000   0.00000
  11        4PX         0.00000  -0.00392   0.00000   0.00000   0.00000
  12        4PY         0.00000   0.00000   0.00000   0.01764   0.00000
  13        4PZ        -0.00392   0.00000   0.00000   0.00000   0.01764
  14 2   Cl 1S         -0.00137  -0.00137  -0.00140   0.00008   0.00008
  15        2S          0.00478   0.00478   0.00490  -0.00033  -0.00033
  16        2PX         0.27637   0.29006   0.28105  -0.20523  -0.20523
  17        2PY         0.27637   0.27637   0.28105   0.39099  -0.20523
  18        2PZ         0.29006   0.27637   0.28105  -0.20523   0.39099
  19        3S         -0.00290  -0.00290  -0.00485   0.00243   0.00243
  20        3PX         0.02333   0.02466   0.02366  -0.01708  -0.01708
  21        3PY         0.02333   0.02333   0.02366   0.03268  -0.01708
  22        3PZ         0.02466   0.02333   0.02366  -0.01708   0.03268
  23        4S          0.00489   0.00489   0.01076  -0.00710  -0.00710
  24        4PX        -0.00861  -0.00877  -0.00972   0.00721   0.00721
  25        4PY        -0.00861  -0.00861  -0.00972  -0.01177   0.00721
  26        4PZ        -0.00877  -0.00861  -0.00972   0.00721  -0.01177
  27 3   Cl 1S         -0.00137   0.00137  -0.00140  -0.00008   0.00008
  28        2S          0.00478  -0.00478   0.00490   0.00033  -0.00033
  29        2PX        -0.27637   0.29006  -0.28105  -0.20523   0.20523
  30        2PY        -0.27637   0.27637  -0.28105   0.39099   0.20523
  31        2PZ         0.29006  -0.27637   0.28105   0.20523   0.39099
  32        3S         -0.00290   0.00290  -0.00485  -0.00243   0.00243
  33        3PX        -0.02333   0.02466  -0.02366  -0.01708   0.01708
  34        3PY        -0.02333   0.02333  -0.02366   0.03268   0.01708
  35        3PZ         0.02466  -0.02333   0.02366   0.01708   0.03268
  36        4S          0.00489  -0.00489   0.01076   0.00710  -0.00710
  37        4PX         0.00861  -0.00877   0.00972   0.00721  -0.00721
  38        4PY         0.00861  -0.00861   0.00972  -0.01177  -0.00721
  39        4PZ        -0.00877   0.00861  -0.00972  -0.00721  -0.01177
  40 4   Cl 1S          0.00137  -0.00137  -0.00140  -0.00008  -0.00008
  41        2S         -0.00478   0.00478   0.00490   0.00033   0.00033
  42        2PX        -0.27637   0.29006   0.28105   0.20523   0.20523
  43        2PY         0.27637  -0.27637  -0.28105   0.39099  -0.20523
  44        2PZ         0.29006  -0.27637  -0.28105  -0.20523   0.39099
  45        3S          0.00290  -0.00290  -0.00485  -0.00243  -0.00243
  46        3PX        -0.02333   0.02466   0.02366   0.01708   0.01708
  47        3PY         0.02333  -0.02333  -0.02366   0.03268  -0.01708
  48        3PZ         0.02466  -0.02333  -0.02366  -0.01708   0.03268
  49        4S         -0.00489   0.00489   0.01076   0.00710   0.00710
  50        4PX         0.00861  -0.00877  -0.00972  -0.00721  -0.00721
  51        4PY        -0.00861   0.00861   0.00972  -0.01177   0.00721
  52        4PZ        -0.00877   0.00861   0.00972   0.00721  -0.01177
  53 5   Cl 1S          0.00137   0.00137  -0.00140   0.00008  -0.00008
  54        2S         -0.00478  -0.00478   0.00490  -0.00033   0.00033
  55        2PX         0.27637   0.29006  -0.28105   0.20523  -0.20523
  56        2PY        -0.27637  -0.27637   0.28105   0.39099   0.20523
  57        2PZ         0.29006   0.27637  -0.28105   0.20523   0.39099
  58        3S          0.00290   0.00290  -0.00485   0.00243  -0.00243
  59        3PX         0.02333   0.02466  -0.02366   0.01708  -0.01708
  60        3PY        -0.02333  -0.02333   0.02366   0.03268   0.01708
  61        3PZ         0.02466   0.02333  -0.02366   0.01708   0.03268
  62        4S         -0.00489  -0.00489   0.01076  -0.00710   0.00710
  63        4PX        -0.00861  -0.00877   0.00972  -0.00721   0.00721
  64        4PY         0.00861   0.00861  -0.00972  -0.01177  -0.00721
  65        4PZ        -0.00877  -0.00861   0.00972  -0.00721  -0.01177
                          16        17        18        19        20
                        (T2)--O   (T1)--O   (T1)--O   (T1)--O   (E)--O
     Eigenvalues --    -7.79852  -7.79836  -7.79836  -7.79836  -7.79806
   1 1   Al 1S          0.00000   0.00000   0.00000   0.00000  -0.00000
   2        2S          0.00000   0.00000   0.00000   0.00000   0.00000
   3        2PX         0.00004   0.00000   0.00000   0.00000   0.00000
   4        2PY         0.00000   0.00000   0.00000   0.00000   0.00000
   5        2PZ         0.00000   0.00000   0.00000   0.00000   0.00000
   6        3S          0.00000   0.00000   0.00000   0.00000   0.00000
   7        3PX        -0.00041   0.00000   0.00000  -0.00000   0.00000
   8        3PY         0.00000   0.00000  -0.00000   0.00000   0.00000
   9        3PZ         0.00000  -0.00000   0.00000   0.00000   0.00000
  10        4S          0.00000   0.00000   0.00000   0.00000   0.00000
  11        4PX         0.01764   0.00000   0.00000   0.00000   0.00000
  12        4PY         0.00000   0.00000   0.00000   0.00000   0.00000
  13        4PZ         0.00000   0.00000   0.00000   0.00000   0.00000
  14 2   Cl 1S          0.00008   0.00000   0.00000   0.00000   0.00000
  15        2S         -0.00033  -0.00000  -0.00000  -0.00000  -0.00000
  16        2PX         0.39099   0.34441   0.34441   0.00000   0.38536
  17        2PY        -0.20523  -0.34441   0.00000   0.34441  -0.10700
  18        2PZ        -0.20523   0.00000  -0.34441  -0.34441  -0.27836
  19        3S          0.00243   0.00000   0.00000   0.00000   0.00000
  20        3PX         0.03268   0.02822   0.02822   0.00000   0.03078
  21        3PY        -0.01708  -0.02822   0.00000   0.02822  -0.00855
  22        3PZ        -0.01708   0.00000  -0.02822  -0.02822  -0.02224
  23        4S         -0.00710  -0.00000  -0.00000  -0.00000  -0.00000
  24        4PX        -0.01177  -0.00886  -0.00886  -0.00000  -0.00846
  25        4PY         0.00721   0.00886  -0.00000  -0.00886   0.00235
  26        4PZ         0.00721  -0.00000   0.00886   0.00886   0.00611
  27 3   Cl 1S         -0.00008   0.00000  -0.00000  -0.00000   0.00000
  28        2S          0.00033  -0.00000   0.00000   0.00000  -0.00000
  29        2PX         0.39099  -0.34441   0.34441   0.00000  -0.38536
  30        2PY        -0.20523   0.34441   0.00000   0.34441   0.10700
  31        2PZ         0.20523   0.00000   0.34441   0.34441  -0.27836
  32        3S         -0.00243   0.00000  -0.00000  -0.00000   0.00000
  33        3PX         0.03268  -0.02822   0.02822   0.00000  -0.03078
  34        3PY        -0.01708   0.02822   0.00000   0.02822   0.00855
  35        3PZ         0.01708   0.00000   0.02822   0.02822  -0.02224
  36        4S          0.00710  -0.00000   0.00000   0.00000  -0.00000
  37        4PX        -0.01177   0.00886  -0.00886  -0.00000   0.00846
  38        4PY         0.00721  -0.00886  -0.00000  -0.00886  -0.00235
  39        4PZ        -0.00721  -0.00000  -0.00886  -0.00886   0.00611
  40 4   Cl 1S          0.00008  -0.00000  -0.00000   0.00000   0.00000
  41        2S         -0.00033   0.00000   0.00000  -0.00000  -0.00000
  42        2PX         0.39099  -0.34441  -0.34441   0.00000   0.38536
  43        2PY         0.20523  -0.34441   0.00000  -0.34441   0.10700
  44        2PZ         0.20523   0.00000  -0.34441   0.34441   0.27836
  45        3S          0.00243  -0.00000  -0.00000   0.00000   0.00000
  46        3PX         0.03268  -0.02822  -0.02822   0.00000   0.03078
  47        3PY         0.01708  -0.02822   0.00000  -0.02822   0.00855
  48        3PZ         0.01708   0.00000  -0.02822   0.02822   0.02224
  49        4S         -0.00710   0.00000   0.00000  -0.00000  -0.00000
  50        4PX        -0.01177   0.00886   0.00886  -0.00000  -0.00846
  51        4PY        -0.00721   0.00886  -0.00000   0.00886  -0.00235
  52        4PZ        -0.00721  -0.00000   0.00886  -0.00886  -0.00611
  53 5   Cl 1S         -0.00008  -0.00000   0.00000  -0.00000   0.00000
  54        2S          0.00033   0.00000  -0.00000   0.00000  -0.00000
  55        2PX         0.39099   0.34441  -0.34441   0.00000  -0.38536
  56        2PY         0.20523   0.34441   0.00000  -0.34441  -0.10700
  57        2PZ        -0.20523   0.00000   0.34441  -0.34441   0.27836
  58        3S         -0.00243  -0.00000   0.00000  -0.00000   0.00000
  59        3PX         0.03268   0.02822  -0.02822   0.00000  -0.03078
  60        3PY         0.01708   0.02822   0.00000  -0.02822  -0.00855
  61        3PZ        -0.01708   0.00000   0.02822  -0.02822   0.02224
  62        4S          0.00710   0.00000  -0.00000   0.00000  -0.00000
  63        4PX        -0.01177  -0.00886   0.00886  -0.00000   0.00846
  64        4PY        -0.00721  -0.00886  -0.00000   0.00886   0.00235
  65        4PZ         0.00721  -0.00000  -0.00886   0.00886  -0.00611
                          21        22        23        24        25
                        (E)--O    (A1)--O   (T2)--O   (T2)--O   (T2)--O
     Eigenvalues --    -7.79806  -4.84585  -3.15101  -3.15101  -3.15101
   1 1   Al 1S         -0.00000  -0.28401   0.00000   0.00000   0.00000
   2        2S          0.00000   1.01005   0.00000   0.00000   0.00000
   3        2PX         0.00000   0.00000   0.00000   0.97819   0.00000
   4        2PY         0.00000   0.00000   0.97819   0.00000   0.00000
   5        2PZ         0.00000   0.00000   0.00000   0.00000   0.97819
   6        3S          0.00000   0.09349   0.00000   0.00000   0.00000
   7        3PX         0.00000   0.00000   0.00000   0.09138   0.00000
   8        3PY         0.00000   0.00000   0.09138   0.00000   0.00000
   9        3PZ         0.00000   0.00000   0.00000   0.00000   0.09138
  10        4S          0.00000  -0.01231   0.00000   0.00000   0.00000
  11        4PX         0.00000   0.00000   0.00000  -0.02563   0.00000
  12        4PY         0.00000   0.00000  -0.02563   0.00000   0.00000
  13        4PZ         0.00000   0.00000   0.00000   0.00000  -0.02563
  14 2   Cl 1S          0.00000   0.00005   0.00004   0.00004   0.00004
  15        2S         -0.00000  -0.00018  -0.00005  -0.00005  -0.00005
  16        2PX        -0.09893   0.00004   0.00006   0.00001   0.00006
  17        2PY         0.38320   0.00004   0.00001   0.00006   0.00006
  18        2PZ        -0.28426   0.00004   0.00006   0.00006   0.00001
  19        3S          0.00000   0.00507   0.00050   0.00050   0.00050
  20        3PX        -0.00790  -0.00058   0.00034   0.00054   0.00034
  21        3PY         0.03061  -0.00058   0.00054   0.00034   0.00034
  22        3PZ        -0.02271  -0.00058   0.00034   0.00034   0.00054
  23        4S         -0.00000  -0.01028  -0.00256  -0.00256  -0.00256
  24        4PX         0.00217   0.00607   0.00447   0.00325   0.00447
  25        4PY        -0.00841   0.00607   0.00325   0.00447   0.00447
  26        4PZ         0.00624   0.00607   0.00447   0.00447   0.00325
  27 3   Cl 1S          0.00000   0.00005  -0.00004  -0.00004   0.00004
  28        2S         -0.00000  -0.00018   0.00005   0.00005  -0.00005
  29        2PX         0.09893  -0.00004   0.00006   0.00001  -0.00006
  30        2PY        -0.38320  -0.00004   0.00001   0.00006  -0.00006
  31        2PZ        -0.28426   0.00004  -0.00006  -0.00006   0.00001
  32        3S          0.00000   0.00507  -0.00050  -0.00050   0.00050
  33        3PX         0.00790   0.00058   0.00034   0.00054  -0.00034
  34        3PY        -0.03061   0.00058   0.00054   0.00034  -0.00034
  35        3PZ        -0.02271  -0.00058  -0.00034  -0.00034   0.00054
  36        4S         -0.00000  -0.01028   0.00256   0.00256  -0.00256
  37        4PX        -0.00217  -0.00607   0.00447   0.00325  -0.00447
  38        4PY         0.00841  -0.00607   0.00325   0.00447  -0.00447
  39        4PZ         0.00624   0.00607  -0.00447  -0.00447   0.00325
  40 4   Cl 1S          0.00000   0.00005  -0.00004   0.00004  -0.00004
  41        2S         -0.00000  -0.00018   0.00005  -0.00005   0.00005
  42        2PX        -0.09893   0.00004  -0.00006   0.00001  -0.00006
  43        2PY        -0.38320  -0.00004   0.00001  -0.00006   0.00006
  44        2PZ         0.28426  -0.00004   0.00006  -0.00006   0.00001
  45        3S          0.00000   0.00507  -0.00050   0.00050  -0.00050
  46        3PX        -0.00790  -0.00058  -0.00034   0.00054  -0.00034
  47        3PY        -0.03061   0.00058   0.00054  -0.00034   0.00034
  48        3PZ         0.02271   0.00058   0.00034  -0.00034   0.00054
  49        4S         -0.00000  -0.01028   0.00256  -0.00256   0.00256
  50        4PX         0.00217   0.00607  -0.00447   0.00325  -0.00447
  51        4PY         0.00841  -0.00607   0.00325  -0.00447   0.00447
  52        4PZ        -0.00624  -0.00607   0.00447  -0.00447   0.00325
  53 5   Cl 1S          0.00000   0.00005   0.00004  -0.00004  -0.00004
  54        2S         -0.00000  -0.00018  -0.00005   0.00005   0.00005
  55        2PX         0.09893  -0.00004  -0.00006   0.00001   0.00006
  56        2PY         0.38320   0.00004   0.00001  -0.00006  -0.00006
  57        2PZ         0.28426  -0.00004  -0.00006   0.00006   0.00001
  58        3S          0.00000   0.00507   0.00050  -0.00050  -0.00050
  59        3PX         0.00790   0.00058  -0.00034   0.00054   0.00034
  60        3PY         0.03061  -0.00058   0.00054  -0.00034  -0.00034
  61        3PZ         0.02271   0.00058  -0.00034   0.00034   0.00054
  62        4S         -0.00000  -0.01028  -0.00256   0.00256   0.00256
  63        4PX        -0.00217  -0.00607  -0.00447   0.00325   0.00447
  64        4PY        -0.00841   0.00607   0.00325  -0.00447  -0.00447
  65        4PZ        -0.00624  -0.00607  -0.00447   0.00447   0.00325
                          26        27        28        29        30
                        (A1)--O   (T2)--O   (T2)--O   (T2)--O   (A1)--O
     Eigenvalues --    -0.94582  -0.92120  -0.92120  -0.92120  -0.45500
   1 1   Al 1S          0.01781   0.00000   0.00000   0.00000   0.04090
   2        2S         -0.08219   0.00000   0.00000   0.00000  -0.19455
   3        2PX         0.00000   0.00000  -0.04324   0.00000   0.00000
   4        2PY         0.00000  -0.04324   0.00000   0.00000   0.00000
   5        2PZ         0.00000   0.00000   0.00000  -0.04324   0.00000
   6        3S          0.13171   0.00000   0.00000   0.00000   0.36269
   7        3PX         0.00000   0.00000   0.05939   0.00000   0.00000
   8        3PY         0.00000   0.05939   0.00000   0.00000   0.00000
   9        3PZ         0.00000   0.00000   0.00000   0.05939   0.00000
  10        4S         -0.06318   0.00000   0.00000   0.00000   0.02810
  11        4PX         0.00000   0.00000  -0.04036   0.00000   0.00000
  12        4PY         0.00000  -0.04036   0.00000   0.00000   0.00000
  13        4PZ         0.00000   0.00000   0.00000  -0.04036   0.00000
  14 2   Cl 1S          0.03791   0.03960   0.03960   0.03960  -0.01226
  15        2S         -0.22286  -0.23299  -0.23299  -0.23299   0.07366
  16        2PX         0.01020   0.00785   0.00631   0.00785   0.06188
  17        2PY         0.01020   0.00631   0.00785   0.00785   0.06188
  18        2PZ         0.01020   0.00785   0.00785   0.00631   0.06188
  19        3S          0.26626   0.28144   0.28144   0.28144  -0.10471
  20        3PX        -0.02012  -0.01498  -0.01249  -0.01498  -0.13053
  21        3PY        -0.02012  -0.01249  -0.01498  -0.01498  -0.13053
  22        3PZ        -0.02012  -0.01498  -0.01498  -0.01249  -0.13053
  23        4S          0.27303   0.28021   0.28021   0.28021  -0.08495
  24        4PX        -0.02031  -0.01812  -0.01078  -0.01812  -0.10635
  25        4PY        -0.02031  -0.01078  -0.01812  -0.01812  -0.10635
  26        4PZ        -0.02031  -0.01812  -0.01812  -0.01078  -0.10635
  27 3   Cl 1S          0.03791  -0.03960  -0.03960   0.03960  -0.01226
  28        2S         -0.22286   0.23299   0.23299  -0.23299   0.07366
  29        2PX        -0.01020   0.00785   0.00631  -0.00785  -0.06188
  30        2PY        -0.01020   0.00631   0.00785  -0.00785  -0.06188
  31        2PZ         0.01020  -0.00785  -0.00785   0.00631   0.06188
  32        3S          0.26626  -0.28144  -0.28144   0.28144  -0.10471
  33        3PX         0.02012  -0.01498  -0.01249   0.01498   0.13053
  34        3PY         0.02012  -0.01249  -0.01498   0.01498   0.13053
  35        3PZ        -0.02012   0.01498   0.01498  -0.01249  -0.13053
  36        4S          0.27303  -0.28021  -0.28021   0.28021  -0.08495
  37        4PX         0.02031  -0.01812  -0.01078   0.01812   0.10635
  38        4PY         0.02031  -0.01078  -0.01812   0.01812   0.10635
  39        4PZ        -0.02031   0.01812   0.01812  -0.01078  -0.10635
  40 4   Cl 1S          0.03791  -0.03960   0.03960  -0.03960  -0.01226
  41        2S         -0.22286   0.23299  -0.23299   0.23299   0.07366
  42        2PX         0.01020  -0.00785   0.00631  -0.00785   0.06188
  43        2PY        -0.01020   0.00631  -0.00785   0.00785  -0.06188
  44        2PZ        -0.01020   0.00785  -0.00785   0.00631  -0.06188
  45        3S          0.26626  -0.28144   0.28144  -0.28144  -0.10471
  46        3PX        -0.02012   0.01498  -0.01249   0.01498  -0.13053
  47        3PY         0.02012  -0.01249   0.01498  -0.01498   0.13053
  48        3PZ         0.02012  -0.01498   0.01498  -0.01249   0.13053
  49        4S          0.27303  -0.28021   0.28021  -0.28021  -0.08495
  50        4PX        -0.02031   0.01812  -0.01078   0.01812  -0.10635
  51        4PY         0.02031  -0.01078   0.01812  -0.01812   0.10635
  52        4PZ         0.02031  -0.01812   0.01812  -0.01078   0.10635
  53 5   Cl 1S          0.03791   0.03960  -0.03960  -0.03960  -0.01226
  54        2S         -0.22286  -0.23299   0.23299   0.23299   0.07366
  55        2PX        -0.01020  -0.00785   0.00631   0.00785  -0.06188
  56        2PY         0.01020   0.00631  -0.00785  -0.00785   0.06188
  57        2PZ        -0.01020  -0.00785   0.00785   0.00631  -0.06188
  58        3S          0.26626   0.28144  -0.28144  -0.28144  -0.10471
  59        3PX         0.02012   0.01498  -0.01249  -0.01498   0.13053
  60        3PY        -0.02012  -0.01249   0.01498   0.01498  -0.13053
  61        3PZ         0.02012   0.01498  -0.01498  -0.01249   0.13053
  62        4S          0.27303   0.28021  -0.28021  -0.28021  -0.08495
  63        4PX         0.02031   0.01812  -0.01078  -0.01812   0.10635
  64        4PY        -0.02031  -0.01078   0.01812   0.01812  -0.10635
  65        4PZ         0.02031   0.01812  -0.01812  -0.01078   0.10635
                          31        32        33        34        35
                        (T2)--O   (T2)--O   (T2)--O   (E)--O    (E)--O
     Eigenvalues --    -0.36922  -0.36922  -0.36922  -0.32561  -0.32561
   1 1   Al 1S          0.00000   0.00000   0.00000   0.00000  -0.00000
   2        2S          0.00000   0.00000   0.00000  -0.00000   0.00000
   3        2PX         0.00000   0.00000  -0.10707   0.00000   0.00000
   4        2PY         0.00000  -0.10707   0.00000   0.00000   0.00000
   5        2PZ        -0.10707   0.00000   0.00000   0.00000   0.00000
   6        3S          0.00000   0.00000   0.00000   0.00000  -0.00000
   7        3PX         0.00000   0.00000   0.22263   0.00000   0.00000
   8        3PY         0.00000   0.22263   0.00000   0.00000   0.00000
   9        3PZ         0.22263   0.00000   0.00000   0.00000   0.00000
  10        4S          0.00000   0.00000   0.00000  -0.00000  -0.00000
  11        4PX         0.00000   0.00000   0.02348   0.00000   0.00000
  12        4PY         0.00000   0.02348   0.00000   0.00000   0.00000
  13        4PZ         0.02348   0.00000   0.00000   0.00000   0.00000
  14 2   Cl 1S         -0.00567  -0.00567  -0.00567  -0.00000   0.00000
  15        2S          0.03435   0.03435   0.03435   0.00000  -0.00000
  16        2PX         0.08891   0.08891  -0.00517  -0.10642   0.02867
  17        2PY         0.08891  -0.00517   0.08891   0.07805   0.07783
  18        2PZ        -0.00517   0.08891   0.08891   0.02838  -0.10650
  19        3S         -0.04801  -0.04801  -0.04801  -0.00000  -0.00000
  20        3PX        -0.18939  -0.18939   0.01306   0.22686  -0.06112
  21        3PY        -0.18939   0.01306  -0.18939  -0.16636  -0.16590
  22        3PZ         0.01306  -0.18939  -0.18939  -0.06049   0.22703
  23        4S         -0.05287  -0.05287  -0.05287   0.00000   0.00000
  24        4PX        -0.15715  -0.15715   0.01328   0.21651  -0.05834
  25        4PY        -0.15715   0.01328  -0.15715  -0.15878  -0.15834
  26        4PZ         0.01328  -0.15715  -0.15715  -0.05774   0.21667
  27 3   Cl 1S         -0.00567   0.00567   0.00567  -0.00000   0.00000
  28        2S          0.03435  -0.03435  -0.03435   0.00000  -0.00000
  29        2PX        -0.08891   0.08891  -0.00517   0.10642  -0.02867
  30        2PY        -0.08891  -0.00517   0.08891  -0.07805  -0.07783
  31        2PZ        -0.00517  -0.08891  -0.08891   0.02838  -0.10650
  32        3S         -0.04801   0.04801   0.04801  -0.00000  -0.00000
  33        3PX         0.18939  -0.18939   0.01306  -0.22686   0.06112
  34        3PY         0.18939   0.01306  -0.18939   0.16636   0.16590
  35        3PZ         0.01306   0.18939   0.18939  -0.06049   0.22703
  36        4S         -0.05287   0.05287   0.05287   0.00000   0.00000
  37        4PX         0.15715  -0.15715   0.01328  -0.21651   0.05834
  38        4PY         0.15715   0.01328  -0.15715   0.15878   0.15834
  39        4PZ         0.01328   0.15715   0.15715  -0.05774   0.21667
  40 4   Cl 1S          0.00567   0.00567  -0.00567  -0.00000   0.00000
  41        2S         -0.03435  -0.03435   0.03435   0.00000  -0.00000
  42        2PX        -0.08891  -0.08891  -0.00517  -0.10642   0.02867
  43        2PY         0.08891  -0.00517  -0.08891  -0.07805  -0.07783
  44        2PZ        -0.00517   0.08891  -0.08891  -0.02838   0.10650
  45        3S          0.04801   0.04801  -0.04801  -0.00000  -0.00000
  46        3PX         0.18939   0.18939   0.01306   0.22686  -0.06112
  47        3PY        -0.18939   0.01306   0.18939   0.16636   0.16590
  48        3PZ         0.01306  -0.18939   0.18939   0.06049  -0.22703
  49        4S          0.05287   0.05287  -0.05287   0.00000   0.00000
  50        4PX         0.15715   0.15715   0.01328   0.21651  -0.05834
  51        4PY        -0.15715   0.01328   0.15715   0.15878   0.15834
  52        4PZ         0.01328  -0.15715   0.15715   0.05774  -0.21667
  53 5   Cl 1S          0.00567  -0.00567   0.00567  -0.00000   0.00000
  54        2S         -0.03435   0.03435  -0.03435   0.00000  -0.00000
  55        2PX         0.08891  -0.08891  -0.00517   0.10642  -0.02867
  56        2PY        -0.08891  -0.00517  -0.08891   0.07805   0.07783
  57        2PZ        -0.00517  -0.08891   0.08891  -0.02838   0.10650
  58        3S          0.04801  -0.04801   0.04801  -0.00000  -0.00000
  59        3PX        -0.18939   0.18939   0.01306  -0.22686   0.06112
  60        3PY         0.18939   0.01306   0.18939  -0.16636  -0.16590
  61        3PZ         0.01306   0.18939  -0.18939   0.06049  -0.22703
  62        4S          0.05287  -0.05287   0.05287   0.00000   0.00000
  63        4PX        -0.15715   0.15715   0.01328  -0.21651   0.05834
  64        4PY         0.15715   0.01328   0.15715  -0.15878  -0.15834
  65        4PZ         0.01328   0.15715  -0.15715   0.05774  -0.21667
                          36        37        38        39        40
                        (T2)--O   (T2)--O   (T2)--O   (T1)--O   (T1)--O
     Eigenvalues --    -0.31197  -0.31197  -0.31197  -0.30089  -0.30089
   1 1   Al 1S          0.00000   0.00000   0.00000   0.00000   0.00000
   2        2S          0.00000   0.00000   0.00000   0.00000   0.00000
   3        2PX         0.00000   0.03353   0.00000   0.00000   0.00000
   4        2PY         0.03353   0.00000   0.00000   0.00000  -0.00000
   5        2PZ         0.00000   0.00000   0.03353   0.00000   0.00000
   6        3S          0.00000   0.00000   0.00000   0.00000   0.00000
   7        3PX         0.00000  -0.06630   0.00000   0.00000   0.00000
   8        3PY        -0.06630   0.00000   0.00000   0.00000   0.00000
   9        3PZ         0.00000   0.00000  -0.06630  -0.00000   0.00000
  10        4S          0.00000   0.00000   0.00000   0.00000   0.00000
  11        4PX         0.00000   0.13159   0.00000   0.00000   0.00000
  12        4PY         0.13159   0.00000   0.00000   0.00000   0.00000
  13        4PZ         0.00000   0.00000   0.13159  -0.00000   0.00000
  14 2   Cl 1S          0.00174   0.00174   0.00174   0.00000  -0.00000
  15        2S         -0.01037  -0.01037  -0.01037  -0.00000   0.00000
  16        2PX        -0.00423  -0.13789  -0.00423  -0.09957  -0.09957
  17        2PY        -0.13789  -0.00423  -0.00423   0.09957   0.00000
  18        2PZ        -0.00423  -0.00423  -0.13789   0.00000   0.09957
  19        3S          0.03322   0.03322   0.03322  -0.00000  -0.00000
  20        3PX         0.00623   0.29580   0.00623   0.21473   0.21473
  21        3PY         0.29580   0.00623   0.00623  -0.21473  -0.00000
  22        3PZ         0.00623   0.00623   0.29580  -0.00000  -0.21473
  23        4S         -0.04513  -0.04513  -0.04513   0.00000  -0.00000
  24        4PX         0.02413   0.26787   0.02413   0.19431   0.19431
  25        4PY         0.26787   0.02413   0.02413  -0.19431  -0.00000
  26        4PZ         0.02413   0.02413   0.26787  -0.00000  -0.19431
  27 3   Cl 1S         -0.00174  -0.00174   0.00174   0.00000   0.00000
  28        2S          0.01037   0.01037  -0.01037  -0.00000  -0.00000
  29        2PX        -0.00423  -0.13789   0.00423   0.09957  -0.09957
  30        2PY        -0.13789  -0.00423   0.00423  -0.09957   0.00000
  31        2PZ         0.00423   0.00423  -0.13789   0.00000  -0.09957
  32        3S         -0.03322  -0.03322   0.03322  -0.00000   0.00000
  33        3PX         0.00623   0.29580  -0.00623  -0.21473   0.21473
  34        3PY         0.29580   0.00623  -0.00623   0.21473  -0.00000
  35        3PZ        -0.00623  -0.00623   0.29580  -0.00000   0.21473
  36        4S          0.04513   0.04513  -0.04513   0.00000   0.00000
  37        4PX         0.02413   0.26787  -0.02413  -0.19431   0.19431
  38        4PY         0.26787   0.02413  -0.02413   0.19431  -0.00000
  39        4PZ        -0.02413  -0.02413   0.26787  -0.00000   0.19431
  40 4   Cl 1S         -0.00174   0.00174  -0.00174  -0.00000   0.00000
  41        2S          0.01037  -0.01037   0.01037   0.00000  -0.00000
  42        2PX         0.00423  -0.13789   0.00423   0.09957   0.09957
  43        2PY        -0.13789   0.00423  -0.00423   0.09957   0.00000
  44        2PZ        -0.00423   0.00423  -0.13789   0.00000   0.09957
  45        3S         -0.03322   0.03322  -0.03322   0.00000   0.00000
  46        3PX        -0.00623   0.29580  -0.00623  -0.21473  -0.21473
  47        3PY         0.29580  -0.00623   0.00623  -0.21473  -0.00000
  48        3PZ         0.00623  -0.00623   0.29580  -0.00000  -0.21473
  49        4S          0.04513  -0.04513   0.04513  -0.00000   0.00000
  50        4PX        -0.02413   0.26787  -0.02413  -0.19431  -0.19431
  51        4PY         0.26787  -0.02413   0.02413  -0.19431  -0.00000
  52        4PZ         0.02413  -0.02413   0.26787  -0.00000  -0.19431
  53 5   Cl 1S          0.00174  -0.00174  -0.00174  -0.00000  -0.00000
  54        2S         -0.01037   0.01037   0.01037   0.00000   0.00000
  55        2PX         0.00423  -0.13789  -0.00423  -0.09957   0.09957
  56        2PY        -0.13789   0.00423   0.00423  -0.09957   0.00000
  57        2PZ         0.00423  -0.00423  -0.13789   0.00000  -0.09957
  58        3S          0.03322  -0.03322  -0.03322   0.00000  -0.00000
  59        3PX        -0.00623   0.29580   0.00623   0.21473  -0.21473
  60        3PY         0.29580  -0.00623  -0.00623   0.21473  -0.00000
  61        3PZ        -0.00623   0.00623   0.29580  -0.00000   0.21473
  62        4S         -0.04513   0.04513   0.04513  -0.00000  -0.00000
  63        4PX        -0.02413   0.26787   0.02413   0.19431  -0.19431
  64        4PY         0.26787  -0.02413  -0.02413   0.19431  -0.00000
  65        4PZ        -0.02413   0.02413   0.26787  -0.00000   0.19431
                          41        42        43        44        45
                        (T1)--O   (A1)--V   (T2)--V   (T2)--V   (T2)--V
     Eigenvalues --    -0.30089   0.25266   0.31421   0.31421   0.31421
   1 1   Al 1S          0.00000   0.05175   0.00000   0.00000   0.00000
   2        2S          0.00000  -0.29256   0.00000   0.00000   0.00000
   3        2PX        -0.00000   0.00000   0.00000   0.00000  -0.13083
   4        2PY         0.00000   0.00000  -0.13083   0.00000   0.00000
   5        2PZ         0.00000   0.00000   0.00000  -0.13083   0.00000
   6        3S          0.00000   0.33097   0.00000   0.00000   0.00000
   7        3PX         0.00000   0.00000   0.00000   0.00000   0.30556
   8        3PY         0.00000   0.00000   0.30556   0.00000   0.00000
   9        3PZ         0.00000   0.00000   0.00000   0.30556   0.00000
  10        4S          0.00000   1.56749   0.00000   0.00000   0.00000
  11        4PX         0.00000   0.00000   0.00000   0.00000   1.54583
  12        4PY         0.00000   0.00000   1.54583   0.00000   0.00000
  13        4PZ         0.00000   0.00000   0.00000   1.54583   0.00000
  14 2   Cl 1S         -0.00000  -0.01572  -0.00998  -0.00998  -0.00998
  15        2S          0.00000   0.09808   0.06347   0.06347   0.06347
  16        2PX        -0.00000  -0.05022  -0.03940  -0.03940   0.02981
  17        2PY        -0.09957  -0.05022   0.02981  -0.03940  -0.03940
  18        2PZ         0.09957  -0.05022  -0.03940   0.02981  -0.03940
  19        3S          0.00000  -0.11437  -0.03103  -0.03103  -0.03103
  20        3PX         0.00000   0.10587   0.07951   0.07951  -0.06931
  21        3PY         0.21473   0.10587  -0.06931   0.07951   0.07951
  22        3PZ        -0.21473   0.10587   0.07951  -0.06931   0.07951
  23        4S         -0.00000  -0.40146  -0.49259  -0.49259  -0.49259
  24        4PX         0.00000   0.22616   0.25149   0.25149  -0.06404
  25        4PY         0.19431   0.22616  -0.06404   0.25149   0.25149
  26        4PZ        -0.19431   0.22616   0.25149  -0.06404   0.25149
  27 3   Cl 1S          0.00000  -0.01572   0.00998  -0.00998   0.00998
  28        2S         -0.00000   0.09808  -0.06347   0.06347  -0.06347
  29        2PX        -0.00000   0.05022  -0.03940   0.03940   0.02981
  30        2PY        -0.09957   0.05022   0.02981   0.03940  -0.03940
  31        2PZ        -0.09957  -0.05022   0.03940   0.02981   0.03940
  32        3S         -0.00000  -0.11437   0.03103  -0.03103   0.03103
  33        3PX         0.00000  -0.10587   0.07951  -0.07951  -0.06931
  34        3PY         0.21473  -0.10587  -0.06931  -0.07951   0.07951
  35        3PZ         0.21473   0.10587  -0.07951  -0.06931  -0.07951
  36        4S          0.00000  -0.40146   0.49259  -0.49259   0.49259
  37        4PX         0.00000  -0.22616   0.25149  -0.25149  -0.06404
  38        4PY         0.19431  -0.22616  -0.06404  -0.25149   0.25149
  39        4PZ         0.19431   0.22616  -0.25149  -0.06404  -0.25149
  40 4   Cl 1S         -0.00000  -0.01572   0.00998   0.00998  -0.00998
  41        2S          0.00000   0.09808  -0.06347  -0.06347   0.06347
  42        2PX        -0.00000  -0.05022   0.03940   0.03940   0.02981
  43        2PY         0.09957   0.05022   0.02981  -0.03940   0.03940
  44        2PZ        -0.09957   0.05022  -0.03940   0.02981   0.03940
  45        3S          0.00000  -0.11437   0.03103   0.03103  -0.03103
  46        3PX         0.00000   0.10587  -0.07951  -0.07951  -0.06931
  47        3PY        -0.21473  -0.10587  -0.06931   0.07951  -0.07951
  48        3PZ         0.21473  -0.10587   0.07951  -0.06931  -0.07951
  49        4S         -0.00000  -0.40146   0.49259   0.49259  -0.49259
  50        4PX         0.00000   0.22616  -0.25149  -0.25149  -0.06404
  51        4PY        -0.19431  -0.22616  -0.06404   0.25149  -0.25149
  52        4PZ         0.19431  -0.22616   0.25149  -0.06404  -0.25149
  53 5   Cl 1S          0.00000  -0.01572  -0.00998   0.00998   0.00998
  54        2S         -0.00000   0.09808   0.06347  -0.06347  -0.06347
  55        2PX        -0.00000   0.05022   0.03940  -0.03940   0.02981
  56        2PY         0.09957  -0.05022   0.02981   0.03940   0.03940
  57        2PZ         0.09957   0.05022   0.03940   0.02981  -0.03940
  58        3S         -0.00000  -0.11437  -0.03103   0.03103   0.03103
  59        3PX         0.00000  -0.10587  -0.07951   0.07951  -0.06931
  60        3PY        -0.21473   0.10587  -0.06931  -0.07951  -0.07951
  61        3PZ        -0.21473  -0.10587  -0.07951  -0.06931   0.07951
  62        4S          0.00000  -0.40146  -0.49259   0.49259   0.49259
  63        4PX         0.00000  -0.22616  -0.25149   0.25149  -0.06404
  64        4PY        -0.19431   0.22616  -0.06404  -0.25149  -0.25149
  65        4PZ        -0.19431  -0.22616  -0.25149  -0.06404   0.25149
                          46        47        48        49        50
                        (A1)--V   (T2)--V   (T2)--V   (T2)--V   (T2)--V
     Eigenvalues --     0.42328   0.49940   0.49940   0.49940   0.89336
   1 1   Al 1S         -0.05366   0.00000   0.00000   0.00000   0.00000
   2        2S          0.06908   0.00000   0.00000   0.00000   0.00000
   3        2PX         0.00000  -0.32603   0.00000   0.00000   0.01065
   4        2PY         0.00000   0.00000  -0.32603   0.00000   0.00000
   5        2PZ         0.00000   0.00000   0.00000  -0.32603   0.00000
   6        3S         -1.89469   0.00000   0.00000   0.00000   0.00000
   7        3PX         0.00000   1.50568   0.00000   0.00000   0.04017
   8        3PY         0.00000   0.00000   1.50568   0.00000   0.00000
   9        3PZ         0.00000   0.00000   0.00000   1.50568   0.00000
  10        4S          2.43404   0.00000   0.00000   0.00000   0.00000
  11        4PX         0.00000  -1.29564   0.00000   0.00000  -0.16091
  12        4PY         0.00000   0.00000  -1.29564   0.00000   0.00000
  13        4PZ         0.00000   0.00000   0.00000  -1.29564   0.00000
  14 2   Cl 1S         -0.00463  -0.00249  -0.00249  -0.00249  -0.02621
  15        2S          0.03015   0.01552   0.01552   0.01552   0.16007
  16        2PX         0.02422  -0.02963  -0.02298  -0.02298  -0.00714
  17        2PY         0.02422  -0.02298  -0.02963  -0.02298   0.08455
  18        2PZ         0.02422  -0.02298  -0.02298  -0.02963   0.08455
  19        3S         -0.00738  -0.03409  -0.03409  -0.03409  -0.70463
  20        3PX        -0.06155   0.06488   0.05066   0.05066   0.02165
  21        3PY        -0.06155   0.05066   0.06488   0.05066  -0.28948
  22        3PZ        -0.06155   0.05066   0.05066   0.06488  -0.28948
  23        4S         -0.40735   0.15327   0.15327   0.15327   0.70585
  24        4PX         0.04584   0.16923   0.07666   0.07666  -0.00377
  25        4PY         0.04584   0.07666   0.16923   0.07666   0.25261
  26        4PZ         0.04584   0.07666   0.07666   0.16923   0.25261
  27 3   Cl 1S         -0.00463   0.00249   0.00249  -0.00249   0.02621
  28        2S          0.03015  -0.01552  -0.01552   0.01552  -0.16007
  29        2PX        -0.02422  -0.02963  -0.02298   0.02298  -0.00714
  30        2PY        -0.02422  -0.02298  -0.02963   0.02298   0.08455
  31        2PZ         0.02422   0.02298   0.02298  -0.02963  -0.08455
  32        3S         -0.00738   0.03409   0.03409  -0.03409   0.70463
  33        3PX         0.06155   0.06488   0.05066  -0.05066   0.02165
  34        3PY         0.06155   0.05066   0.06488  -0.05066  -0.28948
  35        3PZ        -0.06155  -0.05066  -0.05066   0.06488   0.28948
  36        4S         -0.40735  -0.15327  -0.15327   0.15327  -0.70585
  37        4PX        -0.04584   0.16923   0.07666  -0.07666  -0.00377
  38        4PY        -0.04584   0.07666   0.16923  -0.07666   0.25261
  39        4PZ         0.04584  -0.07666  -0.07666   0.16923  -0.25261
  40 4   Cl 1S         -0.00463  -0.00249   0.00249   0.00249  -0.02621
  41        2S          0.03015   0.01552  -0.01552  -0.01552   0.16007
  42        2PX         0.02422  -0.02963   0.02298   0.02298  -0.00714
  43        2PY        -0.02422   0.02298  -0.02963  -0.02298  -0.08455
  44        2PZ        -0.02422   0.02298  -0.02298  -0.02963  -0.08455
  45        3S         -0.00738  -0.03409   0.03409   0.03409  -0.70463
  46        3PX        -0.06155   0.06488  -0.05066  -0.05066   0.02165
  47        3PY         0.06155  -0.05066   0.06488   0.05066   0.28948
  48        3PZ         0.06155  -0.05066   0.05066   0.06488   0.28948
  49        4S         -0.40735   0.15327  -0.15327  -0.15327   0.70585
  50        4PX         0.04584   0.16923  -0.07666  -0.07666  -0.00377
  51        4PY        -0.04584  -0.07666   0.16923   0.07666  -0.25261
  52        4PZ        -0.04584  -0.07666   0.07666   0.16923  -0.25261
  53 5   Cl 1S         -0.00463   0.00249  -0.00249   0.00249   0.02621
  54        2S          0.03015  -0.01552   0.01552  -0.01552  -0.16007
  55        2PX        -0.02422  -0.02963   0.02298  -0.02298  -0.00714
  56        2PY         0.02422   0.02298  -0.02963   0.02298  -0.08455
  57        2PZ        -0.02422  -0.02298   0.02298  -0.02963   0.08455
  58        3S         -0.00738   0.03409  -0.03409   0.03409   0.70463
  59        3PX         0.06155   0.06488  -0.05066   0.05066   0.02165
  60        3PY        -0.06155  -0.05066   0.06488  -0.05066   0.28948
  61        3PZ         0.06155   0.05066  -0.05066   0.06488  -0.28948
  62        4S         -0.40735  -0.15327   0.15327  -0.15327  -0.70585
  63        4PX        -0.04584   0.16923  -0.07666   0.07666  -0.00377
  64        4PY         0.04584  -0.07666   0.16923  -0.07666  -0.25261
  65        4PZ        -0.04584   0.07666  -0.07666   0.16923   0.25261
                          51        52        53        54        55
                        (T2)--V   (T2)--V   (E)--V    (E)--V    (A1)--V
     Eigenvalues --     0.89336   0.89336   0.89655   0.89655   0.92893
   1 1   Al 1S          0.00000   0.00000   0.00000   0.00000   0.00417
   2        2S          0.00000   0.00000  -0.00000   0.00000   0.04863
   3        2PX         0.00000   0.00000   0.00000   0.00000   0.00000
   4        2PY         0.01065   0.00000   0.00000   0.00000   0.00000
   5        2PZ         0.00000   0.01065   0.00000   0.00000   0.00000
   6        3S          0.00000   0.00000  -0.00000   0.00000   0.60383
   7        3PX         0.00000   0.00000   0.00000   0.00000   0.00000
   8        3PY         0.04017   0.00000   0.00000   0.00000   0.00000
   9        3PZ         0.00000   0.04017   0.00000   0.00000   0.00000
  10        4S          0.00000   0.00000   0.00000  -0.00000  -0.22143
  11        4PX         0.00000   0.00000   0.00000   0.00000   0.00000
  12        4PY        -0.16091   0.00000   0.00000   0.00000   0.00000
  13        4PZ         0.00000  -0.16091   0.00000   0.00000   0.00000
  14 2   Cl 1S         -0.02621  -0.02621   0.00000  -0.00000  -0.01501
  15        2S          0.16007   0.16007  -0.00000   0.00000   0.09219
  16        2PX         0.08455   0.08455  -0.14428   0.01568   0.09132
  17        2PY        -0.00714   0.08455   0.08572   0.11711   0.09132
  18        2PZ         0.08455  -0.00714   0.05856  -0.13279   0.09132
  19        3S         -0.70463  -0.70463   0.00000  -0.00000  -0.37963
  20        3PX        -0.28948  -0.28948   0.49619  -0.05394  -0.32234
  21        3PY         0.02165  -0.28948  -0.29481  -0.40275  -0.32234
  22        3PZ        -0.28948   0.02165  -0.20138   0.45669  -0.32234
  23        4S          0.70585   0.70585  -0.00000   0.00000   0.35705
  24        4PX         0.25261   0.25261  -0.45586   0.04955   0.33797
  25        4PY        -0.00377   0.25261   0.27085   0.37001   0.33797
  26        4PZ         0.25261  -0.00377   0.18502  -0.41957   0.33797
  27 3   Cl 1S          0.02621  -0.02621   0.00000  -0.00000  -0.01501
  28        2S         -0.16007   0.16007  -0.00000   0.00000   0.09219
  29        2PX         0.08455  -0.08455   0.14428  -0.01568  -0.09132
  30        2PY        -0.00714  -0.08455  -0.08572  -0.11711  -0.09132
  31        2PZ        -0.08455  -0.00714   0.05856  -0.13279   0.09132
  32        3S          0.70463  -0.70463   0.00000  -0.00000  -0.37963
  33        3PX        -0.28948   0.28948  -0.49619   0.05394   0.32234
  34        3PY         0.02165   0.28948   0.29481   0.40275   0.32234
  35        3PZ         0.28948   0.02165  -0.20138   0.45669  -0.32234
  36        4S         -0.70585   0.70585  -0.00000   0.00000   0.35705
  37        4PX         0.25261  -0.25261   0.45586  -0.04955  -0.33797
  38        4PY        -0.00377  -0.25261  -0.27085  -0.37001  -0.33797
  39        4PZ        -0.25261  -0.00377   0.18502  -0.41957   0.33797
  40 4   Cl 1S          0.02621   0.02621   0.00000  -0.00000  -0.01501
  41        2S         -0.16007  -0.16007  -0.00000   0.00000   0.09219
  42        2PX        -0.08455  -0.08455  -0.14428   0.01568   0.09132
  43        2PY        -0.00714   0.08455  -0.08572  -0.11711  -0.09132
  44        2PZ         0.08455  -0.00714  -0.05856   0.13279  -0.09132
  45        3S          0.70463   0.70463   0.00000  -0.00000  -0.37963
  46        3PX         0.28948   0.28948   0.49619  -0.05394  -0.32234
  47        3PY         0.02165  -0.28948   0.29481   0.40275   0.32234
  48        3PZ        -0.28948   0.02165   0.20138  -0.45669   0.32234
  49        4S         -0.70585  -0.70585  -0.00000   0.00000   0.35705
  50        4PX        -0.25261  -0.25261  -0.45586   0.04955   0.33797
  51        4PY        -0.00377   0.25261  -0.27085  -0.37001  -0.33797
  52        4PZ         0.25261  -0.00377  -0.18502   0.41957  -0.33797
  53 5   Cl 1S         -0.02621   0.02621   0.00000  -0.00000  -0.01501
  54        2S          0.16007  -0.16007  -0.00000   0.00000   0.09219
  55        2PX        -0.08455   0.08455   0.14428  -0.01568  -0.09132
  56        2PY        -0.00714  -0.08455   0.08572   0.11711   0.09132
  57        2PZ        -0.08455  -0.00714  -0.05856   0.13279  -0.09132
  58        3S         -0.70463   0.70463   0.00000  -0.00000  -0.37963
  59        3PX         0.28948  -0.28948  -0.49619   0.05394   0.32234
  60        3PY         0.02165   0.28948  -0.29481  -0.40275  -0.32234
  61        3PZ         0.28948   0.02165   0.20138  -0.45669   0.32234
  62        4S          0.70585  -0.70585  -0.00000   0.00000   0.35705
  63        4PX        -0.25261   0.25261   0.45586  -0.04955  -0.33797
  64        4PY        -0.00377  -0.25261   0.27085   0.37001   0.33797
  65        4PZ        -0.25261  -0.00377  -0.18502   0.41957  -0.33797
                          56        57        58        59        60
                        (T1)--V   (T1)--V   (T1)--V   (T2)--V   (T2)--V
     Eigenvalues --     1.02607   1.02607   1.02607   1.08941   1.08941
   1 1   Al 1S          0.00000   0.00000   0.00000   0.00000   0.00000
   2        2S          0.00000   0.00000   0.00000   0.00000   0.00000
   3        2PX         0.00000   0.00000  -0.00000   0.00000  -0.01343
   4        2PY         0.00000  -0.00000   0.00000  -0.01343   0.00000
   5        2PZ         0.00000   0.00000   0.00000   0.00000   0.00000
   6        3S          0.00000   0.00000   0.00000   0.00000   0.00000
   7        3PX         0.00000   0.00000   0.00000   0.00000   0.40477
   8        3PY         0.00000  -0.00000   0.00000   0.40477   0.00000
   9        3PZ         0.00000   0.00000   0.00000   0.00000   0.00000
  10        4S          0.00000   0.00000   0.00000   0.00000   0.00000
  11        4PX         0.00000   0.00000   0.00000   0.00000  -0.29130
  12        4PY         0.00000  -0.00000   0.00000  -0.29130   0.00000
  13        4PZ        -0.00000   0.00000   0.00000   0.00000   0.00000
  14 2   Cl 1S         -0.00000  -0.00000   0.00000   0.00983   0.00983
  15        2S          0.00000   0.00000  -0.00000  -0.05982  -0.05982
  16        2PX         0.12553   0.12553  -0.00000   0.04194   0.16417
  17        2PY        -0.12553  -0.00000   0.12553   0.16417   0.04194
  18        2PZ         0.00000  -0.12553  -0.12553   0.04194   0.04194
  19        3S         -0.00000  -0.00000   0.00000   0.30216   0.30216
  20        3PX        -0.44521  -0.44521   0.00000  -0.15532  -0.59539
  21        3PY         0.44521   0.00000  -0.44521  -0.59539  -0.15532
  22        3PZ        -0.00000   0.44521   0.44521  -0.15532  -0.15532
  23        4S          0.00000   0.00000  -0.00000  -0.29455  -0.29455
  24        4PX         0.45362   0.45362  -0.00000   0.19536   0.68034
  25        4PY        -0.45362  -0.00000   0.45362   0.68034   0.19536
  26        4PZ         0.00000  -0.45362  -0.45362   0.19536   0.19536
  27 3   Cl 1S         -0.00000   0.00000  -0.00000  -0.00983  -0.00983
  28        2S          0.00000  -0.00000   0.00000   0.05982   0.05982
  29        2PX        -0.12553   0.12553  -0.00000   0.04194   0.16417
  30        2PY         0.12553  -0.00000   0.12553   0.16417   0.04194
  31        2PZ         0.00000   0.12553   0.12553  -0.04194  -0.04194
  32        3S         -0.00000   0.00000  -0.00000  -0.30216  -0.30216
  33        3PX         0.44521  -0.44521   0.00000  -0.15532  -0.59539
  34        3PY        -0.44521   0.00000  -0.44521  -0.59539  -0.15532
  35        3PZ        -0.00000  -0.44521  -0.44521   0.15532   0.15532
  36        4S          0.00000  -0.00000   0.00000   0.29455   0.29455
  37        4PX        -0.45362   0.45362  -0.00000   0.19536   0.68034
  38        4PY         0.45362  -0.00000   0.45362   0.68034   0.19536
  39        4PZ         0.00000   0.45362   0.45362  -0.19536  -0.19536
  40 4   Cl 1S          0.00000   0.00000   0.00000  -0.00983   0.00983
  41        2S         -0.00000  -0.00000  -0.00000   0.05982  -0.05982
  42        2PX        -0.12553  -0.12553  -0.00000  -0.04194   0.16417
  43        2PY        -0.12553  -0.00000  -0.12553   0.16417  -0.04194
  44        2PZ         0.00000  -0.12553   0.12553   0.04194  -0.04194
  45        3S          0.00000   0.00000   0.00000  -0.30216   0.30216
  46        3PX         0.44521   0.44521   0.00000   0.15532  -0.59539
  47        3PY         0.44521   0.00000   0.44521  -0.59539   0.15532
  48        3PZ        -0.00000   0.44521  -0.44521  -0.15532   0.15532
  49        4S         -0.00000  -0.00000  -0.00000   0.29455  -0.29455
  50        4PX        -0.45362  -0.45362  -0.00000  -0.19536   0.68034
  51        4PY        -0.45362  -0.00000  -0.45362   0.68034  -0.19536
  52        4PZ         0.00000  -0.45362   0.45362   0.19536  -0.19536
  53 5   Cl 1S          0.00000  -0.00000  -0.00000   0.00983  -0.00983
  54        2S         -0.00000   0.00000   0.00000  -0.05982   0.05982
  55        2PX         0.12553  -0.12553  -0.00000  -0.04194   0.16417
  56        2PY         0.12553  -0.00000  -0.12553   0.16417  -0.04194
  57        2PZ         0.00000   0.12553  -0.12553  -0.04194   0.04194
  58        3S          0.00000  -0.00000  -0.00000   0.30216  -0.30216
  59        3PX        -0.44521   0.44521   0.00000   0.15532  -0.59539
  60        3PY        -0.44521   0.00000   0.44521  -0.59539   0.15532
  61        3PZ        -0.00000  -0.44521   0.44521   0.15532  -0.15532
  62        4S         -0.00000   0.00000   0.00000  -0.29455   0.29455
  63        4PX         0.45362  -0.45362  -0.00000  -0.19536   0.68034
  64        4PY         0.45362  -0.00000  -0.45362   0.68034  -0.19536
  65        4PZ         0.00000   0.45362  -0.45362  -0.19536   0.19536
                          61        62        63        64        65
                        (T2)--V   (T2)--V   (T2)--V   (T2)--V   (A1)--V
     Eigenvalues --     1.08941   1.15272   1.15272   1.15272   1.32746
   1 1   Al 1S          0.00000   0.00000   0.00000   0.00000   0.02028
   2        2S          0.00000   0.00000   0.00000   0.00000  -0.17805
   3        2PX         0.00000  -0.02551   0.00000   0.00000   0.00000
   4        2PY         0.00000   0.00000  -0.02551   0.00000   0.00000
   5        2PZ        -0.01343   0.00000   0.00000  -0.02551   0.00000
   6        3S          0.00000   0.00000   0.00000   0.00000  -0.00502
   7        3PX         0.00000   0.27203   0.00000   0.00000   0.00000
   8        3PY         0.00000   0.00000   0.27203   0.00000   0.00000
   9        3PZ         0.40477   0.00000   0.00000   0.27203   0.00000
  10        4S          0.00000   0.00000   0.00000   0.00000   3.06144
  11        4PX         0.00000   1.44550   0.00000   0.00000   0.00000
  12        4PY         0.00000   0.00000   1.44550   0.00000   0.00000
  13        4PZ        -0.29130   0.00000   0.00000   1.44550   0.00000
  14 2   Cl 1S          0.00983   0.02256   0.02256   0.02256   0.03194
  15        2S         -0.05982  -0.13540  -0.13540  -0.13540  -0.19079
  16        2PX         0.04194  -0.06931   0.08471   0.08471   0.04484
  17        2PY         0.04194   0.08471  -0.06931   0.08471   0.04484
  18        2PZ         0.16417   0.08471   0.08471  -0.06931   0.04484
  19        3S          0.30216   0.78584   0.78584   0.78584   1.22342
  20        3PX        -0.15532   0.25939  -0.32536  -0.32536  -0.19477
  21        3PY        -0.15532  -0.32536   0.25939  -0.32536  -0.19477
  22        3PZ        -0.59539  -0.32536  -0.32536   0.25939  -0.19477
  23        4S         -0.29455  -1.20936  -1.20936  -1.20936  -1.96464
  24        4PX         0.19536  -0.32308   0.54484   0.54484   0.49911
  25        4PY         0.19536   0.54484  -0.32308   0.54484   0.49911
  26        4PZ         0.68034   0.54484   0.54484  -0.32308   0.49911
  27 3   Cl 1S          0.00983  -0.02256  -0.02256   0.02256   0.03194
  28        2S         -0.05982   0.13540   0.13540  -0.13540  -0.19079
  29        2PX        -0.04194  -0.06931   0.08471  -0.08471  -0.04484
  30        2PY        -0.04194   0.08471  -0.06931  -0.08471  -0.04484
  31        2PZ         0.16417  -0.08471  -0.08471  -0.06931   0.04484
  32        3S          0.30216  -0.78584  -0.78584   0.78584   1.22342
  33        3PX         0.15532   0.25939  -0.32536   0.32536   0.19477
  34        3PY         0.15532  -0.32536   0.25939   0.32536   0.19477
  35        3PZ        -0.59539   0.32536   0.32536   0.25939  -0.19477
  36        4S         -0.29455   1.20936   1.20936  -1.20936  -1.96464
  37        4PX        -0.19536  -0.32308   0.54484  -0.54484  -0.49911
  38        4PY        -0.19536   0.54484  -0.32308  -0.54484  -0.49911
  39        4PZ         0.68034  -0.54484  -0.54484  -0.32308   0.49911
  40 4   Cl 1S         -0.00983   0.02256  -0.02256  -0.02256   0.03194
  41        2S          0.05982  -0.13540   0.13540   0.13540  -0.19079
  42        2PX        -0.04194  -0.06931  -0.08471  -0.08471   0.04484
  43        2PY         0.04194  -0.08471  -0.06931   0.08471  -0.04484
  44        2PZ         0.16417  -0.08471   0.08471  -0.06931  -0.04484
  45        3S         -0.30216   0.78584  -0.78584  -0.78584   1.22342
  46        3PX         0.15532   0.25939   0.32536   0.32536  -0.19477
  47        3PY        -0.15532   0.32536   0.25939  -0.32536   0.19477
  48        3PZ        -0.59539   0.32536  -0.32536   0.25939   0.19477
  49        4S          0.29455  -1.20936   1.20936   1.20936  -1.96464
  50        4PX        -0.19536  -0.32308  -0.54484  -0.54484   0.49911
  51        4PY         0.19536  -0.54484  -0.32308   0.54484  -0.49911
  52        4PZ         0.68034  -0.54484   0.54484  -0.32308  -0.49911
  53 5   Cl 1S         -0.00983  -0.02256   0.02256  -0.02256   0.03194
  54        2S          0.05982   0.13540  -0.13540   0.13540  -0.19079
  55        2PX         0.04194  -0.06931  -0.08471   0.08471  -0.04484
  56        2PY        -0.04194  -0.08471  -0.06931  -0.08471   0.04484
  57        2PZ         0.16417   0.08471  -0.08471  -0.06931  -0.04484
  58        3S         -0.30216  -0.78584   0.78584  -0.78584   1.22342
  59        3PX        -0.15532   0.25939   0.32536  -0.32536   0.19477
  60        3PY         0.15532   0.32536   0.25939   0.32536  -0.19477
  61        3PZ        -0.59539  -0.32536   0.32536   0.25939   0.19477
  62        4S          0.29455   1.20936  -1.20936   1.20936  -1.96464
  63        4PX         0.19536  -0.32308  -0.54484   0.54484  -0.49911
  64        4PY        -0.19536  -0.54484  -0.32308  -0.54484   0.49911
  65        4PZ         0.68034   0.54484  -0.54484  -0.32308  -0.49911
     Density Matrix:
                           1         2         3         4         5
   1 1   Al 1S          2.11957
   2        2S         -0.50453   2.13361
   3        2PX         0.00000   0.00000   1.94264
   4        2PY         0.00000   0.00000   0.00000   1.94264
   5        2PZ         0.00000   0.00000   0.00000  -0.00000   1.94264
   6        3S         -0.04080   0.02514   0.00000   0.00000   0.00000
   7        3PX         0.00000   0.00000   0.12152   0.00000   0.00000
   8        3PY         0.00000   0.00000   0.00000   0.12152  -0.00000
   9        3PZ         0.00000   0.00000   0.00000  -0.00000   0.12152
  10        4S         -0.00250  -0.02624   0.00000   0.00000   0.00000
  11        4PX         0.00000   0.00000  -0.04285  -0.00000  -0.00000
  12        4PY         0.00000   0.00000  -0.00000  -0.04285   0.00000
  13        4PZ         0.00000   0.00000  -0.00000   0.00000  -0.04285
  14 2   Cl 1S          0.00019   0.00008  -0.00209  -0.00209  -0.00209
  15        2S         -0.00138   0.00473   0.01211   0.01211   0.01211
  16        2PX         0.00540  -0.02590  -0.00884  -0.02010  -0.02010
  17        2PY         0.00540  -0.02590  -0.02010  -0.00884  -0.02010
  18        2PZ         0.00540  -0.02590  -0.02010  -0.02010  -0.00884
  19        3S         -0.00650   0.00653  -0.01084  -0.01084  -0.01084
  20        3PX        -0.01063   0.05293   0.01915   0.04291   0.04291
  21        3PY        -0.01063   0.05293   0.04291   0.01915   0.04291
  22        3PZ        -0.01063   0.05293   0.04291   0.04291   0.01915
  23        4S          0.01803  -0.03186  -0.02097  -0.02097  -0.02097
  24        4PX        -0.01629   0.05679   0.02242   0.04559   0.04559
  25        4PY        -0.01629   0.05679   0.04559   0.02242   0.04559
  26        4PZ        -0.01629   0.05679   0.04559   0.04559   0.02242
  27 3   Cl 1S          0.00019   0.00008   0.00209   0.00209  -0.00209
  28        2S         -0.00138   0.00473  -0.01211  -0.01211   0.01211
  29        2PX        -0.00540   0.02590  -0.00884  -0.02010   0.02010
  30        2PY        -0.00540   0.02590  -0.02010  -0.00884   0.02010
  31        2PZ         0.00540  -0.02590   0.02010   0.02010  -0.00884
  32        3S         -0.00650   0.00653   0.01084   0.01084  -0.01084
  33        3PX         0.01063  -0.05293   0.01915   0.04291  -0.04291
  34        3PY         0.01063  -0.05293   0.04291   0.01915  -0.04291
  35        3PZ        -0.01063   0.05293  -0.04291  -0.04291   0.01915
  36        4S          0.01803  -0.03186   0.02097   0.02097  -0.02097
  37        4PX         0.01629  -0.05679   0.02242   0.04559  -0.04559
  38        4PY         0.01629  -0.05679   0.04559   0.02242  -0.04559
[...]
 Frequencies --    174.2661               174.2661               337.2373
 Red. masses --     33.3700                33.3700                34.9689
 Frc consts  --      0.5971                 0.5971                 2.3432
 IR Inten    --     22.7935                22.7935                 0.0000
 Raman Activ --      3.8427                 3.8427                 8.7891
 Depolar (P) --      0.7500                 0.7500                 0.0000
 Depolar (U) --      0.8571                 0.8571                 0.0000
  Atom  AN      X      Y      Z        X      Y      Z        X      Y      Z
     1  13     0.37  -0.22  -0.13    -0.25  -0.26  -0.26    -0.00  -0.00  -0.00
     2  17    -0.32   0.21   0.12    -0.31  -0.31  -0.31     0.29   0.29   0.29
     3  17    -0.14   0.39  -0.07     0.05   0.06   0.41    -0.29  -0.29   0.29
     4  17     0.17  -0.30  -0.38     0.41   0.04   0.05     0.29  -0.29  -0.29
     5  17    -0.01  -0.12   0.43     0.05   0.41   0.06    -0.29   0.29  -0.29
                      7                      8                      9
                     T2                     T2                     T2
 Frequencies --    508.4369               508.4369               508.4369
 Red. masses --     29.1347                29.1347                29.1347
 Frc consts  --      4.4375                 4.4375                 4.4375
 IR Inten    --    203.6028               203.6028               203.6028
 Raman Activ --      0.3984                 0.3984                 0.3984
 Depolar (P) --      0.7500                 0.7500                 0.7500
 Depolar (U) --      0.8571                 0.8571                 0.8571
  Atom  AN      X      Y      Z        X      Y      Z        X      Y      Z
     1  13    -0.34  -0.36   0.70     0.61  -0.60  -0.01     0.49   0.49   0.49
     2  17     0.01   0.01  -0.02    -0.02   0.02  -0.00    -0.26  -0.26  -0.26
     3  17     0.24   0.24  -0.25    -0.02   0.01   0.00    -0.09  -0.09   0.07
     4  17     0.12  -0.10  -0.13    -0.22   0.22   0.20     0.07  -0.10  -0.10
     5  17    -0.11   0.13  -0.14    -0.22   0.22  -0.20    -0.09   0.07  -0.10

 -------------------
 - Thermochemistry -
 -------------------
 Temperature   298.150 Kelvin.  Pressure   1.00000 Atm.
 Atom     1 has atomic number 13 and mass  26.98154
 Atom     2 has atomic number 17 and mass  34.96885
 Atom     3 has atomic number 17 and mass  34.96885
 Atom     4 has atomic number 17 and mass  34.96885
 Atom     5 has atomic number 17 and mass  34.96885
 Molecular mass:   166.85695 amu.
 Principal axes and moments of inertia in atomic units:
                           1         2         3
     Eigenvalues --  1664.651171664.651171664.65117
           X            0.89568  -0.35752  -0.26447
           Y            0.39607   0.37089   0.83998
           Z            0.20221   0.85710  -0.47380
 This molecule is a spherical top.
 Rotational symmetry number 12.
 Warning -- assumption of classical behavior for rotation
           may cause significant error
 Rotational temperatures (Kelvin)      0.05203     0.05203     0.05203
 Rotational constants (GHZ):           1.08416     1.08416     1.08416
 Zero-point vibrational energy      15670.9 (Joules/Mol)
                                    3.74544 (Kcal/Mol)
 Warning -- explicit consideration of   9 degrees of freedom as
           vibrations may cause significant error
 Vibrational temperatures:    168.79   168.79   250.73   250.73   250.73
          (Kelvin)            485.21   731.53   731.53   731.53
 
 Zero-point correction=                           0.005969 (Hartree/Particle)
 Thermal correction to Energy=                    0.013041
 Thermal correction to Enthalpy=                  0.013985
 Thermal correction to Gibbs Free Energy=        -0.025361
 Sum of electronic and zero-point Energies=          -2070.195465
 Sum of electronic and thermal Energies=             -2070.188392
 Sum of electronic and thermal Enthalpies=           -2070.187448
 Sum of electronic and thermal Free Energies=        -2070.226794
 
                     E (Thermal)             CV                S
                      KCal/Mol        Cal/Mol-Kelvin    Cal/Mol-Kelvin
 Total                    8.184             20.749             82.811
 Electronic               0.000              0.000              0.000
 Translational            0.889              2.981             41.244
 Rotational               0.889              2.981             24.975
 Vibrational              6.406             14.787             16.593
 Vibration     1          0.608              1.935              3.144
 Vibration     2          0.608              1.935              3.144
 Vibration     3          0.627              1.874              2.389
 Vibration     4          0.627              1.874              2.389
 Vibration     5          0.627              1.874              2.389
 Vibration     6          0.718              1.601              1.225
 Vibration     7          0.864              1.231              0.637
 Vibration     8          0.864              1.231              0.637
 Vibration     9          0.864              1.231              0.637
                       Q            Log10(Q)             Ln(Q)
 Total Bot       0.462545D+12         11.665154         26.860010
 Total V=0       0.257382D+15         14.410579         33.181584
 Vib (Bot)       0.852187D-01         -1.069465         -2.462535
 Vib (Bot)    1  0.174306D+01          0.241313          0.555644
 Vib (Bot)    2  0.174306D+01          0.241313          0.555644
 Vib (Bot)    3  0.115480D+01          0.062506          0.143925
 Vib (Bot)    4  0.115480D+01          0.062506          0.143925
 Vib (Bot)    5  0.115480D+01          0.062506          0.143925
 Vib (Bot)    6  0.551564D+00         -0.258404         -0.594997
 Vib (Bot)    7  0.320823D+00         -0.493735         -1.136866
 Vib (Bot)    8  0.320823D+00         -0.493735         -1.136866
 Vib (Bot)    9  0.320823D+00         -0.493735         -1.136866
 Vib (V=0)       0.474198D+02          1.675959          3.859039
 Vib (V=0)    1  0.231336D+01          0.364243          0.838700
 Vib (V=0)    2  0.231336D+01          0.364243          0.838700
 Vib (V=0)    3  0.175839D+01          0.245116          0.564401
 Vib (V=0)    4  0.175839D+01          0.245116          0.564401
 Vib (V=0)    5  0.175839D+01          0.245116          0.564401
 Vib (V=0)    6  0.124446D+01          0.094982          0.218703
 Vib (V=0)    7  0.109408D+01          0.039048          0.089911
 Vib (V=0)    8  0.109408D+01          0.039048          0.089911
 Vib (V=0)    9  0.109408D+01          0.039048          0.089911
 Electronic      0.100000D+01          0.000000          0.000000
 Translational   0.847170D+08          7.927970         18.254826
 Rotational      0.640692D+05          4.806649         11.067719
 ***** Axes restored to original set *****
 -------------------------------------------------------------------
 Center     Atomic                   Forces (Hartrees/Bohr)
 Number     Number              X              Y              Z
 -------------------------------------------------------------------
      1       13          -0.000000000    0.000000000   -0.000000000
      2       17           0.000000000   -0.000000000   -0.000170761
      3       17           0.000080498    0.000139426    0.000056920
      4       17          -0.000160995    0.000000000    0.000056920
      5       17           0.000080498   -0.000139426    0.000056920
 -------------------------------------------------------------------
 Cartesian Forces:  Max     0.000170761 RMS     0.000088181
 FormGI is forming the generalized inverse of G from B-inverse, IUseBI=4.

 GradGradGradGradGradGradGradGradGradGradGradGradGradGradGradGradGradGrad
 Berny optimization.
 Internal  Forces:  Max     0.000170761 RMS     0.000091276
 Search for a local minimum.
 Step number   1 out of a maximum of    2
 All quantities printed in internal units (Hartrees-Bohrs-Radians)
 Second derivative matrix not updated -- analytic derivatives used.
 The second derivative matrix:
                          R1        R2        R3        R4        A1
           R1           0.13222
           R2           0.00609   0.13222
           R3           0.00609   0.00609   0.13222
           R4           0.00609   0.00609   0.00609   0.13222
           A1           0.00205   0.00205  -0.00129  -0.00282   0.01765
           A2           0.00322  -0.00083   0.00358  -0.00597  -0.00558
           A3           0.00629  -0.00505  -0.00559   0.00435  -0.01085
           A4          -0.00083   0.00322   0.00358  -0.00597  -0.00558
           A5          -0.00505   0.00629  -0.00559   0.00435  -0.01085
           A6          -0.00568  -0.00568   0.00530   0.00606   0.01521
           D1           0.00398   0.00398   0.00281  -0.01076   0.01478
           D2          -0.00328  -0.00328   0.00842  -0.00187  -0.00833
           D3           0.00431  -0.00759   0.00421  -0.00094  -0.00416
           D4           0.00759  -0.00431  -0.00421   0.00094   0.00416
                          A2        A3        A4        A5        A6
           A2           0.03555
           A3          -0.02029   0.06936
           A4           0.00218   0.01413   0.03555
           A5           0.01413  -0.02983  -0.02029   0.06936
           A6          -0.02598  -0.02251  -0.02598  -0.02251   0.08178
           D1           0.01627  -0.01706   0.01627  -0.01706  -0.01319
           D2           0.01061  -0.01092   0.01061  -0.01092   0.00894
           D3           0.01520   0.00383  -0.00459  -0.01475   0.00447
           D4           0.00459   0.01475  -0.01520  -0.00383  -0.00447
                          D1        D2        D3        D4
           D1           0.03802
           D2           0.00280   0.02357
           D3           0.00140   0.01179   0.02370
           D4          -0.00140  -0.01179   0.01192   0.02370
 ITU=  0
     Eigenvalues ---    0.04436   0.05071   0.07861   0.10947   0.10987
     Eigenvalues ---    0.13322   0.13413   0.13625   0.15050
 Angle between quadratic step and forces=   0.00 degrees.
 Linear search not attempted -- first point.
 Iteration  1 RMS(Cart)=  0.00060647 RMS(Int)=  0.00000000
 Iteration  2 RMS(Cart)=  0.00000000 RMS(Int)=  0.00000000
 ClnCor:  largest displacement from symmetrization is 1.88D-11 for atom     5.
 Variable       Old X    -DE/DX   Delta X   Delta X   Delta X     New X
                                 (Linear)    (Quad)   (Total)
    R1        4.22510  -0.00017   0.00000  -0.00113  -0.00113   4.22396
    R2        4.22510  -0.00017   0.00000  -0.00113  -0.00113   4.22396
    R3        4.22510  -0.00017   0.00000  -0.00113  -0.00113   4.22396
    R4        4.22510  -0.00017   0.00000  -0.00113  -0.00113   4.22396
    A1        1.91063   0.00000   0.00000   0.00000   0.00000   1.91063
    A2        1.91063  -0.00000   0.00000   0.00000  -0.00000   1.91063
    A3        1.91063   0.00000   0.00000   0.00000  -0.00000   1.91063
    A4        1.91063   0.00000   0.00000  -0.00000  -0.00000   1.91063
    A5        1.91063  -0.00000   0.00000  -0.00000   0.00000   1.91063
    A6        1.91063  -0.00000   0.00000  -0.00000   0.00000   1.91063
    D1        2.09440   0.00000   0.00000   0.00000   0.00000   2.09440
    D2       -2.09440  -0.00000   0.00000  -0.00000   0.00000  -2.09440
    D3        2.09440  -0.00000   0.00000   0.00000   0.00000   2.09440
    D4       -2.09440   0.00000   0.00000   0.00000   0.00000  -2.09440
         Item               Value     Threshold  Converged?
 Maximum Force            0.000171     0.000450     YES
 RMS     Force            0.000091     0.000300     YES
 Maximum Displacement     0.001135     0.001800     YES
 RMS     Displacement     0.000606     0.001200     YES
 Predicted change in Energy=-3.874936D-07
 Optimization completed.
    -- Stationary point found.
                           ----------------------------
                           !   Optimized Parameters   !
                           ! (Angstroms and Degrees)  !
 --------------------------                            --------------------------
 ! Name  Definition              Value          Derivative Info.                !
 --------------------------------------------------------------------------------
 ! R1    R(1,2)                  2.2358         -DE/DX =   -0.0002              !
 ! R2    R(1,3)                  2.2358         -DE/DX =   -0.0002              !
 ! R3    R(1,4)                  2.2358         -DE/DX =   -0.0002              !
 ! R4    R(1,5)                  2.2358         -DE/DX =   -0.0002              !
 ! A1    A(2,1,3)              109.4712         -DE/DX =    0.0                 !
 ! A2    A(2,1,4)              109.4712         -DE/DX =    0.0                 !
 ! A3    A(2,1,5)              109.4712         -DE/DX =    0.0                 !
 ! A4    A(3,1,4)              109.4712         -DE/DX =    0.0                 !
 ! A5    A(3,1,5)              109.4712         -DE/DX =    0.0                 !
 ! A6    A(4,1,5)              109.4712         -DE/DX =    0.0                 !
 ! D1    D(2,1,4,3)            120.0            -DE/DX =    0.0                 !
 ! D2    D(2,1,5,3)           -120.0            -DE/DX =    0.0                 !
 ! D3    D(2,1,5,4)            120.0            -DE/DX =    0.0                 !
 ! D4    D(3,1,5,4)           -120.0            -DE/DX =    0.0                 !
 --------------------------------------------------------------------------------
 GradGradGradGradGradGradGradGradGradGradGradGradGradGradGradGradGradGrad

 Dipole is zero, so no output in dipole orientation.

 ----------------------------------------------------------------------

 Electric dipole moment (input orientation):
 (Debye = 10**-18 statcoulomb cm , SI units = C m)
                  (au)            (Debye)         (10**-30 SI)
   Tot        0.000000D+00      0.000000D+00      0.000000D+00
   x          0.000000D+00      0.000000D+00      0.000000D+00
   y          0.000000D+00      0.000000D+00      0.000000D+00
   z          0.000000D+00      0.000000D+00      0.000000D+00

 Dipole polarizability, Alpha (input orientation).
 (esu units = cm**3 , SI units = C**2 m**2 J**-1)
 Alpha(0;0):
               (au)            (10**-24 esu)      (10**-40 SI)
   iso        0.442899D+02      0.656309D+01      0.730242D+01
   aniso      0.000000D+00      0.000000D+00      0.000000D+00
   xx         0.442899D+02      0.656309D+01      0.730242D+01
   yx         0.000000D+00      0.000000D+00      0.000000D+00
   yy         0.442899D+02      0.656309D+01      0.730242D+01
   zx         0.000000D+00      0.000000D+00      0.000000D+00
   zy         0.000000D+00      0.000000D+00      0.000000D+00
   zz         0.442899D+02      0.656309D+01      0.730242D+01

 First dipole hyperpolarizability, Beta (input orientation).
 ||, _|_  parallel and perpendicular components, (z) with respect to z axis,
 vector components x,y,z.  Values do not include the 1/n! factor of 1/2.
 (esu units = statvolt**-1 cm**4 , SI units = C**3 m**3 J**-2)
 Beta(0;0,0):
               (au)            (10**-30 esu)      (10**-50 SI)
   || (z)     0.000000D+00      0.000000D+00      0.000000D+00
   _|_(z)     0.000000D+00      0.000000D+00      0.000000D+00
   x          0.000000D+00      0.000000D+00      0.000000D+00
   y          0.000000D+00      0.000000D+00      0.000000D+00
   z          0.000000D+00      0.000000D+00      0.000000D+00
   ||         0.000000D+00      0.000000D+00      0.000000D+00
   xxx       -0.617807D+02     -0.533737D+00     -0.198091D+00
   xxy        0.000000D+00      0.000000D+00      0.000000D+00
   yxy        0.617807D+02      0.533737D+00      0.198091D+00
   yyy        0.000000D+00      0.000000D+00      0.000000D+00
   xxz        0.436856D+02      0.377409D+00      0.140072D+00
   yxz        0.000000D+00      0.000000D+00      0.000000D+00
   yyz        0.436856D+02      0.377409D+00      0.140072D+00
   zxz        0.000000D+00      0.000000D+00      0.000000D+00
   zyz        0.000000D+00      0.000000D+00      0.000000D+00
   zzz       -0.873711D+02     -0.754818D+00     -0.280143D+00

 ----------------------------------------------------------------------
 1\1\GINC-IISERK51\Freq\RHF\3-21G\Al1Cl4(1-)\GAUSSIAN\13-Jun-2025\0\\#N
  Geom=AllCheck Guess=TCheck SCRF=Check GenChk RHF/3-21G Freq\\Title Ca
 rd Required\\-1,1\Al,0.3979508279,0.0729610821,-0.0000000021\Cl,0.3979
 508282,0.0729610826,2.2358244184\Cl,-0.6560269156,-1.7525819107,-0.745
 2748084\Cl,2.5059063068,0.0729610774,-0.7452748092\Cl,-0.6560269078,1.
 8985040791,-0.7452748092\\Version=EM64L-G16RevB.01\State=1-A1\HF=-2070
 .2014333\RMSD=3.872e-10\RMSF=8.818e-05\ZeroPoint=0.0059687\Thermal=0.0
 130413\Dipole=0.,0.,0.\DipoleDeriv=2.1102189,0.,0.,0.,2.1102189,0.,0.,
 0.,2.1102189,-0.6449008,0.,0.,0.,-0.6449008,0.,0.,0.,-1.0428627,-0.733
 3368,-0.1531756,-0.0625337,-0.1531756,-0.9102087,-0.1083115,-0.0625337
 ,-0.1083115,-0.6891188,-0.9986447,0.,0.1250674,0.,-0.6449008,0.,0.1250
 674,0.,-0.6891188,-0.7333368,0.1531756,-0.0625337,0.1531756,-0.9102087
 ,0.1083115,-0.0625337,0.1083115,-0.6891188\Polar=44.2898994,0.,44.2898
 994,0.,0.,44.2898994\PolarDeriv=0.8907575,0.,-0.8907575,-0.6298604,0.,
 0.,0.,-0.8907575,0.,0.,-0.6298604,0.,-0.6298601,0.,-0.6298601,0.,0.,1.
 2597213,-0.8885728,0.,0.8885728,4.9675085,0.,0.,0.,0.8885728,0.,0.,4.9
 675085,0.,0.9892766,0.,0.9892766,0.,0.,12.0203736,-5.5936841,-4.311832
 5,-0.6133535,-1.1319824,-0.543692,-0.3921198,-1.0636197,-2.4887101,-9.
 6872847,-0.543692,-1.7597837,-0.6791715,0.194095,-0.543692,-0.4337064,
 -2.2674764,-3.9273842,-4.4266975,11.1851853,0.,1.2288899,-2.0736844,0.
 ,0.7842396,0.,4.9796029,0.,0.,-0.8180817,0.,-0.7476071,0.,0.5079956,4.
 5349527,0.,-4.4266975,-5.593684,4.3118325,-0.6133535,-1.1319824,0.5436
 919,-0.3921198,1.0636197,-2.48871,9.6872847,0.5436919,-1.7597838,0.679
 1715,0.194095,0.5436919,-0.4337064,-2.2674763,3.9273842,-4.4266975\Hyp
 erPolar=-61.7807012,0.0000004,61.7807012,-0.0000004,43.6855528,0.,43.6
 855528,0.,0.,-87.3711055\Quadrupole=0.,0.,0.,0.,0.,0.\PG=TD [O(Al1),4C
 3(Cl1)]\NImag=0\\0.18357079,0.,0.18357079,0.,0.,0.18357079,-0.01200863
 ,0.,0.,0.01140905,0.,-0.01200863,0.,0.,0.01140905,0.,0.,-0.11366080,0.
 ,0.,0.13222172,-0.03459800,-0.03912594,-0.01597310,0.00124131,-0.00180
 384,-0.00213793,0.03825631,-0.03912594,-0.07977674,-0.02766622,-0.0018
 0384,-0.00084159,-0.00370300,0.04650082,0.09195083,-0.01597310,-0.0276
 6621,-0.02330332,-0.00394876,-0.00683945,-0.00618698,0.01898388,0.0328
 8104,0.02483268,-0.10236611,0.,0.03194619,-0.00188304,0.,0.00427585,-0
 .00727447,-0.00409250,0.00087286,0.11879809,0.,-0.01200863,0.,0.,0.002
 28276,0.,-0.00704958,-0.00084159,0.00057914,0.,0.01140905,0.03194619,0
 .,-0.02330332,0.00789752,0.,-0.00618698,-0.00093798,-0.00046635,0.0023
 2880,-0.03796776,0.,0.02483268,-0.03459800,0.03912594,-0.01597310,0.00
 124131,0.00180384,-0.00213793,0.00237485,-0.00147854,0.00006512,-0.007
 27447,0.00704958,-0.00093798,0.03825631,0.03912594,-0.07977674,0.02766
 622,0.00180384,-0.00084159,0.00370300,0.00147854,-0.01049091,0.0010454
 8,0.00409250,-0.00084159,0.00046635,-0.04650082,0.09195083,-0.01597310
 ,0.02766621,-0.02330332,-0.00394876,0.00683945,-0.00618698,0.00006512,
 -0.00104548,0.00232880,0.00087286,-0.00057914,0.00232880,0.01898388,-0
 .03288104,0.02483268\\0.,0.,0.,0.,0.,0.00017076,-0.00008050,-0.0001394
 3,-0.00005692,0.00016100,0.,-0.00005692,-0.00008050,0.00013943,-0.0000
 5692\\\@


 DIATOMIC MOLECULES ARE PECULIAR BECAUSE THEY ONLY HAVE TWO ENDS,
 AND THESE ENDS ARE VERY CLOSE TOGETHER.
 KLAUS RUEDENBERG, REV.MOD.PHYS. PG 176, 32, (1960)
 Job cpu time:       0 days  0 hours  0 minutes  1.1 seconds.
 Elapsed time:       0 days  0 hours  0 minutes  1.1 seconds.
 File lengths (MBytes):  RWF=      6 Int=      0 D2E=      0 Chk=      2 Scr=      1
 Normal termination of Gaussian 16 at Fri Jun 13 21:21:12 2025.
