 Entering Gaussian System, Link 0=g16
 Input=/home/gaussian/Documents/program files/Aromaticity/AM1 HF3-21G*/Toluene/toluene_isomer_opt.com
 Output=/home/gaussian/Documents/program files/Aromaticity/AM1 HF3-21G*/Toluene/toluene_isomer_opt.log
 Initial command:
 /usr/local/g16/l1.exe "/home/gaussian/tmp/Gau-142165.inp" -scrdir="/home/gaussian/tmp/"
 Entering Link 1 = /usr/local/g16/l1.exe PID=    142168.
  
 Copyright (c) 1988-2017, Gaussian, Inc.  All Rights Reserved.
  
 This is part of the Gaussian(R) 16 program.  It is based on
 the Gaussian(R) 09 system (copyright 2009, Gaussian, Inc.),
 the Gaussian(R) 03 system (copyright 2003, Gaussian, Inc.),
 the Gaussian(R) 98 system (copyright 1998, Gaussian, Inc.),
 the Gaussian(R) 94 system (copyright 1995, Gaussian, Inc.),
 the Gaussian 92(TM) system (copyright 1992, Gaussian, Inc.),
 the Gaussian 90(TM) system (copyright 1990, Gaussian, Inc.),
 the Gaussian 88(TM) system (copyright 1988, Gaussian, Inc.),
 the Gaussian 86(TM) system (copyright 1986, Carnegie Mellon
 University), and the Gaussian 82(TM) system (copyright 1983,
 Carnegie Mellon University). Gaussian is a federally registered
 trademark of Gaussian, Inc.
  
 This software contains proprietary and confidential information,
 including trade secrets, belonging to Gaussian, Inc.
  
 This software is provided under written license and may be
 used, copied, transmitted, or stored only in accord with that
 written license.
  
 The following legend is applicable only to US Government
 contracts under FAR:
  
                    RESTRICTED RIGHTS LEGEND
  
 Use, reproduction and disclosure by the US Government is
 subject to restrictions as set forth in subparagraphs (a)
 and (c) of the Commercial Computer Software - Restricted
 Rights clause in FAR 52.227-19.
  
 Gaussian, Inc.
 340 Quinnipiac St., Bldg. 40, Wallingford CT 06492
  
  
 ---------------------------------------------------------------
 Warning -- This program may not be used in any manner that
 competes with the business of Gaussian, Inc. or will provide
 assistance to any competitor of Gaussian, Inc.  The licensee
 of this program is prohibited from giving any competitor of
 Gaussian, Inc. access to this program.  By using this program,
 the user acknowledges that Gaussian, Inc. is engaged in the
 business of creating and licensing software in the field of
 computational chemistry and represents and warrants to the
 licensee that it is not a competitor of Gaussian, Inc. and that
 it will not use this program in any manner prohibited above.
 ---------------------------------------------------------------
  

 Cite this work as:
 Gaussian 16, Revision B.01,
 M. J. Frisch, G. W. Trucks, H. B. Schlegel, G. E. Scuseria, 
 M. A. Robb, J. R. Cheeseman, G. Scalmani, V. Barone, 
 G. A. Petersson, H. Nakatsuji, X. Li, M. Caricato, A. V. Marenich, 
 J. Bloino, B. G. Janesko, R. Gomperts, B. Mennucci, H. P. Hratchian, 
 J. V. Ortiz, A. F. Izmaylov, J. L. Sonnenberg, D. Williams-Young, 
 F. Ding, F. Lipparini, F. Egidi, J. Goings, B. Peng, A. Petrone, 
 T. Henderson, D. Ranasinghe, V. G. Zakrzewski, J. Gao, N. Rega, 
 G. Zheng, W. Liang, M. Hada, M. Ehara, K. Toyota, R. Fukuda, 
 J. Hasegawa, M. Ishida, T. Nakajima, Y. Honda, O. Kitao, H. Nakai, 
 T. Vreven, K. Throssell, J. A. Montgomery, Jr., J. E. Peralta, 
 F. Ogliaro, M. J. Bearpark, J. J. Heyd, E. N. Brothers, K. N. Kudin, 
 V. N. Staroverov, T. A. Keith, R. Kobayashi, J. Normand, 
 K. Raghavachari, A. P. Rendell, J. C. Burant, S. S. Iyengar, 
 J. Tomasi, M. Cossi, J. M. Millam, M. Klene, C. Adamo, R. Cammi, 
 J. W. Ochterski, R. L. Martin, K. Morokuma, O. Farkas, 
 J. B. Foresman, and D. J. Fox, Gaussian, Inc., Wallingford CT, 2016.
 
 ******************************************
 Gaussian 16:  EM64L-G16RevB.01 20-Dec-2017
                12-Jun-2025 
 ******************************************
 %chk=toluene_isomer_opt.chk
 -----------------------------------------
 # opt freq am1 pop=full geom=connectivity
 -----------------------------------------
 1/18=20,19=15,26=1,38=1,57=2/1,3;
 2/9=110,12=2,17=6,18=5,40=1/2;
 3/5=2,25=1,41=700000,71=1/1,2,3;
 4/35=1/1;
 5/5=2,35=1,38=5/2;
 6/7=3,28=1/1;
 7//1,2,3,16;
 1/18=20,19=15,26=1/3(2);
 2/9=110/2;
 99//99;
 2/9=110/2;
 3/5=2,25=1,41=700000,71=1,135=20/1,2,3;
 4/5=5,16=3,35=1/1;
 5/5=2,35=1,38=5/2;
 7//1,2,3,16;
 1/18=20,19=15,26=1/3(-5);
 2/9=110/2;
 6/7=3,19=2,28=1/1;
 99/9=1/99;
 ------------
 Optimisation
 ------------
 Symbolic Z-matrix:
 Charge =  0 Multiplicity = 1
 C                    -1.24478  -1.1353   -0.06607 
 C                    -1.83348   0.04621  -0.1027 
 C                    -1.05473   1.28611   0.03111 
 C                     0.27008   1.26713   0.08695 
 C                     1.03492   0.01093   0.0185 
 C                     0.2455   -1.29107   0.15637 
 H                    -1.81518  -2.03962  -0.16176 
 H                    -2.89444   0.12966  -0.23499 
 H                    -1.58861   2.21553   0.06207 
 H                     0.83272   2.17867   0.15271 
 C                     2.34981   0.01427  -0.13327 
 H                     2.90637   0.93071  -0.1911 
 H                     2.91687  -0.8947   -0.20556 
 H                     0.39542  -1.67913   1.16318 
 H                     0.64287  -2.03081  -0.52992 
 

 GradGradGradGradGradGradGradGradGradGradGradGradGradGradGradGradGradGrad
 Berny optimization.
 Initialization pass.
                           ----------------------------
                           !    Initial Parameters    !
                           ! (Angstroms and Degrees)  !
 --------------------------                            --------------------------
 ! Name  Definition              Value          Derivative Info.                !
 --------------------------------------------------------------------------------
 ! R1    R(1,2)                  1.3206         estimate D2E/DX2                !
 ! R2    R(1,6)                  1.5148         estimate D2E/DX2                !
 ! R3    R(1,7)                  1.0735         estimate D2E/DX2                !
 ! R4    R(2,3)                  1.4703         estimate D2E/DX2                !
 ! R5    R(2,8)                  1.0724         estimate D2E/DX2                !
 ! R6    R(3,4)                  1.3261         estimate D2E/DX2                !
 ! R7    R(3,9)                  1.0723         estimate D2E/DX2                !
 ! R8    R(4,5)                  1.4723         estimate D2E/DX2                !
 ! R9    R(4,10)                 1.0732         estimate D2E/DX2                !
 ! R10   R(5,6)                  1.5289         estimate D2E/DX2                !
 ! R11   R(5,11)                 1.3236         estimate D2E/DX2                !
 ! R12   R(6,14)                 1.0894         estimate D2E/DX2                !
 ! R13   R(6,15)                 1.0845         estimate D2E/DX2                !
 ! R14   R(11,12)                1.0738         estimate D2E/DX2                !
 ! R15   R(11,13)                1.0738         estimate D2E/DX2                !
 ! A1    A(2,1,6)              122.3204         estimate D2E/DX2                !
 ! A2    A(2,1,7)              120.9554         estimate D2E/DX2                !
 ! A3    A(6,1,7)              116.6941         estimate D2E/DX2                !
 ! A4    A(1,2,3)              121.0552         estimate D2E/DX2                !
 ! A5    A(1,2,8)              120.9358         estimate D2E/DX2                !
 ! A6    A(3,2,8)              118.0085         estimate D2E/DX2                !
 ! A7    A(2,3,4)              121.3928         estimate D2E/DX2                !
 ! A8    A(2,3,9)              118.0252         estimate D2E/DX2                !
 ! A9    A(4,3,9)              120.5697         estimate D2E/DX2                !
 ! A10   A(3,4,5)              121.9525         estimate D2E/DX2                !
 ! A11   A(3,4,10)             120.9416         estimate D2E/DX2                !
 ! A12   A(5,4,10)             117.0772         estimate D2E/DX2                !
 ! A13   A(4,5,6)              117.0129         estimate D2E/DX2                !
 ! A14   A(4,5,11)             121.2804         estimate D2E/DX2                !
 ! A15   A(6,5,11)             121.6973         estimate D2E/DX2                !
 ! A16   A(1,6,5)              114.0273         estimate D2E/DX2                !
 ! A17   A(1,6,14)             107.9226         estimate D2E/DX2                !
 ! A18   A(1,6,15)             109.7368         estimate D2E/DX2                !
 ! A19   A(5,6,14)             108.4004         estimate D2E/DX2                !
 ! A20   A(5,6,15)             109.5501         estimate D2E/DX2                !
 ! A21   A(14,6,15)            106.9444         estimate D2E/DX2                !
 ! A22   A(5,11,12)            121.5494         estimate D2E/DX2                !
 ! A23   A(5,11,13)            122.0185         estimate D2E/DX2                !
 ! A24   A(12,11,13)           116.4321         estimate D2E/DX2                !
 ! D1    D(6,1,2,3)              1.9259         estimate D2E/DX2                !
 ! D2    D(6,1,2,8)           -178.3194         estimate D2E/DX2                !
 ! D3    D(7,1,2,3)            179.8642         estimate D2E/DX2                !
 ! D4    D(7,1,2,8)             -0.3811         estimate D2E/DX2                !
 ! D5    D(2,1,6,5)            -13.0372         estimate D2E/DX2                !
 ! D6    D(2,1,6,14)           107.4543         estimate D2E/DX2                !
 ! D7    D(2,1,6,15)          -136.3483         estimate D2E/DX2                !
 ! D8    D(7,1,6,5)            168.9418         estimate D2E/DX2                !
 ! D9    D(7,1,6,14)           -70.5667         estimate D2E/DX2                !
 ! D10   D(7,1,6,15)            45.6306         estimate D2E/DX2                !
 ! D11   D(1,2,3,4)              5.38           estimate D2E/DX2                !
 ! D12   D(1,2,3,9)           -175.8829         estimate D2E/DX2                !
 ! D13   D(8,2,3,4)           -174.3817         estimate D2E/DX2                !
 ! D14   D(8,2,3,9)              4.3554         estimate D2E/DX2                !
 ! D15   D(2,3,4,5)              0.0076         estimate D2E/DX2                !
 ! D16   D(2,3,4,10)           178.0046         estimate D2E/DX2                !
 ! D17   D(9,3,4,5)           -178.6976         estimate D2E/DX2                !
 ! D18   D(9,3,4,10)            -0.7007         estimate D2E/DX2                !
 ! D19   D(3,4,5,6)            -11.6985         estimate D2E/DX2                !
 ! D20   D(3,4,5,11)           169.3992         estimate D2E/DX2                !
 ! D21   D(10,4,5,6)           170.2309         estimate D2E/DX2                !
 ! D22   D(10,4,5,11)           -8.6714         estimate D2E/DX2                !
 ! D23   D(4,5,6,1)             17.2984         estimate D2E/DX2                !
 ! D24   D(4,5,6,14)          -102.9255         estimate D2E/DX2                !
 ! D25   D(4,5,6,15)           140.7108         estimate D2E/DX2                !
 ! D26   D(11,5,6,1)          -163.8042         estimate D2E/DX2                !
 ! D27   D(11,5,6,14)           75.9719         estimate D2E/DX2                !
 ! D28   D(11,5,6,15)          -40.3918         estimate D2E/DX2                !
 ! D29   D(4,5,11,12)            1.296          estimate D2E/DX2                !
 ! D30   D(4,5,11,13)         -178.676          estimate D2E/DX2                !
 ! D31   D(6,5,11,12)         -177.5545         estimate D2E/DX2                !
 ! D32   D(6,5,11,13)            2.4734         estimate D2E/DX2                !
 --------------------------------------------------------------------------------
 Trust Radius=3.00D-01 FncErr=1.00D-07 GrdErr=1.00D-07 EigMax=2.50D+02 EigMin=1.00D-04
 Number of steps in this run=     81 maximum allowed number of steps=    100.
 GradGradGradGradGradGradGradGradGradGradGradGradGradGradGradGradGradGrad

                          Input orientation:                          
 ---------------------------------------------------------------------
 Center     Atomic      Atomic             Coordinates (Angstroms)
 Number     Number       Type             X           Y           Z
 ---------------------------------------------------------------------
      1          6           0       -1.244775   -1.135301   -0.066066
      2          6           0       -1.833480    0.046206   -0.102697
      3          6           0       -1.054725    1.286111    0.031114
      4          6           0        0.270084    1.267133    0.086949
      5          6           0        1.034917    0.010929    0.018496
      6          6           0        0.245497   -1.291067    0.156369
      7          1           0       -1.815178   -2.039618   -0.161760
      8          1           0       -2.894437    0.129658   -0.234985
      9          1           0       -1.588609    2.215530    0.062072
     10          1           0        0.832724    2.178667    0.152709
     11          6           0        2.349811    0.014270   -0.133273
     12          1           0        2.906368    0.930711   -0.191095
     13          1           0        2.916868   -0.894695   -0.205556
     14          1           0        0.395417   -1.679131    1.163177
     15          1           0        0.642874   -2.030812   -0.529918
 ---------------------------------------------------------------------
                    Distance matrix (angstroms):
                    1          2          3          4          5
     1  C    0.000000
     2  C    1.320558   0.000000
     3  C    2.430802   1.470282   0.000000
     4  C    2.844275   2.439592   1.326121   0.000000
     5  C    2.553035   2.871173   2.448030   1.472312   0.000000
     6  C    1.514811   2.485470   2.889310   2.559260   1.528851
     7  H    1.073455   2.086740   3.417011   3.917241   3.515719
     8  H    2.085675   1.072424   2.189231   3.378118   3.939311
     9  H    3.370862   2.189310   1.072292   2.086819   3.427106
    10  H    3.917429   3.423633   2.091388   1.073211   2.181280
    11  C    3.774530   4.183525   3.638058   2.437915   1.323628
    12  H    4.638537   4.822481   3.983208   2.672168   2.095771
    13  H    4.170926   4.843726   4.537122   3.429945   2.100498
    14  H    2.120618   3.089855   3.489576   3.139179   2.139055
    15  H    2.140168   3.260192   3.768100   3.375787   2.150154
                    6          7          8          9         10
     6  C    0.000000
     7  H    2.215382   0.000000
     8  H    3.468545   2.424030   0.000000
     9  H    3.958416   4.267050   2.478768   0.000000
    10  H    3.519077   4.990411   4.270887   2.423309   0.000000
    11  C    2.493178   4.643964   5.246503   4.516067   2.658562
    12  H    3.483858   5.578236   5.856018   4.681845   2.444503
    13  H    2.724761   4.868781   5.900969   5.481282   3.730625
    14  H    1.089372   2.602333   4.006209   4.507458   4.011844
    15  H    1.084491   2.485485   4.155380   4.833362   4.268693
                   11         12         13         14         15
    11  C    0.000000
    12  H    1.073761   0.000000
    13  H    1.073776   1.825493   0.000000
    14  H    2.892757   3.866549   2.974304   0.000000
    15  H    2.693199   3.742836   2.562620   1.746850   0.000000
 Stoichiometry    C7H8
 Framework group  C1[X(C7H8)]
 Deg. of freedom    39
 Full point group                 C1      NOp   1
 Largest Abelian subgroup         C1      NOp   1
 Largest concise Abelian subgroup C1      NOp   1
                         Standard orientation:                         
 ---------------------------------------------------------------------
 Center     Atomic      Atomic             Coordinates (Angstroms)
 Number     Number       Type             X           Y           Z
 ---------------------------------------------------------------------
      1          6           0       -1.244775   -1.135301   -0.066066
      2          6           0       -1.833480    0.046206   -0.102697
      3          6           0       -1.054725    1.286111    0.031114
      4          6           0        0.270084    1.267133    0.086949
      5          6           0        1.034917    0.010929    0.018496
      6          6           0        0.245497   -1.291067    0.156369
      7          1           0       -1.815178   -2.039618   -0.161760
      8          1           0       -2.894437    0.129658   -0.234985
      9          1           0       -1.588609    2.215530    0.062072
     10          1           0        0.832724    2.178667    0.152709
     11          6           0        2.349811    0.014270   -0.133273
     12          1           0        2.906368    0.930711   -0.191095
     13          1           0        2.916868   -0.894695   -0.205556
     14          1           0        0.395417   -1.679131    1.163177
     15          1           0        0.642874   -2.030812   -0.529918
 ---------------------------------------------------------------------
 Rotational constants (GHZ):           5.0616627           2.6843522           1.7866839
 Standard basis: VSTO-6G (5D, 7F)
 There are    36 symmetry adapted cartesian basis functions of A   symmetry.
 There are    36 symmetry adapted basis functions of A   symmetry.
    36 basis functions,   216 primitive gaussians,    36 cartesian basis functions
    18 alpha electrons       18 beta electrons
       nuclear repulsion energy       157.5225890025 Hartrees.
 Integral buffers will be    131072 words long.
 Regular integral format.
 Two-electron integral symmetry is turned off.
 Do NDO integrals.
 One-electron integrals computed using PRISM.
 NBasis=    36 RedAO= F EigKep=  0.00D+00  NBF=    36
 NBsUse=    36 1.00D-04 EigRej=  0.00D+00 NBFU=    36
 Simple Huckel Guess.
 Keep J ints in memory in canonical form, NReq=862527.
 Overlap will be assumed to be unity.
 Requested convergence on RMS density matrix=1.00D-08 within 128 cycles.
 Requested convergence on MAX density matrix=1.00D-06.
 Requested convergence on             energy=1.00D-06.
 No special actions if energy rises.
 SCF Done:  E(RAM1) =  0.705114739961E-01 A.U. after   12 cycles
            NFock= 11  Conv=0.70D-08     -V/T= 1.0012

 **********************************************************************

            Population analysis using the SCF Density.

 **********************************************************************

 Orbital symmetries:
       Occupied  (A) (A) (A) (A) (A) (A) (A) (A) (A) (A) (A) (A)
                 (A) (A) (A) (A) (A) (A)
       Virtual   (A) (A) (A) (A) (A) (A) (A) (A) (A) (A) (A) (A)
                 (A) (A) (A) (A) (A) (A)
 The electronic state is 1-A.
 Alpha  occ. eigenvalues --   -1.43404  -1.23914  -1.17481  -1.00713  -0.85747
 Alpha  occ. eigenvalues --   -0.78431  -0.63891  -0.61480  -0.58481  -0.54710
 Alpha  occ. eigenvalues --   -0.52475  -0.50426  -0.48577  -0.44618  -0.43482
 Alpha  occ. eigenvalues --   -0.42019  -0.39643  -0.32091
 Alpha virt. eigenvalues --    0.00366   0.05525   0.09048   0.13259   0.14149
 Alpha virt. eigenvalues --    0.14872   0.15547   0.16481   0.17043   0.17453
 Alpha virt. eigenvalues --    0.18121   0.18291   0.19067   0.20021   0.20740
 Alpha virt. eigenvalues --    0.21162   0.21621   0.22611
     Molecular Orbital Coefficients:
                           1         2         3         4         5
                           O         O         O         O         O
     Eigenvalues --    -1.43404  -1.23914  -1.17481  -1.00713  -0.85747
   1 1   C  1S          0.35107  -0.31395  -0.39208   0.07482  -0.31742
   2        1PX         0.04304   0.08123  -0.06302  -0.23613   0.12698
   3        1PY         0.09247  -0.10477   0.02811   0.14229   0.01522
   4        1PZ         0.00870   0.00362  -0.01183  -0.03095   0.01924
   5 2   C  1S          0.35348  -0.42435  -0.05273   0.39850   0.08438
   6        1PX         0.10400  -0.04897   0.00928  -0.05793  -0.00852
   7        1PY        -0.01869   0.03861   0.19717  -0.05223   0.32765
   8        1PZ         0.01107  -0.00634   0.00425  -0.00931   0.01334
   9 3   C  1S          0.36118  -0.23871   0.44512  -0.03993   0.37320
  10        1PX         0.06824   0.06925   0.13388  -0.17599  -0.22954
  11        1PY        -0.08476   0.07452   0.04708  -0.08796   0.00803
  12        1PZ        -0.00257   0.00762   0.00557  -0.01856  -0.01112
  13 4   C  1S          0.38066   0.08358   0.45787  -0.22499  -0.35062
  14        1PX        -0.05271   0.15482  -0.12501   0.07123  -0.22072
  15        1PY        -0.08749  -0.05968   0.04451  -0.00497   0.03433
  16        1PZ        -0.00879  -0.00166  -0.00679  -0.00785  -0.00212
  17 5   C  1S          0.40964   0.45447  -0.02283   0.01588  -0.09300
  18        1PX        -0.04560   0.16001  -0.02336   0.28116   0.08366
  19        1PY         0.00650   0.00187   0.18999   0.06404  -0.28835
  20        1PZ         0.00189  -0.01124  -0.00219  -0.03915  -0.00234
  21 6   C  1S          0.34936   0.09154  -0.41952  -0.43082   0.24813
  22        1PX        -0.02813   0.14389   0.06310   0.00968   0.15377
  23        1PY         0.08457   0.04757   0.02522   0.02257  -0.05782
  24        1PZ        -0.01386   0.00015   0.01056  -0.01288   0.01817
  25 7   H  1S          0.09679  -0.10374  -0.15093   0.03303  -0.17878
  26 8   H  1S          0.09594  -0.14435  -0.01733   0.18800   0.05680
  27 9   H  1S          0.09831  -0.08106   0.16421  -0.00887   0.22612
  28 10  H  1S          0.10891   0.04960   0.16803  -0.07084  -0.19698
  29 11  C  1S          0.21831   0.47207  -0.04080   0.45963   0.13100
  30        1PX        -0.09727  -0.13338   0.00774   0.00220   0.05283
  31        1PY         0.00059   0.00009   0.04626   0.02010  -0.11338
  32        1PZ         0.01081   0.01710  -0.00183  -0.00171  -0.00403
  33 12  H  1S          0.06708   0.15690   0.00552   0.19599   0.01740
  34 13  H  1S          0.06625   0.15625  -0.03364   0.17820   0.12565
  35 14  H  1S          0.11587   0.03790  -0.15922  -0.17958   0.13456
  36 15  H  1S          0.11206   0.04779  -0.16570  -0.17060   0.15160
                           6         7         8         9        10
                           O         O         O         O         O
     Eigenvalues --    -0.78431  -0.63891  -0.61480  -0.58481  -0.54710
   1 1   C  1S         -0.26829   0.11635  -0.19766   0.03629   0.03067
   2        1PX        -0.04871   0.17888   0.12365   0.26082  -0.09529
   3        1PY         0.22109   0.15686   0.26064  -0.19818   0.06360
   4        1PZ        -0.00793   0.01299   0.06256   0.06666   0.27051
   5 2   C  1S          0.25448  -0.15118   0.19003  -0.02610  -0.03663
   6        1PX        -0.05603   0.44223   0.01001   0.04721   0.02322
   7        1PY         0.08693  -0.01696   0.02418   0.32156  -0.10594
   8        1PZ        -0.00760   0.04503   0.01941   0.04001   0.20558
   9 3   C  1S         -0.14531   0.09823  -0.19361   0.06886   0.02891
  10        1PX        -0.13873   0.12920   0.11425  -0.34255  -0.02884
  11        1PY        -0.21317  -0.21923  -0.27627  -0.09286   0.10718
  12        1PZ        -0.02188  -0.00232   0.00267  -0.02275   0.17458
  13 4   C  1S         -0.07363  -0.13227   0.17372  -0.07886  -0.04351
  14        1PX         0.16208  -0.24442   0.07540   0.26724  -0.01398
  15        1PY        -0.26543  -0.28220   0.02134  -0.18160   0.03036
  16        1PZ        -0.00527  -0.02898   0.02717  -0.01067   0.18815
  17 5   C  1S          0.37867   0.03578  -0.25337   0.01469   0.02885
  18        1PX        -0.15830  -0.12094  -0.19735   0.01233   0.06032
  19        1PY        -0.01704  -0.03814   0.09567   0.36413  -0.03689
  20        1PZ         0.02826  -0.02903   0.06445   0.00257   0.30307
  21 6   C  1S         -0.02399  -0.11145   0.14989   0.02202  -0.02095
  22        1PX         0.19607  -0.17761  -0.00546  -0.30915  -0.02507
  23        1PY         0.21696   0.24908  -0.10015  -0.12540   0.13175
  24        1PZ         0.01018  -0.06003   0.11843   0.04733   0.58319
  25 7   H  1S         -0.21282  -0.09210  -0.30393   0.04071  -0.00546
  26 8   H  1S          0.14910  -0.37120   0.09108  -0.02782  -0.06481
  27 9   H  1S         -0.12827  -0.12075  -0.30379   0.10573   0.10087
  28 10  H  1S         -0.11556  -0.31082   0.13947  -0.04127  -0.00325
  29 11  C  1S         -0.31187   0.07767   0.09767  -0.00060   0.00668
  30        1PX        -0.24484   0.09488   0.39916  -0.02380  -0.02593
  31        1PY        -0.01035  -0.03957   0.07968   0.39738  -0.00173
  32        1PZ         0.03151  -0.02992  -0.02652   0.00685   0.17138
  33 12  H  1S         -0.22368   0.04257   0.24777   0.22705  -0.01538
  34 13  H  1S         -0.21433   0.09061   0.15947  -0.24778  -0.02097
  35 14  H  1S         -0.03593  -0.16988   0.17286   0.04383   0.36605
  36 15  H  1S         -0.06406  -0.18756   0.06824  -0.03707  -0.37411
                          11        12        13        14        15
                           O         O         O         O         O
     Eigenvalues --    -0.52475  -0.50426  -0.48577  -0.44618  -0.43482
   1 1   C  1S          0.03904   0.04534  -0.03274  -0.00578   0.00321
   2        1PX         0.20133   0.15178  -0.16219  -0.36420   0.11819
   3        1PY         0.41515  -0.01762   0.18986   0.02953  -0.05146
   4        1PZ         0.00281  -0.01613  -0.07572  -0.06206   0.14899
   5 2   C  1S          0.04073  -0.04643  -0.03623  -0.01866   0.01604
   6        1PX         0.29501  -0.18613  -0.08246   0.32691  -0.14380
   7        1PY        -0.14809   0.00055  -0.30749  -0.03644   0.04435
   8        1PZ         0.01433  -0.03585  -0.07345   0.10493   0.30882
   9 3   C  1S         -0.02706  -0.04767   0.02342   0.04944  -0.01287
  10        1PX        -0.16849  -0.23587   0.13545  -0.28173   0.07901
  11        1PY         0.13891   0.28513   0.29038  -0.04574  -0.07648
  12        1PZ        -0.01486   0.00830  -0.01228   0.14676   0.49942
  13 4   C  1S         -0.04271   0.00106  -0.08832   0.00676  -0.00016
  14        1PX         0.20262   0.22782  -0.18352   0.26289  -0.12389
  15        1PY         0.38047   0.00411  -0.08290  -0.11358   0.05132
  16        1PZ         0.00005   0.02386  -0.04683   0.17868   0.46904
  17 5   C  1S         -0.04315   0.07242   0.03765   0.01538  -0.00044
  18        1PX         0.22855  -0.39850  -0.12600  -0.17230   0.07393
  19        1PY        -0.08292  -0.10224  -0.06434   0.09412  -0.10382
  20        1PZ        -0.06829   0.03103  -0.01904   0.15482   0.19647
  21 6   C  1S          0.04160   0.02823   0.06605  -0.04598   0.01533
  22        1PX        -0.09841  -0.12584   0.20038   0.37175  -0.07193
  23        1PY         0.03398   0.41531   0.07510  -0.16151   0.06351
  24        1PZ        -0.10529  -0.09915  -0.03899  -0.09263  -0.31253
  25 7   H  1S         -0.33912  -0.02504  -0.08325   0.15700  -0.02732
  26 8   H  1S         -0.21518   0.12837   0.02897  -0.33033   0.11591
  27 9   H  1S          0.14305   0.27159   0.16792   0.13545  -0.09706
  28 10  H  1S          0.31065   0.10579  -0.18531   0.05853   0.01000
  29 11  C  1S         -0.01823  -0.00720  -0.00143  -0.04985   0.01509
  30        1PX        -0.20275   0.33814   0.09116   0.20037  -0.03951
  31        1PY         0.05020  -0.13415   0.50336  -0.04480   0.09624
  32        1PZ        -0.00052  -0.05000  -0.02881   0.07913   0.16746
  33 12  H  1S         -0.04980   0.05904   0.39771   0.02672   0.05975
  34 13  H  1S         -0.13340   0.23224  -0.31566   0.10841  -0.09969
  35 14  H  1S         -0.07825  -0.19239   0.00721  -0.00628  -0.29594
  36 15  H  1S          0.02350  -0.19671   0.06862   0.25873   0.13187
                          16        17        18        19        20
                           O         O         O         V         V
     Eigenvalues --    -0.42019  -0.39643  -0.32091   0.00366   0.05525
   1 1   C  1S         -0.00816   0.01759   0.00810   0.00964   0.02254
   2        1PX         0.07694   0.14828  -0.03564  -0.04584   0.09244
   3        1PY         0.21328   0.05833  -0.00630  -0.00982   0.01124
   4        1PZ         0.15911  -0.43073   0.41311   0.43366  -0.46615
   5 2   C  1S         -0.01407  -0.00352  -0.00080   0.00179  -0.00065
   6        1PX        -0.13350   0.00920  -0.04093   0.03756  -0.06041
   7        1PY        -0.25851  -0.03092  -0.01457   0.01183  -0.00971
   8        1PZ         0.14996  -0.47628   0.31480  -0.28258   0.49812
   9 3   C  1S         -0.01169   0.00082  -0.00027   0.00028   0.00658
  10        1PX         0.03061   0.04286   0.03171   0.02827   0.01841
  11        1PY         0.27325   0.06762   0.02958   0.03213   0.01563
  12        1PZ         0.13375  -0.08709  -0.41155  -0.45805  -0.13173
  13 4   C  1S          0.03017   0.00340   0.00004   0.00065   0.00390
  14        1PX         0.00875  -0.02457   0.00588  -0.01297   0.00534
  15        1PY        -0.32846  -0.08311   0.02016  -0.02703   0.01516
  16        1PZ         0.01744   0.15535  -0.43154   0.46443  -0.12963
  17 5   C  1S         -0.00211  -0.01336   0.00950   0.00893  -0.01392
  18        1PX         0.01604   0.09699   0.01518   0.02406   0.07163
  19        1PY         0.38244   0.10893  -0.01240  -0.01309   0.03237
  20        1PZ        -0.10750   0.48477   0.28893   0.28393   0.50172
  21 6   C  1S         -0.01822  -0.00527   0.00103  -0.00852   0.00194
  22        1PX        -0.16688  -0.09410   0.01149  -0.00561   0.02877
  23        1PY        -0.31031  -0.07075   0.00173  -0.00995   0.01608
  24        1PZ        -0.03811  -0.01677  -0.14021   0.00697   0.00417
  25 7   H  1S         -0.24399  -0.08055  -0.00951  -0.00619  -0.00619
  26 8   H  1S          0.07969   0.04773  -0.00046  -0.00585   0.00747
  27 9   H  1S          0.21511   0.03733  -0.00438   0.00379  -0.01393
  28 10  H  1S         -0.26004  -0.07952  -0.00960  -0.00830  -0.02614
  29 11  C  1S          0.01139   0.01334  -0.00861   0.00348   0.00009
  30        1PX        -0.03842   0.01847   0.06937  -0.05469  -0.05350
  31        1PY        -0.20480  -0.05017   0.00021   0.00369   0.00797
  32        1PZ        -0.08647   0.46909   0.45979  -0.42811  -0.47254
  33 12  H  1S         -0.19590  -0.05849   0.00801   0.00521  -0.01062
  34 13  H  1S          0.17555   0.03349   0.00214  -0.00552   0.00823
  35 14  H  1S          0.03798  -0.00701  -0.17903  -0.14124  -0.00402
  36 15  H  1S          0.16621   0.02103   0.12922   0.10887  -0.00420
                          21        22        23        24        25
                           V         V         V         V         V
     Eigenvalues --     0.09048   0.13259   0.14149   0.14872   0.15547
   1 1   C  1S          0.01281  -0.14619   0.12201   0.15953  -0.28002
   2        1PX         0.00067  -0.04287   0.40169   0.23612  -0.02844
   3        1PY        -0.01123   0.17020   0.06212  -0.00339   0.02638
   4        1PZ         0.24921   0.01857   0.06967   0.01462  -0.01597
   5 2   C  1S         -0.00762   0.07691  -0.02078   0.06101   0.41669
   6        1PX         0.05790   0.04251   0.25803   0.18176   0.02911
   7        1PY         0.01038   0.15890   0.12983   0.18623   0.18513
   8        1PZ        -0.38228  -0.00068   0.03367   0.03925   0.00856
   9 3   C  1S          0.01306  -0.00756  -0.20225   0.00101  -0.33525
  10        1PX        -0.00889   0.06433   0.14826   0.07848   0.08962
  11        1PY        -0.03408   0.19619   0.02708   0.30314   0.21463
  12        1PZ         0.51705   0.00849   0.00015   0.01289   0.03716
  13 4   C  1S         -0.01737  -0.03080   0.22053  -0.19313   0.20910
  14        1PX         0.02711   0.00107   0.18203  -0.11197  -0.03974
  15        1PY         0.04014   0.26758  -0.12364   0.30337   0.09379
  16        1PZ        -0.50570   0.03709   0.01475   0.03182  -0.02074
  17 5   C  1S          0.01038  -0.12433  -0.20388   0.42434   0.05765
  18        1PX         0.04397   0.06920   0.19827  -0.17044  -0.08243
  19        1PY         0.01150   0.45386  -0.08745   0.06199  -0.17540
  20        1PZ         0.36068  -0.03500  -0.05867  -0.01578   0.03637
  21 6   C  1S          0.00463   0.18565  -0.06390  -0.31219   0.05270
  22        1PX         0.01880   0.05767   0.47999   0.11634  -0.27557
  23        1PY         0.01950   0.43988   0.02025  -0.25018  -0.18459
  24        1PZ         0.10362  -0.04438   0.03325   0.09201  -0.00030
  25 7   H  1S          0.00322   0.28340   0.17178  -0.02212   0.24180
  26 8   H  1S          0.02674  -0.04647   0.28448   0.12236  -0.34548
  27 9   H  1S         -0.00207  -0.14516   0.24366  -0.23117   0.14972
  28 10  H  1S         -0.00303  -0.22616  -0.19817  -0.03635  -0.23786
  29 11  C  1S         -0.01494   0.05193   0.02161  -0.24110   0.01836
  30        1PX        -0.01896  -0.01549   0.05589   0.06790  -0.03442
  31        1PY         0.00691   0.23876  -0.06637   0.04208  -0.16509
  32        1PZ        -0.26485   0.01861   0.01175   0.01154  -0.00984
  33 12  H  1S         -0.00111  -0.26807   0.01528   0.14238   0.14991
  34 13  H  1S          0.01349   0.19062  -0.11730   0.20599  -0.13141
  35 14  H  1S         -0.17368   0.04434  -0.03867   0.05547  -0.06347
  36 15  H  1S          0.12329   0.10939  -0.09222   0.09266  -0.06435
                          26        27        28        29        30
                           V         V         V         V         V
     Eigenvalues --     0.16481   0.17043   0.17453   0.18121   0.18291
   1 1   C  1S         -0.26586   0.19263   0.03778   0.20458  -0.01270
   2        1PX         0.08134  -0.01476  -0.05233   0.03086  -0.08596
   3        1PY         0.15630   0.04783   0.18238  -0.25613   0.01692
   4        1PZ        -0.06515  -0.12014   0.06447   0.00373  -0.01953
   5 2   C  1S         -0.05028  -0.06693  -0.13488   0.16972  -0.07832
   6        1PX         0.19457  -0.14206   0.02189  -0.10614  -0.04291
   7        1PY        -0.07922   0.12343   0.14136   0.13288  -0.03353
   8        1PZ         0.07365   0.04859  -0.03160  -0.01268   0.00008
   9 3   C  1S         -0.10648   0.02407  -0.01005  -0.34392   0.01025
  10        1PX         0.18296  -0.18179  -0.05643   0.07069   0.02305
  11        1PY        -0.14151   0.10209   0.06169  -0.18174  -0.16627
  12        1PZ        -0.03154  -0.03540   0.02919  -0.00039  -0.01490
  13 4   C  1S         -0.25941   0.18011   0.04047   0.04053   0.11016
  14        1PX        -0.13256   0.00820  -0.00865  -0.23508   0.13028
  15        1PY        -0.13501   0.01124  -0.03502   0.03338   0.03704
  16        1PZ         0.01300   0.03968  -0.04049  -0.01138   0.01388
  17 5   C  1S          0.04177  -0.09018  -0.02653   0.00479  -0.08390
  18        1PX        -0.12262  -0.03350  -0.02833  -0.04722   0.18666
  19        1PY         0.01601  -0.05813  -0.05635   0.01514  -0.02097
  20        1PZ        -0.03690  -0.12749   0.08858   0.00650  -0.03030
  21 6   C  1S         -0.07095  -0.08937  -0.34589  -0.22334   0.00026
  22        1PX        -0.21342  -0.01348  -0.17821   0.08872  -0.09389
  23        1PY         0.04722   0.16758   0.23890   0.16538   0.19263
  24        1PZ         0.27168   0.53769  -0.31468  -0.00040   0.01412
  25 7   H  1S          0.36176  -0.12841   0.08561  -0.31388  -0.01573
  26 8   H  1S          0.23444  -0.07934   0.10802  -0.22500   0.02333
  27 9   H  1S          0.28471  -0.18035  -0.06533   0.41344   0.12395
  28 10  H  1S          0.37844  -0.15225   0.00480   0.05410  -0.17939
  29 11  C  1S          0.02684   0.11420   0.10394   0.03636  -0.44578
  30        1PX        -0.07005   0.00070   0.03021  -0.01534  -0.32186
  31        1PY         0.02664  -0.15050  -0.25369   0.25475  -0.07539
  32        1PZ         0.03404   0.06364  -0.04481   0.00324   0.04191
  33 12  H  1S         -0.01381   0.03389   0.09659  -0.20204   0.53041
  34 13  H  1S          0.03599  -0.20844  -0.28966   0.15741   0.41911
  35 14  H  1S         -0.12481  -0.30824   0.56728   0.18011   0.05137
  36 15  H  1S          0.30522   0.46054   0.26420   0.21003   0.12819
                          31        32        33        34        35
                           V         V         V         V         V
     Eigenvalues --     0.19067   0.20021   0.20740   0.21162   0.21621
   1 1   C  1S          0.07959  -0.06653   0.07004   0.13998   0.19307
   2        1PX         0.26203   0.19407  -0.15183  -0.29213  -0.23711
   3        1PY         0.24992  -0.13967  -0.25389   0.09961   0.36613
   4        1PZ         0.06194   0.01126  -0.01565  -0.04279  -0.02080
   5 2   C  1S          0.05965   0.23284   0.11473   0.00908  -0.26576
   6        1PX        -0.31843  -0.21319   0.20602   0.07195  -0.15646
   7        1PY         0.08979  -0.13752   0.13503   0.43935   0.33199
   8        1PZ        -0.05113  -0.02156   0.02691   0.02857  -0.00683
   9 3   C  1S         -0.04593   0.19181  -0.07870   0.01165  -0.17283
  10        1PX        -0.22119   0.32058   0.18352   0.31976  -0.01225
  11        1PY         0.15266  -0.03009   0.15639   0.32155  -0.21354
  12        1PZ         0.00818   0.00447   0.01931   0.03958  -0.01224
  13 4   C  1S         -0.00621  -0.23829  -0.21909  -0.07463  -0.02579
  14        1PX        -0.30180   0.22510  -0.08573   0.23818  -0.23407
  15        1PY        -0.32167  -0.06464  -0.01236  -0.37743   0.14695
  16        1PZ        -0.03523   0.02326  -0.00093  -0.01604   0.00676
  17 5   C  1S         -0.14514   0.15420  -0.16555  -0.07889   0.23065
  18        1PX         0.00479   0.34710  -0.19354   0.17561   0.20534
  19        1PY         0.05316   0.12516   0.37658  -0.26210   0.21328
  20        1PZ         0.01618  -0.06574   0.01822  -0.01647  -0.01951
  21 6   C  1S         -0.02701  -0.04626   0.18499   0.04789   0.18224
  22        1PX         0.25821   0.06922   0.14321  -0.14660  -0.00053
  23        1PY        -0.01581   0.17684   0.12855  -0.00926  -0.09388
  24        1PZ        -0.03762   0.04676  -0.02970   0.00673  -0.00374
  25 7   H  1S          0.22538   0.02991  -0.25357  -0.13412   0.01318
  26 8   H  1S         -0.30581  -0.30590   0.06873   0.01791   0.03135
  27 9   H  1S         -0.16295   0.01730   0.02011  -0.08747   0.22658
  28 10  H  1S          0.34869   0.10672   0.17762   0.18185   0.01781
  29 11  C  1S         -0.05953  -0.16569   0.09898  -0.06965  -0.12599
  30        1PX        -0.20647   0.37403  -0.25965   0.03820   0.28795
  31        1PY        -0.01283  -0.19322  -0.36938   0.20562  -0.15479
  32        1PZ         0.01536  -0.03358   0.02876  -0.00417  -0.03620
  33 12  H  1S          0.13547   0.07775   0.26533  -0.10061   0.06136
  34 13  H  1S          0.12282  -0.17110  -0.18429   0.15397  -0.12139
  35 14  H  1S          0.01145   0.03262  -0.06768  -0.01986  -0.12157
  36 15  H  1S         -0.08357   0.11653  -0.09497   0.00679  -0.14269
                          36
                           V
     Eigenvalues --     0.22611
   1 1   C  1S         -0.14654
   2        1PX        -0.06337
   3        1PY        -0.25131
   4        1PZ        -0.01743
   5 2   C  1S          0.09508
   6        1PX         0.32378
   7        1PY        -0.13509
   8        1PZ         0.03239
   9 3   C  1S         -0.18537
  10        1PX        -0.35427
  11        1PY         0.20523
  12        1PZ        -0.00966
  13 4   C  1S          0.18969
  14        1PX        -0.36050
  15        1PY        -0.18593
  16        1PZ        -0.01665
  17 5   C  1S          0.08461
  18        1PX         0.39844
  19        1PY         0.02845
  20        1PZ        -0.03756
  21 6   C  1S          0.07991
  22        1PX        -0.08149
  23        1PY         0.15193
  24        1PZ        -0.00134
  25 7   H  1S         -0.07528
  26 8   H  1S          0.16600
  27 9   H  1S         -0.12701
  28 10  H  1S          0.11990
  29 11  C  1S         -0.18723
  30        1PX         0.26255
  31        1PY        -0.00269
  32        1PZ        -0.03267
  33 12  H  1S          0.01864
  34 13  H  1S          0.01356
  35 14  H  1S         -0.00205
  36 15  H  1S          0.03783
     Density Matrix:
                           1         2         3         4         5
   1 1   C  1S          1.22776
   2        1PX        -0.00688   0.95347
   3        1PY        -0.05917   0.02472   0.97338
   4        1PZ        -0.00543  -0.00504   0.00070   0.99374
   5 2   C  1S          0.31282  -0.20885   0.44968  -0.01237   1.21083
   6        1PX         0.23580   0.01339   0.31563  -0.11052  -0.06187
   7        1PY        -0.43888   0.29646  -0.46070  -0.00631   0.01689
   8        1PZ         0.01030  -0.11481  -0.00333   0.93088  -0.00523
   9 3   C  1S         -0.01272   0.00812  -0.02868  -0.00046   0.25777
  10        1PX         0.01341  -0.00447   0.03215   0.00284  -0.23971
  11        1PY         0.02706  -0.02888   0.03476  -0.00393  -0.39225
  12        1PZ         0.00251  -0.00116   0.00689   0.00230  -0.03960
  13 4   C  1S         -0.02158  -0.01173  -0.00921   0.00117  -0.01106
  14        1PX         0.00322  -0.01270   0.01052  -0.00031   0.03095
  15        1PY         0.01552   0.01746   0.00176   0.01805   0.00383
  16        1PZ         0.00085   0.04113   0.00164  -0.25742   0.00114
  17 5   C  1S         -0.01001  -0.02760  -0.00034  -0.00444  -0.02742
  18        1PX         0.01002   0.01682  -0.01259   0.00642   0.02097
  19        1PY         0.01777   0.03748   0.00485   0.00798  -0.00269
  20        1PZ        -0.00120  -0.00871  -0.00316   0.00124  -0.00256
  21 6   C  1S          0.22505   0.41588  -0.02610   0.05992  -0.01037
  22        1PX        -0.46148  -0.67802   0.06898  -0.11577   0.03271
  23        1PY         0.07021   0.11837   0.08546   0.02067  -0.00502
  24        1PZ        -0.07644  -0.13853   0.00923   0.14929   0.00322
  25 7   H  1S          0.56113  -0.41432  -0.67673  -0.07121  -0.04772
  26 8   H  1S         -0.04684   0.02306  -0.06207   0.00188   0.56245
  27 9   H  1S          0.04131  -0.02524   0.05385  -0.01039  -0.04528
  28 10  H  1S          0.00602   0.00745  -0.00073  -0.00104   0.05299
  29 11  C  1S          0.02049   0.03471  -0.00099   0.00354   0.00210
  30        1PX        -0.02278  -0.03883   0.00348   0.00483  -0.00660
  31        1PY        -0.00583  -0.00468   0.00357  -0.00471  -0.00034
  32        1PZ         0.02105   0.02324  -0.00262   0.08366   0.00087
  33 12  H  1S         -0.01317  -0.02244   0.00034  -0.00495  -0.00198
  34 13  H  1S          0.00323   0.00400   0.00109   0.00341  -0.00237
  35 14  H  1S         -0.02246  -0.04735  -0.00008   0.03150   0.01678
  36 15  H  1S         -0.02756  -0.04187  -0.00110  -0.03525   0.02989
                           6         7         8         9        10
   6        1PX         0.98782
   7        1PY        -0.00616   0.92325
   8        1PZ        -0.00263  -0.00586   1.01695
   9 3   C  1S          0.24926   0.38734   0.04363   1.21312
  10        1PX        -0.11822  -0.33913  -0.05199  -0.04185   0.93992
  11        1PY        -0.34745  -0.45266  -0.07095   0.04744  -0.02913
  12        1PZ        -0.05356  -0.06388   0.27414   0.00252  -0.00595
  13 4   C  1S         -0.01776  -0.02424  -0.00333   0.31176   0.49703
  14        1PX         0.02807   0.04727   0.00750  -0.49438  -0.61051
  15        1PY        -0.01457   0.00596   0.00160  -0.00877  -0.00049
  16        1PZ        -0.00329   0.00296  -0.00719  -0.01662  -0.06636
  17 5   C  1S         -0.02202  -0.00594   0.01008  -0.01454  -0.03443
  18        1PX         0.01751   0.00623  -0.01148   0.01427   0.02382
  19        1PY        -0.00300  -0.03203  -0.01948  -0.02452  -0.04748
  20        1PZ         0.00278   0.00250  -0.03454  -0.00158  -0.00657
  21 6   C  1S         -0.01683   0.02315  -0.00357  -0.02272   0.00138
  22        1PX         0.02933  -0.05280   0.00495   0.01644  -0.02088
  23        1PY         0.01064   0.01244  -0.00019  -0.01751  -0.00786
  24        1PZ         0.01006  -0.00675  -0.04327   0.00669   0.00166
  25 7   H  1S         -0.03548   0.05617  -0.00111   0.05439  -0.04457
  26 8   H  1S         -0.78701   0.07104  -0.09842  -0.04560   0.03572
  27 9   H  1S         -0.03953  -0.05956  -0.00534   0.56213  -0.40422
  28 10  H  1S          0.04787   0.07401   0.01253  -0.04824  -0.06537
  29 11  C  1S          0.00190   0.00089  -0.00398   0.02150   0.03220
  30        1PX        -0.00554  -0.00256   0.00492  -0.02526  -0.03525
  31        1PY        -0.00090  -0.00264   0.00143   0.00580   0.00251
  32        1PZ        -0.00040   0.00024   0.01129   0.01073   0.03060
  33 12  H  1S         -0.00201   0.00189   0.00548   0.00489   0.00496
  34 13  H  1S         -0.00195  -0.00322  -0.00243  -0.01461  -0.02165
  35 14  H  1S          0.02398  -0.02001  -0.11463   0.00508   0.00052
  36 15  H  1S          0.00696  -0.04226   0.08924   0.00498  -0.00143
                          11        12        13        14        15
  11        1PY         0.97133
  12        1PZ        -0.00369   0.99658
  13 4   C  1S         -0.02249   0.02645   1.21377
  14        1PX         0.02428  -0.06163   0.03960   0.94257
  15        1PY         0.14978  -0.04991   0.04972   0.03360   0.96245
  16        1PZ        -0.05247   0.92226   0.00769   0.00092  -0.00245
  17 5   C  1S          0.00561  -0.00306   0.26409   0.23127  -0.40814
  18        1PX         0.01176   0.00492  -0.23384  -0.10967   0.34501
  19        1PY         0.00834  -0.00205   0.38760   0.33183  -0.45986
  20        1PZ         0.00155  -0.00007   0.02407   0.02216  -0.03923
  21 6   C  1S          0.01965  -0.00593  -0.01651  -0.01539   0.03053
  22        1PX        -0.02672  -0.00774  -0.01752  -0.00538   0.03527
  23        1PY         0.01129  -0.01051  -0.03521  -0.03614   0.04680
  24        1PZ        -0.00486  -0.02658   0.00161   0.00222  -0.00687
  25 7   H  1S         -0.07628  -0.00956   0.00329   0.00175  -0.00335
  26 8   H  1S          0.06129   0.00321   0.04070  -0.06101   0.00048
  27 9   H  1S          0.68632   0.02394  -0.04929   0.06495   0.00853
  28 10  H  1S          0.00820  -0.00650   0.56055   0.42193   0.67406
  29 11  C  1S         -0.00299   0.01052  -0.03022  -0.02449   0.02189
  30        1PX         0.00165  -0.04012   0.03082   0.01929  -0.05346
  31        1PY         0.00293   0.00535  -0.01639   0.00770  -0.00061
  32        1PZ         0.01573  -0.23442  -0.00487  -0.00561   0.00314
  33 12  H  1S         -0.00261   0.00106  -0.02251  -0.01427   0.02661
  34 13  H  1S          0.00259  -0.00680   0.06133   0.04894  -0.07114
  35 14  H  1S         -0.00283  -0.00877   0.01396   0.01191  -0.02160
  36 15  H  1S         -0.00481   0.01281   0.03228   0.02650  -0.04226
                          16        17        18        19        20
  16        1PZ         1.00532
  17 5   C  1S         -0.02496   1.20545
  18        1PX         0.03439  -0.01685   0.93732
  19        1PY        -0.02128  -0.01580   0.00532   0.93525
  20        1PZ         0.25993   0.00139   0.00709   0.00059   0.99586
  21 6   C  1S          0.00142   0.23037  -0.21390  -0.34534   0.03027
  22        1PX        -0.00094   0.22488  -0.10795  -0.32801   0.03493
  23        1PY         0.00834   0.42073  -0.36023  -0.49613   0.05409
  24        1PZ         0.01557  -0.04989   0.05038   0.07093   0.14302
  25 7   H  1S          0.00079   0.04055  -0.03232  -0.05961   0.00734
  26 8   H  1S          0.00902   0.00670  -0.00598   0.00145  -0.00062
  27 9   H  1S          0.00051   0.05602  -0.04564   0.07441   0.00553
  28 10  H  1S          0.05131  -0.04142   0.04223  -0.06186  -0.00116
  29 11  C  1S          0.00209   0.31860   0.47550  -0.00112  -0.05361
  30        1PX        -0.00204  -0.51362  -0.58637   0.00464   0.17642
  31        1PY        -0.00505  -0.00441  -0.00247   0.15203  -0.00317
  32        1PZ        -0.00429   0.05992   0.17804   0.00890   0.93130
  33 12  H  1S         -0.00297  -0.03972  -0.06436   0.01175   0.00705
  34 13  H  1S         -0.00095  -0.04180  -0.06532  -0.01110   0.00656
  35 14  H  1S          0.02261  -0.02251   0.02858   0.03635   0.02776
  36 15  H  1S         -0.02142  -0.02631   0.02881   0.03688  -0.02493
                          21        22        23        24        25
  21 6   C  1S          1.19918
  22        1PX         0.01957   0.92263
  23        1PY        -0.04345  -0.03001   0.95365
  24        1PZ         0.00835  -0.00820   0.00850   1.02193
  25 7   H  1S         -0.04644   0.07571  -0.01568   0.01380   0.87573
  26 8   H  1S          0.04943  -0.09445   0.01654  -0.01610  -0.02808
  27 9   H  1S          0.00410  -0.00675   0.00140  -0.00117  -0.02781
  28 10  H  1S          0.03500   0.03823   0.06389  -0.00834   0.01674
  29 11  C  1S         -0.02885  -0.02423  -0.02731   0.00763  -0.01196
  30        1PX         0.03171   0.02322   0.05795  -0.01067   0.01514
  31        1PY         0.01696  -0.00889   0.00467  -0.00251   0.00118
  32        1PZ        -0.00765   0.00027  -0.01003  -0.04708  -0.01144
  33 12  H  1S          0.05576   0.04823   0.08114  -0.01342   0.01548
  34 13  H  1S         -0.01967  -0.01324  -0.03024   0.00588  -0.00515
  35 14  H  1S          0.49441   0.11026  -0.28068   0.78242   0.00544
  36 15  H  1S          0.50183   0.30161  -0.55826  -0.55043  -0.01271
                          26        27        28        29        30
  26 8   H  1S          0.87402
  27 9   H  1S         -0.02022   0.87392
  28 10  H  1S         -0.02648  -0.02839   0.87421
  29 11  C  1S          0.00646  -0.01286  -0.01075   1.23391
  30        1PX        -0.00626   0.01846   0.00830   0.07146   0.94344
  31        1PY        -0.00033  -0.00099   0.00134   0.00074   0.00009
  32        1PZ         0.00312  -0.00602  -0.01857  -0.00821   0.00878
  33 12  H  1S         -0.00174  -0.00627   0.02261   0.54856   0.40591
  34 13  H  1S         -0.00039   0.01859  -0.00057   0.54832   0.41428
  35 14  H  1S         -0.01262   0.00538  -0.00980   0.00522  -0.02361
  36 15  H  1S         -0.01897   0.00776  -0.01797  -0.00827   0.01872
                          31        32        33        34        35
  31        1PY         1.02191
  32        1PZ         0.00108   1.01801
  33 12  H  1S          0.70056  -0.04412   0.88633
  34 13  H  1S         -0.69616  -0.05080  -0.08663   0.88780
  35 14  H  1S          0.00267  -0.13027  -0.00593   0.00711   0.90174
  36 15  H  1S         -0.00126   0.08948   0.00087   0.01667  -0.04303
                          36
  36 15  H  1S          0.90542
    Full Mulliken population analysis:
                           1         2         3         4         5
   1 1   C  1S          1.22776
   2        1PX         0.00000   0.95347
   3        1PY         0.00000   0.00000   0.97338
   4        1PZ         0.00000   0.00000   0.00000   0.99374
   5 2   C  1S          0.00000   0.00000   0.00000   0.00000   1.21083
   6        1PX         0.00000   0.00000   0.00000   0.00000   0.00000
   7        1PY         0.00000   0.00000   0.00000   0.00000   0.00000
   8        1PZ         0.00000   0.00000   0.00000   0.00000   0.00000
   9 3   C  1S          0.00000   0.00000   0.00000   0.00000   0.00000
  10        1PX         0.00000   0.00000   0.00000   0.00000   0.00000
  11        1PY         0.00000   0.00000   0.00000   0.00000   0.00000
  12        1PZ         0.00000   0.00000   0.00000   0.00000   0.00000
  13 4   C  1S          0.00000   0.00000   0.00000   0.00000   0.00000
  14        1PX         0.00000   0.00000   0.00000   0.00000   0.00000
  15        1PY         0.00000   0.00000   0.00000   0.00000   0.00000
  16        1PZ         0.00000   0.00000   0.00000   0.00000   0.00000
  17 5   C  1S          0.00000   0.00000   0.00000   0.00000   0.00000
  18        1PX         0.00000   0.00000   0.00000   0.00000   0.00000
  19        1PY         0.00000   0.00000   0.00000   0.00000   0.00000
  20        1PZ         0.00000   0.00000   0.00000   0.00000   0.00000
  21 6   C  1S          0.00000   0.00000   0.00000   0.00000   0.00000
  22        1PX         0.00000   0.00000   0.00000   0.00000   0.00000
  23        1PY         0.00000   0.00000   0.00000   0.00000   0.00000
  24        1PZ         0.00000   0.00000   0.00000   0.00000   0.00000
  25 7   H  1S          0.00000   0.00000   0.00000   0.00000   0.00000
  26 8   H  1S          0.00000   0.00000   0.00000   0.00000   0.00000
  27 9   H  1S          0.00000   0.00000   0.00000   0.00000   0.00000
  28 10  H  1S          0.00000   0.00000   0.00000   0.00000   0.00000
  29 11  C  1S          0.00000   0.00000   0.00000   0.00000   0.00000
  30        1PX         0.00000   0.00000   0.00000   0.00000   0.00000
  31        1PY         0.00000   0.00000   0.00000   0.00000   0.00000
  32        1PZ         0.00000   0.00000   0.00000   0.00000   0.00000
  33 12  H  1S          0.00000   0.00000   0.00000   0.00000   0.00000
  34 13  H  1S          0.00000   0.00000   0.00000   0.00000   0.00000
  35 14  H  1S          0.00000   0.00000   0.00000   0.00000   0.00000
  36 15  H  1S          0.00000   0.00000   0.00000   0.00000   0.00000
                           6         7         8         9        10
   6        1PX         0.98782
   7        1PY         0.00000   0.92325
   8        1PZ         0.00000   0.00000   1.01695
   9 3   C  1S          0.00000   0.00000   0.00000   1.21312
  10        1PX         0.00000   0.00000   0.00000   0.00000   0.93992
  11        1PY         0.00000   0.00000   0.00000   0.00000   0.00000
  12        1PZ         0.00000   0.00000   0.00000   0.00000   0.00000
  13 4   C  1S          0.00000   0.00000   0.00000   0.00000   0.00000
  14        1PX         0.00000   0.00000   0.00000   0.00000   0.00000
  15        1PY         0.00000   0.00000   0.00000   0.00000   0.00000
  16        1PZ         0.00000   0.00000   0.00000   0.00000   0.00000
  17 5   C  1S          0.00000   0.00000   0.00000   0.00000   0.00000
  18        1PX         0.00000   0.00000   0.00000   0.00000   0.00000
  19        1PY         0.00000   0.00000   0.00000   0.00000   0.00000
  20        1PZ         0.00000   0.00000   0.00000   0.00000   0.00000
  21 6   C  1S          0.00000   0.00000   0.00000   0.00000   0.00000
  22        1PX         0.00000   0.00000   0.00000   0.00000   0.00000
  23        1PY         0.00000   0.00000   0.00000   0.00000   0.00000
  24        1PZ         0.00000   0.00000   0.00000   0.00000   0.00000
  25 7   H  1S          0.00000   0.00000   0.00000   0.00000   0.00000
  26 8   H  1S          0.00000   0.00000   0.00000   0.00000   0.00000
  27 9   H  1S          0.00000   0.00000   0.00000   0.00000   0.00000
  28 10  H  1S          0.00000   0.00000   0.00000   0.00000   0.00000
  29 11  C  1S          0.00000   0.00000   0.00000   0.00000   0.00000
  30        1PX         0.00000   0.00000   0.00000   0.00000   0.00000
  31        1PY         0.00000   0.00000   0.00000   0.00000   0.00000
  32        1PZ         0.00000   0.00000   0.00000   0.00000   0.00000
  33 12  H  1S          0.00000   0.00000   0.00000   0.00000   0.00000
  34 13  H  1S          0.00000   0.00000   0.00000   0.00000   0.00000
  35 14  H  1S          0.00000   0.00000   0.00000   0.00000   0.00000
  36 15  H  1S          0.00000   0.00000   0.00000   0.00000   0.00000
                          11        12        13        14        15
  11        1PY         0.97133
  12        1PZ         0.00000   0.99658
  13 4   C  1S          0.00000   0.00000   1.21377
  14        1PX         0.00000   0.00000   0.00000   0.94257
  15        1PY         0.00000   0.00000   0.00000   0.00000   0.96245
  16        1PZ         0.00000   0.00000   0.00000   0.00000   0.00000
  17 5   C  1S          0.00000   0.00000   0.00000   0.00000   0.00000
  18        1PX         0.00000   0.00000   0.00000   0.00000   0.00000
  19        1PY         0.00000   0.00000   0.00000   0.00000   0.00000
  20        1PZ         0.00000   0.00000   0.00000   0.00000   0.00000
  21 6   C  1S          0.00000   0.00000   0.00000   0.00000   0.00000
  22        1PX         0.00000   0.00000   0.00000   0.00000   0.00000
  23        1PY         0.00000   0.00000   0.00000   0.00000   0.00000
  24        1PZ         0.00000   0.00000   0.00000   0.00000   0.00000
  25 7   H  1S          0.00000   0.00000   0.00000   0.00000   0.00000
  26 8   H  1S          0.00000   0.00000   0.00000   0.00000   0.00000
  27 9   H  1S          0.00000   0.00000   0.00000   0.00000   0.00000
  28 10  H  1S          0.00000   0.00000   0.00000   0.00000   0.00000
  29 11  C  1S          0.00000   0.00000   0.00000   0.00000   0.00000
  30        1PX         0.00000   0.00000   0.00000   0.00000   0.00000
  31        1PY         0.00000   0.00000   0.00000   0.00000   0.00000
  32        1PZ         0.00000   0.00000   0.00000   0.00000   0.00000
  33 12  H  1S          0.00000   0.00000   0.00000   0.00000   0.00000
  34 13  H  1S          0.00000   0.00000   0.00000   0.00000   0.00000
  35 14  H  1S          0.00000   0.00000   0.00000   0.00000   0.00000
  36 15  H  1S          0.00000   0.00000   0.00000   0.00000   0.00000
                          16        17        18        19        20
  16        1PZ         1.00532
  17 5   C  1S          0.00000   1.20545
  18        1PX         0.00000   0.00000   0.93732
  19        1PY         0.00000   0.00000   0.00000   0.93525
  20        1PZ         0.00000   0.00000   0.00000   0.00000   0.99586
  21 6   C  1S          0.00000   0.00000   0.00000   0.00000   0.00000
  22        1PX         0.00000   0.00000   0.00000   0.00000   0.00000
  23        1PY         0.00000   0.00000   0.00000   0.00000   0.00000
  24        1PZ         0.00000   0.00000   0.00000   0.00000   0.00000
  25 7   H  1S          0.00000   0.00000   0.00000   0.00000   0.00000
  26 8   H  1S          0.00000   0.00000   0.00000   0.00000   0.00000
  27 9   H  1S          0.00000   0.00000   0.00000   0.00000   0.00000
  28 10  H  1S          0.00000   0.00000   0.00000   0.00000   0.00000
  29 11  C  1S          0.00000   0.00000   0.00000   0.00000   0.00000
  30        1PX         0.00000   0.00000   0.00000   0.00000   0.00000
  31        1PY         0.00000   0.00000   0.00000   0.00000   0.00000
  32        1PZ         0.00000   0.00000   0.00000   0.00000   0.00000
  33 12  H  1S          0.00000   0.00000   0.00000   0.00000   0.00000
  34 13  H  1S          0.00000   0.00000   0.00000   0.00000   0.00000
  35 14  H  1S          0.00000   0.00000   0.00000   0.00000   0.00000
  36 15  H  1S          0.00000   0.00000   0.00000   0.00000   0.00000
                          21        22        23        24        25
  21 6   C  1S          1.19918
  22        1PX         0.00000   0.92263
  23        1PY         0.00000   0.00000   0.95365
  24        1PZ         0.00000   0.00000   0.00000   1.02193
  25 7   H  1S          0.00000   0.00000   0.00000   0.00000   0.87573
  26 8   H  1S          0.00000   0.00000   0.00000   0.00000   0.00000
  27 9   H  1S          0.00000   0.00000   0.00000   0.00000   0.00000
  28 10  H  1S          0.00000   0.00000   0.00000   0.00000   0.00000
  29 11  C  1S          0.00000   0.00000   0.00000   0.00000   0.00000
  30        1PX         0.00000   0.00000   0.00000   0.00000   0.00000
  31        1PY         0.00000   0.00000   0.00000   0.00000   0.00000
  32        1PZ         0.00000   0.00000   0.00000   0.00000   0.00000
  33 12  H  1S          0.00000   0.00000   0.00000   0.00000   0.00000
  34 13  H  1S          0.00000   0.00000   0.00000   0.00000   0.00000
  35 14  H  1S          0.00000   0.00000   0.00000   0.00000   0.00000
  36 15  H  1S          0.00000   0.00000   0.00000   0.00000   0.00000
                          26        27        28        29        30
  26 8   H  1S          0.87402
  27 9   H  1S          0.00000   0.87392
  28 10  H  1S          0.00000   0.00000   0.87421
  29 11  C  1S          0.00000   0.00000   0.00000   1.23391
  30        1PX         0.00000   0.00000   0.00000   0.00000   0.94344
  31        1PY         0.00000   0.00000   0.00000   0.00000   0.00000
  32        1PZ         0.00000   0.00000   0.00000   0.00000   0.00000
  33 12  H  1S          0.00000   0.00000   0.00000   0.00000   0.00000
  34 13  H  1S          0.00000   0.00000   0.00000   0.00000   0.00000
  35 14  H  1S          0.00000   0.00000   0.00000   0.00000   0.00000
  36 15  H  1S          0.00000   0.00000   0.00000   0.00000   0.00000
                          31        32        33        34        35
  31        1PY         1.02191
  32        1PZ         0.00000   1.01801
  33 12  H  1S          0.00000   0.00000   0.88633
  34 13  H  1S          0.00000   0.00000   0.00000   0.88780
  35 14  H  1S          0.00000   0.00000   0.00000   0.00000   0.90174
  36 15  H  1S          0.00000   0.00000   0.00000   0.00000   0.00000
                          36
  36 15  H  1S          0.90542
     Gross orbital populations:
                           1
   1 1   C  1S          1.22776
   2        1PX         0.95347
   3        1PY         0.97338
   4        1PZ         0.99374
   5 2   C  1S          1.21083
   6        1PX         0.98782
   7        1PY         0.92325
   8        1PZ         1.01695
   9 3   C  1S          1.21312
  10        1PX         0.93992
  11        1PY         0.97133
  12        1PZ         0.99658
  13 4   C  1S          1.21377
  14        1PX         0.94257
  15        1PY         0.96245
  16        1PZ         1.00532
  17 5   C  1S          1.20545
  18        1PX         0.93732
  19        1PY         0.93525
  20        1PZ         0.99586
  21 6   C  1S          1.19918
  22        1PX         0.92263
  23        1PY         0.95365
  24        1PZ         1.02193
  25 7   H  1S          0.87573
  26 8   H  1S          0.87402
  27 9   H  1S          0.87392
  28 10  H  1S          0.87421
  29 11  C  1S          1.23391
  30        1PX         0.94344
  31        1PY         1.02191
  32        1PZ         1.01801
  33 12  H  1S          0.88633
  34 13  H  1S          0.88780
  35 14  H  1S          0.90174
  36 15  H  1S          0.90542
          Condensed to atoms (all electrons):
               1          2          3          4          5          6
     1  C    4.148354   0.000000   0.000000   0.000000   0.000000   0.000000
     2  C    0.000000   4.138835   0.000000   0.000000   0.000000   0.000000
     3  C    0.000000   0.000000   4.120959   0.000000   0.000000   0.000000
     4  C    0.000000   0.000000   0.000000   4.124118   0.000000   0.000000
     5  C    0.000000   0.000000   0.000000   0.000000   4.073880   0.000000
     6  C    0.000000   0.000000   0.000000   0.000000   0.000000   4.097404
     7  H    0.000000   0.000000   0.000000   0.000000   0.000000   0.000000
     8  H    0.000000   0.000000   0.000000   0.000000   0.000000   0.000000
     9  H    0.000000   0.000000   0.000000   0.000000   0.000000   0.000000
    10  H    0.000000   0.000000   0.000000   0.000000   0.000000   0.000000
    11  C    0.000000   0.000000   0.000000   0.000000   0.000000   0.000000
    12  H    0.000000   0.000000   0.000000   0.000000   0.000000   0.000000
    13  H    0.000000   0.000000   0.000000   0.000000   0.000000   0.000000
    14  H    0.000000   0.000000   0.000000   0.000000   0.000000   0.000000
    15  H    0.000000   0.000000   0.000000   0.000000   0.000000   0.000000
               7          8          9         10         11         12
     1  C    0.000000   0.000000   0.000000   0.000000   0.000000   0.000000
     2  C    0.000000   0.000000   0.000000   0.000000   0.000000   0.000000
     3  C    0.000000   0.000000   0.000000   0.000000   0.000000   0.000000
     4  C    0.000000   0.000000   0.000000   0.000000   0.000000   0.000000
     5  C    0.000000   0.000000   0.000000   0.000000   0.000000   0.000000
     6  C    0.000000   0.000000   0.000000   0.000000   0.000000   0.000000
     7  H    0.875735   0.000000   0.000000   0.000000   0.000000   0.000000
     8  H    0.000000   0.874017   0.000000   0.000000   0.000000   0.000000
     9  H    0.000000   0.000000   0.873920   0.000000   0.000000   0.000000
    10  H    0.000000   0.000000   0.000000   0.874214   0.000000   0.000000
    11  C    0.000000   0.000000   0.000000   0.000000   4.217278   0.000000
    12  H    0.000000   0.000000   0.000000   0.000000   0.000000   0.886335
    13  H    0.000000   0.000000   0.000000   0.000000   0.000000   0.000000
    14  H    0.000000   0.000000   0.000000   0.000000   0.000000   0.000000
    15  H    0.000000   0.000000   0.000000   0.000000   0.000000   0.000000
              13         14         15
     1  C    0.000000   0.000000   0.000000
     2  C    0.000000   0.000000   0.000000
     3  C    0.000000   0.000000   0.000000
     4  C    0.000000   0.000000   0.000000
     5  C    0.000000   0.000000   0.000000
     6  C    0.000000   0.000000   0.000000
     7  H    0.000000   0.000000   0.000000
     8  H    0.000000   0.000000   0.000000
     9  H    0.000000   0.000000   0.000000
    10  H    0.000000   0.000000   0.000000
    11  C    0.000000   0.000000   0.000000
    12  H    0.000000   0.000000   0.000000
    13  H    0.887799   0.000000   0.000000
    14  H    0.000000   0.901736   0.000000
    15  H    0.000000   0.000000   0.905416
 Mulliken charges:
               1
     1  C   -0.148354
     2  C   -0.138835
     3  C   -0.120959
     4  C   -0.124118
     5  C   -0.073880
     6  C   -0.097404
     7  H    0.124265
     8  H    0.125983
     9  H    0.126080
    10  H    0.125786
    11  C   -0.217278
    12  H    0.113665
    13  H    0.112201
    14  H    0.098264
    15  H    0.094584
 Sum of Mulliken charges =   0.00000
 Mulliken charges with hydrogens summed into heavy atoms:
               1
     1  C   -0.024089
     2  C   -0.012852
     3  C    0.005121
     4  C    0.001668
     5  C   -0.073880
     6  C    0.095444
    11  C    0.008588
 Charge=              0.0000 electrons
 Dipole moment (field-independent basis, Debye):
    X=             -0.0428    Y=             -0.2941    Z=              0.0847  Tot=              0.3090
 N-N= 1.575225890025D+02 E-N=-2.335998424762D+02  KE=-5.647266676423D+01
 Orbital energies and kinetic energies (alpha):
                                 1                 2
   1         O                -1.434036         -2.432574
   2         O                -1.239137         -2.216999
   3         O                -1.174811         -2.115572
   4         O                -1.007127         -1.905904
   5         O                -0.857468         -1.752175
   6         O                -0.784309         -1.666008
   7         O                -0.638909         -1.360220
   8         O                -0.614796         -1.349952
   9         O                -0.584811         -1.499714
  10         O                -0.547105         -1.327889
  11         O                -0.524753         -1.264959
  12         O                -0.504261         -1.320877
  13         O                -0.485767         -1.209430
  14         O                -0.446184         -1.277305
  15         O                -0.434822         -1.396549
  16         O                -0.420188         -1.214554
  17         O                -0.396434         -1.504681
  18         O                -0.320906         -1.420969
  19         V                 0.003655         -1.371237
  20         V                 0.055248         -1.371309
  21         V                 0.090484         -1.301024
  22         V                 0.132595         -1.032039
  23         V                 0.141489         -1.083178
  24         V                 0.148721         -1.212565
  25         V                 0.155471         -1.043875
  26         V                 0.164813         -0.771937
  27         V                 0.170429         -0.857136
  28         V                 0.174526         -0.778483
  29         V                 0.181213         -0.833326
  30         V                 0.182909         -0.767942
  31         V                 0.190669         -0.932655
  32         V                 0.200214         -1.127944
  33         V                 0.207400         -1.054816
  34         V                 0.211620         -1.161068
  35         V                 0.216206         -1.171439
  36         V                 0.226108         -1.198035
 Total kinetic energy from orbitals=-5.647266676423D+01
 Calling FoFJK, ICntrl=      2127 FMM=F ISym2X=0 I1Cent= 0 IOpClX= 0 NMat=1 NMatS=1 NMatT=0.
 ***** Axes restored to original set *****
 -------------------------------------------------------------------
 Center     Atomic                   Forces (Hartrees/Bohr)
 Number     Number              X              Y              Z
 -------------------------------------------------------------------
      1        6           0.043780805   -0.010674638    0.006317958
      2        6           0.013609430    0.037919586    0.003290378
      3        6          -0.026111454   -0.026973567   -0.004296520
      4        6           0.020948678   -0.029452923   -0.001847415
      5        6          -0.042573546   -0.007216542    0.006836060
      6        6          -0.018644051    0.042484644   -0.010798555
      7        1          -0.006539887   -0.018538461   -0.001658991
      8        1          -0.020136567    0.005291956   -0.002513735
      9        1          -0.013499894    0.016167719    0.000807763
     10        1           0.012982511    0.016324514    0.001951343
     11        6           0.002766488   -0.002388032   -0.000316088
     12        1           0.011173039    0.014686484   -0.001547380
     13        1           0.010693604   -0.014515729   -0.001062492
     14        1           0.002978178   -0.006957927    0.023394417
     15        1           0.008572665   -0.016157082   -0.018556743
 -------------------------------------------------------------------
 Cartesian Forces:  Max     0.043780805 RMS     0.017826817

 GradGradGradGradGradGradGradGradGradGradGradGradGradGradGradGradGradGrad
 Berny optimization.
 FormGI is forming the generalized inverse of G from B-inverse, IUseBI=4.
 Internal  Forces:  Max     0.032433589 RMS     0.010440554
 Search for a local minimum.
 Step number   1 out of a maximum of   81
 All quantities printed in internal units (Hartrees-Bohrs-Radians)
 Mixed Optimization -- RFO/linear search
 Second derivative matrix not updated -- first step.
 ITU=  0
     Eigenvalues ---    0.00607   0.01210   0.01530   0.01665   0.01917
     Eigenvalues ---    0.02146   0.02236   0.02559   0.03099   0.03099
     Eigenvalues ---    0.04322   0.06601   0.10125   0.11311   0.15991
     Eigenvalues ---    0.15991   0.15997   0.16000   0.16000   0.16000
     Eigenvalues ---    0.21761   0.21996   0.23161   0.24994   0.28978
     Eigenvalues ---    0.30251   0.34423   0.34885   0.35194   0.35457
     Eigenvalues ---    0.36757   0.36759   0.36797   0.36827   0.36925
     Eigenvalues ---    0.36942   0.57822   0.60167   0.61036
 RFO step:  Lambda=-1.87812247D-02 EMin= 6.07003013D-03
 Linear search not attempted -- first point.
 Iteration  1 RMS(Cart)=  0.03421854 RMS(Int)=  0.00041547
 Iteration  2 RMS(Cart)=  0.00058400 RMS(Int)=  0.00004856
 Iteration  3 RMS(Cart)=  0.00000027 RMS(Int)=  0.00004856
 Variable       Old X    -DE/DX   Delta X   Delta X   Delta X     New X
                                 (Linear)    (Quad)   (Total)
    R1        2.49549   0.03243   0.00000   0.05201   0.05204   2.54753
    R2        2.86258  -0.02001   0.00000  -0.06241  -0.06243   2.80014
    R3        2.02854   0.01924   0.00000   0.04975   0.04975   2.07829
    R4        2.77843  -0.01934   0.00000  -0.04835  -0.04830   2.73013
    R5        2.02659   0.02064   0.00000   0.05320   0.05320   2.07979
    R6        2.50601   0.02865   0.00000   0.04688   0.04691   2.55291
    R7        2.02634   0.02076   0.00000   0.05347   0.05347   2.07981
    R8        2.78227  -0.00983   0.00000  -0.02786  -0.02788   2.75438
    R9        2.02808   0.02079   0.00000   0.05372   0.05372   2.08179
   R10        2.88911  -0.02170   0.00000  -0.07300  -0.07305   2.81606
   R11        2.50129   0.02480   0.00000   0.03942   0.03942   2.54071
   R12        2.05862   0.02451   0.00000   0.06667   0.06667   2.12528
   R13        2.04939   0.02591   0.00000   0.06939   0.06939   2.11878
   R14        2.02911   0.01841   0.00000   0.04765   0.04765   2.07676
   R15        2.02914   0.01801   0.00000   0.04661   0.04661   2.07575
    A1        2.13489   0.00166   0.00000   0.00886   0.00886   2.14375
    A2        2.11107   0.00357   0.00000   0.02035   0.02034   2.13141
    A3        2.03670  -0.00522   0.00000  -0.02896  -0.02898   2.00771
    A4        2.11281  -0.00468   0.00000  -0.01103  -0.01096   2.10185
    A5        2.11073   0.00608   0.00000   0.02645   0.02641   2.13714
    A6        2.05964  -0.00140   0.00000  -0.01544  -0.01548   2.04416
    A7        2.11870  -0.00644   0.00000  -0.01901  -0.01897   2.09974
    A8        2.05993  -0.00045   0.00000  -0.01093  -0.01098   2.04894
    A9        2.10434   0.00691   0.00000   0.03017   0.03012   2.13446
   A10        2.12847   0.00032   0.00000   0.00212   0.00211   2.13058
   A11        2.11083   0.00235   0.00000   0.01310   0.01309   2.12392
   A12        2.04338  -0.00265   0.00000  -0.01494  -0.01495   2.02843
   A13        2.04226   0.00487   0.00000   0.01194   0.01185   2.05411
   A14        2.11674   0.00103   0.00000   0.00694   0.00698   2.12373
   A15        2.12402  -0.00589   0.00000  -0.01880  -0.01876   2.10526
   A16        1.99015   0.00446   0.00000   0.00925   0.00920   1.99935
   A17        1.88361  -0.00101   0.00000  -0.00162  -0.00158   1.88202
   A18        1.91527  -0.00213   0.00000  -0.00995  -0.00992   1.90535
   A19        1.89194  -0.00174   0.00000  -0.00679  -0.00680   1.88514
   A20        1.91201  -0.00172   0.00000  -0.00749  -0.00743   1.90458
   A21        1.86653   0.00207   0.00000   0.01756   0.01755   1.88409
   A22        2.12144   0.00174   0.00000   0.00975   0.00975   2.13118
   A23        2.12962   0.00052   0.00000   0.00290   0.00290   2.13252
   A24        2.03212  -0.00226   0.00000  -0.01265  -0.01265   2.01948
    D1        0.03361  -0.00035   0.00000   0.00020   0.00023   0.03384
    D2       -3.11226  -0.00063   0.00000  -0.00429  -0.00435  -3.11661
    D3        3.13922   0.00005   0.00000   0.00802   0.00817  -3.13579
    D4       -0.00665  -0.00022   0.00000   0.00353   0.00360  -0.00305
    D5       -0.22754   0.00005   0.00000   0.00431   0.00432  -0.22322
    D6        1.87543  -0.00003   0.00000   0.00046   0.00043   1.87586
    D7       -2.37973   0.00073   0.00000   0.01511   0.01509  -2.36464
    D8        2.94859  -0.00050   0.00000  -0.00412  -0.00402   2.94457
    D9       -1.23162  -0.00058   0.00000  -0.00797  -0.00791  -1.23953
   D10        0.79640   0.00017   0.00000   0.00668   0.00675   0.80316
   D11        0.09390  -0.00092   0.00000  -0.00758  -0.00746   0.08644
   D12       -3.06974  -0.00023   0.00000   0.00463   0.00456  -3.06517
   D13       -3.04353  -0.00067   0.00000  -0.00332  -0.00322  -3.04676
   D14        0.07602   0.00001   0.00000   0.00889   0.00880   0.08482
   D15        0.00013  -0.00020   0.00000   0.00291   0.00290   0.00304
   D16        3.10677   0.00041   0.00000   0.01255   0.01262   3.11938
   D17       -3.11886  -0.00081   0.00000  -0.00907  -0.00918  -3.12804
   D18       -0.01223  -0.00020   0.00000   0.00057   0.00054  -0.01169
   D19       -0.20418   0.00016   0.00000   0.00267   0.00264  -0.20154
   D20        2.95657   0.00016   0.00000  -0.00220  -0.00228   2.95429
   D21        2.97109  -0.00051   0.00000  -0.00713  -0.00709   2.96400
   D22       -0.15134  -0.00052   0.00000  -0.01201  -0.01201  -0.16336
   D23        0.30191   0.00031   0.00000  -0.00567  -0.00566   0.29625
   D24       -1.79639  -0.00005   0.00000  -0.00476  -0.00471  -1.80110
   D25        2.45587  -0.00060   0.00000  -0.01780  -0.01778   2.43808
   D26       -2.85892   0.00040   0.00000  -0.00047  -0.00050  -2.85942
   D27        1.32596   0.00004   0.00000   0.00044   0.00045   1.32641
   D28       -0.70497  -0.00051   0.00000  -0.01261  -0.01262  -0.71759
   D29        0.02262  -0.00024   0.00000  -0.00348  -0.00351   0.01911
   D30       -3.11849  -0.00017   0.00000  -0.00210  -0.00213  -3.12061
   D31       -3.09891  -0.00037   0.00000  -0.00894  -0.00892  -3.10783
   D32        0.04317  -0.00031   0.00000  -0.00756  -0.00754   0.03563
         Item               Value     Threshold  Converged?
 Maximum Force            0.032434     0.000450     NO 
 RMS     Force            0.010441     0.000300     NO 
 Maximum Displacement     0.123291     0.001800     NO 
 RMS     Displacement     0.034509     0.001200     NO 
 Predicted change in Energy=-9.867436D-03
 GradGradGradGradGradGradGradGradGradGradGradGradGradGradGradGradGradGrad

                          Input orientation:                          
 ---------------------------------------------------------------------
 Center     Atomic      Atomic             Coordinates (Angstroms)
 Number     Number       Type             X           Y           Z
 ---------------------------------------------------------------------
      1          6           0       -1.214097   -1.128768   -0.060984
      2          6           0       -1.839861    0.064636   -0.100568
      3          6           0       -1.086124    1.290587    0.026496
      4          6           0        0.263115    1.258234    0.086119
      5          6           0        1.010903    0.008734    0.022582
      6          6           0        0.245967   -1.263508    0.152800
      7          1           0       -1.759507   -2.078607   -0.160247
      8          1           0       -2.928096    0.156555   -0.236813
      9          1           0       -1.653852    2.232792    0.061567
     10          1           0        0.861329    2.180162    0.162217
     11          6           0        2.346475   -0.007829   -0.131115
     12          1           0        2.938229    0.915790   -0.198207
     13          1           0        2.915986   -0.944612   -0.199408
     14          1           0        0.406568   -1.660954    1.192553
     15          1           0        0.656320   -2.014621   -0.571456
 ---------------------------------------------------------------------
                    Distance matrix (angstroms):
                    1          2          3          4          5
     1  C    0.000000
     2  C    1.348095   0.000000
     3  C    2.424316   1.444722   0.000000
     4  C    2.810974   2.425291   1.350943   0.000000
     5  C    2.500305   2.853971   2.457780   1.457558   0.000000
     6  C    1.481772   2.485727   2.883369   2.522681   1.490196
     7  H    1.099781   2.145579   3.440899   3.909757   3.473557
     8  H    2.149596   1.100576   2.179042   3.391432   3.950298
     9  H    3.392417   2.182152   1.100589   2.150611   3.471149
    10  H    3.912318   3.441066   2.145306   1.101637   2.181048
    11  C    3.733510   4.187074   3.673344   2.447549   1.344488
    12  H    4.630428   4.854291   4.048009   2.711890   2.141514
    13  H    4.136504   4.862760   4.589557   3.460026   2.141843
    14  H    2.116869   3.113883   3.507052   3.125129   2.126479
    15  H    2.131614   3.282676   3.783921   3.361338   2.138358
                    6          7          8          9         10
     6  C    0.000000
     7  H    2.187308   0.000000
     8  H    3.499008   2.523373   0.000000
     9  H    3.980169   4.318394   2.454280   0.000000
    10  H    3.498231   5.010976   4.314389   2.517744   0.000000
[...]
   xxy        0.508258D+02      0.439095D+00      0.162966D+00
   yxy        0.154518D+02      0.133492D+00      0.495441D-01
   yyy        0.247718D+01      0.214009D-01      0.794274D-02
   xxz       -0.113767D+01     -0.982862D-02     -0.364780D-02
   yxz        0.374921D+00      0.323902D-02      0.120213D-02
   yyz       -0.836749D+00     -0.722886D-02     -0.268292D-02
   zxz        0.357185D+01      0.308580D-01      0.114526D-01
   zyz       -0.196484D+02     -0.169747D+00     -0.629999D-01
   zzz        0.148122D+01      0.127966D-01      0.474934D-02

 ----------------------------------------------------------------------

 Dipole orientation:
     6         -2.09963950          0.17953112          2.34400403
     6         -3.47576015          0.30015201          0.21372446
     6         -2.26291054          0.19947238         -2.23353539
     6          0.26704697         -0.01775641         -2.42306328
     6          1.89378430         -0.16114524         -0.21127882
     6          0.69098707         -0.05944010          2.34418020
     1         -2.98948653          0.25354594          4.22252603
     1         -5.54652566          0.47744069          0.25430170
     1         -3.47711848          0.30626904         -3.91728193
     1          1.20775372         -0.09585135         -4.27847569
     6          4.41063123         -0.37925246         -0.43800182
     1          5.35591892         -0.45917266         -2.28082171
     1          5.66107003         -0.48967297          1.21132290
     1          1.50926217          1.58437268          3.42367833
     1          1.21794324         -1.81923263          3.42226639

 Electric dipole moment (dipole orientation):
 (Debye = 10**-18 statcoulomb cm , SI units = C m)
                  (au)            (Debye)         (10**-30 SI)
   Tot        0.138365D+00      0.351688D+00      0.117311D+01
   x          0.000000D+00      0.000000D+00      0.000000D+00
   y          0.000000D+00      0.000000D+00      0.000000D+00
   z          0.138365D+00      0.351688D+00      0.117311D+01

 Dipole polarizability, Alpha (dipole orientation).
 (esu units = cm**3 , SI units = C**2 m**2 J**-1)
 Alpha(0;0):
               (au)            (10**-24 esu)      (10**-40 SI)
   iso        0.640360D+02      0.948916D+01      0.105581D+02
   aniso      0.747524D+02      0.110772D+02      0.123250D+02
   xx         0.102815D+03      0.152357D+02      0.169520D+02
   yx        -0.730508D+01     -0.108250D+01     -0.120445D+01
   yy         0.187692D+02      0.278131D+01      0.309463D+01
   zx        -0.342221D+01     -0.507119D+00     -0.564246D+00
   zy         0.236479D+00      0.350425D-01      0.389901D-01
   zz         0.705234D+02      0.104505D+02      0.116277D+02

 First dipole hyperpolarizability, Beta (dipole orientation).
 ||, _|_  parallel and perpendicular components, (z) with respect to z axis,
 vector components x,y,z.  Values do not include the 1/n! factor of 1/2.
 (esu units = statvolt**-1 cm**4 , SI units = C**3 m**3 J**-2)
 Beta(0;0,0):
               (au)            (10**-30 esu)      (10**-50 SI)
   || (z)    -0.220449D+02     -0.190451D+00     -0.706840D-01
   _|_(z)    -0.734831D+01     -0.634836D-01     -0.235613D-01
   x          0.900033D+02      0.777558D+00      0.288583D+00
   y         -0.773253D+01     -0.668031D-01     -0.247933D-01
   z         -0.110225D+03     -0.952255D+00     -0.353420D+00
   ||         0.285025D+02      0.246240D+00      0.913894D-01
   xxx        0.226856D+00      0.195986D-02      0.727383D-03
   xxy        0.910075D+00      0.786234D-02      0.291803D-02
   yxy        0.534510D+01      0.461775D-01      0.171383D-01
   yyy       -0.140444D+01     -0.121333D-01     -0.450314D-02
   xxz       -0.471692D+02     -0.407506D+00     -0.151242D+00
   yxz        0.568524D+01      0.491161D-01      0.182289D-01
   yyz        0.187624D+02      0.162093D+00      0.601592D-01
   zxz        0.244291D+02      0.211049D+00      0.783286D-01
   zyz       -0.208315D+01     -0.179968D-01     -0.667932D-02
   zzz       -0.833472D+01     -0.720055D-01     -0.267241D-01

 ----------------------------------------------------------------------
 1\1\GINC-IISERK51\Freq\RAM1\ZDO\C7H8\GAUSSIAN\12-Jun-2025\0\\#N Geom=A
 llCheck Guess=TCheck SCRF=Check GenChk RAM1/ZDO Freq\\Optimisation\\0,
 1\C,-1.2298267058,-1.1266774114,0.0150959341\C,-1.8483547927,0.0656042
 933,-0.0172888171\C,-1.0821466686,1.2921409725,-0.0374857238\C,0.26492
 1097,1.262291909,-0.0246504573\C,1.0118190693,0.0142291687,0.009546761
 2\C,0.2452929879,-1.2697643461,0.0320916976\H,-1.7962363586,-2.0702733
 455,0.0309843274\H,-2.9450389097,0.1503451233,-0.0294338966\H,-1.63794
 34483,2.2410000937,-0.0635245328\H,0.8570187911,2.1911177685,-0.039807
 9631\C,2.3539599089,0.0046037755,0.0208037914\H,2.9479059594,0.9265401
 082,0.0050701785\H,2.9306960637,-0.9279954264,0.0463772295\H,0.5372287
 735,-1.8513283699,0.9524444571\H,0.5540602329,-1.8932433135,-0.8546869
 86\\Version=EM64L-G16RevB.01\State=1-A\HF=0.0613957\RMSD=1.095e-09\RMS
 F=8.539e-06\ZeroPoint=0.1301209\Thermal=0.1361281\Dipole=-0.0133823,-0
 .1376807,0.003126\DipoleDeriv=-0.0455554,-0.1724542,0.0055247,-0.01870
 75,-0.0746873,-0.0032833,0.0019114,-0.0047709,-0.2112143,-0.0172757,0.
 127947,-0.0015581,0.0422986,-0.2205487,0.0017907,0.0004366,0.0024851,-
 0.1611083,-0.1341486,0.0476327,-0.0010704,0.1346055,0.0649504,-0.00338
 68,-0.0029808,-0.004025,-0.1379136,-0.1430351,-0.065755,0.0015992,-0.1
 071103,-0.0830615,-0.0023668,0.0023093,-0.0020828,-0.1513663,-0.008783
 7,0.0069232,-0.0000112,-0.0435966,-0.0386989,-0.0006137,0.0011666,-0.0
 000513,-0.039752,0.0081779,0.0388339,-0.0011826,-0.0186935,-0.160219,0
 .0042487,0.0004419,0.0048187,0.0321125,0.055142,0.0701596,-0.0022957,0
 .0445108,0.1401884,0.0002257,-0.0017532,0.000478,0.1327334,0.1551949,-
 0.0523636,0.0011613,-0.0043029,0.0368964,0.002595,0.0001071,0.0021554,
 0.1552003,0.0932771,-0.0414717,0.0004511,-0.1106094,0.1088831,-0.00021
 2,0.0020045,0.0003916,0.143936,0.0653343,0.0437412,-0.0016055,0.081616
 8,0.1102005,0.0013234,-0.0024093,0.0009942,0.1371628,-0.2557584,-0.022
 0129,0.0011621,0.0490484,-0.1023049,-0.0047668,-0.0004863,-0.0053823,-
 0.3356949,0.113029,0.0342659,-0.001079,0.1152766,0.058486,0.0030451,-0
 .0028784,0.0023591,0.1521309,0.0992199,-0.0284869,0.0002548,-0.1125768
 ,0.0440887,0.0013311,0.0020895,0.0020272,0.1455968,0.0076372,0.0066142
 ,-0.0072614,-0.0259643,0.0574847,0.0037996,-0.0003276,-0.0222081,0.069
 4586,0.0075514,0.0064241,0.005911,-0.025794,0.0583374,-0.0037298,0.000
 3707,0.0228095,0.0687115\Polar=103.7916527,0.2132464,70.1450445,0.7374
 853,-1.1641486,18.171437\HyperPolar=14.4991315,50.8257646,15.4517997,2
 .4771807,-1.1376748,0.3749208,-0.836749,3.5718495,-19.6483995,1.481223
 3\PG=C01 [X(C7H8)]\NImag=0\\0.70825471,-0.13643627,0.91251786,0.008159
 37,-0.01811395,0.15998004,-0.19584912,0.23289685,-0.00644701,0.7520091
 8,0.20854753,-0.49453692,0.01160577,-0.10562181,0.90048351,-0.00590401
 ,0.01183202,-0.06230964,0.00804431,-0.01790984,0.14264405,0.02210471,-
 0.01340163,0.00043027,-0.15119307,-0.10377983,0.00157820,0.94868065,-0
 .00297643,-0.08801110,0.00210967,-0.14236330,-0.27016967,0.00307941,-0
 .00694032,0.69970296,0.00019762,0.00201407,0.00769665,0.00243521,0.003
 43239,-0.07241960,0.00744609,-0.01238583,0.14345461,-0.00773906,0.0069
 2517,-0.00023128,-0.05892337,-0.05350496,0.00058616,-0.59516047,0.0281
 7994,-0.00544907,0.98357092,-0.00030012,-0.00590618,0.00014177,-0.0430
 2250,-0.00295103,-0.00016144,-0.00206030,-0.08145439,0.00042314,-0.013
 09934,0.66664277,-0.00006915,0.00020804,0.00056613,0.00035243,-0.00025
 681,0.00742908,-0.00477600,0.00069695,-0.06174493,0.00783222,-0.011656
 29,0.14390159,-0.03683137,-0.03614691,0.00046012,-0.00050481,0.0065091
 2,-0.00010981,-0.06286066,0.03922730,-0.00149212,-0.11823268,0.1123233
 1,-0.00287225,1.01246303,-0.01893781,0.00018856,-0.00009423,0.00031118
 ,-0.00466059,0.00001112,0.03779681,-0.00589974,0.00062275,0.11185407,-
 0.27897222,0.00550813,-0.02375680,0.69060216,0.00005513,-0.00025226,0.
 00360521,0.00002669,0.00006019,-0.00436818,-0.00145603,0.00064074,0.00
 706378,-0.00287339,0.00551823,-0.07462018,0.00748461,-0.01181462,0.173
 70612,-0.30694420,0.02112001,-0.00268480,-0.04116027,0.03169061,-0.001
 17707,-0.00344814,-0.00098980,0.00003263,0.00974970,0.00502213,-0.0001
 0273,-0.12255577,-0.09864128,0.00180944,0.64979721,0.01491634,-0.06729
 896,0.00005817,0.04140661,-0.01608114,0.00095201,0.00280372,0.00062332
 ,-0.00008958,-0.00776043,-0.04839018,0.00121452,-0.08789162,-0.2285015
 6,0.00279332,0.02390164,0.57446753,-0.00252676,0.00011058,-0.07072578,
 -0.00139518,0.00086982,0.00910405,-0.00005814,-0.00013048,-0.00453910,
 0.00019174,0.00131391,0.00851685,0.00154631,0.00269149,-0.07224745,0.0
 0098341,-0.00194508,0.47708441,-0.11007770,-0.12226209,0.00211092,0.00
 806262,0.00994322,-0.00021037,-0.00088682,0.00134514,-0.00012208,0.000
 04400,0.00028050,-0.00000496,-0.00337200,0.00164066,-0.00007927,-0.028
 52320,-0.02431553,0.00021594,0.13570464,-0.11930846,-0.23891667,0.0032
 9383,-0.00994740,-0.03962714,0.00094651,0.00194337,-0.00238459,0.00027
 330,0.00024502,0.00019911,-0.00000389,0.00069790,0.00038799,0.00002173
 ,-0.00757511,0.00029226,0.00007462,0.13403063,0.28053048,0.00204322,0.
 00326966,-0.04255416,0.00023550,0.00112773,0.00678045,-0.00013493,0.00
 026855,0.00902222,-0.00000604,-0.00000311,-0.00007888,-0.00005666,0.00
 002949,0.00106515,-0.00015769,-0.00008330,0.00677852,-0.00195732,-0.00
 452111,0.02320180,-0.02402377,0.01347057,-0.00057190,-0.31077795,0.021
 57472,-0.00298975,-0.02571308,-0.01017666,-0.00007931,-0.00016011,-0.0
 0163033,0.00002262,0.00013394,-0.00000741,0.00000118,0.00012779,0.0008
 9847,-0.00010327,0.00033256,0.00041987,0.00002063,0.36035582,0.0326894
 1,-0.00826949,0.00060092,0.02067823,-0.03935988,0.00012301,-0.02816525
 ,-0.00342803,-0.00002791,-0.00124030,-0.00314255,0.00008647,-0.0000832
 4,-0.00012162,0.00000222,0.00068447,-0.00266077,0.00026805,0.00047338,
 -0.00033432,-0.00005216,-0.02450951,0.05758457,-0.00100047,0.00042059,
 0.00496425,-0.00297090,0.00013088,-0.04250832,0.00032348,0.00014091,0.
 00709858,0.00001403,0.00008283,0.00126553,0.00000210,0.00000313,0.0000
 1803,-0.00009851,0.00027164,0.00906970,0.00001914,-0.00005290,-0.00287
 272,0.00369499,-0.00098702,0.02365189,-0.00140370,-0.00188246,0.000017
 17,0.00737922,-0.01199372,0.00026529,-0.10813447,0.11938154,-0.0032368
 9,-0.02877763,0.02967844,-0.00096943,-0.00308468,-0.00063047,-0.000096
 71,-0.00007582,-0.00005767,0.00000397,0.00025808,-0.00036383,0.0000152
 5,0.00008082,-0.00066431,0.00001611,0.13478411,-0.00218760,-0.00194788
 ,0.00005222,0.00604329,-0.03618394,0.00101812,0.12038534,-0.24241597,0
 .00551105,0.01051357,-0.00255130,0.00027997,-0.00049456,-0.00000505,0.
 00019766,-0.00009164,0.00014104,-0.00001246,0.00031247,-0.00045759,0.0
 0000297,-0.00024525,-0.00036626,0.00000395,-0.13418418,0.28296064,0.00
 002377,0.00005413,0.00131579,-0.00013236,0.00085715,0.00733119,-0.0032
 6210,0.00550094,-0.04280870,-0.00054231,0.00045408,0.00580256,-0.00009
 911,0.00019542,0.00910356,0.00000476,-0.00001266,-0.00037905,-0.000000
 08,-0.00000402,-0.00047951,0.00000701,0.,-0.00008364,0.00397904,-0.006
 95910,0.02361272,-0.00000652,0.00015361,-0.00000192,-0.00329851,0.0007
 8723,-0.00012847,-0.03039483,-0.02862879,0.00030025,-0.11599681,-0.122
 58709,0.00204430,0.00732831,0.01098787,-0.00024324,-0.00103786,0.00143
 492,-0.00005155,-0.00003020,-0.00001839,0.00000962,-0.00029054,-0.0006
 2532,0.00001463,-0.00060294,-0.00002077,0.00002066,0.14503139,0.000475
 34,0.00020193,-0.00000381,0.00015743,0.00040428,0.00019056,-0.00948383
 ,-0.00146744,0.00008895,-0.12407097,-0.23105475,0.00303867,-0.00669317
 ,-0.03744137,0.00092925,0.00197889,-0.00150174,0.00007659,-0.00009295,
 -0.00006875,-0.00002270,0.00003286,0.00010682,-0.00001059,0.00005619,0
 .00055361,-0.00007438,0.13680909,0.27216765,-0.00000761,-0.00000816,-0
 .00016819,-0.00011401,0.00019905,0.00897942,-0.00012620,-0.00008501,0.
 00644649,0.00208128,0.00305005,-0.04265726,0.00014211,0.00109004,0.007
 34478,-0.00006460,0.00007276,0.00121503,0.00001168,-0.00002245,-0.0010
 6036,0.00000047,-0.00001615,-0.00038530,0.00001908,-0.00007526,-0.0028
 4238,-0.00192106,-0.00425975,0.02322056,-0.00225580,-0.00017949,-0.000
 02170,-0.00060102,-0.00367903,0.00007592,0.00714937,0.00397558,-0.0000
 3120,-0.06290242,0.03780874,-0.00143191,-0.62097947,-0.00207926,-0.004
 56215,-0.04528211,-0.03036402,0.00026644,-0.00023188,0.00005744,-0.000
 00288,0.00008432,0.00001252,0.00000147,-0.00022600,-0.00007116,0.00000
 001,-0.00028337,0.00067322,-0.00001210,0.96089108,-0.00103011,-0.00356
 386,0.00008558,-0.00054557,-0.00000014,-0.00000367,0.00189562,-0.00431
 981,0.00012980,0.04326169,-0.01032042,0.00075464,0.00427187,-0.0763189
 4,0.00037594,-0.03970781,-0.00983251,0.00003870,-0.00092424,0.00006855
 ,-0.00001257,0.00006008,0.00004257,-0.00000311,0.00066670,0.00024975,-
 0.00000060,0.00142168,-0.00111562,0.00002845,-0.00393061,0.58860885,-0
 .00000115,0.00009110,0.00054551,0.00000616,-0.00002875,0.00009103,0.00
 001131,0.00014603,0.00074017,-0.00155120,0.00071131,0.00732317,-0.0047
 0054,0.00032560,-0.06090092,0.00046574,0.00011478,0.00644868,0.0000198
 6,-0.00000348,-0.00010597,0.00000043,-0.00000335,-0.00011258,-0.000015
 81,-0.00000843,-0.00010374,-0.00003090,0.00002185,-0.00037755,0.006924
 49,-0.01030015,0.12958543,-0.00007545,-0.00077397,0.00001848,-0.000081
 20,0.00005103,0.00000017,0.00006588,-0.00033425,0.00000863,-0.00101782
 ,0.00006049,0.00002318,-0.03124994,-0.03015085,0.00036888,-0.00293713,
 0.00116011,-0.00011862,-0.00019321,0.00001069,-0.00000485,0.00000161,0
 .00001438,-0.00000069,0.00000410,0.00007726,-0.00000483,-0.00065062,0.
 00072091,-0.00002329,-0.11869307,-0.12406683,0.00213666,0.14762183,0.0
 0009949,-0.00002398,-0.00000144,-0.00010240,0.00009992,-0.00000897,0.0
 0000723,-0.00028646,0.00000501,0.00047957,0.00078244,-0.00010298,-0.00
 888792,-0.00087526,0.00007869,0.00016355,0.00042234,0.00017471,-0.0000
 0305,-0.00003288,0.00000849,-0.00002869,-0.00000710,0.00000085,-0.0000
 1289,0.00008096,0.00000669,0.00009189,-0.00025004,0.00001217,-0.128143
 70,-0.23880699,0.00336745,0.14490216,0.26791140,-0.00000139,-0.0000061
 4,-0.00014115,0.00000355,-0.00000881,-0.00025773,0.00000180,0.00000359
 ,-0.00006336,0.00001293,-0.00010594,-0.00402003,-0.00010455,-0.0000967
 9,0.00591054,-0.00009402,0.00018331,0.00822033,-0.00000421,0.00000841,
 0.00034358,0.00000023,0.00000126,0.00004396,-0.00000330,0.00000738,0.0
 0038706,-0.00000971,0.00001706,0.00026837,0.00222656,0.00340119,-0.041
 16075,-0.00220790,-0.00430667,0.02210200,0.00003788,0.00005638,-0.0000
 0108,0.00010142,0.00003574,-0.00000279,-0.00027017,0.00071817,-0.00001
 821,-0.00304334,-0.00077024,-0.00008373,-0.03032626,0.03053280,-0.0009
 8612,-0.00105419,-0.00003823,0.00002165,0.00004796,-0.00002047,0.00000
 199,-0.00002174,-0.00001974,0.00000020,-0.00016614,-0.00000501,0.00000
 628,-0.00000432,-0.00011890,0.00000388,-0.11413521,0.12147867,-0.00330
 494,0.00715911,-0.00880531,0.00018593,0.14186661,-0.00015899,0.0000513
 9,-0.00000246,0.00011776,-0.00010166,0.00001159,0.00009055,0.00034072,
 -0.00000720,-0.00035277,-0.00003127,0.00020442,0.00925448,-0.00098919,
 0.00024723,0.00003034,0.00015692,-0.00008275,0.00000220,0.00004278,-0.
 00000386,0.00002046,0.00000441,0.00000024,0.00000505,-0.00006715,-0.00
 002015,-0.00012139,0.00002976,-0.00000523,0.12580171,-0.24331133,0.005
 52697,0.00819862,-0.02909399,0.00090779,-0.14285058,0.27305216,0.00000
 375,-0.00000130,0.00001426,-0.00000487,0.00001135,0.00036641,-0.000004
 30,-0.00000361,-0.00001668,-0.00009283,0.00020137,0.00926012,-0.000514
 70,0.00042164,0.00664234,0.00001975,-0.00008387,-0.00360434,0.00000140
 ,-0.00000393,-0.00012760,-0.00000068,-0.00000013,0.00000602,0.00000768
 ,-0.00002011,-0.00097153,0.00000410,-0.00000456,-0.00016011,-0.0034005
 7,0.00549182,-0.04231386,-0.00019417,0.00076798,0.00847684,0.00417598,
 -0.00677933,0.02234551,-0.02226054,0.01760650,-0.02536468,-0.00258420,
 -0.00027079,0.00006896,0.00003428,-0.00022410,-0.00059671,-0.00070205,
 -0.00085361,-0.00022583,0.00493117,-0.00936186,0.00903159,-0.05239180,
 0.02984958,-0.05023627,-0.00056405,-0.00008677,-0.00006421,-0.00007776
 ,0.00040936,0.00141005,-0.00001770,-0.00001553,0.00002112,0.00011714,-
 0.00021959,0.00009111,-0.00126777,-0.00141735,0.00028836,0.00002535,0.
 00011395,-0.00027769,-0.00009621,-0.00001805,0.00004123,0.06962771,0.0
 1197620,-0.00194797,0.00739753,0.00000466,0.00132638,0.00000875,-0.000
 54200,-0.00040884,0.00010795,-0.00070965,-0.00144186,-0.00055684,-0.00
 432912,-0.02788580,0.02417526,0.02913073,-0.09629397,0.09815750,-0.000
 22012,0.00014717,-0.00006544,0.00006197,-0.00002987,-0.00020204,0.0000
 0022,0.00000610,0.00006540,0.00015592,-0.00027734,0.00024360,0.0000528
 3,-0.00068248,0.00041748,0.00007368,0.00001408,-0.00115647,-0.00009712
 ,-0.00002797,0.00058229,-0.03418243,0.12053646,-0.01177927,0.00558959,
 -0.00202313,0.00038443,-0.00077355,-0.00041131,0.00020595,0.00017385,0
 .00002546,-0.00004442,-0.00026230,-0.00045600,0.00266384,0.01192066,-0
 .00186718,-0.04877204,0.09740441,-0.19300973,-0.00026468,-0.00006114,0
 .00004291,-0.00001513,-0.00004933,-0.00005889,-0.00000157,0.00001005,0
 .00005618,0.00002552,-0.00002758,0.00008447,-0.00018635,-0.00007813,0.
 00016536,-0.00002605,-0.00000106,-0.00003123,0.00014206,0.00003153,0.0
 0002886,0.06135545,-0.12059258,0.23017382,-0.02293003,0.01885357,0.024
 12806,-0.00257876,-0.00028912,-0.00009673,0.00002685,-0.00019388,0.000
 60515,-0.00070871,-0.00085013,0.00026123,0.00514108,-0.00955768,-0.008
 48060,-0.05426411,0.03405599,0.05126036,-0.00057085,-0.00008444,0.0000
 5836,-0.00005202,0.00034592,-0.00142562,-0.00001731,-0.00001625,-0.000
 02184,0.00011961,-0.00022443,-0.00008074,-0.00126660,-0.00143372,-0.00
 024846,0.00002051,0.00012616,0.00027178,-0.00009551,-0.00001945,-0.000
 04177,0.00522648,-0.00137569,-0.00368771,0.07194941,0.01263126,-0.0025
 3636,-0.00712958,-0.00001319,0.00135777,-0.00008918,-0.00054913,-0.000
 42063,-0.00009787,-0.00072087,-0.00140817,0.00058501,-0.00400056,-0.02
 950733,-0.02297362,0.03328328,-0.10554260,-0.10160518,-0.00021014,0.00
 015348,0.00005735,0.00005890,-0.00001857,0.00020064,0.00000143,0.00000
 292,-0.00006290,0.00015954,-0.00028710,-0.00022412,0.00006519,-0.00069
 745,-0.00037837,0.00005649,0.00006554,0.00115081,-0.00009602,-0.000055
 62,-0.00057963,-0.00132928,0.00696583,0.00671556,-0.03933684,0.1319282
 0,0.01080692,-0.00520796,-0.00076551,-0.00042395,0.00068346,-0.0004502
 0,-0.00017942,-0.00015570,0.00004514,0.00007217,0.00029240,-0.00048783
 ,-0.00234932,-0.01081385,-0.00045695,0.04983573,-0.10085045,-0.1819317
 5,0.00026404,0.00005451,0.00004419,0.00001249,0.00005411,-0.00009672,0
 .00000016,-0.00000801,0.00005899,-0.00003220,0.00004043,0.00009154,0.0
 0015397,0.00009215,0.00017798,0.00002441,-0.00000093,-0.00007882,-0.00
 014111,-0.00002880,0.00005352,0.00445753,-0.00858236,-0.03271978,-0.06
 250145,0.12443103,0.21651600\\0.00003074,-0.00000221,-0.00000412,0.000
 00210,0.00000194,0.00000022,0.00000462,-0.00000333,0.00000411,0.000001
 99,-0.00000839,-0.00000020,-0.00003121,-0.00000598,0.00000065,-0.00001
 823,0.00002451,-0.00000601,0.00000517,-0.00000197,0.00000353,-0.000002
 13,0.00000043,-0.00000168,-0.00000127,0.00000221,-0.00000222,0.0000012
 4,0.00000328,0.00000211,0.00000595,-0.00000415,0.00000031,0.00000238,-
 0.00000058,-0.00000056,0.00000106,0.00000171,-0.00000149,-0.00000048,-
 0.00000366,0.00000519,-0.00000194,-0.00000383,0.00000014\\\@


 LIFE CAN ONLY BE UNDERSTOOD BACKWARD, BUT MUST
 BE LIVED FORWARD. -- KIRKEGAARD
 Job cpu time:       0 days  0 hours  0 minutes  0.5 seconds.
 Elapsed time:       0 days  0 hours  0 minutes  0.5 seconds.
 File lengths (MBytes):  RWF=     11 Int=      0 D2E=      0 Chk=      2 Scr=      1
 Normal termination of Gaussian 16 at Thu Jun 12 21:58:17 2025.
