 Entering Gaussian System, Link 0=g16
 Input=/home/gaussian/Documents/program files/Aromaticity/AM1 HF3-21G*/Toluene/toluene.com
 Output=/home/gaussian/Documents/program files/Aromaticity/AM1 HF3-21G*/Toluene/toluene.log
 Initial command:
 /usr/local/g16/l1.exe "/home/gaussian/tmp/Gau-140048.inp" -scrdir="/home/gaussian/tmp/"
 Entering Link 1 = /usr/local/g16/l1.exe PID=    140051.
  
 Copyright (c) 1988-2017, Gaussian, Inc.  All Rights Reserved.
  
 This is part of the Gaussian(R) 16 program.  It is based on
 the Gaussian(R) 09 system (copyright 2009, Gaussian, Inc.),
 the Gaussian(R) 03 system (copyright 2003, Gaussian, Inc.),
 the Gaussian(R) 98 system (copyright 1998, Gaussian, Inc.),
 the Gaussian(R) 94 system (copyright 1995, Gaussian, Inc.),
 the Gaussian 92(TM) system (copyright 1992, Gaussian, Inc.),
 the Gaussian 90(TM) system (copyright 1990, Gaussian, Inc.),
 the Gaussian 88(TM) system (copyright 1988, Gaussian, Inc.),
 the Gaussian 86(TM) system (copyright 1986, Carnegie Mellon
 University), and the Gaussian 82(TM) system (copyright 1983,
 Carnegie Mellon University). Gaussian is a federally registered
 trademark of Gaussian, Inc.
  
 This software contains proprietary and confidential information,
 including trade secrets, belonging to Gaussian, Inc.
  
 This software is provided under written license and may be
 used, copied, transmitted, or stored only in accord with that
 written license.
  
 The following legend is applicable only to US Government
 contracts under FAR:
  
                    RESTRICTED RIGHTS LEGEND
  
 Use, reproduction and disclosure by the US Government is
 subject to restrictions as set forth in subparagraphs (a)
 and (c) of the Commercial Computer Software - Restricted
 Rights clause in FAR 52.227-19.
  
 Gaussian, Inc.
 340 Quinnipiac St., Bldg. 40, Wallingford CT 06492
  
  
 ---------------------------------------------------------------
 Warning -- This program may not be used in any manner that
 competes with the business of Gaussian, Inc. or will provide
 assistance to any competitor of Gaussian, Inc.  The licensee
 of this program is prohibited from giving any competitor of
 Gaussian, Inc. access to this program.  By using this program,
 the user acknowledges that Gaussian, Inc. is engaged in the
 business of creating and licensing software in the field of
 computational chemistry and represents and warrants to the
 licensee that it is not a competitor of Gaussian, Inc. and that
 it will not use this program in any manner prohibited above.
 ---------------------------------------------------------------
  

 Cite this work as:
 Gaussian 16, Revision B.01,
 M. J. Frisch, G. W. Trucks, H. B. Schlegel, G. E. Scuseria, 
 M. A. Robb, J. R. Cheeseman, G. Scalmani, V. Barone, 
 G. A. Petersson, H. Nakatsuji, X. Li, M. Caricato, A. V. Marenich, 
 J. Bloino, B. G. Janesko, R. Gomperts, B. Mennucci, H. P. Hratchian, 
 J. V. Ortiz, A. F. Izmaylov, J. L. Sonnenberg, D. Williams-Young, 
 F. Ding, F. Lipparini, F. Egidi, J. Goings, B. Peng, A. Petrone, 
 T. Henderson, D. Ranasinghe, V. G. Zakrzewski, J. Gao, N. Rega, 
 G. Zheng, W. Liang, M. Hada, M. Ehara, K. Toyota, R. Fukuda, 
 J. Hasegawa, M. Ishida, T. Nakajima, Y. Honda, O. Kitao, H. Nakai, 
 T. Vreven, K. Throssell, J. A. Montgomery, Jr., J. E. Peralta, 
 F. Ogliaro, M. J. Bearpark, J. J. Heyd, E. N. Brothers, K. N. Kudin, 
 V. N. Staroverov, T. A. Keith, R. Kobayashi, J. Normand, 
 K. Raghavachari, A. P. Rendell, J. C. Burant, S. S. Iyengar, 
 J. Tomasi, M. Cossi, J. M. Millam, M. Klene, C. Adamo, R. Cammi, 
 J. W. Ochterski, R. L. Martin, K. Morokuma, O. Farkas, 
 J. B. Foresman, and D. J. Fox, Gaussian, Inc., Wallingford CT, 2016.
 
 ******************************************
 Gaussian 16:  EM64L-G16RevB.01 20-Dec-2017
                12-Jun-2025 
 ******************************************
 %chk=toluene.chk
 --------------------------------
 # opt freq am1 geom=connectivity
 --------------------------------
 1/18=20,19=15,26=1,38=1,57=2/1,3;
 2/9=110,12=2,17=6,18=5,40=1/2;
 3/5=2,25=1,41=700000,71=1/1,2,3;
 4/35=1/1;
 5/5=2,35=1,38=5/2;
 6/7=2,8=2,9=2,10=2,28=1/1;
 7//1,2,3,16;
 1/18=20,19=15,26=1/3(2);
 2/9=110/2;
 99//99;
 2/9=110/2;
 3/5=2,25=1,41=700000,71=1,135=20/1,2,3;
 4/5=5,16=3,35=1/1;
 5/5=2,35=1,38=5/2;
 7//1,2,3,16;
 1/18=20,19=15,26=1/3(-5);
 2/9=110/2;
 6/7=2,8=2,9=2,10=2,19=2,28=1/1;
 99/9=1/99;
 -------------------
 Title Card Required
 -------------------
 Symbolic Z-matrix:
 Charge =  0 Multiplicity = 1
 C                    -2.81402  -2.3137    0.00369 
 C                    -1.41886  -2.3137    0.00369 
 C                    -0.72132  -1.10595   0.00369 
 C                    -1.41898   0.10256   0.00249 
 C                    -2.8138    0.10248   0.00201 
 C                    -3.5114   -1.10572   0.00301 
 H                    -3.36378  -3.26602   0.00414 
 H                    -0.86935  -3.26621   0.00501 
 H                     0.37836  -1.10587   0.00432 
 H                    -3.36392   1.05476   0.00106 
 H                    -4.61101  -1.10554   0.00283 
 C                    -0.64847   1.43595   0.00241 
 H                    -0.4495    1.73297   1.01092 
 H                     0.27594   1.31367  -0.52237 
 H                    -1.23652   2.18765  -0.48137 
 

 GradGradGradGradGradGradGradGradGradGradGradGradGradGradGradGradGradGrad
 Berny optimization.
 Initialization pass.
                           ----------------------------
                           !    Initial Parameters    !
                           ! (Angstroms and Degrees)  !
 --------------------------                            --------------------------
 ! Name  Definition              Value          Derivative Info.                !
 --------------------------------------------------------------------------------
 ! R1    R(1,2)                  1.3952         estimate D2E/DX2                !
 ! R2    R(1,6)                  1.3948         estimate D2E/DX2                !
 ! R3    R(1,7)                  1.0996         estimate D2E/DX2                !
 ! R4    R(2,3)                  1.3947         estimate D2E/DX2                !
 ! R5    R(2,8)                  1.0997         estimate D2E/DX2                !
 ! R6    R(3,4)                  1.3954         estimate D2E/DX2                !
 ! R7    R(3,9)                  1.0997         estimate D2E/DX2                !
 ! R8    R(4,5)                  1.3948         estimate D2E/DX2                !
 ! R9    R(4,12)                 1.54           estimate D2E/DX2                !
 ! R10   R(5,6)                  1.3951         estimate D2E/DX2                !
 ! R11   R(5,10)                 1.0998         estimate D2E/DX2                !
 ! R12   R(6,11)                 1.0996         estimate D2E/DX2                !
 ! R13   R(12,13)                1.07           estimate D2E/DX2                !
 ! R14   R(12,14)                1.07           estimate D2E/DX2                !
 ! R15   R(12,15)                1.07           estimate D2E/DX2                !
 ! A1    A(2,1,6)              119.9985         estimate D2E/DX2                !
 ! A2    A(2,1,7)              119.9972         estimate D2E/DX2                !
 ! A3    A(6,1,7)              120.0043         estimate D2E/DX2                !
 ! A4    A(1,2,3)              120.0086         estimate D2E/DX2                !
 ! A5    A(1,2,8)              119.9808         estimate D2E/DX2                !
 ! A6    A(3,2,8)              120.0106         estimate D2E/DX2                !
 ! A7    A(2,3,4)              119.9942         estimate D2E/DX2                !
 ! A8    A(2,3,9)              120.0128         estimate D2E/DX2                !
 ! A9    A(4,3,9)              119.993          estimate D2E/DX2                !
 ! A10   A(3,4,5)              119.994          estimate D2E/DX2                !
 ! A11   A(3,4,12)             119.9811         estimate D2E/DX2                !
 ! A12   A(5,4,12)             120.0249         estimate D2E/DX2                !
 ! A13   A(4,5,6)              120.0047         estimate D2E/DX2                !
 ! A14   A(4,5,10)             120.0113         estimate D2E/DX2                !
 ! A15   A(6,5,10)             119.984          estimate D2E/DX2                !
 ! A16   A(1,6,5)              120.0            estimate D2E/DX2                !
 ! A17   A(1,6,11)             120.008          estimate D2E/DX2                !
 ! A18   A(5,6,11)             119.992          estimate D2E/DX2                !
 ! A19   A(4,12,13)            109.4712         estimate D2E/DX2                !
 ! A20   A(4,12,14)            109.4712         estimate D2E/DX2                !
 ! A21   A(4,12,15)            109.4712         estimate D2E/DX2                !
 ! A22   A(13,12,14)           109.4713         estimate D2E/DX2                !
 ! A23   A(13,12,15)           109.4712         estimate D2E/DX2                !
 ! A24   A(14,12,15)           109.4712         estimate D2E/DX2                !
 ! D1    D(6,1,2,3)              0.0323         estimate D2E/DX2                !
 ! D2    D(6,1,2,8)            179.9532         estimate D2E/DX2                !
 ! D3    D(7,1,2,3)           -179.9729         estimate D2E/DX2                !
 ! D4    D(7,1,2,8)             -0.052          estimate D2E/DX2                !
 ! D5    D(2,1,6,5)              0.0149         estimate D2E/DX2                !
 ! D6    D(2,1,6,11)           179.9892         estimate D2E/DX2                !
 ! D7    D(7,1,6,5)           -179.9798         estimate D2E/DX2                !
 ! D8    D(7,1,6,11)            -0.0056         estimate D2E/DX2                !
 ! D9    D(1,2,3,4)             -0.0568         estimate D2E/DX2                !
 ! D10   D(1,2,3,9)            179.9619         estimate D2E/DX2                !
 ! D11   D(8,2,3,4)           -179.9777         estimate D2E/DX2                !
 ! D12   D(8,2,3,9)              0.041          estimate D2E/DX2                !
 ! D13   D(2,3,4,5)              0.0341         estimate D2E/DX2                !
 ! D14   D(2,3,4,12)          -179.9964         estimate D2E/DX2                !
 ! D15   D(9,3,4,5)           -179.9846         estimate D2E/DX2                !
 ! D16   D(9,3,4,12)            -0.0151         estimate D2E/DX2                !
 ! D17   D(3,4,5,6)              0.0131         estimate D2E/DX2                !
 ! D18   D(3,4,5,10)          -179.9995         estimate D2E/DX2                !
 ! D19   D(12,4,5,6)          -179.9563         estimate D2E/DX2                !
 ! D20   D(12,4,5,10)            0.0311         estimate D2E/DX2                !
 ! D21   D(3,4,12,13)          -88.6004         estimate D2E/DX2                !
 ! D22   D(3,4,12,14)           31.3997         estimate D2E/DX2                !
 ! D23   D(3,4,12,15)          151.3996         estimate D2E/DX2                !
 ! D24   D(5,4,12,13)           91.3691         estimate D2E/DX2                !
 ! D25   D(5,4,12,14)         -148.6309         estimate D2E/DX2                !
 ! D26   D(5,4,12,15)          -28.6309         estimate D2E/DX2                !
 ! D27   D(4,5,6,1)             -0.0376         estimate D2E/DX2                !
 ! D28   D(4,5,6,11)           179.9881         estimate D2E/DX2                !
 ! D29   D(10,5,6,1)           179.975          estimate D2E/DX2                !
 ! D30   D(10,5,6,11)            0.0007         estimate D2E/DX2                !
 --------------------------------------------------------------------------------
 Trust Radius=3.00D-01 FncErr=1.00D-07 GrdErr=1.00D-07 EigMax=2.50D+02 EigMin=1.00D-04
 Number of steps in this run=     79 maximum allowed number of steps=    100.
 GradGradGradGradGradGradGradGradGradGradGradGradGradGradGradGradGradGrad

                          Input orientation:                          
 ---------------------------------------------------------------------
 Center     Atomic      Atomic             Coordinates (Angstroms)
 Number     Number       Type             X           Y           Z
 ---------------------------------------------------------------------
      1          6           0       -2.814022   -2.313700    0.003691
      2          6           0       -1.418862   -2.313700    0.003691
      3          6           0       -0.721324   -1.105949    0.003691
      4          6           0       -1.418978    0.102560    0.002492
      5          6           0       -2.813803    0.102482    0.002013
      6          6           0       -3.511404   -1.105724    0.003009
      7          1           0       -3.363781   -3.266017    0.004141
      8          1           0       -0.869354   -3.266213    0.005006
      9          1           0        0.378356   -1.105869    0.004325
     10          1           0       -3.363925    1.054763    0.001060
     11          1           0       -4.611008   -1.105541    0.002829
     12          6           0       -0.648474    1.435948    0.002409
     13          1           0       -0.449501    1.732966    1.010918
     14          1           0        0.275945    1.313669   -0.522374
     15          1           0       -1.236515    2.187654   -0.481373
 ---------------------------------------------------------------------
                    Distance matrix (angstroms):
                    1          2          3          4          5
     1  C    0.000000
     2  C    1.395160   0.000000
     3  C    2.416205   1.394712   0.000000
     4  C    2.790065   2.416260   1.395427   0.000000
     5  C    2.416183   2.789946   2.416356   1.394825   0.000000
     6  C    1.394829   2.416183   2.790080   2.416236   1.395138
     7  H    1.099610   2.165553   3.412986   3.889675   3.413102
     8  H    2.165414   1.099655   2.165330   3.413316   3.889601
     9  H    3.413229   2.165375   1.099680   2.165806   3.413209
    10  H    3.413055   3.889707   3.413506   2.165528   1.099761
    11  H    2.165365   3.413128   3.889684   3.412999   2.165471
    12  C    4.330065   3.827971   2.542941   1.540000   2.542987
    13  H    4.793847   4.281317   3.024538   2.148263   3.044058
    14  H    4.794001   4.038183   2.669427   2.148263   3.359836
    15  H    4.794372   4.531084   3.368758   2.148263   2.658842
                    6          7          8          9         10
     6  C    0.000000
     7  H    2.165331   0.000000
     8  H    3.412938   2.494427   0.000000
     9  H    3.889760   4.320860   2.494768   0.000000
    10  H    2.165516   4.320781   4.989362   4.321228   0.000000
    11  H    1.099604   2.494641   4.320704   4.989364   2.494420
    12  C    3.828376   5.429675   4.707347   2.741390   2.742076
    13  H    4.295264   5.873369   5.116632   3.123709   3.158107
    14  H    4.524765   5.873529   4.750280   2.478319   3.686417
    15  H    4.031883   5.873969   5.487808   3.700136   2.458059
                   11         12         13         14         15
    11  H    0.000000
    12  C    4.707530   0.000000
    13  H    5.137266   1.070000   0.000000
    14  H    5.478204   1.070000   1.747303   0.000000
    15  H    4.739914   1.070000   1.747303   1.747303   0.000000
 Stoichiometry    C7H8
 Framework group  C1[X(C7H8)]
 Deg. of freedom    39
 Full point group                 C1      NOp   1
 Largest Abelian subgroup         C1      NOp   1
 Largest concise Abelian subgroup C1      NOp   1
                         Standard orientation:                         
 ---------------------------------------------------------------------
 Center     Atomic      Atomic             Coordinates (Angstroms)
 Number     Number       Type             X           Y           Z
 ---------------------------------------------------------------------
      1          6           0       -1.894809   -0.000089    0.000090
      2          6           0       -1.197027   -1.208216   -0.000342
      3          6           0        0.197685   -1.208193    0.000093
      4          6           0        0.895256    0.000365   -0.000239
      5          6           0        0.197574    1.208163   -0.000286
      6          6           0       -1.197564    1.207967    0.000275
      7          1           0       -2.994419   -0.000326    0.000197
      8          1           0       -1.747014   -2.160453    0.000289
      9          1           0        0.747754   -2.160412    0.000387
     10          1           0        0.747053    2.160816   -0.000556
     11          1           0       -1.747367    2.160251    0.000435
     12          6           0        2.435256    0.000041    0.000159
     13          1           0        2.791657   -0.024249    1.008766
     14          1           0        2.791876   -0.861327   -0.524977
     15          1           0        2.792234    0.885472   -0.483037
 ---------------------------------------------------------------------
 Rotational constants (GHZ):           5.4959924           2.5204893           1.7463873
 Standard basis: VSTO-6G (5D, 7F)
 There are    36 symmetry adapted cartesian basis functions of A   symmetry.
 There are    36 symmetry adapted basis functions of A   symmetry.
    36 basis functions,   216 primitive gaussians,    36 cartesian basis functions
    18 alpha electrons       18 beta electrons
       nuclear repulsion energy       156.9528853646 Hartrees.
 Integral buffers will be    131072 words long.
 Regular integral format.
 Two-electron integral symmetry is turned off.
 Do NDO integrals.
 One-electron integrals computed using PRISM.
 NBasis=    36 RedAO= F EigKep=  0.00D+00  NBF=    36
 NBsUse=    36 1.00D-04 EigRej=  0.00D+00 NBFU=    36
 Simple Huckel Guess.
 Keep J ints in memory in canonical form, NReq=862527.
 Overlap will be assumed to be unity.
 Requested convergence on RMS density matrix=1.00D-08 within 128 cycles.
 Requested convergence on MAX density matrix=1.00D-06.
 Requested convergence on             energy=1.00D-06.
 No special actions if energy rises.
 SCF Done:  E(RAM1) =  0.295382173478E-01 A.U. after   14 cycles
            NFock= 13  Conv=0.47D-08     -V/T= 1.0005

 **********************************************************************

            Population analysis using the SCF Density.

 **********************************************************************

 Orbital symmetries:
       Occupied  (A) (A) (A) (A) (A) (A) (A) (A) (A) (A) (A) (A)
                 (A) (A) (A) (A) (A) (A)
       Virtual   (A) (A) (A) (A) (A) (A) (A) (A) (A) (A) (A) (A)
                 (A) (A) (A) (A) (A) (A)
 The electronic state is 1-A.
 Alpha  occ. eigenvalues --   -1.44684  -1.22287  -1.15299  -1.02042  -0.85152
 Alpha  occ. eigenvalues --   -0.81076  -0.63966  -0.58362  -0.57997  -0.53478
 Alpha  occ. eigenvalues --   -0.52033  -0.50740  -0.48663  -0.47214  -0.43573
 Alpha  occ. eigenvalues --   -0.43362  -0.35365  -0.34572
 Alpha virt. eigenvalues --    0.02052   0.02172   0.10902   0.14162   0.14681
 Alpha virt. eigenvalues --    0.14946   0.15383   0.16390   0.16811   0.17457
 Alpha virt. eigenvalues --    0.17533   0.18302   0.19079   0.19470   0.20600
 Alpha virt. eigenvalues --    0.20899   0.21326   0.22678
          Condensed to atoms (all electrons):
               1          2          3          4          5          6
     1  C    4.135390   0.000000   0.000000   0.000000   0.000000   0.000000
     2  C    0.000000   4.126964   0.000000   0.000000   0.000000   0.000000
     3  C    0.000000   0.000000   4.129312   0.000000   0.000000   0.000000
     4  C    0.000000   0.000000   0.000000   4.078443   0.000000   0.000000
     5  C    0.000000   0.000000   0.000000   0.000000   4.129267   0.000000
     6  C    0.000000   0.000000   0.000000   0.000000   0.000000   4.126975
     7  H    0.000000   0.000000   0.000000   0.000000   0.000000   0.000000
     8  H    0.000000   0.000000   0.000000   0.000000   0.000000   0.000000
     9  H    0.000000   0.000000   0.000000   0.000000   0.000000   0.000000
    10  H    0.000000   0.000000   0.000000   0.000000   0.000000   0.000000
    11  H    0.000000   0.000000   0.000000   0.000000   0.000000   0.000000
    12  C    0.000000   0.000000   0.000000   0.000000   0.000000   0.000000
    13  H    0.000000   0.000000   0.000000   0.000000   0.000000   0.000000
    14  H    0.000000   0.000000   0.000000   0.000000   0.000000   0.000000
    15  H    0.000000   0.000000   0.000000   0.000000   0.000000   0.000000
               7          8          9         10         11         12
     1  C    0.000000   0.000000   0.000000   0.000000   0.000000   0.000000
     2  C    0.000000   0.000000   0.000000   0.000000   0.000000   0.000000
     3  C    0.000000   0.000000   0.000000   0.000000   0.000000   0.000000
     4  C    0.000000   0.000000   0.000000   0.000000   0.000000   0.000000
     5  C    0.000000   0.000000   0.000000   0.000000   0.000000   0.000000
     6  C    0.000000   0.000000   0.000000   0.000000   0.000000   0.000000
     7  H    0.870313   0.000000   0.000000   0.000000   0.000000   0.000000
     8  H    0.000000   0.869909   0.000000   0.000000   0.000000   0.000000
     9  H    0.000000   0.000000   0.869123   0.000000   0.000000   0.000000
    10  H    0.000000   0.000000   0.000000   0.869146   0.000000   0.000000
    11  H    0.000000   0.000000   0.000000   0.000000   0.869892   0.000000
    12  C    0.000000   0.000000   0.000000   0.000000   0.000000   4.166816
    13  H    0.000000   0.000000   0.000000   0.000000   0.000000   0.000000
    14  H    0.000000   0.000000   0.000000   0.000000   0.000000   0.000000
    15  H    0.000000   0.000000   0.000000   0.000000   0.000000   0.000000
              13         14         15
     1  C    0.000000   0.000000   0.000000
     2  C    0.000000   0.000000   0.000000
     3  C    0.000000   0.000000   0.000000
     4  C    0.000000   0.000000   0.000000
     5  C    0.000000   0.000000   0.000000
     6  C    0.000000   0.000000   0.000000
     7  H    0.000000   0.000000   0.000000
     8  H    0.000000   0.000000   0.000000
     9  H    0.000000   0.000000   0.000000
    10  H    0.000000   0.000000   0.000000
    11  H    0.000000   0.000000   0.000000
    12  C    0.000000   0.000000   0.000000
    13  H    0.916701   0.000000   0.000000
    14  H    0.000000   0.920744   0.000000
    15  H    0.000000   0.000000   0.921006
 Mulliken charges:
               1
     1  C   -0.135390
     2  C   -0.126964
     3  C   -0.129312
     4  C   -0.078443
     5  C   -0.129267
     6  C   -0.126975
     7  H    0.129687
     8  H    0.130091
     9  H    0.130877
    10  H    0.130854
    11  H    0.130108
    12  C   -0.166816
    13  H    0.083299
    14  H    0.079256
    15  H    0.078994
 Sum of Mulliken charges =  -0.00000
 Mulliken charges with hydrogens summed into heavy atoms:
               1
     1  C   -0.005703
     2  C    0.003127
     3  C    0.001565
     4  C   -0.078443
     5  C    0.001588
     6  C    0.003133
    12  C    0.074734
 Charge=             -0.0000 electrons
 Dipole moment (field-independent basis, Debye):
    X=              0.2442    Y=             -0.0015    Z=              0.0246  Tot=              0.2454
 N-N= 1.569528853646D+02 E-N=-2.326054992619D+02  KE=-5.644388075421D+01
 Calling FoFJK, ICntrl=      2127 FMM=F ISym2X=0 I1Cent= 0 IOpClX= 0 NMat=1 NMatS=1 NMatT=0.
 ***** Axes restored to original set *****
 -------------------------------------------------------------------
 Center     Atomic                   Forces (Hartrees/Bohr)
 Number     Number              X              Y              Z
 -------------------------------------------------------------------
      1        6          -0.000191167   -0.000454446    0.000000672
      2        6          -0.000245283    0.000465061    0.000230778
      3        6           0.000882870   -0.001125065    0.000082391
      4        6           0.018904104    0.032025867    0.000239937
      5        6          -0.001885035    0.000096190    0.000172577
      6        6           0.000623435    0.000253513    0.000040334
      7        1           0.000014389    0.000009561   -0.000029863
      8        1           0.000091888    0.000082086   -0.000059364
      9        1           0.000113455    0.000119138   -0.000065157
     10        1           0.000040696    0.000119430   -0.000060749
     11        1           0.000000074    0.000107513   -0.000007087
     12        6          -0.034676628   -0.059833432   -0.001389311
     13        1           0.005791909    0.008431511    0.033331460
     14        1           0.029996381   -0.004484434   -0.016911785
     15        1          -0.019461088    0.024187507   -0.015574833
 -------------------------------------------------------------------
 Cartesian Forces:  Max     0.059833432 RMS     0.014758907

 GradGradGradGradGradGradGradGradGradGradGradGradGradGradGradGradGradGrad
 Berny optimization.
 FormGI is forming the generalized inverse of G from B-inverse, IUseBI=4.
 Internal  Forces:  Max     0.036626705 RMS     0.008493171
 Search for a local minimum.
 Step number   1 out of a maximum of   79
 All quantities printed in internal units (Hartrees-Bohrs-Radians)
 Mixed Optimization -- RFO/linear search
 Second derivative matrix not updated -- first step.
 ITU=  0
     Eigenvalues ---    0.00237   0.01387   0.02152   0.02154   0.02154
     Eigenvalues ---    0.02155   0.02155   0.02155   0.02156   0.02157
     Eigenvalues ---    0.07243   0.07243   0.16000   0.16000   0.16000
     Eigenvalues ---    0.16000   0.16000   0.16000   0.16000   0.16000
     Eigenvalues ---    0.22000   0.22000   0.23486   0.25000   0.28519
     Eigenvalues ---    0.33709   0.33718   0.33720   0.33725   0.33726
     Eigenvalues ---    0.37230   0.37230   0.37230   0.42121   0.42300
     Eigenvalues ---    0.46412   0.46453   0.46466   0.46497
 RFO step:  Lambda=-1.39281387D-02 EMin= 2.36824294D-03
 Linear search not attempted -- first point.
 Iteration  1 RMS(Cart)=  0.02900155 RMS(Int)=  0.00011378
 Iteration  2 RMS(Cart)=  0.00016990 RMS(Int)=  0.00000599
 Iteration  3 RMS(Cart)=  0.00000005 RMS(Int)=  0.00000599
 Variable       Old X    -DE/DX   Delta X   Delta X   Delta X     New X
                                 (Linear)    (Quad)   (Total)
    R1        2.63647   0.00017   0.00000   0.00026   0.00026   2.63673
    R2        2.63584   0.00026   0.00000   0.00046   0.00046   2.63630
    R3        2.07796  -0.00002   0.00000  -0.00004  -0.00004   2.07792
    R4        2.63562  -0.00019   0.00000  -0.00041  -0.00041   2.63522
    R5        2.07805  -0.00003   0.00000  -0.00007  -0.00007   2.07798
    R6        2.63697   0.00085   0.00000   0.00188   0.00188   2.63885
    R7        2.07809   0.00011   0.00000   0.00032   0.00032   2.07842
    R8        2.63584   0.00123   0.00000   0.00266   0.00266   2.63850
    R9        2.91018  -0.03663   0.00000  -0.12245  -0.12245   2.78773
   R10        2.63643  -0.00036   0.00000  -0.00074  -0.00074   2.63569
   R11        2.07825   0.00008   0.00000   0.00024   0.00024   2.07848
   R12        2.07795  -0.00000   0.00000  -0.00000  -0.00000   2.07795
   R13        2.02201   0.03483   0.00000   0.09019   0.09019   2.11220
   R14        2.02201   0.03472   0.00000   0.08990   0.08990   2.11191
   R15        2.02201   0.03473   0.00000   0.08992   0.08992   2.11193
    A1        2.09437  -0.00002   0.00000  -0.00044  -0.00044   2.09393
    A2        2.09435   0.00000   0.00000   0.00018   0.00018   2.09452
    A3        2.09447   0.00002   0.00000   0.00027   0.00027   2.09474
    A4        2.09455   0.00031   0.00000   0.00115   0.00115   2.09570
    A5        2.09406  -0.00003   0.00000   0.00014   0.00014   2.09420
    A6        2.09458  -0.00028   0.00000  -0.00130  -0.00130   2.09328
    A7        2.09429  -0.00037   0.00000  -0.00139  -0.00139   2.09290
    A8        2.09462   0.00031   0.00000   0.00141   0.00141   2.09603
    A9        2.09427   0.00006   0.00000  -0.00002  -0.00002   2.09426
   A10        2.09429   0.00016   0.00000   0.00099   0.00098   2.09528
   A11        2.09407  -0.00015   0.00000  -0.00075  -0.00076   2.09331
   A12        2.09483  -0.00001   0.00000  -0.00024  -0.00024   2.09459
   A13        2.09448  -0.00042   0.00000  -0.00157  -0.00156   2.09291
   A14        2.09459   0.00011   0.00000   0.00022   0.00021   2.09481
   A15        2.09411   0.00031   0.00000   0.00135   0.00135   2.09546
   A16        2.09440   0.00033   0.00000   0.00126   0.00126   2.09565
   A17        2.09453  -0.00005   0.00000   0.00001   0.00001   2.09455
   A18        2.09426  -0.00028   0.00000  -0.00127  -0.00127   2.09298
   A19        1.91063  -0.00215   0.00000  -0.01359  -0.01361   1.89702
   A20        1.91063  -0.00020   0.00000  -0.00060  -0.00062   1.91001
   A21        1.91063  -0.00004   0.00000   0.00042   0.00041   1.91105
   A22        1.91063   0.00089   0.00000   0.00379   0.00376   1.91439
   A23        1.91063   0.00087   0.00000   0.00393   0.00391   1.91454
   A24        1.91063   0.00063   0.00000   0.00605   0.00604   1.91668
    D1        0.00056  -0.00003   0.00000  -0.00089  -0.00089  -0.00033
    D2        3.14078   0.00003   0.00000   0.00066   0.00066   3.14144
    D3       -3.14112  -0.00004   0.00000  -0.00111  -0.00111   3.14095
    D4       -0.00091   0.00002   0.00000   0.00044   0.00044  -0.00047
    D5        0.00026   0.00000   0.00000   0.00019   0.00019   0.00045
    D6        3.14140   0.00000   0.00000   0.00021   0.00021  -3.14158
    D7       -3.14124   0.00002   0.00000   0.00041   0.00041  -3.14083
    D8       -0.00010   0.00001   0.00000   0.00043   0.00043   0.00033
    D9       -0.00099   0.00003   0.00000   0.00071   0.00071  -0.00029
   D10        3.14093   0.00002   0.00000   0.00048   0.00048   3.14141
   D11       -3.14120  -0.00003   0.00000  -0.00084  -0.00084   3.14114
   D12        0.00072  -0.00004   0.00000  -0.00107  -0.00107  -0.00036
   D13        0.00060  -0.00001   0.00000   0.00018   0.00018   0.00078
   D14       -3.14153  -0.00014   0.00000  -0.00454  -0.00454   3.13712
   D15       -3.14132  -0.00000   0.00000   0.00041   0.00041  -3.14092
   D16       -0.00026  -0.00013   0.00000  -0.00431  -0.00431  -0.00458
   D17        0.00023  -0.00001   0.00000  -0.00088  -0.00088  -0.00065
   D18       -3.14158  -0.00000   0.00000  -0.00051  -0.00051   3.14109
   D19       -3.14083   0.00012   0.00000   0.00384   0.00384  -3.13699
   D20        0.00054   0.00013   0.00000   0.00421   0.00421   0.00476
   D21       -1.54637   0.00009   0.00000   0.00256   0.00256  -1.54381
   D22        0.54803  -0.00026   0.00000  -0.00149  -0.00148   0.54655
   D23        2.64242   0.00037   0.00000   0.00581   0.00580   2.64822
   D24        1.59469  -0.00004   0.00000  -0.00216  -0.00216   1.59253
   D25       -2.59410  -0.00039   0.00000  -0.00621  -0.00620  -2.60030
   D26       -0.49970   0.00024   0.00000   0.00109   0.00108  -0.49862
   D27       -0.00066   0.00002   0.00000   0.00070   0.00070   0.00004
   D28        3.14138   0.00002   0.00000   0.00068   0.00068  -3.14112
   D29        3.14116   0.00001   0.00000   0.00032   0.00032   3.14148
   D30        0.00001   0.00001   0.00000   0.00031   0.00031   0.00032
         Item               Value     Threshold  Converged?
 Maximum Force            0.036627     0.000450     NO 
 RMS     Force            0.008493     0.000300     NO 
 Maximum Displacement     0.097842     0.001800     NO 
 RMS     Displacement     0.029084     0.001200     NO 
 Predicted change in Energy=-7.240813D-03
 GradGradGradGradGradGradGradGradGradGradGradGradGradGradGradGradGradGrad

                          Input orientation:                          
 ---------------------------------------------------------------------
 Center     Atomic      Atomic             Coordinates (Angstroms)
 Number     Number       Type             X           Y           Z
 ---------------------------------------------------------------------
      1          6           0       -2.806544   -2.300870    0.005678
      2          6           0       -1.411247   -2.300395    0.004782
      3          6           0       -0.712837   -1.093402    0.001289
      4          6           0       -1.411688    0.115560   -0.001658
      5          6           0       -2.807919    0.116054   -0.000170
      6          6           0       -3.503925   -1.092616    0.003473
      7          1           0       -3.356132   -3.253256    0.007823
      8          1           0       -0.861295   -3.252607    0.006670
      9          1           0        0.387014   -1.092668    0.000759
     10          1           0       -3.357921    1.068547   -0.002016
     11          1           0       -4.603529   -1.092307    0.004194
     12          6           0       -0.673386    1.392717    0.000370
     13          1           0       -0.473069    1.688979    1.059338
     14          1           0        0.294118    1.263820   -0.543957
     15          1           0       -1.288291    2.179777   -0.501048
 ---------------------------------------------------------------------
                    Distance matrix (angstroms):
                    1          2          3          4          5
     1  C    0.000000
     2  C    1.395297   0.000000
     3  C    2.416942   1.394497   0.000000
     4  C    2.790128   2.415964   1.396420   0.000000
     5  C    2.416931   2.791047   2.419122   1.396232   0.000000
     6  C    1.395071   2.416203   2.791089   2.416024   1.394747
     7  H    1.099587   2.165764   3.413506   3.889714   3.413627
     8  H    2.165594   1.099617   2.164310   3.412851   3.890664
     9  H    3.414467   2.166186   1.099851   2.166829   3.415934
    10  H    3.414242   3.890933   3.416212   2.167028   1.099886
    11  H    2.165591   3.413231   3.890693   3.412745   2.164340
    12  C    4.265322   3.766103   2.486432   1.475203   2.487188
    13  H    4.740696   4.231710   2.986402   2.117159   3.008019
    14  H    4.756387   3.989112   2.620639   2.126585   3.351970
    15  H    4.757947   4.510313   3.361129   2.127347   2.611340
                    6          7          8          9         10
     6  C    0.000000
     7  H    2.165693   0.000000
     8  H    3.413073   2.494838   0.000000
     9  H    3.890940   4.321959   2.494724   0.000000
    10  H    2.166097   4.321815   4.990550   4.323817   0.000000
    11  H    1.099604   2.495138   4.321021   4.990544   2.494167
    12  C    3.766808   5.364909   4.649127   2.702145   2.704038
    13  H    4.247141   5.817510   5.067357   3.098047   3.135885
    14  H    4.503066   5.833761   4.694282   2.420410   3.697191
    15  H    3.983984   5.835474   5.472741   3.710439   2.401506
                   11         12         13         14         15
    11  H    0.000000
    12  C    4.649880   0.000000
    13  H    5.090145   1.117726   0.000000
    14  H    5.462485   1.117573   1.827537   0.000000
    15  H    4.685360   1.117583   1.827642   1.828889   0.000000
 Stoichiometry    C7H8
 Framework group  C1[X(C7H8)]
 Deg. of freedom    39
 Full point group                 C1      NOp   1
 Largest Abelian subgroup         C1      NOp   1
 Largest concise Abelian subgroup C1      NOp   1
                         Standard orientation:                         
 ---------------------------------------------------------------------
 Center     Atomic      Atomic             Coordinates (Angstroms)
 Number     Number       Type             X           Y           Z
 ---------------------------------------------------------------------
      1          6           0       -1.883970   -0.000472    0.000989
      2          6           0       -1.185554   -1.208391    0.000276
      3          6           0        0.208942   -1.209323   -0.001440
      4          6           0        0.906155    0.000587   -0.002790
      5          6           0        0.208109    1.209799   -0.001483
      6          6           0       -1.186636    1.207811    0.000381
      7          1           0       -2.983556   -0.001031    0.001732
      8          1           0       -1.734939   -2.160932    0.000905
      9          1           0        0.759783   -2.161293   -0.001826
     10          1           0        0.757713    2.162524   -0.002069
     11          1           0       -1.736451    2.160088    0.000959
     12          6           0        2.381353    0.000209    0.001119
     13          1           0        2.736739   -0.025654    1.060526
     14          1           0        2.754436   -0.901693   -0.543262
     15          1           0        2.755879    0.926667   -0.499279
 ---------------------------------------------------------------------
 Rotational constants (GHZ):           5.4731120           2.5795019           1.7739137
 Standard basis: VSTO-6G (5D, 7F)
 There are    36 symmetry adapted cartesian basis functions of A   symmetry.
 There are    36 symmetry adapted basis functions of A   symmetry.
    36 basis functions,   216 primitive gaussians,    36 cartesian basis functions
    18 alpha electrons       18 beta electrons
       nuclear repulsion energy       157.2692289256 Hartrees.
 Integral buffers will be    131072 words long.
 Regular integral format.
 Two-electron integral symmetry is turned off.
 Do NDO integrals.
 One-electron integrals computed using PRISM.
 NBasis=    36 RedAO= F EigKep=  0.00D+00  NBF=    36
 NBsUse=    36 1.00D-04 EigRej=  0.00D+00 NBFU=    36
 Initial guess from the checkpoint file:  "toluene.chk"
 B after Tr=     0.000000   -0.000000    0.000000
         Rot=    1.000000   -0.000002    0.000162   -0.000077 Ang=  -0.02 deg.
 Keep J ints in memory in canonical form, NReq=862527.
 Overlap will be assumed to be unity.
 Requested convergence on RMS density matrix=1.00D-08 within 128 cycles.
 Requested convergence on MAX density matrix=1.00D-06.
 Requested convergence on             energy=1.00D-06.
 No special actions if energy rises.
 SCF Done:  E(RAM1) =  0.232824995687E-01 A.U. after   12 cycles
            NFock= 11  Conv=0.79D-08     -V/T= 1.0004
 Calling FoFJK, ICntrl=      2127 FMM=F ISym2X=0 I1Cent= 0 IOpClX= 0 NMat=1 NMatS=1 NMatT=0.
 ***** Axes restored to original set *****
 -------------------------------------------------------------------
 Center     Atomic                   Forces (Hartrees/Bohr)
 Number     Number              X              Y              Z
 -------------------------------------------------------------------
      1        6           0.000027690   -0.000080004    0.000023334
      2        6          -0.000033584    0.000096870    0.000103674
      3        6          -0.000850923   -0.005866278    0.000139568
      4        6          -0.000193438   -0.000325216   -0.000136737
      5        6          -0.004721124   -0.003724303    0.000138201
      6        6           0.000140779    0.000168730    0.000076859
      7        1           0.000022402    0.000043290   -0.000019745
      8        1           0.000017286   -0.000068886   -0.000015770
      9        1          -0.000040381   -0.000014340   -0.000077982
     10        1           0.000027324   -0.000049060   -0.000070024
     11        1          -0.000074688   -0.000036086   -0.000008552
     12        6          -0.000108650   -0.000016861   -0.001095526
     13        1           0.001776426    0.003095173   -0.000531411
     14        1           0.000999189    0.003963316    0.000752725
     15        1           0.003011691    0.002813656    0.000721388
 -------------------------------------------------------------------
 Cartesian Forces:  Max     0.005866278 RMS     0.001637220

 GradGradGradGradGradGradGradGradGradGradGradGradGradGradGradGradGradGrad
 Berny optimization.
 Using GEDIIS/GDIIS optimizer.
 FormGI is forming the generalized inverse of G from B-inverse, IUseBI=4.
 Internal  Forces:  Max     0.011374027 RMS     0.002178914
 Search for a local minimum.
 Step number   2 out of a maximum of   79
 All quantities printed in internal units (Hartrees-Bohrs-Radians)
 Mixed Optimization -- RFO/linear search
 Update second derivatives using D2CorX and points    1    2
 DE= -6.26D-03 DEPred=-7.24D-03 R= 8.64D-01
 TightC=F SS=  1.41D+00  RLast= 1.99D-01 DXNew= 5.0454D-01 5.9806D-01
 Trust test= 8.64D-01 RLast= 1.99D-01 DXMaxT set to 5.05D-01
 ITU=  1  0
 Use linear search instead of GDIIS.
     Eigenvalues ---    0.00237   0.01387   0.02152   0.02154   0.02154
     Eigenvalues ---    0.02155   0.02155   0.02155   0.02156   0.02157
     Eigenvalues ---    0.07241   0.07345   0.15692   0.16000   0.16000
     Eigenvalues ---    0.16000   0.16000   0.16000   0.16000   0.16034
     Eigenvalues ---    0.22000   0.22000   0.23252   0.25000   0.31297
     Eigenvalues ---    0.33708   0.33717   0.33720   0.33725   0.33726
     Eigenvalues ---    0.37141   0.37230   0.37672   0.42126   0.44036
     Eigenvalues ---    0.46436   0.46453   0.46487   0.47540
 RFO step:  Lambda=-1.01928165D-03 EMin= 2.36824298D-03
 Quartic linear search produced a step of -0.09248.
 Iteration  1 RMS(Cart)=  0.01887715 RMS(Int)=  0.00017385
 Iteration  2 RMS(Cart)=  0.00013628 RMS(Int)=  0.00008838
 Iteration  3 RMS(Cart)=  0.00000002 RMS(Int)=  0.00008838
 Variable       Old X    -DE/DX   Delta X   Delta X   Delta X     New X
                                 (Linear)    (Quad)   (Total)
    R1        2.63673  -0.00052  -0.00002  -0.00138  -0.00142   2.63531
    R2        2.63630  -0.00043  -0.00004  -0.00119  -0.00124   2.63506
    R3        2.07792  -0.00005   0.00000  -0.00014  -0.00013   2.07778
    R4        2.63522  -0.00004   0.00004  -0.00015  -0.00011   2.63510
    R5        2.07798   0.00007   0.00001   0.00017   0.00018   2.07815
    R6        2.63885   0.00510  -0.00017   0.01070   0.01054   2.64939
    R7        2.07842  -0.00004  -0.00003  -0.00005  -0.00008   2.07833
    R8        2.63850   0.00510  -0.00025   0.01079   0.01055   2.64905
    R9        2.78773   0.01137   0.01132   0.01519   0.02651   2.81424
   R10        2.63569  -0.00011   0.00007  -0.00035  -0.00028   2.63541
   R11        2.07848  -0.00006  -0.00002  -0.00011  -0.00013   2.07835
   R12        2.07795   0.00007   0.00000   0.00020   0.00020   2.07815
   R13        2.11220   0.00064  -0.00834   0.01683   0.00849   2.12069
   R14        2.11191   0.00004  -0.00831   0.01534   0.00703   2.11893
   R15        2.11193   0.00000  -0.00832   0.01525   0.00693   2.11886
    A1        2.09393   0.00014   0.00004  -0.00161  -0.00160   2.09233
    A2        2.09452  -0.00007  -0.00002   0.00081   0.00081   2.09533
    A3        2.09474  -0.00007  -0.00002   0.00080   0.00079   2.09553
    A4        2.09570   0.00060  -0.00011   0.00143   0.00132   2.09702
    A5        2.09420  -0.00032  -0.00001  -0.00071  -0.00071   2.09349
    A6        2.09328  -0.00028   0.00012  -0.00073  -0.00060   2.09268
    A7        2.09290   0.00155   0.00013   0.00669   0.00683   2.09974
    A8        2.09603  -0.00079  -0.00013  -0.00330  -0.00344   2.09258
    A9        2.09426  -0.00076   0.00000  -0.00339  -0.00339   2.09086
   A10        2.09528  -0.00445  -0.00009  -0.01466  -0.01474   2.08054
   A11        2.09331   0.00221   0.00007   0.00720   0.00724   2.10055
   A12        2.09459   0.00225   0.00002   0.00742   0.00742   2.10201
   A13        2.09291   0.00153   0.00014   0.00659   0.00674   2.09966
   A14        2.09481  -0.00077  -0.00002  -0.00339  -0.00341   2.09139
   A15        2.09546  -0.00077  -0.00012  -0.00320  -0.00333   2.09213
   A16        2.09565   0.00063  -0.00012   0.00156   0.00144   2.09709
   A17        2.09455  -0.00035  -0.00000  -0.00088  -0.00088   2.09367
   A18        2.09298  -0.00028   0.00012  -0.00068  -0.00056   2.09242
   A19        1.89702   0.00346   0.00126   0.01639   0.01742   1.91444
   A20        1.91001   0.00458   0.00006   0.02607   0.02580   1.93582
   A21        1.91105   0.00464  -0.00004   0.02658   0.02623   1.93727
   A22        1.91439  -0.00408  -0.00035  -0.02313  -0.02370   1.89070
   A23        1.91454  -0.00410  -0.00036  -0.02309  -0.02368   1.89086
   A24        1.91668  -0.00438  -0.00056  -0.02219  -0.02314   1.89354
    D1       -0.00033  -0.00000   0.00008  -0.00057  -0.00048  -0.00081
    D2        3.14144   0.00001  -0.00006   0.00021   0.00016   3.14159
    D3        3.14095  -0.00002   0.00010  -0.00080  -0.00070   3.14025
    D4       -0.00047  -0.00000  -0.00004  -0.00002  -0.00006  -0.00053
    D5        0.00045  -0.00000  -0.00002   0.00028   0.00026   0.00071
    D6       -3.14158  -0.00001  -0.00002   0.00018   0.00016  -3.14142
    D7       -3.14083   0.00001  -0.00004   0.00052   0.00048  -3.14035
    D8        0.00033   0.00001  -0.00004   0.00041   0.00037   0.00070
    D9       -0.00029   0.00001  -0.00007  -0.00001  -0.00007  -0.00035
   D10        3.14141   0.00001  -0.00004  -0.00004  -0.00008   3.14132
   D11        3.14114  -0.00001   0.00008  -0.00079  -0.00071   3.14043
   D12       -0.00036  -0.00001   0.00010  -0.00082  -0.00072  -0.00108
   D13        0.00078  -0.00002  -0.00002   0.00085   0.00082   0.00159
   D14        3.13712  -0.00014   0.00042  -0.00817  -0.00773   3.12938
   D15       -3.14092  -0.00001  -0.00004   0.00089   0.00083  -3.14008
   D16       -0.00458  -0.00013   0.00040  -0.00814  -0.00771  -0.01229
   D17       -0.00065   0.00001   0.00008  -0.00113  -0.00103  -0.00169
   D18        3.14109   0.00001   0.00005  -0.00108  -0.00101   3.14008
   D19       -3.13699   0.00013  -0.00036   0.00790   0.00752  -3.12947
   D20        0.00476   0.00013  -0.00039   0.00795   0.00754   0.01230
   D21       -1.54381   0.00008  -0.00024   0.00449   0.00429  -1.53952
   D22        0.54655  -0.00009   0.00014   0.00166   0.00176   0.54831
   D23        2.64822   0.00023  -0.00054   0.00693   0.00649   2.65471
   D24        1.59253  -0.00006   0.00020  -0.00460  -0.00443   1.58810
   D25       -2.60030  -0.00023   0.00057  -0.00743  -0.00696  -2.60725
   D26       -0.49862   0.00009  -0.00010  -0.00216  -0.00223  -0.50085
   D27        0.00004  -0.00000  -0.00006   0.00057   0.00050   0.00054
   D28       -3.14112   0.00000  -0.00006   0.00068   0.00061  -3.14051
   D29        3.14148   0.00000  -0.00003   0.00052   0.00048  -3.14122
   D30        0.00032   0.00001  -0.00003   0.00062   0.00059   0.00091
         Item               Value     Threshold  Converged?
 Maximum Force            0.011374     0.000450     NO 
 RMS     Force            0.002179     0.000300     NO 
 Maximum Displacement     0.075597     0.001800     NO 
 RMS     Displacement     0.018926     0.001200     NO 
 Predicted change in Energy=-5.780409D-04
 GradGradGradGradGradGradGradGradGradGradGradGradGradGradGradGradGradGrad

                          Input orientation:                          
 ---------------------------------------------------------------------
 Center     Atomic      Atomic             Coordinates (Angstroms)
 Number     Number       Type             X           Y           Z
 ---------------------------------------------------------------------
      1          6           0       -2.812857   -2.311905    0.008100
      2          6           0       -1.418314   -2.310292    0.005461
      3          6           0       -0.719343   -1.103713   -0.002268
      4          6           0       -1.412075    0.115175   -0.007866
      5          6           0       -2.813851    0.105299   -0.003650
      6          6           0       -3.508976   -1.103688    0.003970
      7          1           0       -3.362394   -3.264229    0.012922
      8          1           0       -0.868211   -3.262521    0.008714
      9          1           0        0.380456   -1.107313   -0.004065
     10          1           0       -3.367618    1.055525   -0.006527
     11          1           0       -4.608684   -1.103486    0.006209
     12          6           0       -0.666698    1.404427   -0.000434
     13          1           0       -0.458395    1.714642    1.057749
     14          1           0        0.312382    1.303824   -0.537627
     15          1           0       -1.262072    2.215586   -0.495160
 ---------------------------------------------------------------------
                    Distance matrix (angstroms):
                    1          2          3          4          5
     1  C    0.000000
     2  C    1.394546   0.000000
     3  C    2.417154   1.394436   0.000000
     4  C    2.802349   2.425511   1.401997   0.000000
     5  C    2.417233   2.789746   2.418403   1.401818   0.000000
     6  C    1.394414   2.413869   2.789640   2.425441   1.394598
     7  H    1.099516   2.165525   3.413763   3.901865   3.413926
     8  H    2.164559   1.099711   2.163963   3.421241   3.889457
     9  H    3.412981   2.163983   1.099807   2.169714   3.416728
    10  H    3.412853   3.889557   3.416970   2.169887   1.099816
    11  H    2.164550   3.410988   3.889350   3.421059   2.163951
    12  C    4.291526   3.789999   2.508693   1.489232   2.509584
    13  H    4.781039   4.269525   3.022392   2.145539   3.043802
    14  H    4.810242   4.043771   2.673444   2.160390   3.390417
    15  H    4.812108   4.556161   3.399300   2.161408   2.665130
                    6          7          8          9         10
     6  C    0.000000
     7  H    2.165527   0.000000
     8  H    3.410898   2.494187   0.000000
     9  H    3.889443   4.319896   2.490835   0.000000
    10  H    2.163860   4.319801   4.989267   4.327347   0.000000
    11  H    1.099710   2.494413   4.318863   4.989153   2.490329
    12  C    3.790673   5.391039   4.671305   2.721283   2.723369
    13  H    4.284796   5.857818   5.102997   3.129625   3.167128
    14  H    4.548870   5.888480   4.748031   2.470406   3.726408
    15  H    4.039219   5.890490   5.515313   3.739081   2.453126
                   11         12         13         14         15
    11  H    0.000000
    12  C    4.672143   0.000000
    13  H    5.125669   1.122220   0.000000
    14  H    5.505251   1.121291   1.818817   0.000000
    15  H    4.739982   1.121250   1.818892   1.819894   0.000000
 Stoichiometry    C7H8
 Framework group  C1[X(C7H8)]
 Deg. of freedom    39
 Full point group                 C1      NOp   1
 Largest Abelian subgroup         C1      NOp   1
 Largest concise Abelian subgroup C1      NOp   1
                         Standard orientation:                         
 ---------------------------------------------------------------------
 Center     Atomic      Atomic             Coordinates (Angstroms)
 Number     Number       Type             X           Y           Z
 ---------------------------------------------------------------------
      1          6           0       -1.891847   -0.000536    0.002781
      2          6           0       -1.192838   -1.207242    0.000938
      3          6           0        0.201589   -1.208889   -0.003788
      4          6           0        0.910485    0.000678   -0.007146
      5          6           0        0.200699    1.209515   -0.003746
      6          6           0       -1.193888    1.206627    0.000867
      7          1           0       -2.991360   -0.001092    0.005234
      8          1           0       -1.742182   -2.159914    0.002445
      9          1           0        0.748639   -2.162990   -0.004969
     10          1           0        0.746476    2.164357   -0.004885
     11          1           0       -1.743836    2.158948    0.002482
     12          6           0        2.399679    0.000197    0.003495
     13          1           0        2.770211   -0.025611    1.062465
     14          1           0        2.803501   -0.897584   -0.533358
     15          1           0        2.805285    0.921789   -0.489815
 ---------------------------------------------------------------------
 Rotational constants (GHZ):           5.4798759           2.5453871           1.7582272
 Standard basis: VSTO-6G (5D, 7F)
 There are    36 symmetry adapted cartesian basis functions of A   symmetry.
 There are    36 symmetry adapted basis functions of A   symmetry.
    36 basis functions,   216 primitive gaussians,    36 cartesian basis functions
    18 alpha electrons       18 beta electrons
       nuclear repulsion energy       156.9356399708 Hartrees.
 Integral buffers will be    131072 words long.
 Regular integral format.
 Two-electron integral symmetry is turned off.
 Do NDO integrals.
 One-electron integrals computed using PRISM.
 NBasis=    36 RedAO= F EigKep=  0.00D+00  NBF=    36
 NBsUse=    36 1.00D-04 EigRej=  0.00D+00 NBFU=    36
 Initial guess from the checkpoint file:  "toluene.chk"
 B after Tr=    -0.000000    0.000000   -0.000000
         Rot=    1.000000    0.000004    0.000127    0.000000 Ang=   0.01 deg.
 Keep J ints in memory in canonical form, NReq=862527.
 Overlap will be assumed to be unity.
 Requested convergence on RMS density matrix=1.00D-08 within 128 cycles.
 Requested convergence on MAX density matrix=1.00D-06.
 Requested convergence on             energy=1.00D-06.
 No special actions if energy rises.
 SCF Done:  E(RAM1) =  0.229040900312E-01 A.U. after   12 cycles
            NFock= 11  Conv=0.58D-08     -V/T= 1.0004
 Calling FoFJK, ICntrl=      2127 FMM=F ISym2X=0 I1Cent= 0 IOpClX= 0 NMat=1 NMatS=1 NMatT=0.
 ***** Axes restored to original set *****
 -------------------------------------------------------------------
 Center     Atomic                   Forces (Hartrees/Bohr)
 Number     Number              X              Y              Z
 -------------------------------------------------------------------
      1        6          -0.000132579   -0.000267128    0.000011474
      2        6           0.000513298    0.001137327   -0.000041422
      3        6          -0.001768786    0.001715327   -0.000067269
      4        6           0.002026725    0.003499812    0.000191478
      5        6           0.002338733   -0.000696844   -0.000077116
      6        6           0.000730489    0.001058416   -0.000014918
      7        1          -0.000009182   -0.000004131    0.000013301
      8        1           0.000126684    0.000013120    0.000015700
      9        1          -0.000000114    0.000259516   -0.000079926
     10        1           0.000241670    0.000139797   -0.000077870
     11        1          -0.000054411    0.000103103    0.000007053
     12        6          -0.002553606   -0.004399438   -0.000263289
     13        1          -0.000362362   -0.000518939   -0.002197576
     14        1          -0.002427831    0.000091842    0.001337653
     15        1           0.001331273   -0.002131780    0.001242728
 -------------------------------------------------------------------
 Cartesian Forces:  Max     0.004399438 RMS     0.001322020

 GradGradGradGradGradGradGradGradGradGradGradGradGradGradGradGradGradGrad
 Berny optimization.
 Using GEDIIS/GDIIS optimizer.
 FormGI is forming the generalized inverse of G from B-inverse, IUseBI=4.
 Internal  Forces:  Max     0.008031641 RMS     0.001268165
 Search for a local minimum.
 Step number   3 out of a maximum of   79
 All quantities printed in internal units (Hartrees-Bohrs-Radians)
 Mixed Optimization -- RFO/linear search
 Update second derivatives using D2CorX and points    1    2    3
 DE= -3.78D-04 DEPred=-5.78D-04 R= 6.55D-01
 TightC=F SS=  1.41D+00  RLast= 7.25D-02 DXNew= 8.4853D-01 2.1762D-01
 Trust test= 6.55D-01 RLast= 7.25D-02 DXMaxT set to 5.05D-01
 ITU=  1  1  0
 Use linear search instead of GDIIS.
     Eigenvalues ---    0.00237   0.01380   0.02148   0.02154   0.02154
     Eigenvalues ---    0.02155   0.02155   0.02155   0.02156   0.02157
     Eigenvalues ---    0.06936   0.07110   0.12819   0.16000   0.16000
     Eigenvalues ---    0.16000   0.16000   0.16000   0.16005   0.16047
     Eigenvalues ---    0.21998   0.22000   0.22907   0.24998   0.33708
     Eigenvalues ---    0.33717   0.33720   0.33725   0.33725   0.37149
     Eigenvalues ---    0.37230   0.37698   0.40469   0.42104   0.44868
     Eigenvalues ---    0.46422   0.46445   0.46468   0.60417
 RFO step:  Lambda=-1.11692598D-04 EMin= 2.36824062D-03
 Quartic linear search produced a step of -0.25255.
 Iteration  1 RMS(Cart)=  0.00439138 RMS(Int)=  0.00002129
 Iteration  2 RMS(Cart)=  0.00000530 RMS(Int)=  0.00002085
 Iteration  3 RMS(Cart)=  0.00000000 RMS(Int)=  0.00002085
 Variable       Old X    -DE/DX   Delta X   Delta X   Delta X     New X
                                 (Linear)    (Quad)   (Total)
    R1        2.63531   0.00002   0.00036  -0.00026   0.00010   2.63541
    R2        2.63506   0.00003   0.00031  -0.00018   0.00014   2.63520
    R3        2.07778   0.00001   0.00003  -0.00003   0.00000   2.07779
    R4        2.63510  -0.00117   0.00003  -0.00188  -0.00185   2.63325
    R5        2.07815   0.00005  -0.00004   0.00018   0.00013   2.07829
    R6        2.64939  -0.00314  -0.00266  -0.00133  -0.00400   2.64539
    R7        2.07833  -0.00000   0.00002  -0.00004  -0.00001   2.07832
    R8        2.64905  -0.00314  -0.00267  -0.00131  -0.00398   2.64507
    R9        2.81424  -0.00803  -0.00670  -0.00967  -0.01637   2.79787
   R10        2.63541  -0.00119   0.00007  -0.00198  -0.00191   2.63350
   R11        2.07835  -0.00000   0.00003  -0.00005  -0.00002   2.07833
   R12        2.07815   0.00005  -0.00005   0.00019   0.00014   2.07829
   R13        2.12069  -0.00228  -0.00214  -0.00231  -0.00445   2.11624
   R14        2.11893  -0.00277  -0.00177  -0.00380  -0.00558   2.11335
   R15        2.11886  -0.00280  -0.00175  -0.00390  -0.00565   2.11321
    A1        2.09233  -0.00064   0.00040  -0.00166  -0.00126   2.09107
    A2        2.09533   0.00033  -0.00020   0.00086   0.00066   2.09599
    A3        2.09553   0.00031  -0.00020   0.00080   0.00060   2.09612
    A4        2.09702  -0.00028  -0.00033   0.00009  -0.00024   2.09678
    A5        2.09349   0.00026   0.00018   0.00048   0.00066   2.09415
    A6        2.09268   0.00002   0.00015  -0.00057  -0.00042   2.09226
    A7        2.09974   0.00006  -0.00173   0.00226   0.00053   2.10027
    A8        2.09258   0.00024   0.00087   0.00009   0.00096   2.09355
    A9        2.09086  -0.00030   0.00086  -0.00236  -0.00150   2.08937
   A10        2.08054   0.00108   0.00372  -0.00307   0.00065   2.08119
   A11        2.10055  -0.00051  -0.00183   0.00159  -0.00024   2.10031
   A12        2.10201  -0.00056  -0.00187   0.00150  -0.00037   2.10164
   A13        2.09966   0.00006  -0.00170   0.00225   0.00054   2.10020
   A14        2.09139  -0.00032   0.00086  -0.00247  -0.00161   2.08979
   A15        2.09213   0.00026   0.00084   0.00022   0.00106   2.09320
   A16        2.09709  -0.00028  -0.00036   0.00012  -0.00024   2.09685
   A17        2.09367   0.00025   0.00022   0.00036   0.00059   2.09426
   A18        2.09242   0.00003   0.00014  -0.00049  -0.00035   2.09207
   A19        1.91444   0.00029  -0.00440   0.00782   0.00348   1.91792
   A20        1.93582  -0.00021  -0.00652   0.00823   0.00179   1.93761
   A21        1.93727  -0.00027  -0.00662   0.00806   0.00151   1.93878
   A22        1.89070  -0.00001   0.00598  -0.00858  -0.00254   1.88815
   A23        1.89086   0.00001   0.00598  -0.00859  -0.00255   1.88831
   A24        1.89354   0.00020   0.00584  -0.00789  -0.00195   1.89159
    D1       -0.00081   0.00003   0.00012   0.00101   0.00114   0.00033
    D2        3.14159   0.00002  -0.00004   0.00108   0.00104  -3.14055
    D3        3.14025   0.00001   0.00018   0.00005   0.00023   3.14048
    D4       -0.00053   0.00000   0.00002   0.00012   0.00014  -0.00039
    D5        0.00071  -0.00003  -0.00007  -0.00096  -0.00103  -0.00031
    D6       -3.14142  -0.00003  -0.00004  -0.00116  -0.00120   3.14057
    D7       -3.14035  -0.00001  -0.00012   0.00000  -0.00012  -3.14047
    D8        0.00070  -0.00001  -0.00009  -0.00020  -0.00029   0.00041
    D9       -0.00035   0.00001   0.00002   0.00078   0.00080   0.00044
   D10        3.14132   0.00003   0.00002   0.00116   0.00118  -3.14068
   D11        3.14043   0.00002   0.00018   0.00071   0.00089   3.14132
   D12       -0.00108   0.00003   0.00018   0.00109   0.00127   0.00020
   D13        0.00159  -0.00006  -0.00021  -0.00261  -0.00281  -0.00122
   D14        3.12938   0.00001   0.00195  -0.00086   0.00109   3.13047
   D15       -3.14008  -0.00007  -0.00021  -0.00299  -0.00319   3.13991
   D16       -0.01229  -0.00001   0.00195  -0.00124   0.00070  -0.01159
   D17       -0.00169   0.00006   0.00026   0.00266   0.00292   0.00123
   D18        3.14008   0.00007   0.00026   0.00292   0.00317  -3.13994
   D19       -3.12947  -0.00000  -0.00190   0.00091  -0.00098  -3.13045
   D20        0.01230   0.00001  -0.00190   0.00117  -0.00073   0.01157
   D21       -1.53952  -0.00005  -0.00108  -0.00102  -0.00211  -1.54164
   D22        0.54831  -0.00000  -0.00045  -0.00147  -0.00190   0.54641
   D23        2.65471  -0.00007  -0.00164  -0.00048  -0.00214   2.65257
   D24        1.58810   0.00003   0.00112   0.00071   0.00183   1.58993
   D25       -2.60725   0.00008   0.00176   0.00027   0.00205  -2.60521
   D26       -0.50085   0.00001   0.00056   0.00125   0.00181  -0.49905
   D27        0.00054  -0.00002  -0.00013  -0.00089  -0.00102  -0.00047
   D28       -3.14051  -0.00002  -0.00015  -0.00069  -0.00084  -3.14135
   D29       -3.14122  -0.00003  -0.00012  -0.00115  -0.00127   3.14070
   D30        0.00091  -0.00003  -0.00015  -0.00095  -0.00110  -0.00018
         Item               Value     Threshold  Converged?
 Maximum Force            0.008032     0.000450     NO 
 RMS     Force            0.001268     0.000300     NO 
 Maximum Displacement     0.016321     0.001800     NO 
 RMS     Displacement     0.004395     0.001200     NO 
 Predicted change in Energy=-1.035702D-04
 GradGradGradGradGradGradGradGradGradGradGradGradGradGradGradGradGradGrad

                          Input orientation:                          
 ---------------------------------------------------------------------
 Center     Atomic      Atomic             Coordinates (Angstroms)
 Number     Number       Type             X           Y           Z
 ---------------------------------------------------------------------
      1          6           0       -2.811845   -2.310139    0.008608
      2          6           0       -1.417253   -2.307691    0.005324
      3          6           0       -0.719783   -1.101376   -0.002190
      4          6           0       -1.411834    0.115472   -0.005960
      5          6           0       -2.811511    0.106087   -0.003581
      6          6           0       -3.507210   -1.101404    0.003955
      7          1           0       -3.361437   -3.262433    0.013483
      8          1           0       -0.865918   -3.259291    0.007985
      9          1           0        0.380010   -1.103003   -0.005631
     10          1           0       -3.363419    1.057376   -0.008088
     11          1           0       -4.606992   -1.099841    0.005548
     12          6           0       -0.670845    1.397260    0.000267
     13          1           0       -0.460902    1.710819    1.054639
     14          1           0        0.305824    1.298546   -0.535509
     15          1           0       -1.263536    2.206950   -0.493323
 ---------------------------------------------------------------------
                    Distance matrix (angstroms):
                    1          2          3          4          5
     1  C    0.000000
     2  C    1.394597   0.000000
     3  C    2.416185   1.393455   0.000000
     4  C    2.800684   2.423195   1.399881   0.000000
     5  C    2.416257   2.787536   2.415221   1.399710   0.000000
     6  C    1.394487   2.413099   2.787434   2.423115   1.393589
     7  H    1.099517   2.165975   3.413027   3.900201   3.413156
     8  H    2.165069   1.099783   2.162882   3.418661   3.887317
     9  H    3.412523   2.163688   1.099799   2.166884   3.412874
    10  H    3.412429   3.887340   3.413071   2.166996   1.099806
    11  H    2.165037   3.410768   3.887218   3.418502   2.162892
    12  C    4.281210   3.779393   2.499117   1.480569   2.499918
    13  H    4.773805   4.261935   3.015352   2.138756   3.036504
    14  H    4.799846   4.033167   2.663817   2.151844   3.379745
    15  H    4.801384   4.544695   3.388495   2.152625   2.655126
                    6          7          8          9         10
     6  C    0.000000
     7  H    2.165960   0.000000
     8  H    3.410706   2.495527   0.000000
     9  H    3.887232   4.319945   2.490401   0.000000
    10  H    2.163598   4.319863   4.987122   4.322095   0.000000
    11  H    1.099785   2.495651   4.319592   4.987016   2.490030
    12  C    3.779987   5.380725   4.660642   2.712130   2.713953
    13  H    4.276977   5.850670   5.095245   3.122324   3.159269
    14  H    4.537621   5.878156   4.737324   2.460429   3.714791
    15  H    4.028221   5.879811   5.503562   3.727583   2.442637
                   11         12         13         14         15
    11  H    0.000000
    12  C    4.661416   0.000000
    13  H    5.117662   1.119865   0.000000
    14  H    5.493702   1.118339   1.812846   0.000000
    15  H    4.728894   1.118262   1.812885   1.813799   0.000000
 Stoichiometry    C7H8
 Framework group  C1[X(C7H8)]
 Deg. of freedom    39
 Full point group                 C1      NOp   1
 Largest Abelian subgroup         C1      NOp   1
 Largest concise Abelian subgroup C1      NOp   1
                         Standard orientation:                         
 ---------------------------------------------------------------------
 Center     Atomic      Atomic             Coordinates (Angstroms)
 Number     Number       Type             X           Y           Z
 ---------------------------------------------------------------------
      1          6           0       -1.890155   -0.000484    0.003299
      2          6           0       -1.190418   -1.206827    0.000717
      3          6           0        0.203029   -1.207329   -0.004029
      4          6           0        0.910515    0.000616   -0.005704
      5          6           0        0.202229    1.207892   -0.004042
      6          6           0       -1.191351    1.206272    0.000723
      7          1           0       -2.989669   -0.000959    0.005989
      8          1           0       -1.738614   -2.160242    0.001744
      9          1           0        0.751772   -2.160446   -0.006923
     10          1           0        0.749874    2.161649   -0.006917
     11          1           0       -1.740140    2.159349    0.001771
     12          6           0        2.391055    0.000177    0.003465
     13          1           0        2.765487   -0.025363    1.058570
     14          1           0        2.795198   -0.894589   -0.532019
     15          1           0        2.796661    0.918695   -0.488795
 ---------------------------------------------------------------------
 Rotational constants (GHZ):           5.4891815           2.5564280           1.7643170
 Standard basis: VSTO-6G (5D, 7F)
 There are    36 symmetry adapted cartesian basis functions of A   symmetry.
 There are    36 symmetry adapted basis functions of A   symmetry.
    36 basis functions,   216 primitive gaussians,    36 cartesian basis functions
    18 alpha electrons       18 beta electrons
       nuclear repulsion energy       157.0776316584 Hartrees.
 Integral buffers will be    131072 words long.
 Regular integral format.
 Two-electron integral symmetry is turned off.
 Do NDO integrals.
 One-electron integrals computed using PRISM.
 NBasis=    36 RedAO= F EigKep=  0.00D+00  NBF=    36
 NBsUse=    36 1.00D-04 EigRej=  0.00D+00 NBFU=    36
 Initial guess from the checkpoint file:  "toluene.chk"
 B after Tr=    -0.000000    0.000000   -0.000000
         Rot=    1.000000    0.000003   -0.000029    0.000011 Ang=   0.00 deg.
 Keep J ints in memory in canonical form, NReq=862527.
 Overlap will be assumed to be unity.
 Requested convergence on RMS density matrix=1.00D-08 within 128 cycles.
 Requested convergence on MAX density matrix=1.00D-06.
 Requested convergence on             energy=1.00D-06.
 No special actions if energy rises.
 SCF Done:  E(RAM1) =  0.228012576533E-01 A.U. after   11 cycles
            NFock= 10  Conv=0.42D-08     -V/T= 1.0004
 Calling FoFJK, ICntrl=      2127 FMM=F ISym2X=0 I1Cent= 0 IOpClX= 0 NMat=1 NMatS=1 NMatT=0.
 ***** Axes restored to original set *****
 -------------------------------------------------------------------
 Center     Atomic                   Forces (Hartrees/Bohr)
 Number     Number              X              Y              Z
 -------------------------------------------------------------------
      1        6          -0.000193630   -0.000356276   -0.000043289
      2        6           0.000146142   -0.000180289    0.000009185
      3        6           0.000145081   -0.000164594    0.000038523
      4        6           0.000130770    0.000178084   -0.000137943
      5        6          -0.000243020    0.000031573    0.000043094
      6        6          -0.000233963    0.000056282    0.000007684
      7        1           0.000017540    0.000037165    0.000023044
      8        1           0.000027174   -0.000033078    0.000005106
      9        1           0.000173274    0.000039757   -0.000028272
     10        1          -0.000047879    0.000176529   -0.000028543
     11        1          -0.000042339    0.000000251    0.000004539
     12        6           0.000321379    0.000561565    0.000013045
     13        1          -0.000027626   -0.000039655   -0.000236713
     14        1          -0.000270728   -0.000044309    0.000173618
     15        1           0.000097826   -0.000263006    0.000156923
 -------------------------------------------------------------------
 Cartesian Forces:  Max     0.000561565 RMS     0.000164391

 GradGradGradGradGradGradGradGradGradGradGradGradGradGradGradGradGradGrad
 Berny optimization.
 Using GEDIIS/GDIIS optimizer.
 FormGI is forming the generalized inverse of G from B-inverse, IUseBI=4.
 Internal  Forces:  Max     0.000406536 RMS     0.000127610
 Search for a local minimum.
 Step number   4 out of a maximum of   79
 All quantities printed in internal units (Hartrees-Bohrs-Radians)
 Mixed Optimization -- En-DIIS/RFO-DIIS
 Update second derivatives using D2CorX and points    1    2    3    4
 DE= -1.03D-04 DEPred=-1.04D-04 R= 9.93D-01
 TightC=F SS=  1.41D+00  RLast= 2.27D-02 DXNew= 8.4853D-01 6.7957D-02
 Trust test= 9.93D-01 RLast= 2.27D-02 DXMaxT set to 5.05D-01
 ITU=  1  1  1  0
 Use linear search instead of GDIIS.
     Eigenvalues ---    0.00237   0.01380   0.02145   0.02154   0.02154
     Eigenvalues ---    0.02155   0.02155   0.02155   0.02156   0.02157
     Eigenvalues ---    0.06917   0.07079   0.13516   0.15997   0.16000
     Eigenvalues ---    0.16000   0.16000   0.16000   0.16001   0.16030
     Eigenvalues ---    0.21995   0.22000   0.22911   0.24999   0.33666
     Eigenvalues ---    0.33713   0.33720   0.33725   0.33726   0.37128
     Eigenvalues ---    0.37230   0.37484   0.38351   0.42098   0.44603
     Eigenvalues ---    0.46440   0.46458   0.46527   0.64254
 RFO step:  Lambda=-2.79441433D-06 EMin= 2.36823118D-03
 Quartic linear search produced a step of -0.01688.
 Iteration  1 RMS(Cart)=  0.00059129 RMS(Int)=  0.00000021
 Iteration  2 RMS(Cart)=  0.00000021 RMS(Int)=  0.00000006
 Variable       Old X    -DE/DX   Delta X   Delta X   Delta X     New X
                                 (Linear)    (Quad)   (Total)
    R1        2.63541   0.00034  -0.00000   0.00072   0.00071   2.63612
    R2        2.63520   0.00034  -0.00000   0.00073   0.00073   2.63592
    R3        2.07779  -0.00004  -0.00000  -0.00012  -0.00012   2.07767
    R4        2.63325   0.00028   0.00003   0.00053   0.00056   2.63381
    R5        2.07829   0.00004  -0.00000   0.00012   0.00012   2.07841
    R6        2.64539   0.00038   0.00007   0.00060   0.00067   2.64606
    R7        2.07832   0.00017   0.00000   0.00050   0.00050   2.07882
    R8        2.64507   0.00041   0.00007   0.00065   0.00071   2.64578
    R9        2.79787   0.00025   0.00028   0.00009   0.00037   2.79824
   R10        2.63350   0.00027   0.00003   0.00052   0.00055   2.63405
   R11        2.07833   0.00018   0.00000   0.00051   0.00051   2.07884
   R12        2.07829   0.00004  -0.00000   0.00012   0.00012   2.07841
   R13        2.11624  -0.00024   0.00008  -0.00081  -0.00073   2.11550
   R14        2.11335  -0.00032   0.00009  -0.00103  -0.00093   2.11242
   R15        2.11321  -0.00031   0.00010  -0.00102  -0.00092   2.11229
    A1        2.09107  -0.00001   0.00002  -0.00009  -0.00007   2.09101
    A2        2.09599   0.00001  -0.00001   0.00007   0.00006   2.09604
    A3        2.09612   0.00000  -0.00001   0.00002   0.00001   2.09614
    A4        2.09678   0.00002   0.00000   0.00005   0.00006   2.09684
    A5        2.09415  -0.00000  -0.00001   0.00003   0.00002   2.09417
    A6        2.09226  -0.00002   0.00001  -0.00009  -0.00008   2.09218
    A7        2.10027   0.00000  -0.00001  -0.00002  -0.00003   2.10024
    A8        2.09355   0.00004  -0.00002   0.00030   0.00028   2.09383
    A9        2.08937  -0.00004   0.00003  -0.00028  -0.00026   2.08911
   A10        2.08119  -0.00003  -0.00001   0.00003   0.00002   2.08121
   A11        2.10031   0.00003   0.00000   0.00002   0.00003   2.10034
   A12        2.10164   0.00001   0.00001  -0.00006  -0.00006   2.10158
   A13        2.10020   0.00001  -0.00001  -0.00001  -0.00002   2.10019
   A14        2.08979  -0.00005   0.00003  -0.00033  -0.00031   2.08948
   A15        2.09320   0.00005  -0.00002   0.00034   0.00032   2.09352
   A16        2.09685   0.00001   0.00000   0.00003   0.00004   2.09689
   A17        2.09426  -0.00001  -0.00001   0.00000  -0.00001   2.09425
   A18        2.09207  -0.00001   0.00001  -0.00003  -0.00003   2.09205
   A19        1.91792   0.00008  -0.00006   0.00041   0.00035   1.91826
   A20        1.93761  -0.00008  -0.00003  -0.00067  -0.00070   1.93691
   A21        1.93878  -0.00009  -0.00003  -0.00074  -0.00077   1.93801
   A22        1.88815   0.00000   0.00004   0.00013   0.00017   1.88833
   A23        1.88831   0.00001   0.00004   0.00017   0.00021   1.88852
   A24        1.89159   0.00010   0.00003   0.00075   0.00078   1.89237
    D1        0.00033  -0.00000  -0.00002  -0.00008  -0.00010   0.00022
    D2       -3.14055  -0.00000  -0.00002  -0.00021  -0.00023  -3.14078
    D3        3.14048   0.00001  -0.00000   0.00053   0.00053   3.14101
    D4       -0.00039   0.00001  -0.00000   0.00041   0.00041   0.00001
    D5       -0.00031   0.00000   0.00002   0.00006   0.00008  -0.00023
    D6        3.14057   0.00000   0.00002   0.00020   0.00022   3.14079
    D7       -3.14047  -0.00001   0.00000  -0.00055  -0.00055  -3.14102
    D8        0.00041  -0.00001   0.00000  -0.00042  -0.00041  -0.00000
    D9        0.00044   0.00000  -0.00001   0.00005   0.00004   0.00048
   D10       -3.14068   0.00001  -0.00002   0.00033   0.00031  -3.14037
   D11        3.14132   0.00000  -0.00002   0.00018   0.00016   3.14148
   D12        0.00020   0.00001  -0.00002   0.00046   0.00043   0.00063
   D13       -0.00122  -0.00000   0.00005  -0.00000   0.00005  -0.00117
   D14        3.13047  -0.00002  -0.00002  -0.00106  -0.00107   3.12940
   D15        3.13991  -0.00001   0.00005  -0.00028  -0.00022   3.13969
   D16       -0.01159  -0.00002  -0.00001  -0.00133  -0.00134  -0.01293
   D17        0.00123   0.00000  -0.00005  -0.00002  -0.00007   0.00116
   D18       -3.13994   0.00001  -0.00005   0.00028   0.00023  -3.13971
   D19       -3.13045   0.00002   0.00002   0.00104   0.00105  -3.12940
   D20        0.01157   0.00002   0.00001   0.00134   0.00135   0.01292
   D21       -1.54164   0.00001   0.00004   0.00017   0.00020  -1.54143
   D22        0.54641   0.00001   0.00003   0.00017   0.00020   0.54661
   D23        2.65257   0.00001   0.00004   0.00017   0.00020   2.65277
   D24        1.58993  -0.00001  -0.00003  -0.00090  -0.00093   1.58900
   D25       -2.60521  -0.00001  -0.00003  -0.00089  -0.00093  -2.60614
   D26       -0.49905  -0.00001  -0.00003  -0.00090  -0.00093  -0.49998
   D27       -0.00047  -0.00000   0.00002  -0.00001   0.00001  -0.00047
   D28       -3.14135  -0.00000   0.00001  -0.00015  -0.00013  -3.14149
   D29        3.14070  -0.00001   0.00002  -0.00032  -0.00030   3.14040
   D30       -0.00018  -0.00001   0.00002  -0.00045  -0.00043  -0.00062
         Item               Value     Threshold  Converged?
 Maximum Force            0.000407     0.000450     YES
 RMS     Force            0.000128     0.000300     YES
 Maximum Displacement     0.001902     0.001800     NO 
 RMS     Displacement     0.000591     0.001200     YES
 Predicted change in Energy=-1.428587D-06
 GradGradGradGradGradGradGradGradGradGradGradGradGradGradGradGradGradGrad

                          Input orientation:                          
 ---------------------------------------------------------------------
 Center     Atomic      Atomic             Coordinates (Angstroms)
 Number     Number       Type             X           Y           Z
 ---------------------------------------------------------------------
      1          6           0       -2.812065   -2.310511    0.008648
      2          6           0       -1.417096   -2.308026    0.005201
      3          6           0       -0.719442   -1.101475   -0.002671
      4          6           0       -1.411669    0.115679   -0.006591
      5          6           0       -2.811724    0.106323   -0.003943
      6          6           0       -3.507573   -1.101415    0.003923
      7          1           0       -3.361652   -3.262732    0.014308
      8          1           0       -0.865680   -3.259653    0.008134
      9          1           0        0.380614   -1.102824   -0.006535
     10          1           0       -3.363455    1.058026   -0.008788
     11          1           0       -4.607419   -1.099815    0.005854
     12          6           0       -0.670626    1.397655    0.000632
     13          1           0       -0.461226    1.710984    1.054768
     14          1           0        0.305782    1.298492   -0.534502
     15          1           0       -1.263420    2.206623   -0.492908
 ---------------------------------------------------------------------
                    Distance matrix (angstroms):
                    1          2          3          4          5
     1  C    0.000000
     2  C    1.394975   0.000000
     3  C    2.416809   1.393753   0.000000
     4  C    2.801381   2.423739   1.400235   0.000000
     5  C    2.416867   2.788216   2.415868   1.400088   0.000000
     6  C    1.394871   2.413711   2.788138   2.423683   1.393879
     7  H    1.099456   2.166298   3.413590   3.900837   3.413691
     8  H    2.165476   1.099847   2.163154   3.419238   3.888062
     9  H    3.413494   2.164350   1.100064   2.167263   3.413659
    10  H    3.413411   3.888291   3.413837   2.167369   1.100077
    11  H    2.165431   3.411442   3.887987   3.419123   2.163190
    12  C    4.282092   3.780120   2.499609   1.480763   2.500371
    13  H    4.774226   4.262361   3.015756   2.138885   3.036552
    14  H    4.800092   4.033182   2.663413   2.151134   3.379586
    15  H    4.801496   4.544644   3.388179   2.151867   2.654730
                    6          7          8          9         10
     6  C    0.000000
     7  H    2.166262   0.000000
     8  H    3.411394   2.495982   0.000000
     9  H    3.888201   4.320902   2.491060   0.000000
    10  H    2.164282   4.320819   4.988138   4.322884   0.000000
    11  H    1.099850   2.496040   4.320361   4.988050   2.490771
    12  C    3.780691   5.381543   4.661397   2.712480   2.714178
    13  H    4.277160   5.850888   5.095711   3.122911   3.159184
    14  H    4.537745   5.878438   4.737453   2.459810   3.714499
    15  H    4.028173   5.879940   5.503583   3.727177   2.442088
[...]
   xxx       -0.562522D+01     -0.485975D-01     -0.180365D-01
   xxy       -0.245585D+02     -0.212166D+00     -0.787434D-01
   yxy       -0.521688D+02     -0.450698D+00     -0.167272D+00
   yyy       -0.735604D+02     -0.635504D+00     -0.235861D+00
   xxz       -0.950713D+01     -0.821342D-01     -0.304833D-01
   yxz        0.276301D+01      0.238703D-01      0.885921D-02
   yyz       -0.632434D+01     -0.546373D-01     -0.202781D-01
   zxz        0.923432D+01      0.797773D-01      0.296086D-01
   zyz        0.142044D+02      0.122715D+00      0.455446D-01
   zzz        0.166228D+02      0.143608D+00      0.532989D-01

 ----------------------------------------------------------------------

 Dipole orientation:
     6         -2.53667904          0.35829502         -6.38279570
     6         -0.47536282         -0.61478286         -5.05869965
     6         -0.28569799         -0.25476978         -2.45651186
     6         -2.15951288          1.08301933         -1.15237520
     6         -4.22275384          2.05618757         -2.49258027
     6         -4.40891296          1.69409170         -5.09497315
     1         -2.68435327          0.07435107         -8.43566732
     1          1.00486118         -1.66768459         -6.06871099
     1          1.34324305         -1.02257816         -1.41799698
     1         -5.70168394          3.11244408         -1.48328414
     1         -6.03589002          2.46504160         -6.13342870
     6         -1.97308271          1.44058504          1.61665285
     1         -2.88237216         -0.18722891          2.61603930
     1          0.04514553          1.54762405          2.23115635
     1         -2.94953229          3.21387820          2.21975110

 Electric dipole moment (dipole orientation):
 (Debye = 10**-18 statcoulomb cm , SI units = C m)
                  (au)            (Debye)         (10**-30 SI)
   Tot        0.104312D+00      0.265135D+00      0.884394D+00
   x          0.000000D+00      0.000000D+00      0.000000D+00
   y          0.000000D+00      0.000000D+00      0.000000D+00
   z          0.104312D+00      0.265135D+00      0.884394D+00

 Dipole polarizability, Alpha (dipole orientation).
 (esu units = cm**3 , SI units = C**2 m**2 J**-1)
 Alpha(0;0):
               (au)            (10**-24 esu)      (10**-40 SI)
   iso        0.584339D+02      0.865900D+01      0.963444D+01
   aniso      0.619775D+02      0.918412D+01      0.102187D+02
   xx         0.603200D+02      0.893850D+01      0.994542D+01
   yx        -0.244508D+02     -0.362323D+01     -0.403139D+01
   yy         0.331735D+02      0.491581D+01      0.546958D+01
   zx         0.475164D+01      0.704120D+00      0.783439D+00
   zy         0.812327D+01      0.120374D+01      0.133935D+01
   zz         0.818081D+02      0.121227D+02      0.134883D+02

 First dipole hyperpolarizability, Beta (dipole orientation).
 ||, _|_  parallel and perpendicular components, (z) with respect to z axis,
 vector components x,y,z.  Values do not include the 1/n! factor of 1/2.
 (esu units = statvolt**-1 cm**4 , SI units = C**3 m**3 J**-2)
 Beta(0;0,0):
               (au)            (10**-30 esu)      (10**-50 SI)
   || (z)    -0.574520D+02     -0.496340D+00     -0.184212D+00
   _|_(z)    -0.191507D+02     -0.165447D+00     -0.614040D-01
   x         -0.213982D+02     -0.184864D+00     -0.686104D-01
   y         -0.403303D+02     -0.348422D+00     -0.129313D+00
   z         -0.287260D+03     -0.248170D+01     -0.921059D+00
   ||         0.581731D+02      0.502570D+00      0.186524D+00
   xxx        0.127355D+02      0.110025D+00      0.408346D-01
   xxy        0.133577D+01      0.115400D-01      0.428296D-02
   yxy       -0.110591D+02     -0.955422D-01     -0.354595D-01
   yyy        0.182201D+01      0.157407D-01      0.584202D-02
   xxz        0.990411D+01      0.855638D-01      0.317561D-01
   yxz        0.405594D+01      0.350401D-01      0.130048D-01
   yyz        0.142928D+02      0.123479D+00      0.458279D-01
   zxz       -0.880910D+01     -0.761038D-01     -0.282452D-01
   zyz       -0.166012D+02     -0.143422D+00     -0.532295D-01
   zzz       -0.119950D+03     -0.103628D+01     -0.384604D+00

 ----------------------------------------------------------------------
 1\1\GINC-IISERK51\Freq\RAM1\ZDO\C7H8\GAUSSIAN\12-Jun-2025\0\\#N Geom=A
 llCheck Guess=TCheck SCRF=Check GenChk RAM1/ZDO Freq\\Title Card Requi
 red\\0,1\C,-2.8120649533,-2.3105107937,0.0086476893\C,-1.4170961096,-2
 .3080256104,0.0052008098\C,-0.7194421096,-1.1014749271,-0.002670926\C,
 -1.4116692143,0.1156789576,-0.0065912911\C,-2.8117236786,0.1063230921,
 -0.0039427885\C,-3.5075726102,-1.1014149338,0.0039226942\H,-3.36165227
 12,-3.2627317271,0.0143077618\H,-0.8656796027,-3.2596532117,0.00813356
 58\H,0.3806143381,-1.1028236506,-0.0065353466\H,-3.3634550617,1.058025
 599,-0.0087883662\H,-4.6074194925,-1.0998152273,0.0058537689\C,-0.6706
 263279,1.3976547062,0.0006318015\H,-0.461225562,1.7109844403,1.0547683
 724\H,0.3057824752,1.2984917967,-0.5345024206\H,-1.2634204199,2.206623
 4399,-0.4929084446\\Version=EM64L-G16RevB.01\State=1-A\HF=0.0228002\RM
 SD=3.097e-10\RMSF=7.583e-05\ZeroPoint=0.1301094\Thermal=0.1363058\Dipo
 le=0.052275,0.0889245,0.0155166\DipoleDeriv=-0.1654573,0.0408319,-0.00
 1574,0.040632,-0.1184296,-0.0026573,-0.0002584,-0.000409,-0.151803,-0.
 0893068,-0.0378754,-0.0013661,-0.0072869,-0.076638,0.0037278,0.0026438
 ,-0.0014433,-0.1342885,-0.0725094,-0.005718,0.0036751,-0.0646223,-0.19
 84563,-0.0031295,-0.0036094,0.0002594,-0.1574145,-0.0880585,0.1564024,
 0.0062201,0.1552991,0.0893099,0.0108873,0.0141791,0.0246206,-0.0587291
 ,-0.1369472,-0.1012325,-0.0044371,-0.0424738,-0.1340572,0.0015917,0.00
 20749,-0.0030834,-0.1575449,-0.0598884,0.0094068,0.0039718,-0.0207821,
 -0.1057788,0.0006178,-0.0024919,0.0015614,-0.1338247,0.0784638,0.06039
 37,0.0002304,0.0604023,0.1482202,0.0005041,-0.0002815,-0.0003796,0.142
 7817,0.0739047,-0.0591377,0.0008106,-0.0558457,0.142325,0.0005877,0.00
 07679,0.0000607,0.1409396,0.1653345,-0.0092695,0.0003194,-0.0046012,0.
 0450053,0.0017824,0.0016736,0.0005441,0.1390565,0.081226,-0.0532882,0.
 0013592,-0.0579575,0.1290323,0.0011204,-0.0003865,0.0016793,0.1393443,
 0.1750385,0.0024657,0.0001335,-0.0006941,0.0411923,0.0010471,-0.000298
 5,0.00075,0.1409359,-0.0565857,0.0173418,-0.0072836,0.0199359,-0.03039
 62,-0.0125546,-0.0250467,-0.0432964,-0.0445259,0.0328739,-0.0162126,-0
 .0023806,-0.0169668,0.0126437,-0.0028938,0.0124422,0.021567,0.041869,0
 .038867,0.0059813,0.0074549,-0.001995,0.0197415,-0.0044729,-0.0028175,
 -0.0004363,0.0466655,0.0230136,-0.010069,-0.0071342,-0.0030228,0.03628
 45,0.0038412,0.0013757,-0.0020507,0.0465405\Polar=76.8657518,3.6881672
 ,81.0286288,0.1647132,0.2240151,17.4071813\HyperPolar=-5.6252191,-24.5
 584861,-52.1687942,-73.5603712,-9.5071291,2.76301,-6.3243361,9.2343153
 ,14.2044405,16.6228496\PG=C01 [X(C7H8)]\NImag=0\\0.78163628,0.00243553
 ,0.78473021,-0.00144048,-0.00316457,0.14996255,-0.39616578,-0.06184064
 ,0.00106927,0.78406781,0.06055743,-0.10525561,-0.00000941,0.00007392,0
 .78382997,0.00048774,0.00029935,-0.07087149,-0.00161609,-0.00306769,0.
 15043892,-0.06031539,-0.04281878,0.00038048,-0.17854177,-0.18744908,0.
 00112299,0.77967913,-0.13963220,0.04555217,0.00018477,-0.06736629,-0.3
 2585451,0.00144817,0.01203826,0.79509683,0.00099909,-0.00015551,0.0076
 5445,0.00043781,0.00167964,-0.07009387,-0.00219720,-0.00291875,0.15019
 839,-0.08523388,0.04701786,-0.00008883,0.09751886,0.04623944,-0.000543
 31,-0.17408361,0.06545367,0.00011370,0.80365345,0.04703332,-0.03093025
 ,-0.00003972,-0.04877305,-0.11092086,0.00063329,0.18069097,-0.31000644
 ,0.00038450,0.02567573,0.83243419,0.00001703,0.00014251,-0.00426849,0.
 00012192,0.00029116,0.00629085,-0.00060488,0.00091603,-0.07222578,0.00
 037683,0.00001584,0.18023948,0.09810054,-0.04812948,0.00007736,-0.0851
 6173,-0.04562552,0.00043346,-0.05787836,0.13623578,-0.00074125,-0.3829
 5776,-0.05508341,0.00084131,0.78105862,0.04871370,-0.11285158,0.000529
 63,-0.04717553,-0.03238444,0.00024880,0.04236800,0.04532901,-0.0004483
 6,0.06028049,-0.10155056,0.00000380,0.01241121,0.79361028,-0.00057741,
 0.00080652,0.00764981,0.00055725,0.00033071,-0.00376920,-0.00009993,-0
 .00076135,0.00786152,-0.00003762,0.00025600,-0.07218129,-0.00086053,-0
 .00368074,0.15016857,-0.17754936,0.18698500,-0.00073994,-0.06016869,0.
 04330723,-0.00005386,-0.00539722,0.00044398,0.00000594,-0.05770786,-0.
 04339476,0.00015534,-0.17852936,-0.18734903,0.00123271,0.78379466,0.06
 457928,-0.32415467,0.00111603,0.14079570,0.04616484,-0.00052943,-0.001
 06931,-0.11212434,0.00070424,-0.13841393,0.04430911,0.00010560,-0.0672
 6474,-0.32549108,0.00128881,-0.00034486,0.78406639,-0.00011750,0.00087
 877,-0.07086148,-0.00056771,-0.00029171,0.00773486,-0.00000246,0.00055
 670,-0.00376574,0.00083424,-0.00021314,0.00627006,0.00062690,0.0016566
 7,-0.07012042,-0.00126656,-0.00326658,0.15044473,-0.10697833,-0.119351
 07,0.00070399,-0.02820830,-0.02839671,0.00020740,-0.00360164,0.0010375
 3,0.00001752,0.00021951,0.00000023,-0.00001998,-0.00130583,0.00165123,
 0.00000551,0.00790981,0.01165254,-0.00005827,0.13231806,-0.11935005,-0
 .24488134,0.00121534,-0.00921105,-0.00176354,0.00005720,0.00032593,0.0
 0024772,0.00002488,-0.00000179,0.00022092,-0.00003458,0.00236323,-0.00
 204757,0.00003389,-0.00753470,-0.03788342,0.00022432,0.13329121,0.2863
 2926,0.00069499,0.00119976,-0.04225870,0.00014413,0.00010741,0.0055814
 3,0.00002779,0.00000754,0.00567892,0.00002204,0.00003814,0.00022882,-0
 .00001499,0.00003348,0.00568770,0.00002705,0.00021222,0.00558007,-0.00
 086532,-0.00153251,0.02401068,-0.02824082,0.02830147,-0.00004147,-0.10
 726922,0.11932549,-0.00037336,0.00793304,-0.01156323,0.00004725,-0.001
 35706,-0.00161217,0.00000969,0.00027096,-0.00010209,-0.00000052,-0.003
 61934,-0.00096764,0.00002822,-0.00054838,0.00009793,-0.00000332,0.1326
 7467,0.00915989,-0.00165426,0.00001117,0.11936275,-0.24400745,0.000621
 03,0.00751791,-0.03796450,0.00018539,-0.00233982,-0.00202709,0.0000206
 1,-0.00006911,0.00034417,-0.00000101,-0.00032972,0.00017603,0.00002656
 ,-0.00010276,0.00043327,-0.00000886,-0.13322579,0.28553455,0.00002948,
 -0.00003180,0.00566949,-0.00035371,0.00062018,-0.04244663,-0.00003503,
 0.00022740,0.00557245,0.00002745,0.00006231,0.00595281,0.00001906,0.00
 001943,0.00004553,0.00002533,0.00001556,0.00573329,-0.00000236,-0.0000
 0975,-0.00147155,0.00032536,-0.00086572,0.02410484,-0.00007093,-0.0017
 1821,0.00002984,-0.02485741,-0.01134853,0.00012966,-0.31258559,0.00050
 554,0.00100469,-0.02428776,0.01174666,0.00008673,-0.00041147,0.0014682
 9,0.00001248,0.00039709,0.00014068,-0.00000221,-0.00027343,0.00001538,
 0.00000543,0.00018691,-0.00033449,-0.00000582,0.36217282,-0.00099149,-
 0.00318339,0.00004260,-0.03030850,-0.00527003,0.00012310,0.00069240,-0
 .03778114,0.00005087,0.03078350,-0.00579527,-0.00007492,0.00084994,-0.
 00311423,0.00003645,0.00001308,0.00020214,-0.00000329,-0.00062394,0.00
 008331,0.00000727,-0.00054601,-0.00032346,-0.00000412,-0.00090250,0.05
 650870,0.00005967,0.00003188,0.00582946,0.00019792,0.00004362,0.005637
 71,0.00101957,0.00001950,-0.04250008,0.00002601,0.00020120,0.00617298,
 -0.00003687,0.00002363,0.00549229,-0.00000024,0.00003930,0.00004109,0.
 00000475,-0.00000158,-0.00030931,-0.00000176,-0.00000435,-0.00152998,-
 0.00113829,-0.00034799,0.02400228,-0.00123076,-0.00166120,0.00001640,0
 .00018463,-0.00011014,-0.00000156,-0.00344069,-0.00090153,0.00001766,-
 0.02884966,0.02814007,-0.00015488,-0.10712113,0.11945783,-0.00057760,0
 .00787075,-0.01139309,0.00004964,0.00025753,-0.00031714,0.00000427,-0.
 00002659,0.00004037,-0.00000117,-0.00025957,0.00061338,-0.00000798,0.1
 3388545,-0.00238899,-0.00202224,0.00004889,0.00001924,0.00041491,-0.00
 000375,-0.00028129,-0.00008694,0.00003157,0.00910776,-0.00125037,0.000
 04932,0.11927517,-0.24319950,0.00110541,0.00756017,-0.03800193,0.00020
 315,0.00032212,-0.00044781,0.00000872,0.00003632,-0.00008227,-0.000004
 26,-0.00001065,0.00008826,-0.00001443,-0.13284235,0.28482043,-0.000007
 09,0.00006994,0.00582199,0.00003388,0.00001893,0.00004076,0.00003107,-
 0.00001751,0.00549329,0.00012534,0.00015159,0.00615967,-0.00061217,0.0
 0110181,-0.04248458,-0.00006302,0.00020583,0.00563685,-0.00000339,0.00
 000310,-0.00030851,-0.00000252,-0.00000253,-0.00092715,-0.00000846,-0.
 00001385,-0.00031650,0.00043633,-0.00141330,0.02399840,-0.02453157,0.0
 1130436,-0.00000313,-0.00021172,0.00163872,0.00000261,0.00040019,0.000
 00547,-0.00000028,-0.00014840,-0.00164135,0.00000827,-0.02472849,-0.01
 134735,0.00011517,-0.31317564,0.00045030,0.00047777,0.00018998,0.00032
 374,-0.00000467,-0.00027561,-0.00000727,0.00000060,-0.00010154,-0.0000
 0280,-0.00000018,0.00018518,-0.00033572,-0.00000114,0.36269376,0.03044
 746,-0.00536589,0.00000332,0.00100070,-0.00323118,0.00004341,-0.000027
 67,0.00021531,-0.00000108,-0.00091580,-0.00323625,0.00002264,-0.030426
 99,-0.00529994,0.00011155,0.00041008,-0.03809891,-0.00001468,0.0005241
 0,-0.00030467,-0.00000745,0.00062935,0.00008370,-0.00000467,-0.0000068
 4,-0.00000705,-0.00000394,-0.00054786,-0.00032346,-0.00000482,-0.00038
 719,0.05551470,-0.00008608,0.00002593,0.00566915,-0.00000504,0.0000360
 9,0.00574007,0.00000773,0.00002601,0.00004404,0.00003500,0.00005821,0.
 00594692,0.00020279,0.00007874,0.00557490,0.00046737,0.00000175,-0.042
 44550,-0.00000601,-0.00000725,-0.00147415,-0.00000464,-0.00000204,-0.0
 0033279,-0.00000237,-0.00000364,-0.00092776,0.00000121,-0.00000797,-0.
 00152695,-0.00060366,-0.00016808,0.02410301,0.00035648,-0.00041952,0.0
 0002570,-0.00116452,0.00209193,0.00025083,0.00896410,0.00528306,0.0005
 1530,-0.12862416,-0.10765933,-0.00063084,-0.04003062,-0.03672295,-0.00
 045153,-0.00355501,0.00151453,-0.00016200,0.00001693,-0.00002421,-0.00
 002133,0.00029989,0.00038678,-0.00004587,0.00020647,0.00069683,-0.0002
 1714,-0.00092821,-0.00037977,0.00008948,-0.00027286,-0.00063711,0.0000
 3787,0.55036971,-0.00041185,-0.00008834,0.00004339,0.00288660,-0.00152
 965,-0.00003099,-0.00851658,-0.05818498,-0.00019940,-0.10800066,-0.253
 13937,-0.00110534,-0.02278760,-0.00914647,0.00033290,0.00066678,0.0008
 4581,0.00020515,-0.00002775,-0.00001775,-0.00003787,-0.00030905,-0.000
 42099,0.00001687,0.00030852,-0.00072860,-0.00002234,0.00005901,0.00043
 527,-0.00019999,0.00005428,0.00015131,-0.00003149,0.03040157,0.5866626
 2,-0.00013150,-0.00022830,0.00002819,0.00018870,0.00049806,0.00582825,
 0.00055578,-0.00078276,0.00584448,0.00158353,0.00272760,-0.07031499,-0
 .00098494,0.00006492,0.00593688,0.00032829,0.00041663,0.00587129,0.000
 02905,0.00004922,-0.00096907,0.00002040,0.00002891,-0.00038085,-0.0001
 1215,-0.00012294,-0.00162866,-0.00004947,-0.00016044,-0.00163627,0.000
 01490,0.00003124,-0.00038674,-0.00354368,-0.00611735,0.49390347,0.0001
 7340,-0.00013320,0.00000201,-0.00021188,-0.00012905,0.00048432,-0.0002
 6685,0.00016621,-0.00019905,-0.00349548,-0.01347066,-0.01536151,-0.000
 54206,-0.00077654,0.00018589,-0.00000206,0.00030040,0.00051949,0.00000
 238,0.00001969,-0.00008365,-0.00000488,-0.00001379,-0.00001688,-0.0000
 3049,0.00001354,-0.00011597,0.00004947,-0.00003296,-0.00016507,-0.0000
 0386,-0.00000431,-0.00005514,-0.04763437,-0.01121638,-0.04234287,0.052
 78711,-0.00015314,0.00001877,0.00000164,0.00020361,0.00013564,0.000856
 13,-0.00058257,-0.00095557,0.00009815,-0.01382803,-0.01792774,-0.02622
 593,-0.00004777,-0.00069336,-0.00011667,-0.00001877,-0.00010666,0.0008
 5593,0.00002129,0.00002684,-0.00014061,-0.00000342,-0.00001203,-0.0000
 7306,-0.00007814,0.00003945,-0.00024383,0.00006291,-0.00004565,-0.0002
 1790,-0.00001424,-0.00001889,-0.00005035,-0.01123715,-0.05667693,-0.06
 315711,0.01857021,0.06924026,0.00005845,0.00009834,-0.00001975,-0.0001
 6143,-0.00011857,-0.00001519,-0.00008362,0.00073097,-0.00008102,-0.007
 39773,-0.01240376,-0.00337745,0.00069069,0.00029303,-0.00011464,-0.000
 02120,-0.00019933,-0.00001849,-0.00001273,-0.00002265,-0.00000036,0.00
 001659,0.00000435,0.00001518,0.00001302,0.00001311,0.00000709,0.000008
 20,0.00002000,0.00000883,-0.00000451,0.00001611,0.00001646,-0.04154534
 ,-0.06180884,-0.25592362,0.05216913,0.07803258,0.30363873,0.00001582,0
 .00008646,-0.00000572,-0.00009051,0.00008505,-0.00026366,0.00018423,-0
 .00014354,0.00014152,-0.02384576,-0.01218528,0.01019989,-0.00009883,-0
 .00137071,0.00030881,-0.00034865,-0.00011419,-0.00032569,-0.00000370,-
 0.00001839,0.00006029,0.00003054,0.00002462,0.00001938,-0.00001536,-0.
 00027174,0.00017208,0.00007491,0.00000548,0.00008831,-0.00002565,-0.00
 006000,0.00000517,-0.22595748,0.02105150,0.10245914,0.00137205,0.00151
 215,0.00594027,0.27101117,-0.00009241,0.00005420,0.00001444,0.00006775
 ,0.00023445,-0.00020154,-0.00095619,-0.00164581,0.00030494,-0.02844985
 ,-0.00345809,0.01211671,-0.00098947,-0.00268411,-0.00000912,-0.0006028
 4,0.00005007,-0.00051872,0.00001583,0.00000774,0.00004459,0.00001688,0
 .00002214,0.00001948,0.00029300,-0.00079053,0.00016647,0.00006925,-0.0
 0007647,0.00009632,-0.00005209,-0.00012632,0.00001988,0.02297106,-0.04
 281947,-0.01119594,0.00609184,0.00249386,-0.00694661,-0.01949737,0.052
 53348,-0.00010844,0.00007856,-0.00000441,0.00007570,0.00002216,-0.0000
 3550,-0.00001023,0.00032981,0.00009557,0.00512298,0.00281818,0.0024293
 2,0.00006543,-0.00008883,0.00016760,-0.00007897,-0.00018325,-0.0000671
 4,-0.00000339,0.00000242,0.00001257,-0.00001199,-0.00000563,0.00000830
 ,-0.00002057,0.00030965,0.00000609,-0.00001591,-0.00000003,0.00002811,
 -0.00000278,-0.00001142,-0.00000846,0.10309986,-0.01010305,-0.09723178
 ,0.02429662,-0.00739765,-0.02286813,-0.12536939,0.01234798,0.10996455,
 0.00003518,-0.00005917,0.00001459,0.00027926,-0.00026047,-0.00026713,-
 0.00104945,-0.00156164,-0.00016277,0.00920056,-0.00946773,0.00495512,-
 0.00066526,-0.00150702,0.00018746,0.00008068,0.00013510,-0.00003381,0.
 00000552,0.00002022,0.00000721,-0.00005425,-0.00006972,0.00001414,-0.0
 0006981,-0.00001559,0.00003840,-0.00065146,-0.00005458,0.00005839,0.00
 000623,0.00000230,0.00000575,-0.11204611,0.09584165,-0.05801518,-0.002
 19248,0.00559303,-0.00966976,-0.02230286,0.02111461,-0.00703893,0.1294
 2419,0.00009359,0.00003212,0.00000259,0.00026450,-0.00056281,-0.000497
 00,-0.00193202,-0.00183655,0.00025905,0.00739128,-0.03672216,0.0137566
 0,-0.00071126,-0.00082050,0.00026665,0.00018851,0.00004658,-0.00029906
 ,-0.00001385,-0.00000284,0.00006803,-0.00007789,-0.00010174,0.00001206
 ,-0.00007871,0.00007171,0.00011277,-0.00066947,-0.00022225,0.00022231,
 0.00001108,0.00004745,0.00002413,0.09373432,-0.16534219,0.07794828,0.0
 0061498,0.00448200,0.00229137,0.01089603,-0.00379515,0.00188112,-0.109
 71100,0.20472631,0.00012194,-0.00005158,-0.00000268,-0.00012224,-0.000
 16043,-0.00006129,-0.00011215,0.00003383,0.00022302,-0.00019965,0.0053
 0975,0.00267591,0.00029414,0.00016411,0.00008498,-0.00001831,0.0000729
 9,-0.00003379,0.00000317,-0.00000215,0.00001177,-0.00000800,-0.0000079
 8,-0.00001215,0.00000797,-0.00001240,0.00002426,0.00027479,0.00013701,
 0.00001303,0.00000098,-0.00001223,0.00000859,-0.05740147,0.07905808,-0
 .08893965,-0.01931721,0.01777889,-0.02126776,0.00656959,-0.00625897,0.
 00750321,0.06990644,-0.09604895,0.09977247\\-0.00009825,-0.00014804,-0
 .00000739,0.00010581,-0.00016610,0.00000434,0.00018002,0.00007135,0.00
 000236,0.00010254,0.00020243,-0.00003014,-0.00001000,0.00019915,0.0000
 0082,-0.00019698,-0.00001352,0.00000317,-0.00001726,-0.00003200,-0.000
 00067,0.00001720,-0.00002553,0.00000072,0.00003910,-0.00001039,0.00001
 091,-0.00003160,0.00002748,0.00001037,-0.00003136,0.00000441,0.0000011
 2,-0.00005000,-0.00009204,0.00002094,-0.00000218,-0.00000401,-0.000003
 04,-0.00002422,0.00000511,-0.00000799,0.00001717,-0.00001830,-0.000005
 51\\\@


 YOU ARE IN A MAZE OF TWISTY LITTLE PASSAGES.
 Job cpu time:       0 days  0 hours  0 minutes  0.6 seconds.
 Elapsed time:       0 days  0 hours  0 minutes  0.5 seconds.
 File lengths (MBytes):  RWF=     11 Int=      0 D2E=      0 Chk=      2 Scr=      1
 Normal termination of Gaussian 16 at Thu Jun 12 21:21:18 2025.
