 Entering Gaussian System, Link 0=g16
 Input=/home/gaussian/Documents/Summer_Internship/Acid_Base_adduct/Acid/BH3/MX4-/BH4_ion_opt.com
 Output=/home/gaussian/Documents/Summer_Internship/Acid_Base_adduct/Acid/BH3/MX4-/BH4_ion_opt.log
 Initial command:
 /usr/local/g16/l1.exe "/home/gaussian/tmp/Gau-30033.inp" -scrdir="/home/gaussian/tmp/"
 Entering Link 1 = /usr/local/g16/l1.exe PID=     30036.
  
 Copyright (c) 1988-2017, Gaussian, Inc.  All Rights Reserved.
  
 This is part of the Gaussian(R) 16 program.  It is based on
 the Gaussian(R) 09 system (copyright 2009, Gaussian, Inc.),
 the Gaussian(R) 03 system (copyright 2003, Gaussian, Inc.),
 the Gaussian(R) 98 system (copyright 1998, Gaussian, Inc.),
 the Gaussian(R) 94 system (copyright 1995, Gaussian, Inc.),
 the Gaussian 92(TM) system (copyright 1992, Gaussian, Inc.),
 the Gaussian 90(TM) system (copyright 1990, Gaussian, Inc.),
 the Gaussian 88(TM) system (copyright 1988, Gaussian, Inc.),
 the Gaussian 86(TM) system (copyright 1986, Carnegie Mellon
 University), and the Gaussian 82(TM) system (copyright 1983,
 Carnegie Mellon University). Gaussian is a federally registered
 trademark of Gaussian, Inc.
  
 This software contains proprietary and confidential information,
 including trade secrets, belonging to Gaussian, Inc.
  
 This software is provided under written license and may be
 used, copied, transmitted, or stored only in accord with that
 written license.
  
 The following legend is applicable only to US Government
 contracts under FAR:
  
                    RESTRICTED RIGHTS LEGEND
  
 Use, reproduction and disclosure by the US Government is
 subject to restrictions as set forth in subparagraphs (a)
 and (c) of the Commercial Computer Software - Restricted
 Rights clause in FAR 52.227-19.
  
 Gaussian, Inc.
 340 Quinnipiac St., Bldg. 40, Wallingford CT 06492
  
  
 ---------------------------------------------------------------
 Warning -- This program may not be used in any manner that
 competes with the business of Gaussian, Inc. or will provide
 assistance to any competitor of Gaussian, Inc.  The licensee
 of this program is prohibited from giving any competitor of
 Gaussian, Inc. access to this program.  By using this program,
 the user acknowledges that Gaussian, Inc. is engaged in the
 business of creating and licensing software in the field of
 computational chemistry and represents and warrants to the
 licensee that it is not a competitor of Gaussian, Inc. and that
 it will not use this program in any manner prohibited above.
 ---------------------------------------------------------------
  

 Cite this work as:
 Gaussian 16, Revision B.01,
 M. J. Frisch, G. W. Trucks, H. B. Schlegel, G. E. Scuseria, 
 M. A. Robb, J. R. Cheeseman, G. Scalmani, V. Barone, 
 G. A. Petersson, H. Nakatsuji, X. Li, M. Caricato, A. V. Marenich, 
 J. Bloino, B. G. Janesko, R. Gomperts, B. Mennucci, H. P. Hratchian, 
 J. V. Ortiz, A. F. Izmaylov, J. L. Sonnenberg, D. Williams-Young, 
 F. Ding, F. Lipparini, F. Egidi, J. Goings, B. Peng, A. Petrone, 
 T. Henderson, D. Ranasinghe, V. G. Zakrzewski, J. Gao, N. Rega, 
 G. Zheng, W. Liang, M. Hada, M. Ehara, K. Toyota, R. Fukuda, 
 J. Hasegawa, M. Ishida, T. Nakajima, Y. Honda, O. Kitao, H. Nakai, 
 T. Vreven, K. Throssell, J. A. Montgomery, Jr., J. E. Peralta, 
 F. Ogliaro, M. J. Bearpark, J. J. Heyd, E. N. Brothers, K. N. Kudin, 
 V. N. Staroverov, T. A. Keith, R. Kobayashi, J. Normand, 
 K. Raghavachari, A. P. Rendell, J. C. Burant, S. S. Iyengar, 
 J. Tomasi, M. Cossi, J. M. Millam, M. Klene, C. Adamo, R. Cammi, 
 J. W. Ochterski, R. L. Martin, K. Morokuma, O. Farkas, 
 J. B. Foresman, and D. J. Fox, Gaussian, Inc., Wallingford CT, 2016.
 
 ******************************************
 Gaussian 16:  EM64L-G16RevB.01 20-Dec-2017
                13-Jun-2025 
 ******************************************
 %chk=BH4_ion_opt.chk
 ----------------------------------------------
 # opt freq hf/3-21g pop=full geom=connectivity
 ----------------------------------------------
 1/18=20,19=15,38=1,57=2/1,3;
 2/9=110,12=2,17=6,18=5,40=1/2;
 3/5=5,11=9,25=1,30=1,71=1/1,2,3;
 4//1;
 5/5=2,38=5/2;
 6/7=3,28=1/1;
 7//1,2,3,16;
 1/18=20,19=15/3(2);
 2/9=110/2;
 99//99;
 2/9=110/2;
 3/5=5,11=9,25=1,30=1,71=1/1,2,3;
 4/5=5,16=3,69=1/1;
 5/5=2,38=5/2;
 7//1,2,3,16;
 1/18=20,19=15/3(-5);
 2/9=110/2;
 6/7=3,19=2,28=1/1;
 99/9=1/99;
 -------------------
 Title Card Required
 -------------------
 Symbolic Z-matrix:
 Charge = -1 Multiplicity = 1
 B                     0.46432   0.95077   0. 
 H                     1.57683   0.95077  -0.39333 
 H                    -0.09194   1.91423  -0.39333 
 H                    -0.09194  -0.0127   -0.39333 
 H                     0.46432   0.95077   1.18 
 

 GradGradGradGradGradGradGradGradGradGradGradGradGradGradGradGradGradGrad
 Berny optimization.
 Initialization pass.
                           ----------------------------
                           !    Initial Parameters    !
                           ! (Angstroms and Degrees)  !
 --------------------------                            --------------------------
 ! Name  Definition              Value          Derivative Info.                !
 --------------------------------------------------------------------------------
 ! R1    R(1,2)                  1.18           estimate D2E/DX2                !
 ! R2    R(1,3)                  1.18           estimate D2E/DX2                !
 ! R3    R(1,4)                  1.18           estimate D2E/DX2                !
 ! R4    R(1,5)                  1.18           estimate D2E/DX2                !
 ! A1    A(2,1,3)              109.4712         estimate D2E/DX2                !
 ! A2    A(2,1,4)              109.4712         estimate D2E/DX2                !
 ! A3    A(2,1,5)              109.4712         estimate D2E/DX2                !
 ! A4    A(3,1,4)              109.4712         estimate D2E/DX2                !
 ! A5    A(3,1,5)              109.4712         estimate D2E/DX2                !
 ! A6    A(4,1,5)              109.4712         estimate D2E/DX2                !
 ! D1    D(2,1,4,3)           -120.0            estimate D2E/DX2                !
 ! D2    D(2,1,5,3)            120.0            estimate D2E/DX2                !
 ! D3    D(2,1,5,4)           -120.0            estimate D2E/DX2                !
 ! D4    D(3,1,5,4)            120.0            estimate D2E/DX2                !
 --------------------------------------------------------------------------------
 Trust Radius=3.00D-01 FncErr=1.00D-07 GrdErr=1.00D-07 EigMax=2.50D+02 EigMin=1.00D-04
 Number of steps in this run=     24 maximum allowed number of steps=    100.
 GradGradGradGradGradGradGradGradGradGradGradGradGradGradGradGradGradGrad

                          Input orientation:                          
 ---------------------------------------------------------------------
 Center     Atomic      Atomic             Coordinates (Angstroms)
 Number     Number       Type             X           Y           Z
 ---------------------------------------------------------------------
      1          5           0        0.464317    0.950768    0.000000
      2          1           0        1.576832    0.950768   -0.393333
      3          1           0       -0.091940    1.914233   -0.393333
      4          1           0       -0.091940   -0.012698   -0.393333
      5          1           0        0.464317    0.950768    1.180000
 ---------------------------------------------------------------------
                    Distance matrix (angstroms):
                    1          2          3          4          5
     1  B    0.000000
     2  H    1.180000   0.000000
     3  H    1.180000   1.926932   0.000000
     4  H    1.180000   1.926932   1.926932   0.000000
     5  H    1.180000   1.926932   1.926932   1.926932   0.000000
 Stoichiometry    BH4(1-)
 Framework group  TD[O(B),4C3(H)]
 Deg. of freedom     1
 Full point group                 TD      NOp  24
 Largest Abelian subgroup         D2      NOp   4
 Largest concise Abelian subgroup D2      NOp   4
                         Standard orientation:                         
 ---------------------------------------------------------------------
 Center     Atomic      Atomic             Coordinates (Angstroms)
 Number     Number       Type             X           Y           Z
 ---------------------------------------------------------------------
      1          5           0        0.000000    0.000000    0.000000
      2          1           0        0.681273    0.681273    0.681273
      3          1           0       -0.681273   -0.681273    0.681273
      4          1           0       -0.681273    0.681273   -0.681273
      5          1           0        0.681273   -0.681273   -0.681273
 ---------------------------------------------------------------------
 Rotational constants (GHZ):         135.0514685         135.0514685         135.0514685
 Standard basis: 3-21G (6D, 7F)
 There are     5 symmetry adapted cartesian basis functions of A   symmetry.
 There are     4 symmetry adapted cartesian basis functions of B1  symmetry.
 There are     4 symmetry adapted cartesian basis functions of B2  symmetry.
 There are     4 symmetry adapted cartesian basis functions of B3  symmetry.
 There are     5 symmetry adapted basis functions of A   symmetry.
 There are     4 symmetry adapted basis functions of B1  symmetry.
 There are     4 symmetry adapted basis functions of B2  symmetry.
 There are     4 symmetry adapted basis functions of B3  symmetry.
    17 basis functions,    27 primitive gaussians,    17 cartesian basis functions
     5 alpha electrons        5 beta electrons
       nuclear repulsion energy        10.6168351367 Hartrees.
 NAtoms=    5 NActive=    5 NUniq=    2 SFac= 4.00D+00 NAtFMM=   60 NAOKFM=F Big=F
 Integral buffers will be    131072 words long.
 Raffenetti 1 integral format.
 Two-electron integral symmetry is turned on.
 One-electron integrals computed using PRISM.
 NBasis=    17 RedAO= T EigKep=  1.39D-02  NBF=     5     4     4     4
 NBsUse=    17 1.00D-06 EigRej= -1.00D+00 NBFU=     5     4     4     4
 ExpMin= 1.24D-01 ExpMax= 1.16D+02 ExpMxC= 1.16D+02 IAcc=3 IRadAn=         5 AccDes= 0.00D+00
 Harris functional with IExCor=  205 and IRadAn=       5 diagonalized for initial guess.
 HarFok:  IExCor=  205 AccDes= 0.00D+00 IRadAn=         5 IDoV= 1 UseB2=F ITyADJ=14
 ICtDFT=  3500011 ScaDFX=  1.000000  1.000000  1.000000  1.000000
 FoFCou: FMM=F IPFlag=           0 FMFlag=      100000 FMFlg1=           0
         NFxFlg=           0 DoJE=T BraDBF=F KetDBF=T FulRan=T
         wScrn=  0.000000 ICntrl=       500 IOpCl=  0 I1Cent=   200000004 NGrid=           0
         NMat0=    1 NMatS0=      1 NMatT0=    0 NMatD0=    1 NMtDS0=    0 NMtDT0=    0
 Petite list used in FoFCou.
 Initial guess orbital symmetries:
       Occupied  (A1) (A1) (T2) (T2) (T2)
       Virtual   (T2) (T2) (T2) (A1) (T2) (T2) (T2) (A1) (T2) (T2)
                 (T2) (A1)
 The electronic state of the initial guess is 1-A1.
 Keep R1 ints in memory in symmetry-blocked form, NReq=817425.
 Requested convergence on RMS density matrix=1.00D-08 within 128 cycles.
 Requested convergence on MAX density matrix=1.00D-06.
 Requested convergence on             energy=1.00D-06.
 No special actions if energy rises.
 SCF Done:  E(RHF) =  -26.8067627056     A.U. after    8 cycles
            NFock=  8  Conv=0.33D-08     -V/T= 1.9911

 **********************************************************************

            Population analysis using the SCF Density.

 **********************************************************************

 Orbital symmetries:
       Occupied  (A1) (A1) (T2) (T2) (T2)
       Virtual   (T2) (T2) (T2) (A1) (T2) (T2) (T2) (A1) (T2) (T2)
                 (T2) (A1)
 The electronic state is 1-A1.
 Alpha  occ. eigenvalues --   -7.19465  -0.44348  -0.17145  -0.17145  -0.17145
 Alpha virt. eigenvalues --    0.56871   0.56871   0.56871   0.71235   0.91496
 Alpha virt. eigenvalues --    0.91496   0.91496   1.20158   1.70283   1.70283
 Alpha virt. eigenvalues --    1.70283   1.78637
     Molecular Orbital Coefficients:
                           1         2         3         4         5
                        (A1)--O   (A1)--O   (T2)--O   (T2)--O   (T2)--O
     Eigenvalues --    -7.19465  -0.44348  -0.17145  -0.17145  -0.17145
   1 1   B  1S          0.98789  -0.19035   0.00000   0.00000   0.00000
   2        2S          0.09226   0.19256   0.00000   0.00000   0.00000
   3        2PX         0.00000   0.00000   0.00000   0.00000   0.30793
   4        2PY         0.00000   0.00000   0.00000   0.30793   0.00000
   5        2PZ         0.00000   0.00000   0.30793   0.00000   0.00000
   6        3S         -0.08172   0.37467   0.00000   0.00000   0.00000
   7        3PX         0.00000   0.00000   0.00000   0.00000   0.19215
   8        3PY         0.00000   0.00000   0.00000   0.19215   0.00000
   9        3PZ         0.00000   0.00000   0.19215   0.00000   0.00000
  10 2   H  1S         -0.00490   0.13210   0.14967   0.14967   0.14967
  11        2S          0.02019   0.10897   0.24154   0.24154   0.24154
  12 3   H  1S         -0.00490   0.13210   0.14967  -0.14967  -0.14967
  13        2S          0.02019   0.10897   0.24154  -0.24154  -0.24154
  14 4   H  1S         -0.00490   0.13210  -0.14967   0.14967  -0.14967
  15        2S          0.02019   0.10897  -0.24154   0.24154  -0.24154
  16 5   H  1S         -0.00490   0.13210  -0.14967  -0.14967   0.14967
  17        2S          0.02019   0.10897  -0.24154  -0.24154   0.24154
                           6         7         8         9        10
                        (T2)--V   (T2)--V   (T2)--V   (A1)--V   (T2)--V
     Eigenvalues --     0.56871   0.56871   0.56871   0.71235   0.91496
   1 1   B  1S          0.00000   0.00000   0.00000  -0.19180   0.00000
   2        2S          0.00000   0.00000   0.00000   0.23068   0.00000
   3        2PX         0.09208   0.00000   0.00000   0.00000   1.04410
   4        2PY         0.00000   0.09208   0.00000   0.00000   0.00000
   5        2PZ         0.00000   0.00000   0.09208   0.00000   0.00000
   6        3S          0.00000   0.00000   0.00000   4.33465   0.00000
   7        3PX         1.90057   0.00000   0.00000   0.00000  -0.64376
   8        3PY         0.00000   1.90057   0.00000   0.00000   0.00000
   9        3PZ         0.00000   0.00000   1.90057   0.00000   0.00000
  10 2   H  1S         -0.04840  -0.04840  -0.04840   0.04406   0.13448
  11        2S         -1.05291  -1.05291  -1.05291  -1.67325  -0.27571
  12 3   H  1S          0.04840   0.04840  -0.04840   0.04406  -0.13448
  13        2S          1.05291   1.05291  -1.05291  -1.67325   0.27571
  14 4   H  1S          0.04840  -0.04840   0.04840   0.04406  -0.13448
  15        2S          1.05291  -1.05291   1.05291  -1.67325   0.27571
  16 5   H  1S         -0.04840   0.04840   0.04840   0.04406   0.13448
  17        2S         -1.05291   1.05291   1.05291  -1.67325  -0.27571
                          11        12        13        14        15
                        (T2)--V   (T2)--V   (A1)--V   (T2)--V   (T2)--V
     Eigenvalues --     0.91496   0.91496   1.20158   1.70283   1.70283
   1 1   B  1S          0.00000   0.00000  -0.06247   0.00000   0.00000
   2        2S          0.00000   0.00000  -1.44292   0.00000   0.00000
   3        2PX         0.00000   0.00000   0.00000   0.57526   0.00000
   4        2PY         1.04410   0.00000   0.00000   0.00000   0.57526
   5        2PZ         0.00000   1.04410   0.00000   0.00000   0.00000
   6        3S          0.00000   0.00000   3.95013   0.00000   0.00000
   7        3PX         0.00000   0.00000   0.00000  -0.93989   0.00000
   8        3PY        -0.64376   0.00000   0.00000   0.00000  -0.93989
   9        3PZ         0.00000  -0.64376   0.00000   0.00000   0.00000
  10 2   H  1S          0.13448   0.13448  -0.30678  -0.68462  -0.68462
  11        2S         -0.27571  -0.27571  -0.82438   0.95110   0.95110
  12 3   H  1S         -0.13448   0.13448  -0.30678   0.68462   0.68462
  13        2S          0.27571  -0.27571  -0.82438  -0.95110  -0.95110
  14 4   H  1S          0.13448  -0.13448  -0.30678   0.68462  -0.68462
  15        2S         -0.27571   0.27571  -0.82438  -0.95110   0.95110
  16 5   H  1S         -0.13448  -0.13448  -0.30678  -0.68462   0.68462
  17        2S          0.27571   0.27571  -0.82438   0.95110  -0.95110
                          16        17
                        (T2)--V   (A1)--V
     Eigenvalues --     1.70283   1.78637
   1 1   B  1S          0.00000   0.07688
   2        2S          0.00000  -1.24597
   3        2PX         0.00000   0.00000
   4        2PY         0.00000   0.00000
   5        2PZ         0.57526   0.00000
   6        3S          0.00000   3.87196
   7        3PX         0.00000   0.00000
   8        3PY         0.00000   0.00000
   9        3PZ        -0.93989   0.00000
  10 2   H  1S         -0.68462   0.60084
  11        2S          0.95110  -1.39345
  12 3   H  1S         -0.68462   0.60084
  13        2S          0.95110  -1.39345
  14 4   H  1S          0.68462   0.60084
  15        2S         -0.95110  -1.39345
  16 5   H  1S          0.68462   0.60084
  17        2S         -0.95110  -1.39345
     Density Matrix:
                           1         2         3         4         5
   1 1   B  1S          2.02431
   2        2S          0.10897   0.09118
   3        2PX         0.00000   0.00000   0.18964
   4        2PY         0.00000   0.00000  -0.00000   0.18964
   5        2PZ         0.00000   0.00000   0.00000  -0.00000   0.18964
   6        3S         -0.30410   0.12921   0.00000   0.00000   0.00000
   7        3PX         0.00000   0.00000   0.11834  -0.00000   0.00000
   8        3PY         0.00000   0.00000  -0.00000   0.11834  -0.00000
   9        3PZ         0.00000   0.00000   0.00000  -0.00000   0.11834
  10 2   H  1S         -0.05997   0.04997   0.09218   0.09218   0.09218
  11        2S         -0.00159   0.04569   0.14875   0.14875   0.14875
  12 3   H  1S         -0.05997   0.04997  -0.09218  -0.09218   0.09218
  13        2S         -0.00159   0.04569  -0.14875  -0.14875   0.14875
  14 4   H  1S         -0.05997   0.04997  -0.09218   0.09218  -0.09218
  15        2S         -0.00159   0.04569  -0.14875   0.14875  -0.14875
  16 5   H  1S         -0.05997   0.04997   0.09218  -0.09218  -0.09218
  17        2S         -0.00159   0.04569   0.14875  -0.14875  -0.14875
                           6         7         8         9        10
   6        3S          0.29411
   7        3PX         0.00000   0.07384
   8        3PY         0.00000  -0.00000   0.07384
   9        3PZ         0.00000   0.00000  -0.00000   0.07384
  10 2   H  1S          0.09979   0.05752   0.05752   0.05752   0.16936
  11        2S          0.07836   0.09282   0.09282   0.09282   0.24551
  12 3   H  1S          0.09979  -0.05752  -0.05752   0.05752  -0.00985
  13        2S          0.07836  -0.09282  -0.09282   0.09282  -0.04371
  14 4   H  1S          0.09979  -0.05752   0.05752  -0.05752  -0.00985
  15        2S          0.07836  -0.09282   0.09282  -0.09282  -0.04371
  16 5   H  1S          0.09979   0.05752  -0.05752  -0.05752  -0.00985
  17        2S          0.07836   0.09282  -0.09282  -0.09282  -0.04371
                          11        12        13        14        15
  11        2S          0.37461
  12 3   H  1S         -0.04371   0.16936
  13        2S         -0.09212   0.24551   0.37461
  14 4   H  1S         -0.04371  -0.00985  -0.04371   0.16936
  15        2S         -0.09212  -0.04371  -0.09212   0.24551   0.37461
  16 5   H  1S         -0.04371  -0.00985  -0.04371  -0.00985  -0.04371
  17        2S         -0.09212  -0.04371  -0.09212  -0.04371  -0.09212
                          16        17
  16 5   H  1S          0.16936
  17        2S          0.24551   0.37461
    Full Mulliken population analysis:
                           1         2         3         4         5
   1 1   B  1S          2.02431
   2        2S          0.01992   0.09118
   3        2PX         0.00000   0.00000   0.18964
   4        2PY         0.00000   0.00000   0.00000   0.18964
   5        2PZ         0.00000   0.00000   0.00000   0.00000   0.18964
   6        3S         -0.05287   0.10018   0.00000   0.00000   0.00000
   7        3PX         0.00000   0.00000   0.06524   0.00000   0.00000
   8        3PY         0.00000   0.00000   0.00000   0.06524   0.00000
   9        3PZ         0.00000   0.00000   0.00000   0.00000   0.06524
  10 2   H  1S         -0.00101   0.01139   0.01917   0.01917   0.01917
  11        2S         -0.00015   0.02161   0.03006   0.03006   0.03006
  12 3   H  1S         -0.00101   0.01139   0.01917   0.01917   0.01917
  13        2S         -0.00015   0.02161   0.03006   0.03006   0.03006
  14 4   H  1S         -0.00101   0.01139   0.01917   0.01917   0.01917
  15        2S         -0.00015   0.02161   0.03006   0.03006   0.03006
  16 5   H  1S         -0.00101   0.01139   0.01917   0.01917   0.01917
  17        2S         -0.00015   0.02161   0.03006   0.03006   0.03006
                           6         7         8         9        10
   6        3S          0.29411
   7        3PX         0.00000   0.07384
   8        3PY         0.00000   0.00000   0.07384
   9        3PZ         0.00000   0.00000   0.00000   0.07384
  10 2   H  1S          0.03062   0.01400   0.01400   0.01400   0.16936
  11        2S          0.05272   0.03378   0.03378   0.03378   0.15857
  12 3   H  1S          0.03062   0.01400   0.01400   0.01400  -0.00003
  13        2S          0.05272   0.03378   0.03378   0.03378  -0.00381
  14 4   H  1S          0.03062   0.01400   0.01400   0.01400  -0.00003
  15        2S          0.05272   0.03378   0.03378   0.03378  -0.00381
  16 5   H  1S          0.03062   0.01400   0.01400   0.01400  -0.00003
  17        2S          0.05272   0.03378   0.03378   0.03378  -0.00381
                          11        12        13        14        15
  11        2S          0.37461
  12 3   H  1S         -0.00381   0.16936
  13        2S         -0.02734   0.15857   0.37461
  14 4   H  1S         -0.00381  -0.00003  -0.00381   0.16936
  15        2S         -0.02734  -0.00381  -0.02734   0.15857   0.37461
  16 5   H  1S         -0.00381  -0.00003  -0.00381  -0.00003  -0.00381
  17        2S         -0.02734  -0.00381  -0.02734  -0.00381  -0.02734
                          16        17
  16 5   H  1S          0.16936
  17        2S          0.15857   0.37461
     Gross orbital populations:
                           1
   1 1   B  1S          1.98671
   2        2S          0.34327
   3        2PX         0.45180
   4        2PY         0.45180
   5        2PZ         0.45180
   6        3S          0.67477
   7        3PX         0.33019
   8        3PY         0.33019
   9        3PZ         0.33019
  10 2   H  1S          0.45691
  11        2S          0.70541
  12 3   H  1S          0.45691
  13        2S          0.70541
  14 4   H  1S          0.45691
  15        2S          0.70541
  16 5   H  1S          0.45691
  17        2S          0.70541
          Condensed to atoms (all electrons):
               1          2          3          4          5
     1  B    3.725942   0.406192   0.406192   0.406192   0.406192
     2  H    0.406192   0.861121  -0.034997  -0.034997  -0.034997
     3  H    0.406192  -0.034997   0.861121  -0.034997  -0.034997
     4  H    0.406192  -0.034997  -0.034997   0.861121  -0.034997
     5  H    0.406192  -0.034997  -0.034997  -0.034997   0.861121
 Mulliken charges:
               1
     1  B   -0.350708
     2  H   -0.162323
     3  H   -0.162323
     4  H   -0.162323
     5  H   -0.162323
 Sum of Mulliken charges =  -1.00000
 Mulliken charges with hydrogens summed into heavy atoms:
               1
     1  B   -1.000000
 Electronic spatial extent (au):  <R**2>=             50.9576
 Charge=             -1.0000 electrons
 Dipole moment (field-independent basis, Debye):
    X=              0.0000    Y=              0.0000    Z=             -0.0000  Tot=              0.0000
 Quadrupole moment (field-independent basis, Debye-Ang):
   XX=            -13.9293   YY=            -13.9293   ZZ=            -13.9293
   XY=              0.0000   XZ=              0.0000   YZ=              0.0000
 Traceless Quadrupole moment (field-independent basis, Debye-Ang):
   XX=             -0.0000   YY=              0.0000   ZZ=              0.0000
   XY=              0.0000   XZ=              0.0000   YZ=              0.0000
 Octapole moment (field-independent basis, Debye-Ang**2):
  XXX=              0.0000  YYY=             -0.0000  ZZZ=             -0.0000  XYY=              0.0000
  XXY=              0.0000  XXZ=             -0.0000  XZZ=              0.0000  YZZ=             -0.0000
  YYZ=             -0.0000  XYZ=             -1.4372
 Hexadecapole moment (field-independent basis, Debye-Ang**3):
 XXXX=            -30.8287 YYYY=            -30.8287 ZZZZ=            -30.8287 XXXY=              0.0000
 XXXZ=              0.0000 YYYX=              0.0000 YYYZ=              0.0000 ZZZX=              0.0000
 ZZZY=              0.0000 XXYY=            -10.7226 XXZZ=            -10.7226 YYZZ=            -10.7226
 XXYZ=              0.0000 YYXZ=              0.0000 ZZXY=              0.0000
 N-N= 1.061683513670D+01 E-N=-8.558930119472D+01  KE= 2.704703052300D+01
 Symmetry A    KE= 2.316495875559D+01
 Symmetry B1   KE= 1.294023922468D+00
 Symmetry B2   KE= 1.294023922468D+00
 Symmetry B3   KE= 1.294023922468D+00
 Orbital energies and kinetic energies (alpha):
                                 1                 2
   1         (A1)--O          -7.194646         10.794558
   2         (A1)--O          -0.443481          0.787921
   3         (T2)--O          -0.171445          0.647012
   4         (T2)--O          -0.171445          0.647012
   5         (T2)--O          -0.171445          0.647012
   6         (T2)--V           0.568709          0.524326
   7         (T2)--V           0.568709          0.524326
   8         (T2)--V           0.568709          0.524326
   9         (A1)--V           0.712347          1.121392
  10         (T2)--V           0.914961          1.547700
  11         (T2)--V           0.914961          1.547700
  12         (T2)--V           0.914961          1.547700
  13         (A1)--V           1.201583          1.398295
  14         (T2)--V           1.702827          2.554499
  15         (T2)--V           1.702827          2.554499
  16         (T2)--V           1.702827          2.554499
  17         (A1)--V           1.786374          2.763391
 Total kinetic energy from orbitals= 2.704703052300D+01
 Calling FoFJK, ICntrl=      2127 FMM=F ISym2X=1 I1Cent= 0 IOpClX= 0 NMat=1 NMatS=1 NMatT=0.
 ***** Axes restored to original set *****
 -------------------------------------------------------------------
 Center     Atomic                   Forces (Hartrees/Bohr)
 Number     Number              X              Y              Z
 -------------------------------------------------------------------
      1        5           0.000000000    0.000000000   -0.000000000
      2        1           0.026625128    0.000000001   -0.009413404
      3        1          -0.013312565    0.023058037   -0.009413404
      4        1          -0.013312563   -0.023058038   -0.009413405
      5        1          -0.000000000   -0.000000001    0.028240213
 -------------------------------------------------------------------
 Cartesian Forces:  Max     0.028240213 RMS     0.014583183

 GradGradGradGradGradGradGradGradGradGradGradGradGradGradGradGradGradGrad
 Berny optimization.
 FormGI is forming the generalized inverse of G from B-inverse, IUseBI=4.
 Internal  Forces:  Max     0.028240213 RMS     0.015095029
 Search for a local minimum.
 Step number   1 out of a maximum of   24
 All quantities printed in internal units (Hartrees-Bohrs-Radians)
 Mixed Optimization -- RFO/linear search
 Second derivative matrix not updated -- first step.
 The second derivative matrix:
                          R1        R2        R3        R4        A1
           R1           0.26185
           R2           0.00000   0.26185
           R3           0.00000   0.00000   0.26185
           R4           0.00000   0.00000   0.00000   0.26185
           A1           0.00000   0.00000   0.00000   0.00000   0.16000
           A2           0.00000   0.00000   0.00000   0.00000   0.00000
           A3           0.00000   0.00000   0.00000   0.00000   0.00000
           A4           0.00000   0.00000   0.00000   0.00000   0.00000
           A5           0.00000   0.00000   0.00000   0.00000   0.00000
           A6           0.00000   0.00000   0.00000   0.00000   0.00000
           D1           0.00000   0.00000   0.00000   0.00000   0.00000
           D2           0.00000   0.00000   0.00000   0.00000   0.00000
           D3           0.00000   0.00000   0.00000   0.00000   0.00000
           D4           0.00000   0.00000   0.00000   0.00000   0.00000
                          A2        A3        A4        A5        A6
           A2           0.16000
           A3           0.00000   0.16000
           A4           0.00000   0.00000   0.16000
           A5           0.00000   0.00000   0.00000   0.16000
           A6           0.00000   0.00000   0.00000   0.00000   0.16000
           D1           0.00000   0.00000   0.00000   0.00000   0.00000
           D2           0.00000   0.00000   0.00000   0.00000   0.00000
           D3           0.00000   0.00000   0.00000   0.00000   0.00000
           D4           0.00000   0.00000   0.00000   0.00000   0.00000
                          D1        D2        D3        D4
           D1           0.00230
           D2           0.00000   0.00230
           D3           0.00000   0.00000   0.00230
           D4           0.00000   0.00000   0.00000   0.00230
 ITU=  0
     Eigenvalues ---    0.05082   0.05715   0.08641   0.16000   0.16000
     Eigenvalues ---    0.26185   0.26185   0.26185   0.26185
 RFO step:  Lambda=-1.16633176D-02 EMin= 5.08230769D-02
 Linear search not attempted -- first point.
 Iteration  1 RMS(Cart)=  0.05518996 RMS(Int)=  0.00000000
 Iteration  2 RMS(Cart)=  0.00000000 RMS(Int)=  0.00000000
 ClnCor:  largest displacement from symmetrization is 5.45D-15 for atom     3.
 Variable       Old X    -DE/DX   Delta X   Delta X   Delta X     New X
                                 (Linear)    (Quad)   (Total)
    R1        2.22988   0.02824   0.00000   0.10325   0.10325   2.33313
    R2        2.22988   0.02824   0.00000   0.10325   0.10325   2.33313
    R3        2.22988   0.02824   0.00000   0.10325   0.10325   2.33313
    R4        2.22988   0.02824   0.00000   0.10325   0.10325   2.33313
    A1        1.91063   0.00000   0.00000   0.00000   0.00000   1.91063
    A2        1.91063  -0.00000   0.00000  -0.00000   0.00000   1.91063
    A3        1.91063   0.00000   0.00000   0.00000  -0.00000   1.91063
    A4        1.91063   0.00000   0.00000   0.00000   0.00000   1.91063
    A5        1.91063  -0.00000   0.00000   0.00000   0.00000   1.91063
    A6        1.91063  -0.00000   0.00000  -0.00000   0.00000   1.91063
    D1       -2.09440  -0.00000   0.00000  -0.00000   0.00000  -2.09440
    D2        2.09440   0.00000   0.00000   0.00000   0.00000   2.09440
    D3       -2.09440   0.00000   0.00000   0.00000   0.00000  -2.09440
    D4        2.09440   0.00000   0.00000   0.00000   0.00000   2.09440
         Item               Value     Threshold  Converged?
 Maximum Force            0.028240     0.000450     NO 
 RMS     Force            0.015095     0.000300     NO 
 Maximum Displacement     0.103251     0.001800     NO 
 RMS     Displacement     0.055190     0.001200     NO 
 Predicted change in Energy=-6.080338D-03
 GradGradGradGradGradGradGradGradGradGradGradGradGradGradGradGradGradGrad

                          Input orientation:                          
 ---------------------------------------------------------------------
 Center     Atomic      Atomic             Coordinates (Angstroms)
 Number     Number       Type             X           Y           Z
 ---------------------------------------------------------------------
      1          5           0        0.464317    0.950767   -0.000000
      2          1           0        1.628345    0.950768   -0.411546
      3          1           0       -0.117697    1.958845   -0.411546
      4          1           0       -0.117697   -0.057310   -0.411546
      5          1           0        0.464317    0.950767    1.234638
 ---------------------------------------------------------------------
                    Distance matrix (angstroms):
                    1          2          3          4          5
     1  B    0.000000
     2  H    1.234638   0.000000
     3  H    1.234638   2.016155   0.000000
     4  H    1.234638   2.016155   2.016155   0.000000
     5  H    1.234638   2.016155   2.016155   2.016155   0.000000
 Stoichiometry    BH4(1-)
 Framework group  TD[O(B),4C3(H)]
 Deg. of freedom     1
 Full point group                 TD      NOp  24
 Largest Abelian subgroup         D2      NOp   4
 Largest concise Abelian subgroup D2      NOp   4
                         Standard orientation:                         
 ---------------------------------------------------------------------
 Center     Atomic      Atomic             Coordinates (Angstroms)
 Number     Number       Type             X           Y           Z
 ---------------------------------------------------------------------
      1          5           0        0.000000    0.000000    0.000000
      2          1           0        0.712819    0.712819    0.712819
      3          1           0       -0.712819    0.712819   -0.712819
      4          1           0        0.712819   -0.712819   -0.712819
      5          1           0       -0.712819   -0.712819    0.712819
 ---------------------------------------------------------------------
 Rotational constants (GHZ):         123.3627407         123.3627407         123.3627407
 Standard basis: 3-21G (6D, 7F)
 There are     5 symmetry adapted cartesian basis functions of A   symmetry.
 There are     4 symmetry adapted cartesian basis functions of B1  symmetry.
 There are     4 symmetry adapted cartesian basis functions of B2  symmetry.
 There are     4 symmetry adapted cartesian basis functions of B3  symmetry.
 There are     5 symmetry adapted basis functions of A   symmetry.
 There are     4 symmetry adapted basis functions of B1  symmetry.
 There are     4 symmetry adapted basis functions of B2  symmetry.
 There are     4 symmetry adapted basis functions of B3  symmetry.
    17 basis functions,    27 primitive gaussians,    17 cartesian basis functions
     5 alpha electrons        5 beta electrons
       nuclear repulsion energy        10.1469944474 Hartrees.
 NAtoms=    5 NActive=    5 NUniq=    2 SFac= 4.00D+00 NAtFMM=   60 NAOKFM=F Big=F
 Integral buffers will be    131072 words long.
 Raffenetti 1 integral format.
 Two-electron integral symmetry is turned on.
 One-electron integrals computed using PRISM.
 NBasis=    17 RedAO= T EigKep=  1.75D-02  NBF=     5     4     4     4
 NBsUse=    17 1.00D-06 EigRej= -1.00D+00 NBFU=     5     4     4     4
 Initial guess from the checkpoint file:  "BH4_ion_opt.chk"
 B after Tr=     0.000000    0.000000    0.000000
         Rot=    0.500000    0.500000    0.500000    0.500000 Ang= 120.00 deg.
 Initial guess orbital symmetries:
       Occupied  (A1) (A1) (T2) (T2) (T2)
       Virtual   (T2) (T2) (T2) (A1) (T2) (T2) (T2) (A1) (T2) (T2)
                 (T2) (A1)
 ExpMin= 1.24D-01 ExpMax= 1.16D+02 ExpMxC= 1.16D+02 IAcc=3 IRadAn=         5 AccDes= 0.00D+00
 Harris functional with IExCor=  205 and IRadAn=       5 diagonalized for initial guess.
 HarFok:  IExCor=  205 AccDes= 0.00D+00 IRadAn=         5 IDoV= 1 UseB2=F ITyADJ=14
 ICtDFT=  3500011 ScaDFX=  1.000000  1.000000  1.000000  1.000000
 FoFCou: FMM=F IPFlag=           0 FMFlag=      100000 FMFlg1=           0
         NFxFlg=           0 DoJE=T BraDBF=F KetDBF=T FulRan=T
         wScrn=  0.000000 ICntrl=       500 IOpCl=  0 I1Cent=   200000004 NGrid=           0
         NMat0=    1 NMatS0=      1 NMatT0=    0 NMatD0=    1 NMtDS0=    0 NMtDT0=    0
 Petite list used in FoFCou.
 Keep R1 ints in memory in symmetry-blocked form, NReq=817425.
 Requested convergence on RMS density matrix=1.00D-08 within 128 cycles.
 Requested convergence on MAX density matrix=1.00D-06.
 Requested convergence on             energy=1.00D-06.
 No special actions if energy rises.
 SCF Done:  E(RHF) =  -26.8128881634     A.U. after    8 cycles
            NFock=  8  Conv=0.23D-08     -V/T= 1.9987
 Calling FoFJK, ICntrl=      2127 FMM=F ISym2X=1 I1Cent= 0 IOpClX= 0 NMat=1 NMatS=1 NMatT=0.
 ***** Axes restored to original set *****
 -------------------------------------------------------------------
 Center     Atomic                   Forces (Hartrees/Bohr)
 Number     Number              X              Y              Z
 -------------------------------------------------------------------
      1        5           0.000000000    0.000000000   -0.000000000
      2        1           0.002373677    0.000000000   -0.000839221
      3        1          -0.001186839    0.002055665   -0.000839221
      4        1          -0.001186838   -0.002055665   -0.000839222
      5        1          -0.000000000   -0.000000000    0.002517665
 -------------------------------------------------------------------
 Cartesian Forces:  Max     0.002517665 RMS     0.001300116

 GradGradGradGradGradGradGradGradGradGradGradGradGradGradGradGradGradGrad
 Berny optimization.
 Using GEDIIS/GDIIS optimizer.
 FormGI is forming the generalized inverse of G from B-inverse, IUseBI=4.
 Internal  Forces:  Max     0.002517665 RMS     0.001345748
 Search for a local minimum.
 Step number   2 out of a maximum of   24
 All quantities printed in internal units (Hartrees-Bohrs-Radians)
 Mixed Optimization -- RFO/linear search
 Update second derivatives using D2CorX and points    1    2
 DE= -6.13D-03 DEPred=-6.08D-03 R= 1.01D+00
 TightC=F SS=  1.41D+00  RLast= 2.07D-01 DXNew= 5.0454D-01 6.1951D-01
 Trust test= 1.01D+00 RLast= 2.07D-01 DXMaxT set to 5.05D-01
 The second derivative matrix:
                          R1        R2        R3        R4        A1
           R1           0.25867
           R2          -0.00318   0.25867
           R3          -0.00318  -0.00318   0.25867
           R4          -0.00318  -0.00318  -0.00318   0.25867
           A1           0.00000   0.00000   0.00000   0.00000   0.16000
           A2          -0.00000  -0.00000  -0.00000  -0.00000   0.00000
           A3           0.00000   0.00000   0.00000   0.00000  -0.00000
           A4           0.00000   0.00000   0.00000   0.00000  -0.00000
           A5          -0.00000  -0.00000  -0.00000  -0.00000   0.00000
           A6           0.00000   0.00000   0.00000   0.00000  -0.00000
           D1           0.00000   0.00000   0.00000   0.00000  -0.00000
           D2          -0.00000  -0.00000  -0.00000  -0.00000   0.00000
           D3           0.00000   0.00000   0.00000   0.00000  -0.00000
           D4           0.00000   0.00000   0.00000   0.00000  -0.00000
                          A2        A3        A4        A5        A6
           A2           0.16000
           A3          -0.00000   0.16000
           A4          -0.00000   0.00000   0.16000
           A5           0.00000  -0.00000  -0.00000   0.16000
           A6          -0.00000   0.00000   0.00000  -0.00000   0.16000
           D1          -0.00000   0.00000   0.00000  -0.00000   0.00000
           D2           0.00000  -0.00000  -0.00000   0.00000  -0.00000
           D3          -0.00000   0.00000   0.00000  -0.00000   0.00000
           D4          -0.00000   0.00000   0.00000  -0.00000   0.00000
                          D1        D2        D3        D4
           D1           0.00230
           D2          -0.00000   0.00230
           D3           0.00000  -0.00000   0.00230
           D4           0.00000  -0.00000   0.00000   0.00230
 ITU=  1  0
 Use linear search instead of GDIIS.
     Eigenvalues ---    0.05082   0.05715   0.08641   0.16000   0.16000
     Eigenvalues ---    0.24913   0.26185   0.26185   0.26185
 RFO step:  Lambda= 0.00000000D+00 EMin= 5.08230769D-02
 Quartic linear search produced a step of  0.11361.
 Iteration  1 RMS(Cart)=  0.00627022 RMS(Int)=  0.00000000
 Iteration  2 RMS(Cart)=  0.00000000 RMS(Int)=  0.00000000
 ClnCor:  largest displacement from symmetrization is 2.00D-14 for atom     4.
 Variable       Old X    -DE/DX   Delta X   Delta X   Delta X     New X
                                 (Linear)    (Quad)   (Total)
    R1        2.33313   0.00252   0.01173   0.00000   0.01173   2.34486
    R2        2.33313   0.00252   0.01173  -0.00000   0.01173   2.34486
    R3        2.33313   0.00252   0.01173  -0.00000   0.01173   2.34486
    R4        2.33313   0.00252   0.01173   0.00000   0.01173   2.34486
    A1        1.91063   0.00000  -0.00000   0.00000   0.00000   1.91063
    A2        1.91063   0.00000  -0.00000   0.00000   0.00000   1.91063
    A3        1.91063   0.00000   0.00000   0.00000  -0.00000   1.91063
    A4        1.91063  -0.00000   0.00000  -0.00000  -0.00000   1.91063
    A5        1.91063   0.00000  -0.00000  -0.00000   0.00000   1.91063
    A6        1.91063  -0.00000  -0.00000  -0.00000   0.00000   1.91063
    D1       -2.09440  -0.00000   0.00000  -0.00000   0.00000  -2.09440
    D2        2.09440   0.00000  -0.00000   0.00000   0.00000   2.09440
    D3       -2.09440  -0.00000   0.00000  -0.00000   0.00000  -2.09440
    D4        2.09440  -0.00000   0.00000  -0.00000  -0.00000   2.09440
         Item               Value     Threshold  Converged?
 Maximum Force            0.002518     0.000450     NO 
 RMS     Force            0.001346     0.000300     NO 
 Maximum Displacement     0.011731     0.001800     NO 
 RMS     Displacement     0.006270     0.001200     NO 
 Predicted change in Energy=-4.957193D-05
 GradGradGradGradGradGradGradGradGradGradGradGradGradGradGradGradGradGrad

                          Input orientation:                          
 ---------------------------------------------------------------------
 Center     Atomic      Atomic             Coordinates (Angstroms)
 Number     Number       Type             X           Y           Z
 ---------------------------------------------------------------------
      1          5           0        0.464317    0.950767   -0.000000
      2          1           0        1.634197    0.950768   -0.413615
      3          1           0       -0.120623    1.963914   -0.413615
      4          1           0       -0.120623   -0.062379   -0.413615
      5          1           0        0.464317    0.950767    1.240846
 ---------------------------------------------------------------------
                    Distance matrix (angstroms):
                    1          2          3          4          5
     1  B    0.000000
     2  H    1.240846   0.000000
     3  H    1.240846   2.026292   0.000000
     4  H    1.240846   2.026292   2.026292   0.000000
     5  H    1.240846   2.026292   2.026292   2.026292   0.000000
 Stoichiometry    BH4(1-)
 Framework group  TD[O(B),4C3(H)]
 Deg. of freedom     1
 Full point group                 TD      NOp  24
 Largest Abelian subgroup         D2      NOp   4
 Largest concise Abelian subgroup D2      NOp   4
                         Standard orientation:                         
 ---------------------------------------------------------------------
 Center     Atomic      Atomic             Coordinates (Angstroms)
 Number     Number       Type             X           Y           Z
 ---------------------------------------------------------------------
      1          5           0        0.000000    0.000000    0.000000
      2          1           0        0.716403    0.716403    0.716403
      3          1           0       -0.716403    0.716403   -0.716403
      4          1           0        0.716403   -0.716403   -0.716403
      5          1           0       -0.716403   -0.716403    0.716403
 ---------------------------------------------------------------------
 Rotational constants (GHZ):         122.1315469         122.1315469         122.1315469
 Standard basis: 3-21G (6D, 7F)
 There are     5 symmetry adapted cartesian basis functions of A   symmetry.
 There are     4 symmetry adapted cartesian basis functions of B1  symmetry.
 There are     4 symmetry adapted cartesian basis functions of B2  symmetry.
 There are     4 symmetry adapted cartesian basis functions of B3  symmetry.
 There are     5 symmetry adapted basis functions of A   symmetry.
 There are     4 symmetry adapted basis functions of B1  symmetry.
 There are     4 symmetry adapted basis functions of B2  symmetry.
 There are     4 symmetry adapted basis functions of B3  symmetry.
    17 basis functions,    27 primitive gaussians,    17 cartesian basis functions
     5 alpha electrons        5 beta electrons
       nuclear repulsion energy        10.0962325891 Hartrees.
 NAtoms=    5 NActive=    5 NUniq=    2 SFac= 4.00D+00 NAtFMM=   60 NAOKFM=F Big=F
 Integral buffers will be    131072 words long.
 Raffenetti 1 integral format.
 Two-electron integral symmetry is turned on.
 One-electron integrals computed using PRISM.
 NBasis=    17 RedAO= T EigKep=  1.80D-02  NBF=     5     4     4     4
 NBsUse=    17 1.00D-06 EigRej= -1.00D+00 NBFU=     5     4     4     4
 Initial guess from the checkpoint file:  "BH4_ion_opt.chk"
 B after Tr=    -0.000000   -0.000000   -0.000000
         Rot=    1.000000   -0.000000    0.000000    0.000000 Ang=   0.00 deg.
 Initial guess orbital symmetries:
       Occupied  (A1) (A1) (T2) (T2) (T2)
       Virtual   (T2) (T2) (T2) (A1) (T2) (T2) (T2) (A1) (T2) (T2)
                 (T2) (A1)
 Keep R1 ints in memory in symmetry-blocked form, NReq=817425.
 Requested convergence on RMS density matrix=1.00D-08 within 128 cycles.
 Requested convergence on MAX density matrix=1.00D-06.
 Requested convergence on             energy=1.00D-06.
 No special actions if energy rises.
 SCF Done:  E(RHF) =  -26.8129467493     A.U. after    6 cycles
            NFock=  6  Conv=0.59D-08     -V/T= 1.9995
 Calling FoFJK, ICntrl=      2127 FMM=F ISym2X=1 I1Cent= 0 IOpClX= 0 NMat=1 NMatS=1 NMatT=0.
 ***** Axes restored to original set *****
 -------------------------------------------------------------------
 Center     Atomic                   Forces (Hartrees/Bohr)
 Number     Number              X              Y              Z
 -------------------------------------------------------------------
      1        5           0.000000000    0.000000000   -0.000000000
      2        1          -0.000007623   -0.000000000    0.000002695
      3        1           0.000003812   -0.000006602    0.000002695
      4        1           0.000003812    0.000006602    0.000002695
      5        1           0.000000000    0.000000000   -0.000008086
 -------------------------------------------------------------------
 Cartesian Forces:  Max     0.000008086 RMS     0.000004176

 GradGradGradGradGradGradGradGradGradGradGradGradGradGradGradGradGradGrad
 Berny optimization.
 Using GEDIIS/GDIIS optimizer.
 FormGI is forming the generalized inverse of G from B-inverse, IUseBI=4.
 Internal  Forces:  Max     0.000008086 RMS     0.000004322
 Search for a local minimum.
 Step number   3 out of a maximum of   24
 All quantities printed in internal units (Hartrees-Bohrs-Radians)
 Mixed Optimization -- En-DIIS/RFO-DIIS
 Update second derivatives using D2CorX and points    1    2    3
 DE= -5.86D-05 DEPred=-4.96D-05 R= 1.18D+00
 TightC=F SS=  1.41D+00  RLast= 2.35D-02 DXNew= 8.4853D-01 7.0383D-02
 Trust test= 1.18D+00 RLast= 2.35D-02 DXMaxT set to 5.05D-01
 The second derivative matrix:
                          R1        R2        R3        R4        A1
           R1           0.25021
           R2          -0.01163   0.25021
           R3          -0.01163  -0.01163   0.25021
           R4          -0.01163  -0.01163  -0.01163   0.25021
           A1          -0.00000  -0.00000  -0.00000  -0.00000   0.16000
           A2           0.00000   0.00000   0.00000   0.00000  -0.00000
           A3           0.00000   0.00000   0.00000   0.00000  -0.00000
           A4          -0.00000  -0.00000  -0.00000  -0.00000  -0.00000
           A5          -0.00000  -0.00000  -0.00000  -0.00000   0.00000
           A6          -0.00000  -0.00000  -0.00000  -0.00000   0.00000
           D1          -0.00000  -0.00000  -0.00000  -0.00000   0.00000
           D2          -0.00000  -0.00000  -0.00000  -0.00000   0.00000
           D3          -0.00000  -0.00000  -0.00000  -0.00000   0.00000
           D4          -0.00000  -0.00000  -0.00000  -0.00000   0.00000
                          A2        A3        A4        A5        A6
           A2           0.16000
           A3           0.00000   0.16000
           A4           0.00000   0.00000   0.16000
           A5          -0.00000  -0.00000   0.00000   0.16000
           A6          -0.00000  -0.00000  -0.00000   0.00000   0.16000
           D1          -0.00000  -0.00000  -0.00000   0.00000   0.00000
           D2          -0.00000  -0.00000   0.00000   0.00000   0.00000
           D3          -0.00000  -0.00000  -0.00000   0.00000   0.00000
           D4          -0.00000  -0.00000  -0.00000   0.00000   0.00000
                          D1        D2        D3        D4
           D1           0.00230
           D2           0.00000   0.00230
           D3           0.00000   0.00000   0.00230
           D4           0.00000   0.00000   0.00000   0.00230
 ITU=  1  1  0
 Use linear search instead of GDIIS.
     Eigenvalues ---    0.05082   0.05715   0.08641   0.16000   0.16000
     Eigenvalues ---    0.21531   0.26185   0.26185   0.26185
 RFO step:  Lambda= 0.00000000D+00 EMin= 5.08230769D-02
 Quartic linear search produced a step of -0.00325.
 Iteration  1 RMS(Cart)=  0.00002037 RMS(Int)=  0.00000000
 Iteration  2 RMS(Cart)=  0.00000000 RMS(Int)=  0.00000000
 ClnCor:  largest displacement from symmetrization is 7.02D-15 for atom     3.
 Variable       Old X    -DE/DX   Delta X   Delta X   Delta X     New X
                                 (Linear)    (Quad)   (Total)
    R1        2.34486  -0.00001  -0.00004  -0.00000  -0.00004   2.34482
    R2        2.34486  -0.00001  -0.00004  -0.00000  -0.00004   2.34482
    R3        2.34486  -0.00001  -0.00004   0.00000  -0.00004   2.34482
    R4        2.34486  -0.00001  -0.00004   0.00000  -0.00004   2.34482
    A1        1.91063   0.00000  -0.00000   0.00000   0.00000   1.91063
    A2        1.91063  -0.00000   0.00000  -0.00000  -0.00000   1.91063
    A3        1.91063  -0.00000   0.00000  -0.00000   0.00000   1.91063
    A4        1.91063  -0.00000  -0.00000  -0.00000   0.00000   1.91063
    A5        1.91063   0.00000   0.00000   0.00000   0.00000   1.91063
    A6        1.91063  -0.00000  -0.00000  -0.00000   0.00000   1.91063
    D1       -2.09440  -0.00000   0.00000  -0.00000   0.00000  -2.09440
    D2        2.09440   0.00000   0.00000   0.00000   0.00000   2.09440
    D3       -2.09440   0.00000   0.00000   0.00000   0.00000  -2.09440
    D4        2.09440  -0.00000   0.00000  -0.00000   0.00000   2.09440
         Item               Value     Threshold  Converged?
 Maximum Force            0.000008     0.000450     YES
 RMS     Force            0.000004     0.000300     YES
 Maximum Displacement     0.000038     0.001800     YES
 RMS     Displacement     0.000020     0.001200     YES
 Predicted change in Energy=-6.071721D-10
 Optimization completed.
    -- Stationary point found.
                           ----------------------------
                           !   Optimized Parameters   !
                           ! (Angstroms and Degrees)  !
 --------------------------                            --------------------------
 ! Name  Definition              Value          Derivative Info.                !
 --------------------------------------------------------------------------------
 ! R1    R(1,2)                  1.2408         -DE/DX =    0.0                 !
 ! R2    R(1,3)                  1.2408         -DE/DX =    0.0                 !
 ! R3    R(1,4)                  1.2408         -DE/DX =    0.0                 !
 ! R4    R(1,5)                  1.2408         -DE/DX =    0.0                 !
 ! A1    A(2,1,3)              109.4712         -DE/DX =    0.0                 !
 ! A2    A(2,1,4)              109.4712         -DE/DX =    0.0                 !
 ! A3    A(2,1,5)              109.4712         -DE/DX =    0.0                 !
 ! A4    A(3,1,4)              109.4712         -DE/DX =    0.0                 !
 ! A5    A(3,1,5)              109.4712         -DE/DX =    0.0                 !
 ! A6    A(4,1,5)              109.4712         -DE/DX =    0.0                 !
 ! D1    D(2,1,4,3)           -120.0            -DE/DX =    0.0                 !
 ! D2    D(2,1,5,3)            120.0            -DE/DX =    0.0                 !
 ! D3    D(2,1,5,4)           -120.0            -DE/DX =    0.0                 !
 ! D4    D(3,1,5,4)            120.0            -DE/DX =    0.0                 !
 --------------------------------------------------------------------------------
 GradGradGradGradGradGradGradGradGradGradGradGradGradGradGradGradGradGrad

                          Input orientation:                          
 ---------------------------------------------------------------------
 Center     Atomic      Atomic             Coordinates (Angstroms)
 Number     Number       Type             X           Y           Z
 ---------------------------------------------------------------------
      1          5           0        0.464317    0.950767   -0.000000
      2          1           0        1.634197    0.950768   -0.413615
      3          1           0       -0.120623    1.963914   -0.413615
      4          1           0       -0.120623   -0.062379   -0.413615
      5          1           0        0.464317    0.950767    1.240846
 ---------------------------------------------------------------------
                    Distance matrix (angstroms):
                    1          2          3          4          5
     1  B    0.000000
     2  H    1.240846   0.000000
     3  H    1.240846   2.026292   0.000000
     4  H    1.240846   2.026292   2.026292   0.000000
     5  H    1.240846   2.026292   2.026292   2.026292   0.000000
 Stoichiometry    BH4(1-)
 Framework group  TD[O(B),4C3(H)]
 Deg. of freedom     1
 Full point group                 TD      NOp  24
 Largest Abelian subgroup         D2      NOp   4
 Largest concise Abelian subgroup D2      NOp   4
                         Standard orientation:                         
 ---------------------------------------------------------------------
 Center     Atomic      Atomic             Coordinates (Angstroms)
 Number     Number       Type             X           Y           Z
 ---------------------------------------------------------------------
      1          5           0        0.000000    0.000000    0.000000
      2          1           0        0.716403    0.716403    0.716403
      3          1           0       -0.716403    0.716403   -0.716403
      4          1           0        0.716403   -0.716403   -0.716403
      5          1           0       -0.716403   -0.716403    0.716403
 ---------------------------------------------------------------------
 Rotational constants (GHZ):         122.1315469         122.1315469         122.1315469

 **********************************************************************

            Population analysis using the SCF Density.

 **********************************************************************

 Orbital symmetries:
       Occupied  (A1) (A1) (T2) (T2) (T2)
       Virtual   (T2) (T2) (T2) (A1) (T2) (T2) (T2) (A1) (T2) (T2)
                 (T2) (A1)
 The electronic state is 1-A1.
 Alpha  occ. eigenvalues --   -7.22703  -0.43272  -0.17024  -0.17024  -0.17024
 Alpha virt. eigenvalues --    0.55533   0.55533   0.55533   0.66856   0.91454
 Alpha virt. eigenvalues --    0.91454   0.91454   1.23397   1.66039   1.66039
 Alpha virt. eigenvalues --    1.66039   1.69874
     Molecular Orbital Coefficients:
                           1         2         3         4         5
                        (A1)--O   (A1)--O   (T2)--O   (T2)--O   (T2)--O
     Eigenvalues --    -7.22703  -0.43272  -0.17024  -0.17024  -0.17024
   1 1   B  1S          0.98824  -0.18616   0.00000   0.00000   0.00000
   2        2S          0.09184   0.18942   0.00000   0.00000   0.00000
   3        2PX         0.00000   0.00000   0.00000   0.00000   0.29754
   4        2PY         0.00000   0.00000   0.29754   0.00000   0.00000
   5        2PZ         0.00000   0.00000   0.00000   0.29754   0.00000
   6        3S         -0.07631   0.39020   0.00000   0.00000   0.00000
   7        3PX         0.00000   0.00000   0.00000   0.00000   0.19296
   8        3PY         0.00000   0.00000   0.19296   0.00000   0.00000
   9        3PZ         0.00000   0.00000   0.00000   0.19296   0.00000
  10 2   H  1S         -0.00415   0.12793   0.14660   0.14660   0.14660
  11        2S          0.01837   0.11375   0.24764   0.24764   0.24764
  12 3   H  1S         -0.00415   0.12793   0.14660  -0.14660  -0.14660
  13        2S          0.01837   0.11375   0.24764  -0.24764  -0.24764
  14 4   H  1S         -0.00415   0.12793  -0.14660  -0.14660   0.14660
  15        2S          0.01837   0.11375  -0.24764  -0.24764   0.24764
  16 5   H  1S         -0.00415   0.12793  -0.14660   0.14660  -0.14660
  17        2S          0.01837   0.11375  -0.24764   0.24764  -0.24764
                           6         7         8         9        10
                        (T2)--V   (T2)--V   (T2)--V   (A1)--V   (T2)--V
     Eigenvalues --     0.55533   0.55533   0.55533   0.66856   0.91454
   1 1   B  1S          0.00000   0.00000   0.00000  -0.20075   0.00000
   2        2S          0.00000   0.00000   0.00000   0.20203   0.00000
   3        2PX         0.12741   0.00000   0.00000   0.00000   1.06821
   4        2PY         0.00000   0.00000   0.12741   0.00000   0.00000
   5        2PZ         0.00000   0.12741   0.00000   0.00000   0.00000
   6        3S          0.00000   0.00000   0.00000   3.63546   0.00000
   7        3PX         1.79190   0.00000   0.00000   0.00000  -0.79001
   8        3PY         0.00000   0.00000   1.79190   0.00000   0.00000
   9        3PZ         0.00000   1.79190   0.00000   0.00000   0.00000
  10 2   H  1S         -0.04607  -0.04607  -0.04607   0.02748   0.12548
  11        2S         -0.98495  -0.98495  -0.98495  -1.44092  -0.17058
  12 3   H  1S          0.04607   0.04607  -0.04607   0.02748  -0.12548
  13        2S          0.98495   0.98495  -0.98495  -1.44092   0.17058
  14 4   H  1S         -0.04607   0.04607   0.04607   0.02748   0.12548
  15        2S         -0.98495   0.98495   0.98495  -1.44092  -0.17058
  16 5   H  1S          0.04607  -0.04607   0.04607   0.02748  -0.12548
  17        2S          0.98495  -0.98495   0.98495  -1.44092   0.17058
                          11        12        13        14        15
                        (T2)--V   (T2)--V   (A1)--V   (T2)--V   (T2)--V
     Eigenvalues --     0.91454   0.91454   1.23397   1.66039   1.66039
   1 1   B  1S          0.00000   0.00000  -0.06134   0.00000   0.00000
   2        2S          0.00000   0.00000  -1.44486   0.00000   0.00000
   3        2PX         0.00000   0.00000   0.00000   0.49583   0.00000
   4        2PY         0.00000   1.06821   0.00000   0.00000   0.00000
   5        2PZ         1.06821   0.00000   0.00000   0.00000   0.49583
   6        3S          0.00000   0.00000   3.34008   0.00000   0.00000
   7        3PX         0.00000   0.00000   0.00000  -0.86343   0.00000
   8        3PY         0.00000  -0.79001   0.00000   0.00000   0.00000
   9        3PZ        -0.79001   0.00000   0.00000   0.00000  -0.86343
  10 2   H  1S          0.12548   0.12548  -0.34093  -0.67796  -0.67796
  11        2S         -0.17058  -0.17058  -0.61602   0.91436   0.91436
  12 3   H  1S         -0.12548   0.12548  -0.34093   0.67796   0.67796
  13        2S          0.17058  -0.17058  -0.61602  -0.91436  -0.91436
  14 4   H  1S         -0.12548  -0.12548  -0.34093  -0.67796   0.67796
  15        2S          0.17058   0.17058  -0.61602   0.91436  -0.91436
  16 5   H  1S          0.12548  -0.12548  -0.34093   0.67796  -0.67796
  17        2S         -0.17058   0.17058  -0.61602  -0.91436   0.91436
                          16        17
                        (T2)--V   (A1)--V
     Eigenvalues --     1.66039   1.69874
   1 1   B  1S          0.00000   0.06321
   2        2S          0.00000  -1.28207
   3        2PX         0.00000   0.00000
   4        2PY         0.49583   0.00000
   5        2PZ         0.00000   0.00000
   6        3S          0.00000   3.63819
   7        3PX         0.00000   0.00000
   8        3PY        -0.86343   0.00000
   9        3PZ         0.00000   0.00000
  10 2   H  1S         -0.67796   0.56753
  11        2S          0.91436  -1.31198
  12 3   H  1S         -0.67796   0.56753
  13        2S          0.91436  -1.31198
  14 4   H  1S          0.67796   0.56753
  15        2S         -0.91436  -1.31198
  16 5   H  1S          0.67796   0.56753
  17        2S         -0.91436  -1.31198
     Density Matrix:
                           1         2         3         4         5
   1 1   B  1S          2.02256
   2        2S          0.11099   0.08863
   3        2PX         0.00000   0.00000   0.17705
   4        2PY         0.00000   0.00000  -0.00000   0.17705
   5        2PZ         0.00000   0.00000  -0.00000  -0.00000   0.17705
   6        3S         -0.29611   0.13381   0.00000   0.00000   0.00000
   7        3PX         0.00000   0.00000   0.11483  -0.00000  -0.00000
   8        3PY         0.00000   0.00000  -0.00000   0.11483  -0.00000
   9        3PZ         0.00000   0.00000  -0.00000  -0.00000   0.11483
  10 2   H  1S         -0.05582   0.04770   0.08723   0.08723   0.08723
  11        2S         -0.00605   0.04647   0.14736   0.14736   0.14736
  12 3   H  1S         -0.05582   0.04770  -0.08723   0.08723  -0.08723
  13        2S         -0.00605   0.04647  -0.14736   0.14736  -0.14736
  14 4   H  1S         -0.05582   0.04770   0.08723  -0.08723  -0.08723
  15        2S         -0.00605   0.04647   0.14736  -0.14736  -0.14736
  16 5   H  1S         -0.05582   0.04770  -0.08723  -0.08723   0.08723
  17        2S         -0.00605   0.04647  -0.14736  -0.14736   0.14736
                           6         7         8         9        10
   6        3S          0.31615
   7        3PX         0.00000   0.07447
   8        3PY         0.00000  -0.00000   0.07447
   9        3PZ         0.00000  -0.00000  -0.00000   0.07447
  10 2   H  1S          0.10046   0.05657   0.05657   0.05657   0.16171
  11        2S          0.08596   0.09557   0.09557   0.09557   0.24677
  12 3   H  1S          0.10046  -0.05657   0.05657  -0.05657  -0.01022
  13        2S          0.08596  -0.09557   0.09557  -0.09557  -0.04366
  14 4   H  1S          0.10046   0.05657  -0.05657  -0.05657  -0.01022
  15        2S          0.08596   0.09557  -0.09557  -0.09557  -0.04366
  16 5   H  1S          0.10046  -0.05657  -0.05657   0.05657  -0.01022
  17        2S          0.08596  -0.09557  -0.09557   0.09557  -0.04366
                          11        12        13        14        15
  11        2S          0.39450
  12 3   H  1S         -0.04366   0.16171
  13        2S         -0.09610   0.24677   0.39450
  14 4   H  1S         -0.04366  -0.01022  -0.04366   0.16171
  15        2S         -0.09610  -0.04366  -0.09610   0.24677   0.39450
  16 5   H  1S         -0.04366  -0.01022  -0.04366  -0.01022  -0.04366
  17        2S         -0.09610  -0.04366  -0.09610  -0.04366  -0.09610
                          16        17
  16 5   H  1S          0.16171
  17        2S          0.24677   0.39450
    Full Mulliken population analysis:
                           1         2         3         4         5
   1 1   B  1S          2.02256
   2        2S          0.02029   0.08863
   3        2PX         0.00000   0.00000   0.17705
   4        2PY         0.00000   0.00000   0.00000   0.17705
   5        2PZ         0.00000   0.00000   0.00000   0.00000   0.17705
   6        3S         -0.05148   0.10374   0.00000   0.00000   0.00000
   7        3PX         0.00000   0.00000   0.06330   0.00000   0.00000
   8        3PY         0.00000   0.00000   0.00000   0.06330   0.00000
   9        3PZ         0.00000   0.00000   0.00000   0.00000   0.06330
  10 2   H  1S         -0.00066   0.00936   0.01616   0.01616   0.01616
  11        2S         -0.00052   0.02056   0.02919   0.02919   0.02919
  12 3   H  1S         -0.00066   0.00936   0.01616   0.01616   0.01616
  13        2S         -0.00052   0.02056   0.02919   0.02919   0.02919
  14 4   H  1S         -0.00066   0.00936   0.01616   0.01616   0.01616
  15        2S         -0.00052   0.02056   0.02919   0.02919   0.02919
  16 5   H  1S         -0.00066   0.00936   0.01616   0.01616   0.01616
  17        2S         -0.00052   0.02056   0.02919   0.02919   0.02919
                           6         7         8         9        10
   6        3S          0.31615
   7        3PX         0.00000   0.07447
   8        3PY         0.00000   0.00000   0.07447
   9        3PZ         0.00000   0.00000   0.00000   0.07447
  10 2   H  1S          0.02911   0.01368   0.01368   0.01368   0.16171
  11        2S          0.05563   0.03517   0.03517   0.03517   0.15939
  12 3   H  1S          0.02911   0.01368   0.01368   0.01368  -0.00002
  13        2S          0.05563   0.03517   0.03517   0.03517  -0.00308
  14 4   H  1S          0.02911   0.01368   0.01368   0.01368  -0.00002
  15        2S          0.05563   0.03517   0.03517   0.03517  -0.00308
  16 5   H  1S          0.02911   0.01368   0.01368   0.01368  -0.00002
  17        2S          0.05563   0.03517   0.03517   0.03517  -0.00308
                          11        12        13        14        15
  11        2S          0.39450
  12 3   H  1S         -0.00308   0.16171
  13        2S         -0.02509   0.15939   0.39450
  14 4   H  1S         -0.00308  -0.00002  -0.00308   0.16171
  15        2S         -0.02509  -0.00308  -0.02509   0.15939   0.39450
  16 5   H  1S         -0.00308  -0.00002  -0.00308  -0.00002  -0.00308
  17        2S         -0.02509  -0.00308  -0.02509  -0.00308  -0.02509
                          16        17
  16 5   H  1S          0.16171
  17        2S          0.15939   0.39450
     Gross orbital populations:
                           1
   1 1   B  1S          1.98665
   2        2S          0.33231
   3        2PX         0.42174
   4        2PY         0.42174
   5        2PZ         0.42174
   6        3S          0.70737
   7        3PX         0.33316
   8        3PY         0.33316
   9        3PZ         0.33316
  10 2   H  1S          0.43910
  11        2S          0.73813
  12 3   H  1S          0.43910
  13        2S          0.73813
  14 4   H  1S          0.43910
  15        2S          0.73813
  16 5   H  1S          0.43910
  17        2S          0.73813
          Condensed to atoms (all electrons):
               1          2          3          4          5
     1  B    3.706825   0.396056   0.396056   0.396056   0.396056
     2  H    0.396056   0.874974  -0.031264  -0.031264  -0.031264
     3  H    0.396056  -0.031264   0.874974  -0.031264  -0.031264
     4  H    0.396056  -0.031264  -0.031264   0.874974  -0.031264
     5  H    0.396056  -0.031264  -0.031264  -0.031264   0.874974
 Mulliken charges:
               1
     1  B   -0.291050
     2  H   -0.177238
     3  H   -0.177238
     4  H   -0.177238
     5  H   -0.177238
 Sum of Mulliken charges =  -1.00000
 Mulliken charges with hydrogens summed into heavy atoms:
               1
     1  B   -1.000000
 Electronic spatial extent (au):  <R**2>=             54.1163
 Charge=             -1.0000 electrons
 Dipole moment (field-independent basis, Debye):
    X=              0.0000    Y=              0.0000    Z=              0.0000  Tot=              0.0000
 Quadrupole moment (field-independent basis, Debye-Ang):
   XX=            -14.4021   YY=            -14.4021   ZZ=            -14.4021
   XY=              0.0000   XZ=              0.0000   YZ=              0.0000
 Traceless Quadrupole moment (field-independent basis, Debye-Ang):
   XX=             -0.0000   YY=              0.0000   ZZ=             -0.0000
   XY=              0.0000   XZ=              0.0000   YZ=              0.0000
 Octapole moment (field-independent basis, Debye-Ang**2):
  XXX=              0.0000  YYY=              0.0000  ZZZ=              0.0000  XYY=              0.0000
  XXY=              0.0000  XXZ=              0.0000  XZZ=              0.0000  YZZ=              0.0000
  YYZ=              0.0000  XYZ=             -1.6218
 Hexadecapole moment (field-independent basis, Debye-Ang**3):
 XXXX=            -33.4953 YYYY=            -33.4953 ZZZZ=            -33.4953 XXXY=              0.0000
 XXXZ=              0.0000 YYYX=              0.0000 YYYZ=              0.0000 ZZZX=              0.0000
 ZZZY=              0.0000 XXYY=            -11.6968 XXZZ=            -11.6968 YYZZ=            -11.6968
 XXYZ=              0.0000 YYXZ=              0.0000 ZZXY=              0.0000
 N-N= 1.009623258909D+01 E-N=-8.430427887703D+01  KE= 2.682685306946D+01
 Symmetry A    KE= 2.311154074552D+01
 Symmetry B1   KE= 1.238437441315D+00
 Symmetry B2   KE= 1.238437441315D+00
 Symmetry B3   KE= 1.238437441315D+00
 Orbital energies and kinetic energies (alpha):
                                 1                 2
   1         (A1)--O          -7.227028         10.802165
   2         (A1)--O          -0.432716          0.753606
   3         (T2)--O          -0.170241          0.619219
   4         (T2)--O          -0.170241          0.619219
   5         (T2)--O          -0.170241          0.619219
   6         (T2)--V           0.555329          0.536150
   7         (T2)--V           0.555329          0.536150
   8         (T2)--V           0.555329          0.536150
   9         (A1)--V           0.668556          1.130629
  10         (T2)--V           0.914538          1.579446
  11         (T2)--V           0.914538          1.579446
  12         (T2)--V           0.914538          1.579446
  13         (A1)--V           1.233967          1.469410
  14         (T2)--V           1.660387          2.473784
  15         (T2)--V           1.660387          2.473784
  16         (T2)--V           1.660387          2.473784
  17         (A1)--V           1.698736          2.607894
 Total kinetic energy from orbitals= 2.682685306946D+01
 1\1\GINC-IISERK51\FOpt\RHF\3-21G\B1H4(1-)\GAUSSIAN\13-Jun-2025\0\\# op
 t freq hf/3-21g pop=full geom=connectivity\\Title Card Required\\-1,1\
 B,0.4643169411,0.9507674989,-0.0000000011\H,1.6341973665,0.9507675521,
 -0.4136151719\H,-0.1206232995,1.9639136495,-0.4136151745\H,-0.12062322
 46,-0.0623786751,-0.4136152231\H,0.4643169221,0.9507674691,1.240845565
 1\\Version=EM64L-G16RevB.01\State=1-A1\HF=-26.8129467\RMSD=5.863e-09\R
 MSF=4.176e-06\Dipole=0.,0.,0.\Quadrupole=0.,0.,0.,0.,0.,0.\PG=TD [O(B1
 ),4C3(H1)]\\@


 I DON'T EXACTLY UNDERSTAND WHAT YOU ARE SAYING,
 BUT YOU ARE ABSOLUTELY RIGHT.
     M.S.GORDON, IN A NDSU FACULTY MEETING
 Job cpu time:       0 days  0 hours  0 minutes  1.1 seconds.
 Elapsed time:       0 days  0 hours  0 minutes  1.1 seconds.
 File lengths (MBytes):  RWF=      6 Int=      0 D2E=      0 Chk=      1 Scr=      1
 Normal termination of Gaussian 16 at Fri Jun 13 20:30:20 2025.
 Link1:  Proceeding to internal job step number  2.
 --------------------------------------------------------------
 #N Geom=AllCheck Guess=TCheck SCRF=Check GenChk RHF/3-21G Freq
 --------------------------------------------------------------
 1/10=4,29=7,30=1,38=1,40=1/1,3;
 2/12=2,40=1/2;
 3/5=5,11=1,14=-4,25=1,30=1,70=2,71=2,116=1,140=1/1,2,3;
 4/5=101/1;
 5/5=2,38=6,98=1/2;
 8/6=4,10=90,11=11/1;
 10/13=10,15=4/2;
 11/6=3,8=1,9=11,15=111,16=1/1,2,10;
 10/6=1/2;
 6/7=3,28=1/1;
 7/8=1,10=1,25=1/1,2,3,16;
 1/10=4,30=1/3;
 99//99;
 Structure from the checkpoint file:  "BH4_ion_opt.chk"
 -------------------
 Title Card Required
 -------------------
 Charge = -1 Multiplicity = 1
 Redundant internal coordinates found in file.  (old form).
 B,0,0.4643169411,0.9507674989,-0.0000000011
 H,0,1.6341973665,0.9507675521,-0.4136151719
 H,0,-0.1206232995,1.9639136495,-0.4136151745
 H,0,-0.1206232246,-0.0623786751,-0.4136152231
 H,0,0.4643169221,0.9507674691,1.2408455651
 Recover connectivity data from disk.

 GradGradGradGradGradGradGradGradGradGradGradGradGradGradGradGradGradGrad
 Berny optimization.
 Initialization pass.
                           ----------------------------
                           !    Initial Parameters    !
                           ! (Angstroms and Degrees)  !
 --------------------------                            --------------------------
 ! Name  Definition              Value          Derivative Info.                !
 --------------------------------------------------------------------------------
 ! R1    R(1,2)                  1.2408         calculate D2E/DX2 analytically  !
 ! R2    R(1,3)                  1.2408         calculate D2E/DX2 analytically  !
 ! R3    R(1,4)                  1.2408         calculate D2E/DX2 analytically  !
 ! R4    R(1,5)                  1.2408         calculate D2E/DX2 analytically  !
 ! A1    A(2,1,3)              109.4712         calculate D2E/DX2 analytically  !
 ! A2    A(2,1,4)              109.4712         calculate D2E/DX2 analytically  !
 ! A3    A(2,1,5)              109.4712         calculate D2E/DX2 analytically  !
 ! A4    A(3,1,4)              109.4712         calculate D2E/DX2 analytically  !
 ! A5    A(3,1,5)              109.4712         calculate D2E/DX2 analytically  !
 ! A6    A(4,1,5)              109.4712         calculate D2E/DX2 analytically  !
 ! D1    D(2,1,4,3)           -120.0            calculate D2E/DX2 analytically  !
 ! D2    D(2,1,5,3)            120.0            calculate D2E/DX2 analytically  !
 ! D3    D(2,1,5,4)           -120.0            calculate D2E/DX2 analytically  !
 ! D4    D(3,1,5,4)            120.0            calculate D2E/DX2 analytically  !
 --------------------------------------------------------------------------------
 Trust Radius=3.00D-01 FncErr=1.00D-07 GrdErr=1.00D-07 EigMax=2.50D+02 EigMin=1.00D-04
 Number of steps in this run=      2 maximum allowed number of steps=      2.
 GradGradGradGradGradGradGradGradGradGradGradGradGradGradGradGradGradGrad

                          Input orientation:                          
 ---------------------------------------------------------------------
 Center     Atomic      Atomic             Coordinates (Angstroms)
 Number     Number       Type             X           Y           Z
 ---------------------------------------------------------------------
      1          5           0        0.464317    0.950767   -0.000000
      2          1           0        1.634197    0.950768   -0.413615
      3          1           0       -0.120623    1.963914   -0.413615
      4          1           0       -0.120623   -0.062379   -0.413615
      5          1           0        0.464317    0.950767    1.240846
 ---------------------------------------------------------------------
                    Distance matrix (angstroms):
                    1          2          3          4          5
     1  B    0.000000
     2  H    1.240846   0.000000
     3  H    1.240846   2.026292   0.000000
     4  H    1.240846   2.026292   2.026292   0.000000
     5  H    1.240846   2.026292   2.026292   2.026292   0.000000
 Stoichiometry    BH4(1-)
 Framework group  TD[O(B),4C3(H)]
 Deg. of freedom     1
 Full point group                 TD      NOp  24
 Largest Abelian subgroup         D2      NOp   4
 Largest concise Abelian subgroup D2      NOp   4
                         Standard orientation:                         
 ---------------------------------------------------------------------
 Center     Atomic      Atomic             Coordinates (Angstroms)
 Number     Number       Type             X           Y           Z
 ---------------------------------------------------------------------
      1          5           0        0.000000    0.000000    0.000000
      2          1           0        0.716403    0.716403    0.716403
      3          1           0       -0.716403    0.716403   -0.716403
      4          1           0        0.716403   -0.716403   -0.716403
      5          1           0       -0.716403   -0.716403    0.716403
 ---------------------------------------------------------------------
 Rotational constants (GHZ):         122.1315469         122.1315469         122.1315469
 Standard basis: 3-21G (6D, 7F)
 There are     5 symmetry adapted cartesian basis functions of A   symmetry.
 There are     4 symmetry adapted cartesian basis functions of B1  symmetry.
 There are     4 symmetry adapted cartesian basis functions of B2  symmetry.
 There are     4 symmetry adapted cartesian basis functions of B3  symmetry.
 There are     5 symmetry adapted basis functions of A   symmetry.
 There are     4 symmetry adapted basis functions of B1  symmetry.
 There are     4 symmetry adapted basis functions of B2  symmetry.
 There are     4 symmetry adapted basis functions of B3  symmetry.
    17 basis functions,    27 primitive gaussians,    17 cartesian basis functions
     5 alpha electrons        5 beta electrons
       nuclear repulsion energy        10.0962325891 Hartrees.
 NAtoms=    5 NActive=    5 NUniq=    2 SFac= 4.00D+00 NAtFMM=   60 NAOKFM=F Big=F
 Integral buffers will be    131072 words long.
 Raffenetti 1 integral format.
 Two-electron integral symmetry is turned on.
 One-electron integrals computed using PRISM.
 NBasis=    17 RedAO= T EigKep=  1.80D-02  NBF=     5     4     4     4
 NBsUse=    17 1.00D-06 EigRej= -1.00D+00 NBFU=     5     4     4     4
 Initial guess from the checkpoint file:  "BH4_ion_opt.chk"
 B after Tr=    -0.000000   -0.000000    0.000000
         Rot=    1.000000   -0.000000    0.000000   -0.000000 Ang=   0.00 deg.
 Initial guess orbital symmetries:
       Occupied  (A1) (A1) (T2) (T2) (T2)
       Virtual   (T2) (T2) (T2) (A1) (T2) (T2) (T2) (A1) (T2) (T2)
                 (T2) (A1)
 Keep R1 ints in memory in symmetry-blocked form, NReq=817425.
 Requested convergence on RMS density matrix=1.00D-08 within 128 cycles.
 Requested convergence on MAX density matrix=1.00D-06.
 Requested convergence on             energy=1.00D-06.
 No special actions if energy rises.
 SCF Done:  E(RHF) =  -26.8129467493     A.U. after    1 cycles
            NFock=  1  Conv=0.11D-08     -V/T= 1.9995
 Range of M.O.s used for correlation:     1    17
 NBasis=    17 NAE=     5 NBE=     5 NFC=     0 NFV=     0
 NROrb=     17 NOA=     5 NOB=     5 NVA=    12 NVB=    12
          Differentiating once with respect to electric field.
                with respect to dipole field.
          Electric field/nuclear overlap derivatives assumed to be zero.
 Keep R1 ints in memory in symmetry-blocked form, NReq=818100.
          There are     3 degrees of freedom in the 1st order CPHF.  IDoFFX=0 NUNeed=     3.
      3 vectors produced by pass  0 Test12= 2.00D-15 3.33D-08 XBig12= 4.58D+00 1.35D+00.
 AX will form     3 AO Fock derivatives at one time.
      3 vectors produced by pass  1 Test12= 2.00D-15 3.33D-08 XBig12= 2.40D-02 7.36D-02.
[...]
 Calling FoFJK, ICntrl=    100127 FMM=F ISym2X=1 I1Cent= 0 IOpClX= 0 NMat=1 NMatS=1 NMatT=0.
 Full mass-weighted force constant matrix:
 Low frequencies ---   -0.0014   -0.0014    0.0005    9.5029    9.5029    9.5029
 Low frequencies --- 1219.5873 1219.5873 1219.5873
 Diagonal vibrational polarizability:
        3.7623096       3.7623096       3.7623096
 Diagonal vibrational hyperpolarizability:
        0.0000003       0.0000003       0.0000003
 Harmonic frequencies (cm**-1), IR intensities (KM/Mole), Raman scattering
 activities (A**4/AMU), depolarization ratios for plane and unpolarized
 incident light, reduced masses (AMU), force constants (mDyne/A),
 and normal coordinates:
                      1                      2                      3
                     T2                     T2                     T2
 Frequencies --   1219.5873              1219.5873              1219.5873
 Red. masses --      1.1967                 1.1967                 1.1967
 Frc consts  --      1.0487                 1.0487                 1.0487
 IR Inten    --     67.5794                67.5794                67.5794
 Raman Activ --      8.0648                 8.0648                 8.0648
 Depolar (P) --      0.7500                 0.7500                 0.7500
 Depolar (U) --      0.8571                 0.8571                 0.8571
  Atom  AN      X      Y      Z        X      Y      Z        X      Y      Z
     1   5    -0.08  -0.08  -0.08    -0.11   0.03   0.08     0.02  -0.11   0.08
     2   1    -0.05  -0.05  -0.05     0.48  -0.15  -0.33    -0.10   0.47  -0.36
     3   1     0.22   0.48   0.22     0.37  -0.04  -0.45     0.25   0.11  -0.01
     4   1     0.48   0.22   0.22     0.12   0.21   0.03    -0.03   0.39  -0.44
     5   1     0.22   0.22   0.48     0.23  -0.40  -0.08    -0.38   0.19  -0.09
                      4                      5                      6
                      E                      E                     T2
 Frequencies --   1330.4802              1330.4802              2337.4733
 Red. masses --      1.0078                 1.0078                 1.1023
 Frc consts  --      1.0511                 1.0511                 3.5483
 IR Inten    --      0.0000                 0.0000               515.6160
 Raman Activ --     78.8273                78.8273                67.1249
 Depolar (P) --      0.7500                 0.7500                 0.7500
 Depolar (U) --      0.8571                 0.8571                 0.8571
  Atom  AN      X      Y      Z        X      Y      Z        X      Y      Z
     1   5     0.00  -0.00   0.00     0.00   0.00  -0.00    -0.07   0.07  -0.00
     2   1    -0.29   0.39  -0.10    -0.28  -0.11   0.40    -0.02   0.02  -0.00
     3   1     0.29   0.39   0.10     0.28  -0.11  -0.40     0.41  -0.41   0.43
     4   1    -0.29  -0.39   0.10    -0.28   0.11  -0.40     0.39  -0.39  -0.41
     5   1     0.29  -0.39  -0.10     0.28   0.11   0.40    -0.04   0.00   0.02
                      7                      8                      9
                     T2                     T2                     A1
 Frequencies --   2337.4733              2337.4733              2358.5025
 Red. masses --      1.1023                 1.1023                 1.0078
 Frc consts  --      3.5483                 3.5483                 3.3030
 IR Inten    --    515.6160               515.6160                 0.0000
 Raman Activ --     67.1249                67.1249               155.3574
 Depolar (P) --      0.7500                 0.7500                 0.0000
 Depolar (U) --      0.8571                 0.8571                 0.0000
  Atom  AN      X      Y      Z        X      Y      Z        X      Y      Z
     1   5    -0.04  -0.04   0.08    -0.06  -0.06  -0.06    -0.00  -0.00  -0.00
     2   1    -0.01  -0.01   0.03     0.50   0.50   0.50     0.29   0.29   0.29
     3   1    -0.24   0.21  -0.20     0.15  -0.19   0.15    -0.29   0.29  -0.29
     4   1     0.25  -0.27  -0.23    -0.19   0.15   0.15     0.29  -0.29  -0.29
     5   1     0.47   0.47  -0.46     0.15   0.15  -0.19    -0.29  -0.29   0.29

 -------------------
 - Thermochemistry -
 -------------------
 Temperature   298.150 Kelvin.  Pressure   1.00000 Atm.
 Atom     1 has atomic number  5 and mass  11.00931
 Atom     2 has atomic number  1 and mass   1.00783
 Atom     3 has atomic number  1 and mass   1.00783
 Atom     4 has atomic number  1 and mass   1.00783
 Atom     5 has atomic number  1 and mass   1.00783
 Molecular mass:    15.04061 amu.
 Principal axes and moments of inertia in atomic units:
                           1         2         3
     Eigenvalues --    14.77703  14.77703  14.77703
           X            0.75391   0.61489   0.23138
           Y           -0.65621   0.68772   0.31053
           Z            0.03182  -0.38595   0.92197
 This molecule is a spherical top.
 Rotational symmetry number 12.
 Rotational temperatures (Kelvin)      5.86139     5.86139     5.86139
 Rotational constants (GHZ):         122.13155   122.13155   122.13155
 Zero-point vibrational energy      93850.9 (Joules/Mol)
                                   22.43090 (Kcal/Mol)
 Vibrational temperatures:   1754.71  1754.71  1754.71  1914.26  1914.26
          (Kelvin)           3363.10  3363.10  3363.10  3393.36
 
 Zero-point correction=                           0.035746 (Hartree/Particle)
 Thermal correction to Energy=                    0.038645
 Thermal correction to Enthalpy=                  0.039589
 Thermal correction to Gibbs Free Energy=         0.018148
 Sum of electronic and zero-point Energies=            -26.777201
 Sum of electronic and thermal Energies=               -26.774302
 Sum of electronic and thermal Enthalpies=             -26.773357
 Sum of electronic and thermal Free Energies=          -26.794799
 
                     E (Thermal)             CV                S
                      KCal/Mol        Cal/Mol-Kelvin    Cal/Mol-Kelvin
 Total                   24.250              6.819             45.127
 Electronic               0.000              0.000              0.000
 Translational            0.889              2.981             34.071
 Rotational               0.889              2.981             10.892
 Vibrational             22.473              0.857              0.164
                       Q            Log10(Q)             Ln(Q)
 Total Bot       0.449256D-08         -8.347506        -19.220844
 Total V=0       0.124297D+09          8.094460         18.638184
 Vib (Bot)       0.365676D-16        -16.436903        -37.847368
 Vib (V=0)       0.101173D+01          0.005063          0.011659
 Electronic      0.100000D+01          0.000000          0.000000
 Translational   0.229272D+07          6.360352         14.645251
 Rotational      0.535852D+02          1.729045          3.981273
 ***** Axes restored to original set *****
 -------------------------------------------------------------------
 Center     Atomic                   Forces (Hartrees/Bohr)
 Number     Number              X              Y              Z
 -------------------------------------------------------------------
      1        5           0.000000000   -0.000000000    0.000000000
      2        1          -0.000007623   -0.000000000    0.000002695
      3        1           0.000003812   -0.000006602    0.000002695
      4        1           0.000003812    0.000006602    0.000002695
      5        1           0.000000000    0.000000000   -0.000008086
 -------------------------------------------------------------------
 Cartesian Forces:  Max     0.000008086 RMS     0.000004176
 FormGI is forming the generalized inverse of G from B-inverse, IUseBI=4.

 GradGradGradGradGradGradGradGradGradGradGradGradGradGradGradGradGradGrad
 Berny optimization.
 Internal  Forces:  Max     0.000008086 RMS     0.000004322
 Search for a local minimum.
 Step number   1 out of a maximum of    2
 All quantities printed in internal units (Hartrees-Bohrs-Radians)
 Second derivative matrix not updated -- analytic derivatives used.
 The second derivative matrix:
                          R1        R2        R3        R4        A1
           R1           0.19451
           R2           0.00588   0.19451
           R3           0.00588   0.00588   0.19451
           R4           0.00588   0.00588   0.00588   0.19451
           A1           0.00187   0.00187  -0.00117  -0.00256   0.01872
           A2           0.00293  -0.00076   0.00326  -0.00543  -0.00779
           A3           0.00572  -0.00459  -0.00508   0.00395  -0.01221
           A4          -0.00076   0.00293   0.00326  -0.00543  -0.00779
           A5          -0.00459   0.00572  -0.00508   0.00395  -0.01221
           A6          -0.00517  -0.00517   0.00482   0.00551   0.02128
           D1          -0.00362  -0.00362  -0.00255   0.00978  -0.01339
           D2           0.00298   0.00298  -0.00766   0.00170   0.00797
           D3          -0.00392   0.00690  -0.00383   0.00085   0.00399
           D4          -0.00690   0.00392   0.00383  -0.00085  -0.00399
                          A2        A3        A4        A5        A6
           A2           0.03581
           A3          -0.02146   0.06994
           A4          -0.00104   0.02169   0.03581
           A5           0.02169  -0.03304  -0.02146   0.06994
           A6          -0.02721  -0.02492  -0.02721  -0.02492   0.08299
           D1          -0.01176   0.01482  -0.01176   0.01482   0.00727
           D2          -0.00940   0.00765  -0.00940   0.00765  -0.00446
           D3          -0.01406  -0.00129   0.00465   0.00893  -0.00223
           D4          -0.00465  -0.00893   0.01406   0.00129   0.00223
                          D1        D2        D3        D4
           D1           0.03080
           D2           0.00175   0.01913
           D3           0.00088   0.00956   0.01937
           D4          -0.00088  -0.00956   0.00980   0.01937
 ITU=  0
     Eigenvalues ---    0.03849   0.04349   0.06637   0.12326   0.12340
     Eigenvalues ---    0.19074   0.19074   0.19127   0.21215
 Angle between quadratic step and forces=   0.00 degrees.
 Linear search not attempted -- first point.
 Iteration  1 RMS(Cart)=  0.00002037 RMS(Int)=  0.00000000
 Iteration  2 RMS(Cart)=  0.00000000 RMS(Int)=  0.00000000
 ClnCor:  largest displacement from symmetrization is 4.16D-13 for atom     1.
 Variable       Old X    -DE/DX   Delta X   Delta X   Delta X     New X
                                 (Linear)    (Quad)   (Total)
    R1        2.34486  -0.00001   0.00000  -0.00004  -0.00004   2.34482
    R2        2.34486  -0.00001   0.00000  -0.00004  -0.00004   2.34482
    R3        2.34486  -0.00001   0.00000  -0.00004  -0.00004   2.34482
    R4        2.34486  -0.00001   0.00000  -0.00004  -0.00004   2.34482
    A1        1.91063  -0.00000   0.00000  -0.00000  -0.00000   1.91063
    A2        1.91063   0.00000   0.00000  -0.00000   0.00000   1.91063
    A3        1.91063  -0.00000   0.00000  -0.00000   0.00000   1.91063
    A4        1.91063  -0.00000   0.00000   0.00000   0.00000   1.91063
    A5        1.91063   0.00000   0.00000   0.00000   0.00000   1.91063
    A6        1.91063   0.00000   0.00000   0.00000   0.00000   1.91063
    D1       -2.09440   0.00000   0.00000   0.00000   0.00000  -2.09440
    D2        2.09440   0.00000   0.00000  -0.00000  -0.00000   2.09440
    D3       -2.09440  -0.00000   0.00000   0.00000  -0.00000  -2.09440
    D4        2.09440  -0.00000   0.00000   0.00000  -0.00000   2.09440
         Item               Value     Threshold  Converged?
 Maximum Force            0.000008     0.000450     YES
 RMS     Force            0.000004     0.000300     YES
 Maximum Displacement     0.000038     0.001800     YES
 RMS     Displacement     0.000020     0.001200     YES
 Predicted change in Energy=-6.163592D-10
 Optimization completed.
    -- Stationary point found.
                           ----------------------------
                           !   Optimized Parameters   !
                           ! (Angstroms and Degrees)  !
 --------------------------                            --------------------------
 ! Name  Definition              Value          Derivative Info.                !
 --------------------------------------------------------------------------------
 ! R1    R(1,2)                  1.2408         -DE/DX =    0.0                 !
 ! R2    R(1,3)                  1.2408         -DE/DX =    0.0                 !
 ! R3    R(1,4)                  1.2408         -DE/DX =    0.0                 !
 ! R4    R(1,5)                  1.2408         -DE/DX =    0.0                 !
 ! A1    A(2,1,3)              109.4712         -DE/DX =    0.0                 !
 ! A2    A(2,1,4)              109.4712         -DE/DX =    0.0                 !
 ! A3    A(2,1,5)              109.4712         -DE/DX =    0.0                 !
 ! A4    A(3,1,4)              109.4712         -DE/DX =    0.0                 !
 ! A5    A(3,1,5)              109.4712         -DE/DX =    0.0                 !
 ! A6    A(4,1,5)              109.4712         -DE/DX =    0.0                 !
 ! D1    D(2,1,4,3)           -120.0            -DE/DX =    0.0                 !
 ! D2    D(2,1,5,3)            120.0            -DE/DX =    0.0                 !
 ! D3    D(2,1,5,4)           -120.0            -DE/DX =    0.0                 !
 ! D4    D(3,1,5,4)            120.0            -DE/DX =    0.0                 !
 --------------------------------------------------------------------------------
 GradGradGradGradGradGradGradGradGradGradGradGradGradGradGradGradGradGrad

 Dipole is zero, so no output in dipole orientation.

 ----------------------------------------------------------------------

 Electric dipole moment (input orientation):
 (Debye = 10**-18 statcoulomb cm , SI units = C m)
                  (au)            (Debye)         (10**-30 SI)
   Tot        0.000000D+00      0.000000D+00      0.000000D+00
   x          0.000000D+00      0.000000D+00      0.000000D+00
   y          0.000000D+00      0.000000D+00      0.000000D+00
   z          0.000000D+00      0.000000D+00      0.000000D+00

 Dipole polarizability, Alpha (input orientation).
 (esu units = cm**3 , SI units = C**2 m**2 J**-1)
 Alpha(0;0):
               (au)            (10**-24 esu)      (10**-40 SI)
   iso        0.179228D+02      0.265588D+01      0.295507D+01
   aniso      0.000000D+00      0.000000D+00      0.000000D+00
   xx         0.179228D+02      0.265588D+01      0.295507D+01
   yx         0.000000D+00      0.000000D+00      0.000000D+00
   yy         0.179228D+02      0.265588D+01      0.295507D+01
   zx         0.000000D+00      0.000000D+00      0.000000D+00
   zy         0.000000D+00      0.000000D+00      0.000000D+00
   zz         0.179228D+02      0.265588D+01      0.295507D+01

 First dipole hyperpolarizability, Beta (input orientation).
 ||, _|_  parallel and perpendicular components, (z) with respect to z axis,
 vector components x,y,z.  Values do not include the 1/n! factor of 1/2.
 (esu units = statvolt**-1 cm**4 , SI units = C**3 m**3 J**-2)
 Beta(0;0,0):
               (au)            (10**-30 esu)      (10**-50 SI)
   || (z)     0.000000D+00      0.000000D+00      0.000000D+00
   _|_(z)     0.000000D+00      0.000000D+00      0.000000D+00
   x          0.000000D+00      0.000000D+00      0.000000D+00
   y          0.000000D+00      0.000000D+00      0.000000D+00
   z          0.000000D+00      0.000000D+00      0.000000D+00
   ||         0.000000D+00      0.000000D+00      0.000000D+00
   xxx        0.885390D+01      0.764908D-01      0.283888D-01
   xxy        0.000000D+00      0.000000D+00      0.000000D+00
   yxy       -0.885390D+01     -0.764908D-01     -0.283888D-01
   yyy        0.000000D+00      0.000000D+00      0.000000D+00
   xxz       -0.626065D+01     -0.540872D-01     -0.200739D-01
   yxz        0.000000D+00      0.000000D+00      0.000000D+00
   yyz       -0.626065D+01     -0.540872D-01     -0.200739D-01
   zxz        0.000000D+00      0.000000D+00      0.000000D+00
   zyz        0.000000D+00      0.000000D+00      0.000000D+00
   zzz        0.125213D+02      0.108174D+00      0.401478D-01

 ----------------------------------------------------------------------
 1\1\GINC-IISERK51\Freq\RHF\3-21G\B1H4(1-)\GAUSSIAN\13-Jun-2025\0\\#N G
 eom=AllCheck Guess=TCheck SCRF=Check GenChk RHF/3-21G Freq\\Title Card
  Required\\-1,1\B,0.4643169411,0.9507674989,-0.0000000011\H,1.63419736
 65,0.9507675521,-0.4136151719\H,-0.1206232995,1.9639136495,-0.41361517
 45\H,-0.1206232246,-0.0623786751,-0.4136152231\H,0.4643169221,0.950767
 4691,1.2408455651\\Version=EM64L-G16RevB.01\State=1-A1\HF=-26.8129467\
 RMSD=1.123e-09\RMSF=4.176e-06\ZeroPoint=0.0357459\Thermal=0.0386452\Di
 pole=0.,0.,0.\DipoleDeriv=0.3731577,0.,0.,0.,0.3731578,0.,0.,0.,0.3731
 578,-0.5972669,0.,0.1436713,0.,-0.1909029,0.,0.1436713,0.,-0.2416984,-
 0.2924939,0.1759608,-0.0718357,0.1759608,-0.4956759,0.124423,-0.071835
 7,0.124423,-0.2416984,-0.2924939,-0.1759607,-0.0718357,-0.1759607,-0.4
 956759,-0.1244231,-0.0718357,-0.1244231,-0.2416984,-0.1909029,0.,0.,0.
 ,-0.1909029,0.,0.,0.,-0.6480624\Polar=17.9227941,0.,17.9227941,0.,0.,1
 7.9227941\PolarDeriv=-2.8125983,-0.0000004,2.812599,1.9888075,0.,0.000
 0005,-0.0000004,2.8125987,0.0000002,0.,1.9888076,0.0000002,1.9888074,0
 .,1.9888075,0.0000002,0.0000002,-3.9776153,8.8750248,0.0000003,-0.1014
 386,-1.7558639,0.,0.6467206,0.0000001,3.1719516,0.0000003,0.,-2.010476
 8,0.,-0.5985457,0.,-0.8531586,3.9201109,0.0000001,-1.8788769,-3.450302
 5,3.3169567,-0.9364907,-1.9468235,-0.1102506,-0.3233604,0.4821176,-2.5
 731859,7.1160307,-0.1102506,-1.8195171,0.5600764,-0.7895053,-0.1102506
 ,-0.662199,-1.9600556,3.3949155,-1.8788769,-3.450302,-3.3169566,-0.936
 4907,-1.9468237,0.1102506,-0.3233603,-0.4821175,-2.5731857,-7.116031,0
 .1102506,-1.8195173,-0.5600765,-0.7895054,0.1102506,-0.662199,-1.96005
 53,-3.3949157,-1.8788773,0.8381784,0.,-0.8381785,3.6607036,0.,0.,0.,-0
 .8381786,-0.0000003,0.,3.6607036,0.,0.1887489,0.,0.1887489,0.,-0.00000
 01,9.6142462\HyperPolar=8.8539013,0.0000011,-8.8539009,-0.0000005,-6.2
 606533,-0.0000002,-6.2606536,-0.0000004,-0.0000006,12.5213069\Quadrupo
 le=0.,0.,0.,0.,0.,0.\PG=TD [O(B1),4C3(H1)]\NImag=0\\0.32232052,0.,0.32
 232052,0.,0.,0.32232052,-0.15360269,0.,0.04130780,0.17673191,0.,-0.036
 76660,0.,0.,0.03449666,0.04130780,0.,-0.05137111,-0.05028775,0.,0.0522
 7607,-0.06597562,0.05059151,-0.02065390,-0.01195227,0.01947243,-0.0074
 3770,0.07005548,0.05059151,-0.12439366,0.03577360,0.00255622,0.0007659
 8,-0.00092091,-0.06158967,0.14117309,-0.02065390,0.03577360,-0.0513711
 1,0.00292132,-0.00690169,0.00393154,0.02514388,-0.04355047,0.05227607,
 -0.06597561,-0.05059151,-0.02065390,-0.01195227,-0.01947243,-0.0074377
 0,0.00712510,0.00845810,0.00451639,0.07005547,-0.05059151,-0.12439367,
 -0.03577360,-0.00255623,0.00076598,0.00092091,-0.00845810,-0.01831139,
 -0.00598078,0.06158966,0.14117310,-0.02065390,-0.03577360,-0.05137111,
 0.00292132,0.00690169,0.00393154,0.00451638,0.00598078,0.00393154,0.02
 514388,0.04355048,0.05227607,-0.03676660,0.,0.,0.00077532,0.,0.0238553
 6,0.00074731,-0.00001617,-0.01192768,0.00074731,0.00001617,-0.01192768
 ,0.03449666,0.,-0.03676660,0.,0.,0.00073797,0.,-0.00001617,0.00076598,
 0.02065935,0.00001617,0.00076598,-0.02065935,0.,0.03449666,0.,0.,-0.16
 820720,0.00313732,0.,-0.00876804,-0.00156866,0.00271700,-0.00876804,-0
 .00156866,-0.00271700,-0.00876804,0.,0.,0.19451131\\0.,0.,0.,0.0000076
 2,0.,-0.00000270,-0.00000381,0.00000660,-0.00000270,-0.00000381,-0.000
 00660,-0.00000270,0.,0.,0.00000809\\\@


 IF GOD HAD MEANT MAN TO SEE THE SUN RISE, HE
 WOULD HAVE SCHEDULED IT FOR A LATER HOUR.
 Job cpu time:       0 days  0 hours  0 minutes  0.7 seconds.
 Elapsed time:       0 days  0 hours  0 minutes  0.6 seconds.
 File lengths (MBytes):  RWF=      6 Int=      0 D2E=      0 Chk=      1 Scr=      1
 Normal termination of Gaussian 16 at Fri Jun 13 20:30:21 2025.
