 Entering Gaussian System, Link 0=g16
 Input=/home/gaussian/Documents/.jeeva/Aromaticity/Toluene/Tol_en_opt.com
 Output=/home/gaussian/Documents/.jeeva/Aromaticity/Toluene/Tol_en_opt.log
 Initial command:
 /usr/local/g16/l1.exe "/home/gaussian/tmp/Gau-89745.inp" -scrdir="/home/gaussian/tmp/"
 Entering Link 1 = /usr/local/g16/l1.exe PID=     89748.
  
 Copyright (c) 1988-2017, Gaussian, Inc.  All Rights Reserved.
  
 This is part of the Gaussian(R) 16 program.  It is based on
 the Gaussian(R) 09 system (copyright 2009, Gaussian, Inc.),
 the Gaussian(R) 03 system (copyright 2003, Gaussian, Inc.),
 the Gaussian(R) 98 system (copyright 1998, Gaussian, Inc.),
 the Gaussian(R) 94 system (copyright 1995, Gaussian, Inc.),
 the Gaussian 92(TM) system (copyright 1992, Gaussian, Inc.),
 the Gaussian 90(TM) system (copyright 1990, Gaussian, Inc.),
 the Gaussian 88(TM) system (copyright 1988, Gaussian, Inc.),
 the Gaussian 86(TM) system (copyright 1986, Carnegie Mellon
 University), and the Gaussian 82(TM) system (copyright 1983,
 Carnegie Mellon University). Gaussian is a federally registered
 trademark of Gaussian, Inc.
  
 This software contains proprietary and confidential information,
 including trade secrets, belonging to Gaussian, Inc.
  
 This software is provided under written license and may be
 used, copied, transmitted, or stored only in accord with that
 written license.
  
 The following legend is applicable only to US Government
 contracts under FAR:
  
                    RESTRICTED RIGHTS LEGEND
  
 Use, reproduction and disclosure by the US Government is
 subject to restrictions as set forth in subparagraphs (a)
 and (c) of the Commercial Computer Software - Restricted
 Rights clause in FAR 52.227-19.
  
 Gaussian, Inc.
 340 Quinnipiac St., Bldg. 40, Wallingford CT 06492
  
  
 ---------------------------------------------------------------
 Warning -- This program may not be used in any manner that
 competes with the business of Gaussian, Inc. or will provide
 assistance to any competitor of Gaussian, Inc.  The licensee
 of this program is prohibited from giving any competitor of
 Gaussian, Inc. access to this program.  By using this program,
 the user acknowledges that Gaussian, Inc. is engaged in the
 business of creating and licensing software in the field of
 computational chemistry and represents and warrants to the
 licensee that it is not a competitor of Gaussian, Inc. and that
 it will not use this program in any manner prohibited above.
 ---------------------------------------------------------------
  

 Cite this work as:
 Gaussian 16, Revision B.01,
 M. J. Frisch, G. W. Trucks, H. B. Schlegel, G. E. Scuseria, 
 M. A. Robb, J. R. Cheeseman, G. Scalmani, V. Barone, 
 G. A. Petersson, H. Nakatsuji, X. Li, M. Caricato, A. V. Marenich, 
 J. Bloino, B. G. Janesko, R. Gomperts, B. Mennucci, H. P. Hratchian, 
 J. V. Ortiz, A. F. Izmaylov, J. L. Sonnenberg, D. Williams-Young, 
 F. Ding, F. Lipparini, F. Egidi, J. Goings, B. Peng, A. Petrone, 
 T. Henderson, D. Ranasinghe, V. G. Zakrzewski, J. Gao, N. Rega, 
 G. Zheng, W. Liang, M. Hada, M. Ehara, K. Toyota, R. Fukuda, 
 J. Hasegawa, M. Ishida, T. Nakajima, Y. Honda, O. Kitao, H. Nakai, 
 T. Vreven, K. Throssell, J. A. Montgomery, Jr., J. E. Peralta, 
 F. Ogliaro, M. J. Bearpark, J. J. Heyd, E. N. Brothers, K. N. Kudin, 
 V. N. Staroverov, T. A. Keith, R. Kobayashi, J. Normand, 
 K. Raghavachari, A. P. Rendell, J. C. Burant, S. S. Iyengar, 
 J. Tomasi, M. Cossi, J. M. Millam, M. Klene, C. Adamo, R. Cammi, 
 J. W. Ochterski, R. L. Martin, K. Morokuma, O. Farkas, 
 J. B. Foresman, and D. J. Fox, Gaussian, Inc., Wallingford CT, 2016.
 
 ******************************************
 Gaussian 16:  EM64L-G16RevB.01 20-Dec-2017
                 9-Jun-2025 
 ******************************************
 %chk=Tol_en_opt.chk
 ----------------------------
 # hf/3-21g geom=connectivity
 ----------------------------
 1/38=1,57=2,172=1/1;
 2/12=2,17=6,18=5,40=1/2;
 3/5=5,11=9,25=1,30=1/1,2,3;
 4//1;
 5/5=2,38=5/2;
 6/7=2,8=2,9=2,10=2,28=1/1;
 99/5=1,9=1/99;
 ---------------------------
 Toluene Energy Optimisation
 ---------------------------
 Symbolic Z-matrix:
 Charge =  0 Multiplicity = 1
 C                    -1.65721  -0.13627   0. 
 C                    -0.26205  -0.13627   0. 
 C                     0.43548   1.07148   0. 
 C                    -0.26217   2.27999  -0.0012 
 C                    -1.657     2.27991  -0.00168 
 C                    -2.3546    1.07171  -0.00068 
 H                    -2.20697  -1.08859   0.00045 
 H                     0.28745  -1.08878   0.00132 
 H                     1.53516   1.07156   0.00063 
 H                    -2.20712   3.23219  -0.00263 
 H                    -3.4542    1.07189  -0.00086 
 C                     0.50833   3.61338  -0.00128 
 H                     0.7073    3.9104    1.00723 
 H                     1.43275   3.4911   -0.52606 
 H                    -0.07971   4.36508  -0.48507 
 
                          Input orientation:                          
 ---------------------------------------------------------------------
 Center     Atomic      Atomic             Coordinates (Angstroms)
 Number     Number       Type             X           Y           Z
 ---------------------------------------------------------------------
      1          6           0       -1.657215   -0.136268    0.000000
      2          6           0       -0.262055   -0.136268    0.000000
      3          6           0        0.435484    1.071483    0.000000
      4          6           0       -0.262171    2.279992   -0.001199
      5          6           0       -1.656996    2.279914   -0.001678
      6          6           0       -2.354597    1.071708   -0.000682
      7          1           0       -2.206974   -1.088585    0.000450
      8          1           0        0.287454   -1.088781    0.001315
      9          1           0        1.535164    1.071563    0.000634
     10          1           0       -2.207118    3.232195   -0.002631
     11          1           0       -3.454201    1.071891   -0.000862
     12          6           0        0.508334    3.613380   -0.001282
     13          1           0        0.707305    3.910398    1.007227
     14          1           0        1.432753    3.491100   -0.526064
     15          1           0       -0.079707    4.365085   -0.485066
 ---------------------------------------------------------------------
                    Distance matrix (angstroms):
                    1          2          3          4          5
     1  C    0.000000
     2  C    1.395160   0.000000
     3  C    2.416205   1.394712   0.000000
     4  C    2.790065   2.416260   1.395427   0.000000
     5  C    2.416183   2.789946   2.416356   1.394825   0.000000
     6  C    1.394829   2.416183   2.790080   2.416236   1.395138
     7  H    1.099610   2.165553   3.412986   3.889675   3.413102
     8  H    2.165414   1.099655   2.165330   3.413316   3.889601
     9  H    3.413229   2.165375   1.099680   2.165806   3.413209
    10  H    3.413055   3.889707   3.413506   2.165528   1.099761
    11  H    2.165365   3.413128   3.889684   3.412999   2.165471
    12  C    4.330065   3.827971   2.542941   1.540000   2.542987
    13  H    4.793847   4.281317   3.024539   2.148263   3.044058
    14  H    4.794001   4.038182   2.669426   2.148263   3.359836
    15  H    4.794372   4.531084   3.368757   2.148263   2.658842
                    6          7          8          9         10
     6  C    0.000000
     7  H    2.165331   0.000000
     8  H    3.412938   2.494427   0.000000
     9  H    3.889760   4.320860   2.494768   0.000000
    10  H    2.165516   4.320781   4.989362   4.321228   0.000000
    11  H    1.099604   2.494641   4.320704   4.989364   2.494420
    12  C    3.828376   5.429675   4.707347   2.741390   2.742076
    13  H    4.295263   5.873369   5.116633   3.123711   3.158106
    14  H    4.524765   5.873529   4.750279   2.478318   3.686417
    15  H    4.031883   5.873969   5.487807   3.700135   2.458060
                   11         12         13         14         15
    11  H    0.000000
    12  C    4.707530   0.000000
    13  H    5.137266   1.070000   0.000000
    14  H    5.478205   1.070000   1.747303   0.000000
    15  H    4.739914   1.070000   1.747303   1.747303   0.000000
 Stoichiometry    C7H8
 Framework group  C1[X(C7H8)]
 Deg. of freedom    39
 Full point group                 C1      NOp   1
 Largest Abelian subgroup         C1      NOp   1
 Largest concise Abelian subgroup C1      NOp   1
                         Standard orientation:                         
 ---------------------------------------------------------------------
 Center     Atomic      Atomic             Coordinates (Angstroms)
 Number     Number       Type             X           Y           Z
 ---------------------------------------------------------------------
      1          6           0       -1.894809   -0.000089    0.000090
      2          6           0       -1.197027   -1.208216   -0.000342
      3          6           0        0.197685   -1.208193    0.000093
      4          6           0        0.895256    0.000365   -0.000239
      5          6           0        0.197574    1.208163   -0.000286
      6          6           0       -1.197564    1.207967    0.000275
      7          1           0       -2.994419   -0.000326    0.000197
      8          1           0       -1.747014   -2.160453    0.000289
      9          1           0        0.747754   -2.160412    0.000387
     10          1           0        0.747053    2.160816   -0.000556
     11          1           0       -1.747367    2.160251    0.000435
     12          6           0        2.435256    0.000041    0.000159
     13          1           0        2.791657   -0.024247    1.008766
     14          1           0        2.791876   -0.861328   -0.524975
     15          1           0        2.792234    0.885471   -0.483038
 ---------------------------------------------------------------------
 Rotational constants (GHZ):           5.4959924           2.5204893           1.7463873
 Standard basis: 3-21G (6D, 7F)
 There are    79 symmetry adapted cartesian basis functions of A   symmetry.
 There are    79 symmetry adapted basis functions of A   symmetry.
    79 basis functions,   129 primitive gaussians,    79 cartesian basis functions
    25 alpha electrons       25 beta electrons
       nuclear repulsion energy       268.7120053119 Hartrees.
 NAtoms=   15 NActive=   15 NUniq=   15 SFac= 1.00D+00 NAtFMM=   60 NAOKFM=F Big=F
 Integral buffers will be    131072 words long.
 Raffenetti 1 integral format.
 Two-electron integral symmetry is turned on.
 One-electron integrals computed using PRISM.
 NBasis=    79 RedAO= T EigKep=  1.66D-03  NBF=    79
 NBsUse=    79 1.00D-06 EigRej= -1.00D+00 NBFU=    79
 ExpMin= 1.83D-01 ExpMax= 1.72D+02 ExpMxC= 1.72D+02 IAcc=3 IRadAn=         5 AccDes= 0.00D+00
 Harris functional with IExCor=  205 and IRadAn=       5 diagonalized for initial guess.
 HarFok:  IExCor=  205 AccDes= 0.00D+00 IRadAn=         5 IDoV= 1 UseB2=F ITyADJ=14
 ICtDFT=  3500011 ScaDFX=  1.000000  1.000000  1.000000  1.000000
 FoFCou: FMM=F IPFlag=           0 FMFlag=      100000 FMFlg1=           0
         NFxFlg=           0 DoJE=T BraDBF=F KetDBF=T FulRan=T
         wScrn=  0.000000 ICntrl=       500 IOpCl=  0 I1Cent=   200000004 NGrid=           0
         NMat0=    1 NMatS0=      1 NMatT0=    0 NMatD0=    1 NMtDS0=    0 NMtDT0=    0
 Petite list used in FoFCou.
 Keep R1 ints in memory in canonical form, NReq=5830610.
 Requested convergence on RMS density matrix=1.00D-08 within 128 cycles.
 Requested convergence on MAX density matrix=1.00D-06.
 Requested convergence on             energy=1.00D-06.
 No special actions if energy rises.
 SCF Done:  E(RHF) =  -268.236050177     A.U. after   12 cycles
            NFock= 12  Conv=0.70D-08     -V/T= 2.0029

 **********************************************************************

            Population analysis using the SCF Density.

 **********************************************************************

 Orbital symmetries:
       Occupied  (A) (A) (A) (A) (A) (A) (A) (A) (A) (A) (A) (A)
                 (A) (A) (A) (A) (A) (A) (A) (A) (A) (A) (A) (A)
                 (A)
       Virtual   (A) (A) (A) (A) (A) (A) (A) (A) (A) (A) (A) (A)
                 (A) (A) (A) (A) (A) (A) (A) (A) (A) (A) (A) (A)
                 (A) (A) (A) (A) (A) (A) (A) (A) (A) (A) (A) (A)
                 (A) (A) (A) (A) (A) (A) (A) (A) (A) (A) (A) (A)
                 (A) (A) (A) (A) (A) (A)
 The electronic state is 1-A.
 Alpha  occ. eigenvalues --  -11.18841 -11.18053 -11.18045 -11.17676 -11.17628
 Alpha  occ. eigenvalues --  -11.17612 -11.15938  -1.15256  -1.04027  -1.00898
 Alpha  occ. eigenvalues --   -0.93465  -0.82191  -0.79481  -0.69243  -0.63611
 Alpha  occ. eigenvalues --   -0.62061  -0.58450  -0.58246  -0.56031  -0.54379
 Alpha  occ. eigenvalues --   -0.49200  -0.48296  -0.47415  -0.33603  -0.32569
 Alpha virt. eigenvalues --    0.14840   0.15300   0.25395   0.29948   0.30893
 Alpha virt. eigenvalues --    0.33270   0.34454   0.35571   0.37097   0.37288
 Alpha virt. eigenvalues --    0.40294   0.43071   0.50964   0.52575   0.54147
 Alpha virt. eigenvalues --    0.56220   0.76904   0.81737   0.89207   0.91936
 Alpha virt. eigenvalues --    0.94140   0.97622   0.98226   0.98264   1.04100
 Alpha virt. eigenvalues --    1.05505   1.07710   1.08857   1.10513   1.11598
 Alpha virt. eigenvalues --    1.14622   1.18941   1.20987   1.21434   1.27414
 Alpha virt. eigenvalues --    1.29845   1.33599   1.37166   1.37823   1.40469
 Alpha virt. eigenvalues --    1.44708   1.45388   1.55386   1.60368   1.62274
 Alpha virt. eigenvalues --    1.72379   1.75719   1.80041   1.81284   1.88154
 Alpha virt. eigenvalues --    2.15758   2.18302   2.22581   2.75303
          Condensed to atoms (all electrons):
               1          2          3          4          5          6
     1  C    5.179110   0.473126  -0.107440  -0.002208  -0.107449   0.473603
     2  C    0.473126   5.161815   0.473658  -0.108930  -0.003026  -0.108264
     3  C   -0.107440   0.473658   5.174116   0.467728  -0.083880  -0.003017
     4  C   -0.002208  -0.108930   0.467728   5.301938   0.469004  -0.109197
     5  C   -0.107449  -0.003026  -0.083880   0.469004   5.172999   0.473000
     6  C    0.473603  -0.108264  -0.003017  -0.109197   0.473000   5.162278
     7  H    0.395921  -0.031552   0.002293  -0.000132   0.002293  -0.031562
     8  H   -0.031385   0.394810  -0.031717   0.002381  -0.000102   0.002174
     9  H    0.002106  -0.028757   0.398433  -0.034377   0.001944  -0.000058
    10  H    0.002105  -0.000059   0.001953  -0.034267   0.398326  -0.028788
    11  H   -0.031365   0.002172  -0.000102   0.002385  -0.031708   0.394796
    12  C    0.000103   0.001898  -0.056248   0.261973  -0.055641   0.001950
    13  H    0.000011  -0.000034  -0.000443  -0.052174  -0.000320  -0.000039
    14  H    0.000003   0.000158  -0.001070  -0.050604   0.002360  -0.000064
    15  H    0.000002  -0.000064   0.002433  -0.050566  -0.000977   0.000165
               7          8          9         10         11         12
     1  C    0.395921  -0.031385   0.002106   0.002105  -0.031365   0.000103
     2  C   -0.031552   0.394810  -0.028757  -0.000059   0.002172   0.001898
     3  C    0.002293  -0.031717   0.398433   0.001953  -0.000102  -0.056248
     4  C   -0.000132   0.002381  -0.034377  -0.034267   0.002385   0.261973
     5  C    0.002293  -0.000102   0.001944   0.398326  -0.031708  -0.055641
     6  C   -0.031562   0.002174  -0.000058  -0.028788   0.394796   0.001950
     7  H    0.431682  -0.001278  -0.000033  -0.000033  -0.001280   0.000001
     8  H   -0.001278   0.431242  -0.001221   0.000001  -0.000032  -0.000041
     9  H   -0.000033  -0.001221   0.430403  -0.000037   0.000001  -0.001254
    10  H   -0.000033   0.000001  -0.000037   0.430488  -0.001220  -0.001297
    11  H   -0.001280  -0.000032   0.000001  -0.001220   0.431208  -0.000041
    12  C    0.000001  -0.000041  -0.001254  -0.001297  -0.000041   5.288840
    13  H   -0.000000   0.000001   0.000128   0.000113   0.000001   0.378896
    14  H   -0.000000  -0.000000   0.000984   0.000021   0.000000   0.386039
    15  H   -0.000000   0.000000   0.000020   0.001051  -0.000000   0.386323
              13         14         15
     1  C    0.000011   0.000003   0.000002
     2  C   -0.000034   0.000158  -0.000064
     3  C   -0.000443  -0.001070   0.002433
     4  C   -0.052174  -0.050604  -0.050566
     5  C   -0.000320   0.002360  -0.000977
     6  C   -0.000039  -0.000064   0.000165
     7  H   -0.000000  -0.000000  -0.000000
     8  H    0.000001  -0.000000   0.000000
     9  H    0.000128   0.000984   0.000020
    10  H    0.000113   0.000021   0.001051
    11  H    0.000001   0.000000  -0.000000
    12  C    0.378896   0.386039   0.386323
    13  H    0.494979  -0.024584  -0.024409
    14  H   -0.024584   0.493647  -0.023600
    15  H   -0.024409  -0.023600   0.493447
 Mulliken charges:
               1
     1  C   -0.246243
     2  C   -0.226952
     3  C   -0.236698
     4  C   -0.062955
     5  C   -0.236823
     6  C   -0.226975
     7  H    0.233680
     8  H    0.235166
     9  H    0.231716
    10  H    0.231642
    11  H    0.235185
    12  C   -0.591501
    13  H    0.227874
    14  H    0.216710
    15  H    0.216173
 Sum of Mulliken charges =  -0.00000
 Mulliken charges with hydrogens summed into heavy atoms:
               1
     1  C   -0.012563
     2  C    0.008214
     3  C   -0.004982
     4  C   -0.062955
     5  C   -0.005181
     6  C    0.008210
    12  C    0.069256
 Electronic spatial extent (au):  <R**2>=            720.3936
 Charge=             -0.0000 electrons
 Dipole moment (field-independent basis, Debye):
    X=              0.3411    Y=             -0.0028    Z=              0.0297  Tot=              0.3424
 Quadrupole moment (field-independent basis, Debye-Ang):
   XX=            -38.0359   YY=            -38.1707   ZZ=            -47.7101
   XY=             -0.0048   XZ=              0.0431   YZ=             -0.0019
 Traceless Quadrupole moment (field-independent basis, Debye-Ang):
   XX=              3.2696   YY=              3.1349   ZZ=             -6.4045
   XY=             -0.0048   XZ=              0.0431   YZ=             -0.0019
 Octapole moment (field-independent basis, Debye-Ang**2):
  XXX=             -4.4076  YYY=              0.0436  ZZZ=              0.6605  XYY=             -1.1179
  XXY=             -0.0132  XXZ=              0.0754  XZZ=              4.3392  YZZ=             -0.0464
  YYZ=             -0.5774  XYZ=             -0.0008
 Hexadecapole moment (field-independent basis, Debye-Ang**3):
 XXXX=           -595.1013 YYYY=           -275.8765 ZZZZ=            -56.6891 XXXY=              0.0006
 XXXZ=              0.0758 YYYX=              0.1102 YYYZ=             -0.0126 ZZZX=              1.8425
 ZZZY=             -0.0024 XXYY=           -141.9858 XXZZ=           -119.8351 YYZZ=            -67.7920
 XXYZ=             -0.0042 YYXZ=             -1.7661 ZZXY=             -0.1310
 N-N= 2.687120053119D+02 E-N=-1.160699591778D+03  KE= 2.674477813199D+02
 1\1\GINC-IISERK51\SP\RHF\3-21G\C7H8\GAUSSIAN\09-Jun-2025\0\\# hf/3-21g
  geom=connectivity\\Toluene Energy Optimisation\\0,1\C,0,-1.6572145,-0
 .13626834,0.\C,0,-0.2620545,-0.13626834,0.\C,0,0.4354835,1.07148266,0.
 \C,0,-0.2621705,2.27999166,-0.001199\C,0,-1.6569955,2.27991366,-0.0016
 78\C,0,-2.3545965,1.07170766,-0.000682\H,0,-2.2069735,-1.08858534,0.00
 045\H,0,0.2874535,-1.08878134,0.001315\H,0,1.5351635,1.07156266,0.0006
 34\H,0,-2.2071175,3.23219466,-0.002631\H,0,-3.4542005,1.07189066,-0.00
 0862\C,0,0.50833357,3.61337962,-0.00128162\H,0,0.7073049,3.91039842,1.
 0072273\H,0,1.43275303,3.49110002,-0.52606382\H,0,-0.07970725,4.365084
 94,-0.48506578\\Version=EM64L-G16RevB.01\State=1-A\HF=-268.2360502\RMS
 D=6.970e-09\Dipole=0.0680748,0.1156778,0.0116374\Quadrupole=2.3588661,
 2.4027364,-4.7616025,0.0451944,0.019461,0.0231806\PG=C01 [X(C7H8)]\\@


 FORGIVE MY NONSENSE AS I ALSO FORGIVE THOSE WHO THINK THEY TALK SENSE

                                                       -- ROBERT FROST
 Job cpu time:       0 days  0 hours  0 minutes  1.1 seconds.
 Elapsed time:       0 days  0 hours  0 minutes  1.3 seconds.
 File lengths (MBytes):  RWF=      6 Int=      0 D2E=      0 Chk=      1 Scr=      1
 Normal termination of Gaussian 16 at Mon Jun  9 17:06:17 2025.
