 Entering Gaussian System, Link 0=g16
 Input=/home/gaussian/Documents/Summer_Internship/Aromaticity/hetrocyclic/furan/meth_furan_isomer_sp.com
 Output=/home/gaussian/Documents/Summer_Internship/Aromaticity/hetrocyclic/furan/meth_furan_isomer_sp.log
 Initial command:
 /usr/local/g16/l1.exe "/home/gaussian/tmp/Gau-47029.inp" -scrdir="/home/gaussian/tmp/"
 Entering Link 1 = /usr/local/g16/l1.exe PID=     47032.
  
 Copyright (c) 1988-2017, Gaussian, Inc.  All Rights Reserved.
  
 This is part of the Gaussian(R) 16 program.  It is based on
 the Gaussian(R) 09 system (copyright 2009, Gaussian, Inc.),
 the Gaussian(R) 03 system (copyright 2003, Gaussian, Inc.),
 the Gaussian(R) 98 system (copyright 1998, Gaussian, Inc.),
 the Gaussian(R) 94 system (copyright 1995, Gaussian, Inc.),
 the Gaussian 92(TM) system (copyright 1992, Gaussian, Inc.),
 the Gaussian 90(TM) system (copyright 1990, Gaussian, Inc.),
 the Gaussian 88(TM) system (copyright 1988, Gaussian, Inc.),
 the Gaussian 86(TM) system (copyright 1986, Carnegie Mellon
 University), and the Gaussian 82(TM) system (copyright 1983,
 Carnegie Mellon University). Gaussian is a federally registered
 trademark of Gaussian, Inc.
  
 This software contains proprietary and confidential information,
 including trade secrets, belonging to Gaussian, Inc.
  
 This software is provided under written license and may be
 used, copied, transmitted, or stored only in accord with that
 written license.
  
 The following legend is applicable only to US Government
 contracts under FAR:
  
                    RESTRICTED RIGHTS LEGEND
  
 Use, reproduction and disclosure by the US Government is
 subject to restrictions as set forth in subparagraphs (a)
 and (c) of the Commercial Computer Software - Restricted
 Rights clause in FAR 52.227-19.
  
 Gaussian, Inc.
 340 Quinnipiac St., Bldg. 40, Wallingford CT 06492
  
  
 ---------------------------------------------------------------
 Warning -- This program may not be used in any manner that
 competes with the business of Gaussian, Inc. or will provide
 assistance to any competitor of Gaussian, Inc.  The licensee
 of this program is prohibited from giving any competitor of
 Gaussian, Inc. access to this program.  By using this program,
 the user acknowledges that Gaussian, Inc. is engaged in the
 business of creating and licensing software in the field of
 computational chemistry and represents and warrants to the
 licensee that it is not a competitor of Gaussian, Inc. and that
 it will not use this program in any manner prohibited above.
 ---------------------------------------------------------------
  

 Cite this work as:
 Gaussian 16, Revision B.01,
 M. J. Frisch, G. W. Trucks, H. B. Schlegel, G. E. Scuseria, 
 M. A. Robb, J. R. Cheeseman, G. Scalmani, V. Barone, 
 G. A. Petersson, H. Nakatsuji, X. Li, M. Caricato, A. V. Marenich, 
 J. Bloino, B. G. Janesko, R. Gomperts, B. Mennucci, H. P. Hratchian, 
 J. V. Ortiz, A. F. Izmaylov, J. L. Sonnenberg, D. Williams-Young, 
 F. Ding, F. Lipparini, F. Egidi, J. Goings, B. Peng, A. Petrone, 
 T. Henderson, D. Ranasinghe, V. G. Zakrzewski, J. Gao, N. Rega, 
 G. Zheng, W. Liang, M. Hada, M. Ehara, K. Toyota, R. Fukuda, 
 J. Hasegawa, M. Ishida, T. Nakajima, Y. Honda, O. Kitao, H. Nakai, 
 T. Vreven, K. Throssell, J. A. Montgomery, Jr., J. E. Peralta, 
 F. Ogliaro, M. J. Bearpark, J. J. Heyd, E. N. Brothers, K. N. Kudin, 
 V. N. Staroverov, T. A. Keith, R. Kobayashi, J. Normand, 
 K. Raghavachari, A. P. Rendell, J. C. Burant, S. S. Iyengar, 
 J. Tomasi, M. Cossi, J. M. Millam, M. Klene, C. Adamo, R. Cammi, 
 J. W. Ochterski, R. L. Martin, K. Morokuma, O. Farkas, 
 J. B. Foresman, and D. J. Fox, Gaussian, Inc., Wallingford CT, 2016.
 
 ******************************************
 Gaussian 16:  EM64L-G16RevB.01 20-Dec-2017
                14-Jun-2025 
 ******************************************
 %chk=meth_furan_isomer_sp.chk
 --------------------------------------
 # hf/3-21g* pop=full geom=connectivity
 --------------------------------------
 1/38=1,57=2,172=1/1;
 2/12=2,17=6,18=5,40=1/2;
 3/5=5,7=1,11=9,25=1,30=1/1,2,3;
 4//1;
 5/5=2,38=5/2;
 6/7=3,28=1/1;
 99/5=1,9=1/99;
 -----------------------------------
 methyl_furan_isomer sp with HF3-31G
 -----------------------------------
 Symbolic Z-matrix:
 Charge =  0 Multiplicity = 1
 C                    -1.37641   0.74115  -0.00028 
 C                    -0.09894   1.2009    0.00031 
 C                     0.80895   0.04697   0.00033 
 C                    -0.09251  -1.16508   0.00028 
 O                    -1.45577  -0.64841  -0.0002 
 H                    -2.35006   1.23103  -0.00044 
 H                     0.24114   2.23333   0.00064 
 C                     2.13897   0.04432  -0.00031 
 H                     0.01321  -1.78787   0.9221 
 H                     0.01407  -1.7876   -0.92173 
 H                     2.7236    0.97263  -0.00043 
 H                     2.72381  -0.88375  -0.00043 
 
                          Input orientation:                          
 ---------------------------------------------------------------------
 Center     Atomic      Atomic             Coordinates (Angstroms)
 Number     Number       Type             X           Y           Z
 ---------------------------------------------------------------------
      1          6           0       -1.376408    0.741147   -0.000284
      2          6           0       -0.098937    1.200904    0.000305
      3          6           0        0.808952    0.046970    0.000325
      4          6           0       -0.092512   -1.165082    0.000275
      5          8           0       -1.455767   -0.648411   -0.000198
      6          1           0       -2.350056    1.231026   -0.000444
      7          1           0        0.241138    2.233325    0.000643
      8          6           0        2.138966    0.044316   -0.000309
      9          1           0        0.013205   -1.787866    0.922100
     10          1           0        0.014072   -1.787601   -0.921731
     11          1           0        2.723601    0.972633   -0.000425
     12          1           0        2.723812   -0.883752   -0.000432
 ---------------------------------------------------------------------
                    Distance matrix (angstroms):
                    1          2          3          4          5
     1  C    0.000000
     2  C    1.357685   0.000000
     3  C    2.292963   1.468273   0.000000
     4  C    2.298282   2.365995   1.510532   0.000000
     5  O    1.391822   2.293677   2.369073   1.457880   0.000000
     6  H    1.089941   2.251321   3.373621   3.292087   2.081354
     7  H    2.200693   1.086989   2.258885   3.414746   3.344232
     8  C    3.583773   2.519108   1.330017   2.538137   3.660871
     9  H    3.029476   3.129701   2.202159   1.117496   2.075300
    10  H    3.029367   3.129550   2.201743   1.117580   2.075429
    11  H    4.106539   2.831754   2.126672   3.535579   4.482734
    12  H    4.410454   3.509089   2.129069   2.830341   4.186199
                    6          7          8          9         10
     6  H    0.000000
     7  H    2.778289   0.000000
     8  C    4.643232   2.897156   0.000000
     9  H    3.943323   4.131708   2.954080   0.000000
    10  H    3.943346   4.131607   2.952984   1.843831   0.000000
    11  H    5.080233   2.784236   1.097074   3.977141   3.976084
    12  H    5.496947   3.984952   1.096975   3.002645   3.001404
                   11         12
    11  H    0.000000
    12  H    1.856385   0.000000
 Stoichiometry    C5H6O
 Framework group  C1[X(C5H6O)]
 Deg. of freedom    30
 Full point group                 C1      NOp   1
 Largest Abelian subgroup         C1      NOp   1
 Largest concise Abelian subgroup C1      NOp   1
                         Standard orientation:                         
 ---------------------------------------------------------------------
 Center     Atomic      Atomic             Coordinates (Angstroms)
 Number     Number       Type             X           Y           Z
 ---------------------------------------------------------------------
      1          6           0       -1.376408    0.741146   -0.000284
      2          6           0       -0.098937    1.200904    0.000305
      3          6           0        0.808952    0.046970    0.000325
      4          6           0       -0.092512   -1.165082    0.000275
      5          8           0       -1.455767   -0.648412   -0.000198
      6          1           0       -2.350056    1.231025   -0.000444
      7          1           0        0.241137    2.233325    0.000643
      8          6           0        2.138966    0.044317   -0.000309
      9          1           0        0.013206   -1.787866    0.922100
     10          1           0        0.014073   -1.787601   -0.921731
     11          1           0        2.723601    0.972634   -0.000425
     12          1           0        2.723812   -0.883751   -0.000432
 ---------------------------------------------------------------------
 Rotational constants (GHZ):           7.9772124           3.5635008           2.5050083
 Standard basis: 3-21G* (6D, 7F)
 There are    66 symmetry adapted cartesian basis functions of A   symmetry.
 There are    66 symmetry adapted basis functions of A   symmetry.
    66 basis functions,   108 primitive gaussians,    66 cartesian basis functions
    22 alpha electrons       22 beta electrons
       nuclear repulsion energy       219.0060081747 Hartrees.
 NAtoms=   12 NActive=   12 NUniq=   12 SFac= 1.00D+00 NAtFMM=   60 NAOKFM=F Big=F
 Integral buffers will be    131072 words long.
 Raffenetti 1 integral format.
 Two-electron integral symmetry is turned on.
 One-electron integrals computed using PRISM.
 NBasis=    66 RedAO= T EigKep=  4.33D-03  NBF=    66
 NBsUse=    66 1.00D-06 EigRej= -1.00D+00 NBFU=    66
 ExpMin= 1.83D-01 ExpMax= 3.22D+02 ExpMxC= 3.22D+02 IAcc=3 IRadAn=         5 AccDes= 0.00D+00
 Harris functional with IExCor=  205 and IRadAn=       5 diagonalized for initial guess.
 HarFok:  IExCor=  205 AccDes= 0.00D+00 IRadAn=         5 IDoV= 1 UseB2=F ITyADJ=14
 ICtDFT=  3500011 ScaDFX=  1.000000  1.000000  1.000000  1.000000
 FoFCou: FMM=F IPFlag=           0 FMFlag=      100000 FMFlg1=           0
         NFxFlg=           0 DoJE=T BraDBF=F KetDBF=T FulRan=T
         wScrn=  0.000000 ICntrl=       500 IOpCl=  0 I1Cent=   200000004 NGrid=           0
         NMat0=    1 NMatS0=      1 NMatT0=    0 NMatD0=    1 NMtDS0=    0 NMtDT0=    0
 Petite list used in FoFCou.
 Keep R1 ints in memory in canonical form, NReq=3270886.
 Requested convergence on RMS density matrix=1.00D-08 within 128 cycles.
 Requested convergence on MAX density matrix=1.00D-06.
 Requested convergence on             energy=1.00D-06.
 No special actions if energy rises.
 SCF Done:  E(RHF) =  -266.146166017     A.U. after   14 cycles
            NFock= 14  Conv=0.30D-08     -V/T= 2.0038

 **********************************************************************

            Population analysis using the SCF Density.

 **********************************************************************

 Orbital symmetries:
       Occupied  (A) (A) (A) (A) (A) (A) (A) (A) (A) (A) (A) (A)
                 (A) (A) (A) (A) (A) (A) (A) (A) (A) (A)
       Virtual   (A) (A) (A) (A) (A) (A) (A) (A) (A) (A) (A) (A)
                 (A) (A) (A) (A) (A) (A) (A) (A) (A) (A) (A) (A)
                 (A) (A) (A) (A) (A) (A) (A) (A) (A) (A) (A) (A)
                 (A) (A) (A) (A) (A) (A) (A) (A)
 The electronic state is 1-A.
 Alpha  occ. eigenvalues --  -20.48198 -11.25776 -11.24137 -11.20037 -11.18005
 Alpha  occ. eigenvalues --  -11.16552  -1.40655  -1.09837  -1.01792  -0.93005
 Alpha  occ. eigenvalues --   -0.79352  -0.74887  -0.69433  -0.65705  -0.59876
 Alpha  occ. eigenvalues --   -0.58865  -0.56501  -0.52965  -0.50119  -0.47497
 Alpha  occ. eigenvalues --   -0.43235  -0.29571
 Alpha virt. eigenvalues --    0.12952   0.25147   0.28188   0.28742   0.29867
 Alpha virt. eigenvalues --    0.31282   0.33625   0.36698   0.38514   0.41842
 Alpha virt. eigenvalues --    0.48440   0.56935   0.58434   0.67994   0.90038
 Alpha virt. eigenvalues --    0.92886   0.94035   0.97576   0.99760   1.00516
 Alpha virt. eigenvalues --    1.07119   1.07715   1.10228   1.10499   1.13891
 Alpha virt. eigenvalues --    1.19999   1.22770   1.29937   1.30073   1.31134
 Alpha virt. eigenvalues --    1.33082   1.37444   1.49177   1.54717   1.61840
 Alpha virt. eigenvalues --    1.73950   1.86329   1.94132   1.98333   2.06209
 Alpha virt. eigenvalues --    2.14692   2.36273   2.40235   3.57383
     Molecular Orbital Coefficients:
                           1         2         3         4         5
                           O         O         O         O         O
     Eigenvalues --   -20.48198 -11.25776 -11.24137 -11.20037 -11.18005
   1 1   C  1S         -0.00052   0.98673   0.01335   0.00110   0.00026
   2        2S         -0.00115   0.09546  -0.00151  -0.00057  -0.00398
   3        2PX        -0.00048   0.00104  -0.00097  -0.00072  -0.00169
   4        2PY        -0.00197  -0.00130   0.00074  -0.00030  -0.00032
   5        2PZ         0.00000   0.00000  -0.00000   0.00000  -0.00000
   6        3S          0.01650  -0.06197   0.01279  -0.00303   0.03726
   7        3PX         0.00866  -0.01341   0.01313  -0.00071   0.02347
   8        3PY        -0.01331  -0.00333  -0.00530   0.00184  -0.00207
   9        3PZ         0.00000  -0.00001   0.00001  -0.00000   0.00001
  10 2   C  1S          0.00024  -0.00073  -0.00144  -0.01151   0.98731
  11        2S          0.00113  -0.00336  -0.00069  -0.00403   0.10006
  12        2PX         0.00107   0.00199   0.00022  -0.00009  -0.00073
  13        2PY        -0.00039   0.00058   0.00052   0.00058  -0.00191
  14        2PZ         0.00000   0.00000  -0.00000   0.00000  -0.00000
  15        3S         -0.01034   0.02306  -0.00904   0.02467  -0.09429
  16        3PX        -0.00040  -0.01555   0.00764   0.00648   0.00867
  17        3PY         0.01000  -0.00277   0.00602  -0.01335   0.02856
  18        3PZ         0.00000  -0.00001   0.00000  -0.00000   0.00001
  19 3   C  1S          0.00014  -0.00111  -0.00335   0.98728   0.01091
  20        2S          0.00062  -0.00039  -0.00248   0.09986  -0.00169
  21        2PX        -0.00031   0.00112   0.00005  -0.00071   0.00080
  22        2PY         0.00032  -0.00047   0.00094  -0.00018  -0.00057
  23        2PZ        -0.00000   0.00000  -0.00000  -0.00000  -0.00000
  24        3S          0.00043  -0.00761   0.02272  -0.08662   0.02602
  25        3PX         0.00634  -0.00489  -0.01326   0.00815  -0.02028
  26        3PY         0.00827   0.00657  -0.01679  -0.00071   0.01536
  27        3PZ         0.00000   0.00000  -0.00000   0.00001  -0.00000
  28 4   C  1S         -0.00082  -0.01418   0.98768   0.00267   0.00141
  29        2S         -0.00304  -0.00412   0.10219  -0.00192  -0.00055
  30        2PX        -0.00195   0.00016  -0.00063   0.00012  -0.00060
  31        2PY         0.00097  -0.00074   0.00074  -0.00023  -0.00070
  32        2PZ        -0.00000   0.00000  -0.00000   0.00000  -0.00000
  33        3S          0.02101   0.00918  -0.08388   0.02018  -0.00227
  34        3PX        -0.00485   0.00101  -0.00544   0.00505   0.00250
  35        3PY         0.00661   0.00614  -0.00958   0.01210  -0.00184
  36        3PZ        -0.00000  -0.00000   0.00001  -0.00001   0.00000
  37 5   O  1S          0.98371   0.00004  -0.00013   0.00005   0.00010
  38        2S          0.09987   0.00117   0.00009   0.00023   0.00055
  39        2PX         0.00336   0.00015   0.00101  -0.00001  -0.00001
  40        2PY         0.00241   0.00097   0.00003  -0.00008   0.00003
  41        2PZ         0.00000  -0.00000   0.00000  -0.00000  -0.00000
  42        3S         -0.05207   0.00222   0.00565  -0.00166  -0.00417
  43        3PX        -0.00963  -0.00067   0.00132  -0.00169  -0.00087
  44        3PY        -0.00712  -0.00133  -0.00332   0.00049  -0.00299
  45        3PZ        -0.00000   0.00000  -0.00000   0.00000   0.00000
  46 6   H  1S          0.00029  -0.00243   0.00074  -0.00010  -0.00004
  47        2S          0.00399   0.00883   0.00537   0.00034   0.00501
  48 7   H  1S         -0.00069  -0.00097  -0.00070  -0.00057  -0.00275
  49        2S         -0.00275   0.00084  -0.00168   0.00184   0.00374
  50 8   C  1S          0.00001  -0.00067  -0.00123  -0.00004  -0.00547
  51        2S         -0.00007  -0.00080  -0.00067  -0.00400  -0.00106
  52        2PX         0.00039  -0.00005   0.00066   0.00238   0.00035
  53        2PY         0.00043  -0.00002   0.00045   0.00000  -0.00002
  54        2PZ        -0.00000  -0.00000  -0.00000  -0.00000   0.00000
  55        3S         -0.00428   0.00641   0.00304   0.02022   0.00746
  56        3PX         0.00128  -0.00426  -0.00300  -0.01135  -0.00361
  57        3PY        -0.00501  -0.00194   0.00347   0.00012  -0.00484
  58        3PZ        -0.00000   0.00000   0.00000   0.00000   0.00000
  59 9   H  1S         -0.00136  -0.00037   0.00042  -0.00137  -0.00003
  60        2S         -0.00098   0.00052   0.01366   0.00240  -0.00020
  61 10  H  1S         -0.00136  -0.00037   0.00043  -0.00137  -0.00003
  62        2S         -0.00098   0.00052   0.01367   0.00240  -0.00020
  63 11  H  1S          0.00066  -0.00012  -0.00043  -0.00092   0.00043
  64        2S          0.00197   0.00147   0.00011   0.00044   0.00168
  65 12  H  1S         -0.00060  -0.00039   0.00013  -0.00090  -0.00069
  66        2S         -0.00139  -0.00013   0.00214   0.00049  -0.00090
                           6         7         8         9        10
                           O         O         O         O         O
     Eigenvalues --   -11.16552  -1.40655  -1.09837  -1.01792  -0.93005
   1 1   C  1S          0.00045  -0.07788  -0.03547  -0.13981   0.02063
   2        2S         -0.00067   0.09200   0.04620   0.15566  -0.01817
   3        2PX        -0.00016   0.01844   0.08104   0.07283   0.08654
   4        2PY         0.00008  -0.08041   0.05297   0.03773   0.06267
   5        2PZ        -0.00000   0.00001   0.00003   0.00005   0.00003
   6        3S          0.00331   0.07509   0.04358   0.32702  -0.07902
   7        3PX         0.00346  -0.03466   0.01255   0.04864   0.02612
   8        3PY        -0.00102   0.02902   0.01292   0.01959   0.02043
   9        3PZ         0.00000  -0.00001   0.00001   0.00003   0.00001
  10 2   C  1S          0.00550  -0.02962  -0.11588  -0.11892  -0.04439
  11        2S          0.00041   0.02875   0.12578   0.12492   0.04790
  12        2PX        -0.00065  -0.02246   0.00761  -0.10201  -0.02882
  13        2PY        -0.00000  -0.02496  -0.06312  -0.01870  -0.02707
  14        2PZ         0.00000  -0.00001  -0.00002  -0.00004  -0.00000
  15        3S         -0.00191   0.07482   0.23792   0.27794   0.11615
  16        3PX         0.00140  -0.00530  -0.01380   0.00430  -0.02352
  17        3PY         0.00050  -0.04934  -0.02736  -0.03808  -0.01589
  18        3PZ         0.00000  -0.00001  -0.00001  -0.00001  -0.00001
  19 3   C  1S         -0.00038  -0.02475  -0.15964   0.05210   0.02039
  20        2S         -0.00407   0.02697   0.17449  -0.05648  -0.02071
  21        2PX        -0.00315  -0.02291   0.01118  -0.07000  -0.19556
  22        2PY         0.00004  -0.00654   0.01592   0.08122  -0.04477
  23        2PZ         0.00000  -0.00000  -0.00004   0.00003   0.00006
  24        3S          0.02784   0.01670   0.32603  -0.12195  -0.07863
  25        3PX         0.01902  -0.02558  -0.02609  -0.00664  -0.06363
  26        3PY         0.00038  -0.02201  -0.00040  -0.02145   0.01621
  27        3PZ        -0.00001  -0.00000  -0.00003   0.00002   0.00003
  28 4   C  1S          0.00122  -0.06519  -0.05346   0.10853  -0.13042
  29        2S         -0.00024   0.07259   0.05644  -0.10206   0.12500
  30        2PX        -0.00069  -0.05323   0.06790   0.00214   0.00800
  31        2PY        -0.00009   0.03658   0.04533   0.00329   0.00167
  32        2PZ        -0.00000  -0.00002   0.00000   0.00001   0.00002
  33        3S          0.00121   0.08798   0.11528  -0.32357   0.41366
  34        3PX         0.00035  -0.00199   0.01904  -0.01249   0.03185
  35        3PY         0.00107  -0.01348   0.00273  -0.01498   0.01989
  36        3PZ         0.00000  -0.00001  -0.00001   0.00002  -0.00002
  37 5   O  1S         -0.00000  -0.21113   0.07415   0.02871   0.05173
  38        2S         -0.00011   0.18930  -0.06724  -0.02854  -0.04625
  39        2PX        -0.00007   0.05934   0.02255  -0.04771   0.09774
  40        2PY        -0.00005   0.05177   0.00124   0.10173  -0.07556
  41        2PZ        -0.00000   0.00002   0.00001  -0.00002   0.00004
  42        3S         -0.00026   0.67857  -0.27007  -0.09967  -0.21020
  43        3PX         0.00023   0.09084   0.00361  -0.04133   0.07573
  44        3PY        -0.00016   0.07805  -0.00571   0.08162  -0.06908
  45        3PZ        -0.00000   0.00002   0.00000  -0.00002   0.00004
  46 6   H  1S          0.00020   0.01700   0.00825   0.07308  -0.03129
  47        2S          0.00131  -0.02301  -0.00404   0.02237  -0.01428
  48 7   H  1S         -0.00002   0.00773   0.04723   0.05493   0.01640
  49        2S         -0.00036   0.01269   0.00953   0.01661   0.00364
  50 8   C  1S          0.98682  -0.00370  -0.09690   0.06819   0.14637
  51        2S          0.09654   0.00446   0.10772  -0.07398  -0.15593
  52        2PX        -0.00027  -0.00675  -0.08425   0.04326   0.04150
  53        2PY        -0.00000  -0.00183   0.00140   0.01429  -0.01035
  54        2PZ         0.00000   0.00000   0.00004  -0.00002  -0.00004
  55        3S         -0.07310   0.02318   0.20773  -0.16001  -0.36150
  56        3PX         0.01033  -0.00565  -0.01316   0.00974   0.00511
  57        3PY        -0.00032   0.01476   0.00128   0.01648  -0.01031
  58        3PZ        -0.00001   0.00001   0.00002  -0.00001  -0.00002
  59 9   H  1S         -0.00008   0.01836   0.02316  -0.05861   0.07778
  60        2S          0.00017  -0.00705  -0.00881  -0.00566   0.01250
  61 10  H  1S         -0.00008   0.01835   0.02318  -0.05861   0.07775
  62        2S          0.00017  -0.00705  -0.00882  -0.00565   0.01247
  63 11  H  1S         -0.00109  -0.00059   0.03823  -0.02807  -0.08759
  64        2S          0.01193  -0.00764  -0.00191  -0.00485  -0.02310
  65 12  H  1S         -0.00117   0.00228   0.03794  -0.03511  -0.08151
  66        2S          0.01173   0.00374  -0.00220  -0.00189  -0.02427
                          11        12        13        14        15
                           O         O         O         O         O
     Eigenvalues --    -0.79352  -0.74887  -0.69433  -0.65705  -0.59876
   1 1   C  1S         -0.12030  -0.00901  -0.00814  -0.00000  -0.01180
   2        2S          0.13530   0.00650   0.01292   0.00000   0.01261
   3        2PX        -0.11466  -0.05638   0.23308  -0.00008  -0.12831
   4        2PY         0.06759  -0.14686  -0.04496  -0.00007  -0.03752
   5        2PZ        -0.00002  -0.00004   0.00007   0.10207  -0.00012
   6        3S          0.38185   0.05111   0.00116   0.00002   0.03690
   7        3PX        -0.05164   0.01924   0.19200  -0.00006  -0.09719
   8        3PY         0.07505  -0.05816  -0.02725  -0.00001   0.01082
   9        3PZ        -0.00000  -0.00000   0.00006   0.09907  -0.00011
  10 2   C  1S          0.07317   0.07453   0.01668   0.00002   0.01866
  11        2S         -0.07291  -0.07174  -0.01318  -0.00002  -0.01835
  12        2PX        -0.15126   0.05215  -0.16606   0.00003   0.12579
  13        2PY         0.02135  -0.16401  -0.12929  -0.00012  -0.13003
  14        2PZ        -0.00004  -0.00001  -0.00008   0.06550  -0.00003
  15        3S         -0.23159  -0.30872  -0.11744  -0.00010  -0.07304
  16        3PX        -0.03844   0.03933  -0.07190   0.00002   0.07472
  17        3PY        -0.00398  -0.06816  -0.09274  -0.00010  -0.11736
  18        3PZ        -0.00001   0.00000  -0.00005   0.05119  -0.00004
  19 3   C  1S          0.03552  -0.09592   0.05772  -0.00003   0.00663
  20        2S         -0.03459   0.09534  -0.05974   0.00003  -0.00773
  21        2PX         0.05079  -0.06964  -0.09037  -0.00005  -0.13048
  22        2PY        -0.15769  -0.05561  -0.04515   0.00005   0.16738
  23        2PZ        -0.00001  -0.00002  -0.00000   0.08907   0.00001
  24        3S         -0.12885   0.33887  -0.23027   0.00008  -0.04539
  25        3PX         0.05400  -0.11480  -0.08870  -0.00008  -0.11257
  26        3PY        -0.08062  -0.04880  -0.01929   0.00002   0.11475
  27        3PZ        -0.00001  -0.00001   0.00002   0.05518   0.00001
  28 4   C  1S         -0.07368   0.02939   0.00518  -0.00001  -0.02611
  29        2S          0.07141  -0.02135  -0.00225   0.00002   0.02346
  30        2PX         0.09555   0.12180  -0.05067  -0.00007  -0.02333
  31        2PY        -0.06742   0.15084   0.08036  -0.00001  -0.06794
  32        2PZ         0.00001  -0.00005  -0.00005   0.29219  -0.00005
  33        3S          0.26904  -0.16481  -0.03850  -0.00001   0.09864
  34        3PX         0.06093   0.05547  -0.00202  -0.00007   0.00143
  35        3PY        -0.03003   0.05996   0.05807  -0.00003  -0.05216
  36        3PZ        -0.00000  -0.00004  -0.00005   0.27068  -0.00007
  37 5   O  1S          0.05328   0.01909   0.02858   0.00002   0.02765
  38        2S         -0.04759  -0.02009  -0.03256  -0.00002  -0.02557
  39        2PX        -0.02675  -0.03188   0.15865  -0.00009   0.01620
  40        2PY         0.07661   0.18002   0.05590   0.00010   0.04689
  41        2PZ        -0.00001  -0.00006   0.00003   0.27385  -0.00017
  42        3S         -0.22987  -0.06651  -0.10464  -0.00007  -0.11697
  43        3PX        -0.03855  -0.03090   0.16468  -0.00009   0.02200
  44        3PY         0.07804   0.17903   0.05621   0.00011   0.05635
  45        3PZ        -0.00002  -0.00006   0.00004   0.27811  -0.00018
  46 6   H  1S          0.16974  -0.00207  -0.12061   0.00002   0.07995
  47        2S          0.07851   0.00880  -0.06522   0.00000   0.05262
  48 7   H  1S         -0.07080  -0.13685  -0.11286  -0.00007  -0.07211
  49        2S         -0.03250  -0.08567  -0.06860  -0.00004  -0.04059
  50 8   C  1S         -0.03037   0.06135  -0.05546  -0.00001  -0.00244
  51        2S          0.03210  -0.06112   0.04794   0.00000  -0.00329
  52        2PX         0.02729  -0.11307   0.18959   0.00006   0.13293
  53        2PY        -0.05885  -0.02565  -0.03255   0.00005   0.27920
  54        2PZ        -0.00001   0.00002  -0.00008   0.03691  -0.00007
  55        3S          0.08120  -0.17210   0.25537   0.00008   0.06525
  56        3PX         0.02243  -0.06867   0.07876   0.00002   0.06667
  57        3PY        -0.02594  -0.00604  -0.02231   0.00004   0.21902
  58        3PZ        -0.00001   0.00002  -0.00003   0.03209  -0.00003
  59 9   H  1S          0.07720  -0.05667  -0.03328   0.14470   0.04697
  60        2S          0.03212  -0.04155  -0.02368   0.09256   0.03248
  61 10  H  1S          0.07721  -0.05656  -0.03324  -0.14469   0.04699
  62        2S          0.03212  -0.04150  -0.02367  -0.09258   0.03248
  63 11  H  1S          0.00603  -0.09323   0.08663   0.00005   0.20321
  64        2S         -0.00577  -0.06056   0.05902   0.00004   0.16662
  65 12  H  1S          0.05581  -0.06992   0.11908  -0.00001  -0.10800
  66        2S          0.03210  -0.03817   0.08350  -0.00001  -0.08379
                          16        17        18        19        20
                           O         O         O         O         O
     Eigenvalues --    -0.58865  -0.56501  -0.52965  -0.50119  -0.47497
   1 1   C  1S          0.03075   0.02057  -0.00901   0.00002  -0.01229
   2        2S         -0.03910  -0.02591   0.00955  -0.00002   0.01493
   3        2PX        -0.05833  -0.22117  -0.06897   0.00006  -0.10228
   4        2PY        -0.20537   0.13221  -0.08690   0.00007  -0.07735
   5        2PZ        -0.00001  -0.00003   0.00006   0.18181   0.00006
   6        3S         -0.06148  -0.04617   0.07857  -0.00009   0.01967
   7        3PX         0.01794  -0.19299   0.06148  -0.00007  -0.05824
   8        3PY        -0.13821   0.10897  -0.00764   0.00002  -0.00872
   9        3PZ         0.00001  -0.00001   0.00011   0.21054   0.00011
  10 2   C  1S         -0.03156   0.00734   0.03029  -0.00001  -0.00846
  11        2S          0.03406  -0.01132  -0.02832   0.00001   0.00723
  12        2PX         0.15454   0.12893   0.02666  -0.00017   0.17021
  13        2PY         0.11293   0.02434   0.23389  -0.00005  -0.10964
  14        2PZ         0.00013   0.00012   0.00011   0.08735   0.00003
  15        3S          0.06939  -0.00716  -0.18483   0.00015  -0.00744
  16        3PX         0.13069   0.07913   0.07232  -0.00012   0.09755
  17        3PY         0.16581   0.02418   0.21893  -0.00009  -0.13264
  18        3PZ         0.00011   0.00007   0.00012   0.08333   0.00001
  19 3   C  1S          0.02986  -0.02102   0.01987   0.00001   0.01006
  20        2S         -0.03899   0.01560  -0.01608  -0.00000  -0.00439
  21        2PX        -0.16011  -0.21721   0.13178  -0.00008   0.05173
  22        2PY        -0.03699  -0.04855  -0.09715  -0.00008   0.24982
  23        2PZ         0.00011   0.00009  -0.00003  -0.05008  -0.00015
  24        3S         -0.07225   0.07763  -0.10617  -0.00004  -0.09266
  25        3PX        -0.18385  -0.20689   0.01551   0.00004   0.01451
  26        3PY        -0.01861  -0.03736  -0.06029  -0.00014   0.28084
  27        3PZ         0.00009   0.00008  -0.00001  -0.04474  -0.00015
  28 4   C  1S         -0.01975  -0.00079  -0.02415   0.00000   0.00966
  29        2S          0.02237   0.00176   0.02884  -0.00001  -0.00942
  30        2PX         0.16490  -0.04130  -0.07698   0.00024  -0.18446
  31        2PY        -0.03408   0.24371   0.11726   0.00001  -0.17453
  32        2PZ         0.00001  -0.00008  -0.00010  -0.24318  -0.00024
  33        3S          0.05409  -0.03409   0.06237   0.00002  -0.01349
  34        3PX         0.12758  -0.04124  -0.00670   0.00011  -0.07843
  35        3PY        -0.05277   0.18192   0.11446   0.00001  -0.12684
  36        3PZ        -0.00000  -0.00008  -0.00006  -0.16552  -0.00015
  37 5   O  1S          0.00356  -0.00453   0.04133  -0.00004   0.03608
  38        2S         -0.00167   0.00306  -0.05085   0.00005  -0.03979
  39        2PX        -0.12974   0.06748   0.30806  -0.00038   0.18902
  40        2PY         0.21776  -0.14869   0.17994  -0.00009   0.08636
  41        2PZ        -0.00010   0.00008   0.00023   0.33976   0.00035
  42        3S         -0.01683   0.02737  -0.15338   0.00016  -0.14143
  43        3PX        -0.14684   0.08504   0.36442  -0.00047   0.24225
  44        3PY         0.23536  -0.16655   0.21457  -0.00011   0.10955
  45        3PZ        -0.00011   0.00009   0.00027   0.40043   0.00042
  46 6   H  1S         -0.07212   0.16124   0.02209  -0.00007   0.06511
  47        2S         -0.04146   0.12329   0.03467  -0.00009   0.05811
  48 7   H  1S          0.14028   0.03300   0.13847  -0.00004  -0.03504
  49        2S          0.08409   0.02934   0.12135  -0.00004  -0.01900
  50 8   C  1S          0.00565   0.00617  -0.00758   0.00001  -0.00437
  51        2S         -0.01461  -0.01538   0.00936  -0.00001   0.00392
  52        2PX         0.19670   0.17076  -0.09198   0.00004  -0.03542
  53        2PY        -0.07853  -0.08937   0.09119   0.00021  -0.18503
  54        2PZ        -0.00006  -0.00006   0.00004  -0.03270  -0.00008
  55        3S          0.07071   0.05993   0.06327  -0.00007   0.03788
  56        3PX         0.08690   0.08079  -0.08432   0.00003  -0.04102
  57        3PY        -0.06488  -0.06834   0.09265   0.00021  -0.23225
  58        3PZ        -0.00000  -0.00001   0.00005  -0.03713  -0.00008
  59 9   H  1S          0.04663  -0.09844  -0.03098  -0.15731   0.05202
  60        2S          0.03333  -0.08758  -0.04268  -0.16387   0.06123
  61 10  H  1S          0.04668  -0.09832  -0.03088   0.15735   0.05222
  62        2S          0.03338  -0.08751  -0.04259   0.16393   0.06149
  63 11  H  1S          0.02035   0.00273   0.03458   0.00015  -0.14218
  64        2S          0.03129   0.01133   0.02769   0.00014  -0.12961
  65 12  H  1S          0.10947   0.10605  -0.08802  -0.00012   0.12390
  66        2S          0.10239   0.09943  -0.08460  -0.00010   0.11042
                          21        22        23        24        25
                           O         O         V         V         V
     Eigenvalues --    -0.43235  -0.29571   0.12952   0.25147   0.28188
   1 1   C  1S         -0.00002  -0.00002   0.00004  -0.00002  -0.00719
   2        2S          0.00002   0.00001  -0.00003   0.00001   0.00014
   3        2PX        -0.00000   0.00009  -0.00011   0.00001   0.00070
   4        2PY        -0.00001   0.00002  -0.00002  -0.00025   0.08701
   5        2PZ         0.12262  -0.21394   0.29523  -0.20646  -0.00031
   6        3S          0.00003   0.00007  -0.00028  -0.00038   0.35544
   7        3PX        -0.00002   0.00010  -0.00008  -0.00031   0.19778
   8        3PY         0.00000   0.00006  -0.00015  -0.00069   0.26754
   9        3PZ         0.11185  -0.23602   0.54445  -0.52709  -0.00072
  10 2   C  1S         -0.00001   0.00000  -0.00001   0.00004  -0.03863
  11        2S          0.00001  -0.00001   0.00003  -0.00002   0.02989
  12        2PX        -0.00010   0.00011   0.00006  -0.00015   0.07171
  13        2PY        -0.00013   0.00004  -0.00000  -0.00016   0.02864
  14        2PZ         0.23420  -0.23369  -0.15185   0.26834   0.00047
  15        3S          0.00004   0.00004  -0.00009  -0.00021   0.26631
  16        3PX        -0.00012   0.00017   0.00007  -0.00097   0.45077
  17        3PY        -0.00018  -0.00004   0.00012  -0.00080   0.26189
  18        3PZ         0.25399  -0.32575  -0.31839   0.71101   0.00140
  19 3   C  1S         -0.00001  -0.00000   0.00000  -0.00002   0.02325
  20        2S          0.00003   0.00001   0.00001  -0.00001   0.00866
  21        2PX         0.00015   0.00004  -0.00007  -0.00014   0.05645
  22        2PY         0.00011   0.00001   0.00000  -0.00018   0.04689
  23        2PZ         0.26622   0.15741  -0.20509  -0.25051  -0.00042
  24        3S         -0.00004  -0.00007   0.00002   0.00070  -0.43143
  25        3PX         0.00018   0.00017  -0.00016  -0.00008   0.09020
  26        3PY         0.00014  -0.00002   0.00003  -0.00036   0.14728
  27        3PZ         0.29490   0.21203  -0.38560  -0.58876  -0.00099
  28 4   C  1S          0.00001  -0.00001  -0.00003   0.00003  -0.06231
  29        2S         -0.00002  -0.00000   0.00003   0.00002   0.01031
  30        2PX        -0.00007   0.00004   0.00002  -0.00030   0.17942
  31        2PY        -0.00012   0.00001   0.00004   0.00008  -0.11937
  32        2PZ        -0.06503  -0.06575  -0.01726  -0.08312  -0.00014
  33        3S          0.00004   0.00011   0.00017  -0.00079   1.02028
  34        3PX        -0.00000   0.00004   0.00010  -0.00116   0.72318
  35        3PY        -0.00007   0.00003  -0.00002   0.00032  -0.46650
  36        3PZ        -0.09349  -0.05193  -0.18799  -0.36244  -0.00064
  37 5   O  1S          0.00001  -0.00001   0.00001   0.00015  -0.06053
  38        2S         -0.00001   0.00000   0.00000  -0.00006   0.02604
  39        2PX         0.00014  -0.00004  -0.00001  -0.00028   0.10758
  40        2PY        -0.00002   0.00002   0.00001  -0.00008   0.00596
  41        2PZ        -0.17446   0.20682  -0.11178   0.11085   0.00021
  42        3S         -0.00004   0.00005  -0.00008  -0.00130   0.54914
  43        3PX         0.00017  -0.00006  -0.00002  -0.00061   0.25847
  44        3PY        -0.00002   0.00004  -0.00000  -0.00014   0.01212
  45        3PZ        -0.21406   0.28411  -0.17795   0.21169   0.00044
  46 6   H  1S          0.00001  -0.00002   0.00005  -0.00003   0.00925
  47        2S         -0.00000  -0.00002   0.00026   0.00010  -0.11004
  48 7   H  1S         -0.00007  -0.00000   0.00002   0.00017  -0.06715
  49        2S         -0.00006   0.00004   0.00005   0.00135  -0.68898
  50 8   C  1S          0.00000   0.00003   0.00002  -0.00012   0.06509
  51        2S         -0.00001  -0.00004  -0.00001   0.00012  -0.03967
  52        2PX         0.00003   0.00016   0.00010   0.00000  -0.01520
  53        2PY        -0.00002  -0.00001  -0.00002  -0.00012   0.03190
  54        2PZ         0.20862   0.26284   0.23403   0.13197   0.00011
  55        3S          0.00001  -0.00017  -0.00016   0.00094  -0.67141
  56        3PX         0.00004   0.00018   0.00021   0.00080  -0.27586
  57        3PY        -0.00005   0.00000   0.00004  -0.00040   0.04687
  58        3PZ         0.21977   0.33873   0.51196   0.44002   0.00068
  59 9   H  1S         -0.04668  -0.06590   0.05941   0.05134  -0.04145
  60        2S         -0.04278  -0.08651   0.28739   0.46815  -0.77613
  61 10  H  1S          0.04672   0.06590  -0.05940  -0.05121  -0.04163
  62        2S          0.04284   0.08649  -0.28764  -0.46708  -0.77810
  63 11  H  1S         -0.00003   0.00000  -0.00000   0.00002   0.01890
  64        2S         -0.00004   0.00001   0.00000  -0.00035   0.39816
  65 12  H  1S          0.00001   0.00002   0.00004  -0.00003   0.01449
  66        2S          0.00000   0.00005   0.00010  -0.00135   0.56179
                          26        27        28        29        30
                           V         V         V         V         V
     Eigenvalues --     0.28742   0.29867   0.31282   0.33625   0.36698
   1 1   C  1S          0.04059  -0.01548   0.11046   0.02461   0.00002
   2        2S         -0.02431  -0.01234  -0.07800   0.00110  -0.00005
   3        2PX         0.14195  -0.06163   0.11537   0.11621  -0.00005
   4        2PY        -0.06107   0.15467   0.02065  -0.01117  -0.00023
   5        2PZ        -0.00000  -0.00011  -0.00007  -0.00004  -0.02309
   6        3S         -0.51747   0.45807  -1.07872  -0.51070  -0.00021
   7        3PX         0.61381  -0.16334   0.79688   0.25744  -0.00013
   8        3PY        -0.20917   0.44162  -0.24423  -0.00739  -0.00139
   9        3PZ         0.00007  -0.00033  -0.00010  -0.00015  -0.11573
  10 2   C  1S          0.01878   0.02066  -0.05845   0.08099  -0.00020
  11        2S         -0.00049  -0.02381   0.05924  -0.03380   0.00009
  12        2PX        -0.01803  -0.00404   0.00084  -0.12060   0.00002
  13        2PY        -0.13814   0.10997   0.07210  -0.06663   0.00019
  14        2PZ         0.00002   0.00021   0.00009   0.00003   0.05857
  15        3S         -0.47259  -0.12167   0.31671  -1.04177   0.00282
  16        3PX         0.11807   0.08651   0.00608  -0.45151   0.00033
  17        3PY        -0.48487   0.35896   0.80287  -0.31642   0.00121
  18        3PZ         0.00004   0.00063   0.00045   0.00008   0.25133
  19 3   C  1S          0.01333  -0.01006   0.01917   0.00047   0.00013
  20        2S          0.00098  -0.00213  -0.03193   0.01327  -0.00007
  21        2PX         0.02078   0.00382   0.01197  -0.00702   0.00013
  22        2PY        -0.05531   0.09872   0.03319   0.12401  -0.00013
  23        2PZ        -0.00004  -0.00023  -0.00006  -0.00009  -0.16847
  24        3S         -0.43803  -0.04639   0.11875  -0.07234  -0.00115
  25        3PX         0.03606   0.03125  -0.14990  -0.02702  -0.00034
  26        3PY        -0.14819   0.23706   0.21111   0.38167  -0.00054
  27        3PZ         0.00004  -0.00051  -0.00019  -0.00030  -0.64630
  28 4   C  1S          0.08350   0.06567   0.03293  -0.07524  -0.00011
  29        2S         -0.05563  -0.02963  -0.01069   0.03528   0.00011
  30        2PX         0.04987   0.02871   0.10354   0.03351  -0.00032
  31        2PY        -0.01482   0.18573   0.03477   0.00875   0.00012
  32        2PZ         0.00006   0.00002  -0.00001   0.00020   0.35150
  33        3S         -0.78463  -0.89108  -0.37912   0.90777   0.00081
  34        3PX         0.24201   0.12951   0.33121   0.11474  -0.00118
  35        3PY         0.00649   0.78511   0.14992  -0.02898  -0.00003
  36        3PZ         0.00017  -0.00003  -0.00007   0.00079   1.41165
  37 5   O  1S         -0.02707  -0.03087  -0.05411   0.00532   0.00013
  38        2S          0.01102   0.01119   0.03455  -0.00640  -0.00004
  39        2PX         0.06764   0.02132   0.05011  -0.08273  -0.00015
  40        2PY        -0.05245   0.04056   0.08363   0.02349  -0.00007
  41        2PZ         0.00003   0.00004   0.00006  -0.00003  -0.05228
  42        3S          0.24951   0.28483   0.41695  -0.01989  -0.00137
  43        3PX         0.13217   0.05358   0.07678  -0.17643  -0.00033
  44        3PY        -0.13494   0.06721   0.12481   0.09516  -0.00031
  45        3PZ         0.00006   0.00007   0.00012  -0.00011  -0.15678
  46 6   H  1S          0.05447  -0.02673   0.03369  -0.01839   0.00000
  47        2S          1.07475  -0.64831   1.45106   0.53626   0.00057
  48 7   H  1S          0.00759  -0.04674  -0.01794   0.00986   0.00004
  49        2S          0.75809  -0.44274  -1.01046   1.01520  -0.00260
  50 8   C  1S          0.07183   0.05863  -0.05816  -0.00540   0.00003
  51        2S         -0.03874  -0.03734   0.01866   0.01339   0.00003
  52        2PX        -0.09080  -0.03443   0.07764  -0.03675  -0.00024
  53        2PY        -0.05582   0.12039   0.06080   0.19993  -0.00005
  54        2PZ         0.00003   0.00015   0.00003   0.00004   0.10559
  55        3S         -0.86995  -0.69375   0.83124   0.01697  -0.00054
  56        3PX        -0.57697  -0.27819   0.32471  -0.10174  -0.00083
  57        3PY        -0.29713   0.44661   0.08234   0.91334  -0.00025
  58        3PZ         0.00016   0.00046   0.00009   0.00020   0.35507
  59 9   H  1S         -0.01776   0.01805   0.01858   0.01140   0.00018
  60        2S          0.36497   0.88355   0.26482  -0.40241  -1.36612
  61 10  H  1S         -0.01779   0.01798   0.01857   0.01143  -0.00015
  62        2S          0.36502   0.88301   0.26433  -0.40075   1.36538
  63 11  H  1S          0.03949  -0.00941   0.00135  -0.05685   0.00009
  64        2S          1.07451  -0.03042  -0.71481  -0.96031   0.00116
  65 12  H  1S         -0.01726   0.02698  -0.02845   0.05795  -0.00002
  66        2S          0.40897   1.01964  -0.42924   1.05702   0.00048
                          31        32        33        34        35
                           V         V         V         V         V
     Eigenvalues --     0.38514   0.41842   0.48440   0.56935   0.58434
   1 1   C  1S         -0.02701   0.08144  -0.00585  -0.05866  -0.06429
   2        2S          0.01608  -0.03971   0.01951   0.03079   0.00048
   3        2PX        -0.03573  -0.02825  -0.09449   0.16463   0.13302
   4        2PY         0.15001   0.12790  -0.11627  -0.02539   0.05057
   5        2PZ        -0.00003  -0.00004  -0.00002   0.00013   0.00003
   6        3S          0.44839  -1.01728  -0.11440   0.62757   2.19405
   7        3PX        -0.07027  -0.03005  -0.18732   0.82793   2.16876
   8        3PY         0.78218   0.58215  -0.28949   0.01171   1.00935
   9        3PZ        -0.00014  -0.00022  -0.00012   0.00019   0.00097
  10 2   C  1S          0.06944   0.04188  -0.00530   0.04670   0.06668
  11        2S         -0.02406   0.00574  -0.01147  -0.03198   0.00472
  12        2PX         0.06565  -0.07087  -0.02163   0.07245   0.14074
  13        2PY        -0.13561   0.03292   0.04688   0.05034   0.03383
  14        2PZ         0.00011   0.00001   0.00003  -0.00003   0.00012
  15        3S         -1.14318  -0.91997   0.25772  -0.38698  -2.00622
  16        3PX         0.03481  -0.92524  -0.31472   0.56640   2.55611
  17        3PY        -0.71467   0.47906   0.21818  -0.32667   0.91663
  18        3PZ         0.00040   0.00002   0.00003   0.00067   0.00101
  19 3   C  1S         -0.00526  -0.10880  -0.14039  -0.07312   0.00189
  20        2S          0.00773   0.04090   0.03511   0.01482  -0.01536
  21        2PX        -0.07860  -0.06703  -0.07362   0.25192  -0.11489
  22        2PY         0.08358   0.08694  -0.16862  -0.00024  -0.22830
  23        2PZ        -0.00034  -0.00006  -0.00009  -0.00010  -0.00001
  24        3S         -0.16570   1.68938   2.39676   2.32809  -0.36287
  25        3PX         0.03082  -0.44050  -0.53849   3.07030  -1.65239
  26        3PY         0.35422   0.78928  -1.20129   0.04299  -1.44287
  27        3PZ        -0.00121  -0.00033  -0.00056  -0.00138   0.00016
  28 4   C  1S          0.05750  -0.01402   0.12721  -0.02051   0.02866
  29        2S         -0.05644   0.00184  -0.03185  -0.02018   0.01956
  30        2PX         0.18597  -0.12715   0.01146   0.11144  -0.01864
  31        2PY        -0.05312  -0.08639  -0.17264  -0.03572   0.01328
  32        2PZ         0.00061   0.00010   0.00015   0.00017   0.00008
  33        3S         -0.32625   0.29214  -1.83301   0.68851  -0.99811
  34        3PX         0.68074  -0.35528  -0.41904  -0.32556  -0.95479
  35        3PY        -0.00135  -0.31260  -1.40051   0.81535  -0.95860
  36        3PZ         0.00225   0.00041   0.00073   0.00054  -0.00005
  37 5   O  1S         -0.08338  -0.04103  -0.02088   0.02292  -0.00500
  38        2S          0.02883   0.01568   0.00702   0.01253  -0.00402
  39        2PX         0.12244  -0.05354   0.16335  -0.00223  -0.10806
  40        2PY        -0.01996   0.23512  -0.04393  -0.03285   0.08672
  41        2PZ        -0.00005  -0.00003   0.00006  -0.00001  -0.00005
  42        3S          0.85642   0.42757   0.21737  -0.40432   0.11494
  43        3PX         0.32372  -0.13286   0.41413  -0.22576  -0.31984
  44        3PY         0.02880   0.61452  -0.09794  -0.04052   0.31207
  45        3PZ        -0.00015  -0.00011   0.00009  -0.00015  -0.00017
  46 6   H  1S          0.02687  -0.05395   0.02175  -0.05616  -0.01206
  47        2S         -0.63648   0.13298  -0.06276   0.47917   0.57817
  48 7   H  1S         -0.01961  -0.06396   0.06168  -0.00192   0.00893
  49        2S          1.15596   0.11787  -0.10557   0.19141  -0.70598
  50 8   C  1S         -0.05711   0.04764   0.04306   0.10276  -0.02908
  51        2S         -0.00589  -0.00455  -0.02223   0.03756  -0.04705
  52        2PX         0.15371  -0.03930   0.05966   0.04277   0.06889
  53        2PY        -0.03243  -0.12168   0.17296  -0.06644  -0.04420
  54        2PZ         0.00014   0.00003  -0.00000   0.00001  -0.00006
  55        3S          0.87000  -0.60047  -0.43167  -3.01308   1.36964
  56        3PX         0.37148   0.12375   0.54004   2.76080  -1.00556
  57        3PY        -0.33668  -0.79535   0.94421  -0.04699   0.67550
  58        3PZ         0.00062   0.00010   0.00006  -0.00130   0.00071
  59 9   H  1S         -0.00244   0.03242  -0.07412   0.04239  -0.02660
  60        2S          0.16946  -0.22149  -0.03620   0.11929  -0.12433
  61 10  H  1S         -0.00246   0.03234  -0.07422   0.04236  -0.02674
  62        2S          0.17333  -0.22029  -0.03467   0.12018  -0.12368
  63 11  H  1S         -0.02122  -0.01028   0.07250  -0.12389   0.00118
  64        2S         -0.39605   0.94101  -0.78959  -0.23804  -0.33921
  65 12  H  1S         -0.02247   0.02838  -0.09231  -0.01099   0.04513
  66        2S         -0.91967  -0.37434   0.74934  -0.41191   0.39645
                          36        37        38        39        40
                           V         V         V         V         V
     Eigenvalues --     0.67994   0.90038   0.92886   0.94035   0.97576
   1 1   C  1S          0.09736  -0.03473  -0.04295   0.00003   0.02041
   2        2S          0.01649  -0.07622  -0.02303  -0.00013  -0.07260
   3        2PX        -0.05817  -0.28479   0.12738  -0.00066  -0.16484
   4        2PY         0.22422  -0.40436  -0.14410  -0.00049  -0.54559
   5        2PZ        -0.00000  -0.00066   0.00071   0.63607  -0.00036
   6        3S         -1.70580   0.13605   0.21037  -0.00061  -0.43097
   7        3PX        -1.41861   0.71610   0.04550   0.00028  -0.55490
   8        3PY         0.93450   0.50901   0.07671   0.00058   0.45554
   9        3PZ        -0.00060   0.00081  -0.00057  -0.54639   0.00004
  10 2   C  1S         -0.13966  -0.01794   0.02855  -0.00008  -0.07431
  11        2S          0.03616   0.00107  -0.09983   0.00002  -0.13902
  12        2PX         0.02482   0.65131   0.22321   0.00024  -0.12219
  13        2PY        -0.24034  -0.17649  -0.01364  -0.00032  -0.17789
  14        2PZ        -0.00005  -0.00026   0.00036   0.45221  -0.00001
  15        3S          3.02858  -0.61917  -0.06889   0.00033   0.96873
  16        3PX         0.05516  -0.39670  -0.15070  -0.00057  -0.25680
  17        3PY        -2.59662   0.22583   0.03902  -0.00013  -0.24260
  18        3PZ        -0.00043   0.00005  -0.00004  -0.25765  -0.00017
  19 3   C  1S          0.06670   0.06527  -0.02731   0.00009   0.01650
  20        2S          0.00409   0.00254  -0.07233   0.00001  -0.15138
  21        2PX         0.14186   0.21641  -0.08667   0.00022  -0.01937
  22        2PY        -0.21701   0.09836   0.14839  -0.00025  -0.34445
  23        2PZ        -0.00005  -0.00019   0.00030   0.47351  -0.00039
  24        3S         -1.21923   0.07357  -0.04693  -0.00056   0.08407
  25        3PX         2.16340  -0.46460   0.69876  -0.00016   0.65384
  26        3PY        -1.61511   0.00550   0.29105   0.00010   0.09111
  27        3PZ        -0.00023   0.00019  -0.00029  -0.13985   0.00010
  28 4   C  1S         -0.02114  -0.01454  -0.02838   0.00001  -0.01011
  29        2S          0.02209   0.02794   0.01231   0.00003   0.03483
  30        2PX        -0.15829   0.18320  -0.78076   0.00092   0.10813
  31        2PY        -0.04080   0.06550  -0.06293  -0.00011   0.26569
  32        2PZ        -0.00012  -0.00035   0.00008   0.28886  -0.00003
  33        3S          0.30164  -0.04765   0.41262   0.00006   0.23199
  34        3PX        -0.57635  -0.12428   0.78637  -0.00068  -0.17851
  35        3PY         0.57090  -0.00300   0.40209   0.00060  -0.10473
  36        3PZ        -0.00004   0.00059  -0.00049  -0.57497   0.00023
  37 5   O  1S         -0.03751   0.00951   0.02747  -0.00002   0.01158
  38        2S          0.02667  -0.03688  -0.08316   0.00006  -0.03622
  39        2PX        -0.04124  -0.06964  -0.15325   0.00011   0.06115
  40        2PY         0.21597  -0.13102  -0.01500  -0.00017  -0.06927
  41        2PZ        -0.00006  -0.00012   0.00004   0.08804  -0.00002
  42        3S          0.38690   0.11998   0.12129  -0.00006   0.11951
  43        3PX        -0.10258  -0.10667  -0.03237  -0.00016   0.03484
  44        3PY         0.61824  -0.00687  -0.11001   0.00009   0.06248
  45        3PZ        -0.00012  -0.00021   0.00016   0.14608  -0.00006
  46 6   H  1S          0.15247  -0.13373  -0.33845   0.00014  -0.23763
  47        2S         -0.75663   0.25453   0.24722  -0.00014  -0.13921
  48 7   H  1S         -0.08237   0.01878  -0.07552  -0.00016  -0.68534
  49        2S          1.07622   0.00622   0.07012   0.00021   0.45087
  50 8   C  1S          0.00859  -0.01778   0.01650  -0.00003   0.00313
  51        2S          0.04853   0.15907  -0.13790   0.00016  -0.06653
  52        2PX        -0.07335  -0.43489   0.36415  -0.00033   0.26131
  53        2PY         0.09233   0.15055   0.24955  -0.00009  -0.17778
  54        2PZ         0.00011   0.00005   0.00003   0.33115  -0.00015
  55        3S         -1.18155   0.18571  -0.35397   0.00009  -0.39161
  56        3PX         0.86113   0.25350  -0.00195  -0.00017  -0.03440
  57        3PY         0.79639  -0.25927  -0.56370   0.00029   0.42966
  58        3PZ        -0.00066  -0.00002  -0.00018  -0.28858  -0.00004
  59 9   H  1S          0.04278   0.03411  -0.10786   0.24609  -0.07608
  60        2S          0.08810  -0.02039   0.06825   0.05602   0.04892
  61 10  H  1S          0.04285   0.03477  -0.10857  -0.24554  -0.07583
  62        2S          0.08805  -0.02053   0.06801  -0.05600   0.04912
  63 11  H  1S          0.07654   0.12677   0.19574  -0.00006  -0.18492
  64        2S         -0.66726   0.00184   0.03980   0.00001  -0.07636
  65 12  H  1S         -0.13830  -0.15006  -0.25314   0.00017   0.13880
  66        2S          0.49900   0.01344  -0.09549   0.00019   0.11605
                          41        42        43        44        45
                           V         V         V         V         V
     Eigenvalues --     0.99760   1.00516   1.07119   1.07715   1.10228
   1 1   C  1S          0.01493  -0.00006   0.02081   0.00010  -0.00004
   2        2S         -0.07976   0.00028   0.31193   0.00130  -0.00035
   3        2PX        -0.11403   0.00065  -0.28202  -0.00124  -0.00042
   4        2PY        -0.20994   0.00081  -0.59514  -0.00246   0.00060
   5        2PZ        -0.00235  -0.68958  -0.00018   0.00318  -0.51941
   6        3S         -0.24421   0.00081  -0.15045  -0.00063   0.00095
   7        3PX        -0.17606   0.00022   0.75319   0.00326   0.00142
   8        3PY         0.32577  -0.00122   0.86591   0.00339  -0.00164
   9        3PZ         0.00227   0.73367   0.00114  -0.20725   0.69553
  10 2   C  1S         -0.00595   0.00003  -0.01568  -0.00009   0.00000
  11        2S         -0.12385   0.00030   0.08907   0.00049  -0.00008
  12        2PX         0.04210  -0.00017  -0.41833  -0.00150  -0.00002
  13        2PY         0.06364  -0.00018   0.25868   0.00108  -0.00009
  14        2PZ        -0.00003   0.09309   0.00358  -0.89188   0.44088
  15        3S          0.64293  -0.00194  -0.59169  -0.00301  -0.00158
  16        3PX        -0.13792   0.00050   0.61231   0.00192  -0.00017
  17        3PY        -0.38121   0.00119  -0.49542  -0.00177   0.00166
  18        3PZ        -0.00040  -0.19722  -0.00419   1.06365  -0.50547
  19 3   C  1S         -0.01673   0.00002  -0.01489  -0.00006   0.00013
  20        2S         -0.00314   0.00010   0.00547   0.00010  -0.00042
  21        2PX        -0.20124   0.00070   0.11694   0.00062  -0.00155
  22        2PY        -0.16826   0.00054   0.10277   0.00008  -0.00102
  23        2PZ         0.00076   0.28605  -0.00162   0.40746   0.48040
  24        3S         -0.88276   0.00275  -0.32386  -0.00126   0.00064
  25        3PX         1.06196  -0.00320  -0.26365  -0.00115   0.00036
  26        3PY         0.08359  -0.00029  -0.10889   0.00082   0.00226
  27        3PZ        -0.00054  -0.14780   0.00200  -0.50328  -0.47536
  28 4   C  1S          0.03365  -0.00011  -0.00438  -0.00001   0.00010
  29        2S         -0.17371   0.00057   0.05075   0.00028  -0.00010
  30        2PX         0.10464  -0.00044  -0.29991  -0.00115  -0.00087
  31        2PY        -0.91251   0.00278   0.05186   0.00060  -0.00034
  32        2PZ        -0.00044  -0.05455  -0.00120   0.28610   0.19140
  33        3S          0.41641  -0.00127  -0.10549   0.00000   0.00047
  34        3PX        -0.20536   0.00079   0.36364   0.00194   0.00202
  35        3PY         1.79345  -0.00562  -0.06298  -0.00040   0.00051
  36        3PZ         0.00040   0.03209   0.00254  -0.63360  -0.32489
  37 5   O  1S         -0.00322   0.00001  -0.01433  -0.00007  -0.00002
  38        2S          0.05076  -0.00016  -0.02377  -0.00008   0.00008
  39        2PX         0.10499  -0.00032  -0.23298  -0.00097   0.00002
  40        2PY        -0.08282   0.00030  -0.12603  -0.00056  -0.00009
  41        2PZ        -0.00012  -0.02680  -0.00040   0.08891   0.03539
  42        3S         -0.21773   0.00062   0.58502   0.00242  -0.00016
  43        3PX        -0.17990   0.00062  -0.01797  -0.00006   0.00013
  44        3PY        -0.05694   0.00012   0.10105   0.00039  -0.00053
  45        3PZ        -0.00042  -0.09500  -0.00035   0.08014  -0.05573
  46 6   H  1S          0.01752  -0.00011   0.68263   0.00295  -0.00041
  47        2S         -0.15511   0.00049  -0.24968  -0.00106   0.00124
  48 7   H  1S         -0.07038   0.00021   0.16350   0.00043  -0.00024
  49        2S          0.08049  -0.00021   0.08045   0.00041  -0.00053
  50 8   C  1S          0.00573   0.00000   0.00446   0.00003  -0.00029
  51        2S         -0.02018  -0.00002  -0.05922  -0.00012  -0.00070
  52        2PX         0.16171   0.00002  -0.01982   0.00001  -0.00175
  53        2PY         0.01216  -0.00004  -0.01852   0.00018  -0.00010
  54        2PZ         0.00232   0.78764   0.00034  -0.06777  -0.68438
  55        3S         -0.54262   0.00153   0.30994   0.00091   0.00191
  56        3PX        -0.21580   0.00027   0.10785   0.00018   0.00264
  57        3PY         0.10026  -0.00029   0.02418  -0.00074  -0.00009
  58        3PZ        -0.00205  -0.67418  -0.00066   0.16185   0.76443
  59 9   H  1S          0.29952   0.04332   0.05192   0.31524   0.18274
  60        2S          0.22160  -0.00379  -0.04119   0.04406  -0.00702
  61 10  H  1S          0.29943  -0.04532   0.05451  -0.31445  -0.18174
  62        2S          0.22150   0.00234  -0.04102  -0.04477   0.00659
  63 11  H  1S          0.10768  -0.00031  -0.11415  -0.00007  -0.00285
  64        2S         -0.02890   0.00012  -0.00823   0.00020   0.00070
  65 12  H  1S          0.12170  -0.00033  -0.05854  -0.00004  -0.00231
  66        2S          0.16364  -0.00047  -0.07244  -0.00058   0.00038
                          46        47        48        49        50
                           V         V         V         V         V
     Eigenvalues --     1.10499   1.13891   1.19999   1.22770   1.29937
   1 1   C  1S          0.01046   0.01978   0.00781   0.00001  -0.01075
   2        2S          0.09016   0.00306  -0.32628  -0.00006   0.06019
   3        2PX         0.12227  -0.02867  -0.67424   0.00024  -0.55493
   4        2PY        -0.12856  -0.15890   0.41502  -0.00015   0.09318
   5        2PZ        -0.00183  -0.00031  -0.00016   0.20133   0.00050
   6        3S         -0.24806  -0.20126   0.50191   0.00020   0.56098
   7        3PX        -0.38309  -0.09665   1.73024  -0.00069   1.29399
   8        3PY         0.30445   0.42640  -0.86639   0.00066  -0.24665
   9        3PZ         0.00243   0.00027   0.00053  -0.37597  -0.00125
  10 2   C  1S         -0.00716  -0.00556  -0.00949   0.00001   0.01006
  11        2S          0.06196  -0.01714  -0.23841  -0.00011  -0.08695
  12        2PX         0.01702  -0.14537  -0.01042  -0.00010  -0.39902
  13        2PY        -0.07771   0.03799   0.18624   0.00015  -0.47791
  14        2PZ         0.00190  -0.00003   0.00005  -0.09691  -0.00148
  15        3S          0.31724   0.98345  -1.26116   0.00078  -0.14558
  16        3PX        -0.01696   0.38571   0.05657   0.00040   1.08963
  17        3PY        -0.25285  -0.62518   0.63320  -0.00068   1.10399
  18        3PZ        -0.00219   0.00003   0.00009   0.47869   0.00466
  19 3   C  1S         -0.03956   0.02045   0.00157  -0.00004  -0.00201
  20        2S          0.15769  -0.25776  -0.24346   0.00013   0.02993
  21        2PX         0.46450  -0.23614   0.48080   0.00006   0.05829
  22        2PY         0.20268   0.64215  -0.13274   0.00010   0.24516
  23        2PZ         0.00163   0.00021   0.00000   0.61284   0.00485
  24        3S         -0.11847   0.04710   0.41601   0.00035   0.18717
  25        3PX        -0.10855   1.34067  -0.93657  -0.00015  -0.33573
  26        3PY        -0.43675  -1.31360   0.60236  -0.00119  -1.00790
  27        3PZ        -0.00179  -0.00035   0.00008  -1.38981  -0.00837
  28 4   C  1S         -0.01640  -0.05554  -0.01749  -0.00000   0.01905
  29        2S          0.03514  -0.01399  -0.08099   0.00010   0.00646
  30        2PX         0.17016   0.53630  -0.09306   0.00015  -0.07043
  31        2PY         0.12088  -0.15391  -0.22075   0.00005   0.06114
  32        2PZ         0.00066   0.00027  -0.00017  -0.92147   0.00613
  33        3S         -0.13135   0.10502  -0.06134  -0.00068  -0.51697
  34        3PX        -0.38346  -1.24123   0.40200  -0.00079  -0.11192
  35        3PY        -0.05672   0.41964  -0.29170  -0.00080  -0.23763
  36        3PZ        -0.00085  -0.00062   0.00026   2.11068  -0.00324
  37 5   O  1S          0.00289   0.02270   0.01143  -0.00001  -0.00356
  38        2S         -0.01123  -0.02063  -0.01508  -0.00003   0.02130
  39        2PX        -0.00864   0.05372  -0.10050   0.00001   0.04549
  40        2PY         0.00666   0.11496   0.08466   0.00002  -0.02483
  41        2PZ         0.00005   0.00006   0.00003  -0.12551  -0.00174
  42        3S          0.02722  -0.35681  -0.24371   0.00042  -0.05802
  43        3PX        -0.01941  -0.23147  -0.10763   0.00023  -0.07389
  44        3PY         0.09986   0.18040  -0.19026   0.00010  -0.03326
  45        3PZ        -0.00026  -0.00012  -0.00004  -0.11956   0.00107
  46 6   H  1S          0.13006   0.10169   0.01108  -0.00017  -0.41665
  47        2S         -0.31136  -0.16202   0.95922  -0.00042   0.95400
  48 7   H  1S          0.06824  -0.04867  -0.22977  -0.00001   0.26406
  49        2S          0.09514   0.16022   0.03369   0.00011  -0.93477
  50 8   C  1S          0.08249  -0.01845   0.01974  -0.00002   0.00920
  51        2S          0.17811  -0.12645  -0.01788   0.00005  -0.04495
  52        2PX         0.41831   0.23516   0.15790   0.00002   0.02835
  53        2PY         0.03219   0.08230   0.07759  -0.00048  -0.62556
  54        2PZ        -0.00280  -0.00041  -0.00021  -0.10873  -0.00014
  55        3S         -0.54964  -0.74784   0.40360  -0.00035   0.18209
  56        3PX        -0.58148   0.07048  -0.18355   0.00038  -0.02317
  57        3PY        -0.00261  -0.00442  -0.25879   0.00120   1.20789
  58        3PZ         0.00306   0.00017   0.00030   0.48581   0.00244
  59 9   H  1S         -0.01375  -0.35461  -0.37097  -0.05567   0.20076
  60        2S          0.01985   0.27616   0.11989  -0.85562  -0.16013
  61 10  H  1S         -0.01457  -0.35520  -0.37131   0.05522   0.21988
  62        2S          0.01988   0.27629   0.12039   0.85564  -0.18164
  63 11  H  1S          0.76147  -0.02698  -0.08010  -0.00021   0.36847
  64        2S         -0.20286   0.09199   0.17077  -0.00040  -0.89792
  65 12  H  1S          0.63288  -0.39873   0.12353  -0.00011  -0.36721
  66        2S         -0.13359   0.30263  -0.22796   0.00053   0.84818
                          51        52        53        54        55
                           V         V         V         V         V
     Eigenvalues --     1.30073   1.31134   1.33082   1.37444   1.49177
   1 1   C  1S          0.00013   0.00970   0.01396  -0.01918   0.00429
   2        2S         -0.00102   0.09301  -0.13976   0.22267  -0.26095
   3        2PX         0.00673  -0.02796   0.44057  -0.24249   0.10577
   4        2PY        -0.00105  -0.11086  -0.12554  -0.06430   0.12347
   5        2PZ         0.05275   0.00007  -0.00005  -0.00019   0.00009
   6        3S         -0.00708   0.58569   0.01813  -0.13597   1.46800
   7        3PX        -0.01633   0.42969  -1.05158   0.20256   1.24050
   8        3PY         0.00351  -0.14313   0.20092   0.48656  -1.07004
   9        3PZ        -0.13508  -0.00008   0.00002   0.00032   0.00033
  10 2   C  1S         -0.00015   0.03087   0.01537  -0.02450   0.04513
  11        2S          0.00079   0.07905  -0.09756   0.17908  -0.55195
  12        2PX         0.00496  -0.16345   0.20374  -0.34650  -0.11860
  13        2PY         0.00674  -0.88680  -0.00480   0.23572  -0.38758
  14        2PZ        -0.09762  -0.00040   0.00005   0.00007   0.00004
  15        3S          0.00350  -0.69835   0.41968   0.35369  -0.73798
  16        3PX        -0.01302   0.30924  -0.46079   0.83767   0.61565
  17        3PY        -0.01601   2.12643   0.02295  -1.13933   2.66175
  18        3PZ         0.33627   0.00101  -0.00050  -0.00010   0.00065
  19 3   C  1S          0.00000   0.00554   0.00781   0.02316   0.00518
  20        2S         -0.00031  -0.03932  -0.03300   0.13746  -0.19436
  21        2PX        -0.00081   0.05230   0.07499  -0.48137  -0.21204
  22        2PY        -0.00256  -0.16732  -0.07203   0.09181  -0.00564
  23        2PZ         0.42187   0.00049  -0.00037   0.00020   0.00016
  24        3S         -0.00303   0.56469  -0.10310  -0.43309   1.32109
  25        3PX         0.00485  -0.73764  -0.71301   1.61156  -0.54782
  26        3PY         0.00976   0.67728  -0.10452  -0.48297   0.79670
  27        3PZ        -0.72079  -0.00091   0.00108  -0.00037  -0.00054
  28 4   C  1S         -0.00024  -0.03188  -0.04048  -0.02445   0.01294
  29        2S         -0.00012   0.15653   0.29674   0.17422  -0.22150
  30        2PX         0.00044  -0.04758  -0.15354  -0.08278  -0.05032
  31        2PY        -0.00097  -0.23356  -0.36317  -0.14477   0.08619
  32        2PZ         0.52251   0.00049   0.00005  -0.00002  -0.00025
  33        3S          0.00563  -0.25838  -0.80876   0.02207   0.34204
  34        3PX         0.00142   0.13965   0.42676   0.06150   0.19176
  35        3PY         0.00249   0.38899   0.25828   0.49790  -0.25853
  36        3PZ        -0.27020  -0.00005  -0.00102  -0.00003   0.00090
  37 5   O  1S          0.00004   0.00300  -0.00495  -0.00488   0.02079
  38        2S         -0.00030  -0.00065  -0.03016  -0.00886  -0.00228
  39        2PX        -0.00054   0.00419  -0.08764   0.02722  -0.01970
  40        2PY         0.00037   0.04019  -0.00521   0.00379   0.06821
  41        2PZ        -0.15290  -0.00015   0.00033   0.00005  -0.00011
  42        3S          0.00097  -0.05705   0.26442   0.19418  -0.51137
  43        3PX         0.00094  -0.00090   0.22506  -0.05033  -0.04378
  44        3PY         0.00047  -0.08938  -0.07075   0.07676  -0.29769
  45        3PZ         0.09231   0.00010  -0.00002  -0.00008   0.00003
  46 6   H  1S          0.00475   0.07196   0.23732  -0.48787   0.63331
  47        2S         -0.01171   0.04954  -0.81904   0.46133   0.10185
  48 7   H  1S         -0.00374   0.54620   0.01452  -0.12568  -0.50781
  49        2S          0.01283  -1.54837  -0.03938   0.55577  -1.08289
  50 8   C  1S         -0.00013   0.00169  -0.00498   0.01824   0.01710
  51        2S          0.00063  -0.06238   0.03497   0.00123  -0.33859
  52        2PX        -0.00049   0.01217  -0.23137  -0.66373  -0.41154
  53        2PY         0.00622   0.34587  -0.76740   0.15537   0.19812
  54        2PZ        -0.02017  -0.00003  -0.00004   0.00014   0.00021
  55        3S         -0.00275   0.39228   0.56790  -0.53556   0.77302
  56        3PX         0.00073  -0.16063   0.01801   1.24995   0.56984
  57        3PY        -0.01155  -0.57648   1.46091  -0.08954  -1.00705
  58        3PZ         0.21565   0.00045   0.00000  -0.00046  -0.00004
  59 9   H  1S         -0.82110  -0.26090  -0.43939  -0.25327   0.08960
  60        2S          0.91935   0.37548   0.55162   0.36780  -0.24256
  61 10  H  1S          0.81554  -0.25907  -0.44123  -0.25376   0.09015
  62        2S         -0.91522   0.37358   0.55237   0.36821  -0.24229
  63 11  H  1S         -0.00397  -0.40019   0.21399   0.33395   0.51131
  64        2S          0.00895   0.61175  -0.95031  -0.54291  -0.30149
  65 12  H  1S          0.00391   0.32442  -0.09381   0.55292  -0.07434
  66        2S         -0.00840  -0.55089   0.70031  -0.83320  -0.73854
                          56        57        58        59        60
                           V         V         V         V         V
     Eigenvalues --     1.54717   1.61840   1.73950   1.86329   1.94132
   1 1   C  1S         -0.02953   0.01145   0.00790  -0.00647   0.00001
   2        2S          0.93375  -0.55102   0.54795  -0.88998   0.00063
   3        2PX        -0.30745  -0.05208   0.06579  -0.30416   0.00027
   4        2PY         0.30022  -0.10917   0.03360  -0.13791   0.00029
   5        2PZ         0.00005  -0.00005   0.00001  -0.00013  -0.00193
   6        3S         -2.20872  -0.12253  -1.70545   0.87046  -0.00069
   7        3PX         1.13498  -0.52969  -0.98128   0.74748  -0.00055
   8        3PY        -1.39620   0.36495   0.21216  -0.21309  -0.00022
   9        3PZ        -0.00024  -0.00025  -0.00047  -0.00006  -0.25037
  10 2   C  1S         -0.01131  -0.01539   0.01139   0.00090  -0.00002
  11        2S          0.35172  -0.15587   0.07636   0.07019  -0.00050
  12        2PX         0.55907   0.24283  -0.04963   0.06769   0.00002
  13        2PY        -0.14480   0.11268   0.15986   0.10205  -0.00023
  14        2PZ         0.00008  -0.00009   0.00012   0.00017   0.00049
  15        3S          0.02119   1.34337  -0.83594  -0.70343   0.00271
  16        3PX        -1.62349  -0.58521  -1.40201  -0.87275   0.00144
  17        3PY         0.34090  -1.74254  -0.38979  -1.29162   0.00145
  18        3PZ         0.00004  -0.00010  -0.00060  -0.00034   0.01727
  19 3   C  1S         -0.00739   0.01451  -0.00789   0.00532  -0.00000
  20        2S          0.02303  -0.66700  -0.64618   0.52051  -0.00043
  21        2PX        -0.49511  -0.18845   0.16337  -0.54972   0.00047
  22        2PY        -0.03215   0.20315  -0.61155  -0.52045   0.00104
  23        2PZ         0.00001   0.00006   0.00006  -0.00011  -0.06908
  24        3S          1.21123   0.60240   0.76893  -0.33803   0.00052
  25        3PX         2.35398   1.75685  -0.67556   3.71667  -0.00370
  26        3PY         0.50254  -1.27024   2.56511   2.44958  -0.00525
  27        3PZ        -0.00054  -0.00040   0.00002  -0.00002   0.33563
  28 4   C  1S         -0.01006   0.01570  -0.01779  -0.03033   0.00006
  29        2S          0.11366  -0.39746   0.35671   0.22017   0.00030
  30        2PX        -0.01714  -0.08592   0.27144   0.10939  -0.00024
  31        2PY         0.06664   0.20374  -0.00007   0.23295  -0.00029
  32        2PZ        -0.00023  -0.00000   0.00001  -0.00001   0.10547
  33        3S          0.53948   0.54527   0.22061   1.88288  -0.00417
  34        3PX         0.03310  -0.24047   0.09817   0.62613  -0.00075
  35        3PY         0.42064  -0.28784   0.16271   0.96262  -0.00145
  36        3PZ         0.00082  -0.00001   0.00004  -0.00028  -0.79078
  37 5   O  1S          0.01193   0.00448  -0.02104   0.02271  -0.00004
  38        2S         -0.01433  -0.00415   0.02905  -0.04266   0.00015
  39        2PX        -0.05401   0.01066  -0.05022  -0.00254   0.00008
  40        2PY         0.04405   0.10908  -0.20900   0.27340  -0.00057
  41        2PZ         0.00001   0.00004  -0.00055  -0.00126  -1.01665
  42        3S         -0.28621  -0.02372   0.31039  -0.32644   0.00032
  43        3PX        -0.12201  -0.04656   0.14475  -0.15015   0.00018
  44        3PY        -0.05584   0.00666   0.34923  -0.45885   0.00072
  45        3PZ        -0.00008  -0.00006   0.00053   0.00131   1.20275
  46 6   H  1S          0.37863  -0.00782  -0.17279   0.16828  -0.00005
  47        2S          1.18053  -0.39031  -0.08183   0.07014   0.00000
  48 7   H  1S         -0.16606   0.46250   0.30760   0.50390  -0.00072
  49        2S          0.26750   0.47051   0.36223   0.55889  -0.00095
  50 8   C  1S          0.01294   0.03513   0.01462   0.01335  -0.00002
  51        2S         -0.06088  -0.85473  -0.85518   0.40310   0.00010
  52        2PX         0.16830  -0.06614   0.03590   0.14770  -0.00020
  53        2PY        -0.22937  -0.23057   0.16760   0.05458  -0.00028
  54        2PZ         0.00002   0.00003  -0.00007  -0.00001  -0.00504
  55        3S         -1.79333  -0.04641   1.43361  -2.96568   0.00227
  56        3PX         0.59681   0.76289  -0.22819   1.02475  -0.00101
  57        3PY         0.50979   1.33921  -1.74725  -1.32735   0.00333
  58        3PZ        -0.00066  -0.00047   0.00030  -0.00115  -0.09378
  59 9   H  1S         -0.02945   0.10929  -0.06283  -0.10514   0.22766
  60        2S          0.09511  -0.34879   0.17504   0.17235   0.13889
  61 10  H  1S         -0.02923   0.10902  -0.06243  -0.10544  -0.22729
  62        2S          0.09571  -0.34845   0.17468   0.17232  -0.13888
  63 11  H  1S          0.00978  -0.15145   0.45755   0.39034  -0.00079
  64        2S         -0.18015  -0.82433   0.17499   0.40737  -0.00081
  65 12  H  1S          0.17651   0.54553  -0.40266  -0.22739   0.00064
  66        2S          0.19674  -0.18913  -0.67126  -0.24626   0.00098
                          61        62        63        64        65
                           V         V         V         V         V
     Eigenvalues --     1.98333   2.06209   2.14692   2.36273   2.40235
   1 1   C  1S         -0.01112   0.00346  -0.00062  -0.03277   0.02454
   2        2S         -0.55591  -0.27609   0.34074  -0.69690  -0.11808
   3        2PX        -0.02329  -0.04939  -0.05653  -0.06558  -0.09394
   4        2PY         0.06008   0.20212  -0.09827   0.15730   0.13551
   5        2PZ         0.00007  -0.00003   0.00002  -0.00001  -0.00004
   6        3S          2.49983  -0.90214  -1.19225   3.16708  -1.37800
   7        3PX         1.20632  -0.88208  -0.38094   2.42344   0.22134
   8        3PY        -0.20103  -0.18229   0.14094  -0.54350   0.75308
   9        3PZ         0.00042  -0.00023  -0.00019   0.00097  -0.00010
  10 2   C  1S          0.00649  -0.03422  -0.03203   0.05034  -0.02496
  11        2S          0.99120  -0.84280  -1.07837   0.87119  -0.37300
  12        2PX        -0.01022   0.03434   0.10230  -0.03929   0.08512
  13        2PY        -0.14121   0.00221   0.18626  -0.06741   0.03152
  14        2PZ        -0.00010  -0.00004  -0.00001  -0.00004   0.00003
  15        3S         -2.83967   3.49316   2.91426  -4.27566   1.64551
  16        3PX         1.21587  -0.07507   0.12793   1.26917  -0.06499
  17        3PY         1.69155  -1.33239  -1.30368   2.39565  -1.55307
  18        3PZ         0.00058  -0.00023  -0.00032   0.00106  -0.00014
  19 3   C  1S         -0.00475  -0.00535   0.01422  -0.06340   0.03495
  20        2S          1.02944   0.19592   0.58444  -1.07171   0.56730
  21        2PX         0.19160  -0.25701   0.16832  -0.02815  -0.17042
  22        2PY         0.12716   0.16543   0.10870   0.20071  -0.01876
  23        2PZ        -0.00018   0.00000  -0.00009   0.00004   0.00003
  24        3S         -2.14380  -0.10473  -2.45042   4.65929  -1.96474
  25        3PX        -2.55238   1.59023  -0.66618  -1.58404   2.19747
  26        3PY        -0.12002  -2.05510  -1.54623  -0.93284  -0.07977
  27        3PZ         0.00094  -0.00035   0.00065  -0.00071  -0.00010
  28 4   C  1S          0.00435   0.03653   0.02048   0.06812  -0.07135
  29        2S          0.20685   0.83326   1.09376   1.38777  -0.53613
  30        2PX         0.04419   0.22858  -0.06250  -0.21472  -0.12259
  31        2PY        -0.09252   0.03670   0.05198   0.01291   0.14481
  32        2PZ        -0.00003   0.00002   0.00005  -0.00028  -0.00001
  33        3S         -0.84593  -2.08960  -2.18559  -3.91397   2.72777
  34        3PX         0.14280  -0.74644  -0.09948  -0.46505  -0.47284
  35        3PY        -0.17669  -0.34168  -0.10012  -1.22517   0.51406
  36        3PZ        -0.00012   0.00054  -0.00040   0.00123  -0.00029
  37 5   O  1S          0.00866  -0.04908  -0.00615  -0.00662   0.01381
  38        2S         -0.00722   0.25430  -0.04871   0.04817  -0.09993
  39        2PX        -0.11857  -0.63024   0.46249   0.34015   0.53356
  40        2PY        -0.05318  -0.41099   0.33075  -0.21348  -0.81563
  41        2PZ        -0.00011   0.00039   0.00017   0.00030   0.00026
  42        3S         -0.22676  -0.01040   0.44694  -0.08711   0.00330
  43        3PX         0.11811   0.94471  -0.40406  -0.29788  -1.13363
  44        3PY        -0.20184   0.54625  -0.40089  -0.05150   1.59758
  45        3PZ         0.00017  -0.00047  -0.00012  -0.00044  -0.00051
  46 6   H  1S          0.03639  -0.09562   0.01054   0.24676   0.19967
  47        2S          0.10454  -0.12975   0.05609   0.52635   0.07426
  48 7   H  1S         -0.32535   0.02292   0.00287  -0.20691   0.18687
  49        2S         -0.26918   0.05558   0.09637  -0.46346   0.34015
  50 8   C  1S         -0.00437   0.00573  -0.01002   0.01125   0.00358
  51        2S         -1.18115   0.05737  -0.53936   0.36673  -0.05536
  52        2PX         0.01311   0.09459   0.02721  -0.00056   0.05310
  53        2PY         0.00752   0.01102   0.00864   0.04019  -0.00841
  54        2PZ         0.00004  -0.00004  -0.00009   0.00009  -0.00004
  55        3S          3.99900  -1.15112   1.85551  -0.77531  -0.83869
  56        3PX        -1.22108   0.34390  -0.71396   0.23904   0.37283
  57        3PY         0.02460   0.86609   0.64544   0.24661   0.02504
  58        3PZ         0.00065  -0.00031   0.00040   0.00011  -0.00043
  59 9   H  1S          0.00446   0.12154   0.11583   0.23550  -0.27094
  60        2S          0.11330   0.27490   0.37153   0.21565  -0.14538
  61 10  H  1S          0.00451   0.12194   0.11572   0.23603  -0.27095
  62        2S          0.11314   0.27521   0.37122   0.21642  -0.14543
  63 11  H  1S         -0.09784  -0.17328  -0.21902   0.00854   0.01649
  64        2S         -0.34408  -0.14019  -0.22348   0.03661  -0.06086
  65 12  H  1S         -0.11408   0.21383   0.06868   0.08374   0.01606
  66        2S         -0.29032   0.26764   0.06560   0.19004  -0.03217
                          66
                           V
     Eigenvalues --     3.57383
   1 1   C  1S          0.04250
   2        2S          0.06742
   3        2PX         0.04179
   4        2PY         0.18143
   5        2PZ        -0.00001
   6        3S         -1.03952
   7        3PX        -0.69686
   8        3PY         0.72419
   9        3PZ        -0.00026
  10 2   C  1S         -0.01816
  11        2S         -0.14058
  12        2PX        -0.09386
  13        2PY         0.02798
  14        2PZ        -0.00005
  15        3S          0.96428
  16        3PX         0.06657
  17        3PY        -0.66016
  18        3PZ        -0.00007
  19 3   C  1S         -0.01528
  20        2S         -0.11601
  21        2PX         0.01754
  22        2PY        -0.00171
  23        2PZ         0.00001
  24        3S          0.25042
  25        3PX        -0.47612
  26        3PY        -0.87333
  27        3PZ        -0.00010
  28 4   C  1S          0.07283
  29        2S          0.38363
  30        2PX         0.18080
  31        2PY        -0.08828
  32        2PZ         0.00006
  33        3S         -1.93252
  34        3PX         0.13449
  35        3PY        -0.51794
  36        3PZ         0.00021
  37 5   O  1S          0.05032
  38        2S         -1.75734
  39        2PX        -0.21827
  40        2PY        -0.10709
  41        2PZ        -0.00004
  42        3S          2.73395
  43        3PX         0.74424
  44        3PY         0.41260
  45        3PZ         0.00015
  46 6   H  1S         -0.05441
  47        2S         -0.26451
  48 7   H  1S          0.04274
  49        2S          0.13303
  50 8   C  1S         -0.00070
  51        2S          0.02245
  52        2PX        -0.02612
  53        2PY        -0.02810
  54        2PZ         0.00001
  55        3S          0.21143
  56        3PX        -0.07150
  57        3PY         0.46472
  58        3PZ         0.00016
  59 9   H  1S          0.15283
  60        2S          0.11430
  61 10  H  1S          0.15286
  62        2S          0.11440
  63 11  H  1S         -0.07635
  64        2S         -0.14157
  65 12  H  1S          0.07269
  66        2S          0.14030
     Density Matrix:
                           1         2         3         4         5
   1 1   C  1S          2.03493
   2        2S          0.08927   0.13096
   3        2PX        -0.00448   0.01330   0.34872
   4        2PY        -0.01747   0.01883   0.00498   0.23477
   5        2PZ        -0.00000   0.00001   0.00005  -0.00000   0.20856
   6        3S         -0.33270   0.22456  -0.04602   0.03749  -0.00003
   7        3PX        -0.02939   0.00298   0.22304  -0.06882  -0.00002
   8        3PY        -0.03725   0.03519  -0.04579   0.11792  -0.00002
   9        3PZ        -0.00001  -0.00000  -0.00000  -0.00003   0.22520
[...]
  60        2S          0.01335   0.02899   0.03295   0.00037   0.02412
  61 10  H  1S          0.01720   0.03983   0.06188   0.00109   0.02132
  62        2S          0.01334   0.02900   0.03296   0.00038   0.02411
  63 11  H  1S          0.00000  -0.00000   0.00002   0.00003   0.00003
  64        2S          0.00003   0.00000   0.00054   0.00061   0.00056
  65 12  H  1S         -0.00000  -0.00000  -0.00016  -0.00010  -0.00004
  66        2S         -0.00001   0.00000  -0.00143  -0.00012  -0.00017
                          36        37        38        39        40
  36        3PZ         0.22421
  37 5   O  1S          0.00000   2.05816
  38        2S         -0.00000   0.01756   0.12370
  39        2PX         0.00000   0.00000   0.00000   0.39010
  40        2PY         0.00000   0.00000   0.00000   0.00000   0.34342
  41        2PZ         0.00348   0.00000   0.00000   0.00000   0.00000
  42        3S         -0.00000  -0.09506   0.27557   0.00000   0.00000
  43        3PX         0.00000   0.00000   0.00000   0.22560   0.00000
  44        3PY         0.00000   0.00000   0.00000   0.00000   0.18516
  45        3PZ         0.00946   0.00000   0.00000   0.00000   0.00000
  46 6   H  1S          0.00000   0.00000  -0.00000  -0.00001  -0.00001
  47        2S          0.00000   0.00020  -0.00087  -0.00058  -0.00047
  48 7   H  1S          0.00000  -0.00000   0.00000   0.00000   0.00000
  49        2S          0.00000  -0.00000   0.00000   0.00002   0.00002
  50 8   C  1S          0.00000   0.00000   0.00000   0.00000   0.00000
  51        2S         -0.00000  -0.00000   0.00000   0.00000  -0.00000
  52        2PX        -0.00000  -0.00000   0.00000   0.00000   0.00000
  53        2PY        -0.00000  -0.00000   0.00000   0.00000  -0.00000
  54        2PZ        -0.00050  -0.00000   0.00000   0.00000   0.00000
  55        3S         -0.00000  -0.00000  -0.00000   0.00002   0.00000
  56        3PX        -0.00000  -0.00000  -0.00000   0.00005   0.00001
  57        3PY        -0.00000   0.00000  -0.00000   0.00000   0.00000
  58        3PZ        -0.00490  -0.00000  -0.00000   0.00000   0.00000
  59 9   H  1S          0.06003   0.00000  -0.00000  -0.00000  -0.00001
  60        2S          0.05924   0.00003  -0.00022  -0.00067  -0.00043
  61 10  H  1S          0.06004   0.00000  -0.00000  -0.00000  -0.00001
  62        2S          0.05926   0.00003  -0.00022  -0.00067  -0.00043
  63 11  H  1S          0.00000   0.00000  -0.00000  -0.00000  -0.00000
  64        2S          0.00000   0.00000  -0.00000  -0.00000  -0.00000
  65 12  H  1S         -0.00000  -0.00000  -0.00000   0.00000   0.00000
  66        2S          0.00000  -0.00000   0.00000  -0.00000   0.00000
                          41        42        43        44        45
  41        2PZ         0.52728
  42        3S          0.00000   1.43348
  43        3PX         0.00000   0.00000   0.53227
  44        3PY         0.00000   0.00000   0.00000   0.40656
  45        3PZ         0.30755   0.00000   0.00000   0.00000   0.72846
  46 6   H  1S         -0.00000  -0.00104  -0.00087  -0.00110  -0.00000
  47        2S          0.00000  -0.01125  -0.00485  -0.00331   0.00000
  48 7   H  1S          0.00000   0.00000   0.00000   0.00000   0.00000
  49        2S          0.00000   0.00017   0.00039   0.00050   0.00000
  50 8   C  1S          0.00000  -0.00000  -0.00000  -0.00000  -0.00000
  51        2S          0.00000   0.00000   0.00000   0.00000   0.00000
  52        2PX         0.00000   0.00000   0.00000   0.00000   0.00000
  53        2PY        -0.00000   0.00000   0.00000   0.00000  -0.00000
  54        2PZ         0.00000   0.00000   0.00000   0.00000   0.00000
  55        3S          0.00000  -0.00002   0.00062   0.00007   0.00000
  56        3PX         0.00000  -0.00001   0.00128   0.00015   0.00000
  57        3PY        -0.00000  -0.00003   0.00014   0.00000  -0.00000
  58        3PZ         0.00000   0.00000   0.00000   0.00000   0.00016
  59 9   H  1S         -0.00001  -0.00083  -0.00070  -0.00082  -0.00146
  60        2S         -0.00126  -0.00423  -0.00479  -0.00327  -0.01066
  61 10  H  1S         -0.00001  -0.00083  -0.00070  -0.00082  -0.00146
  62        2S         -0.00126  -0.00423  -0.00481  -0.00327  -0.01065
  63 11  H  1S          0.00000  -0.00000  -0.00000  -0.00000   0.00000
  64        2S         -0.00000  -0.00000  -0.00001  -0.00000  -0.00000
  65 12  H  1S         -0.00000   0.00000   0.00000   0.00000  -0.00000
  66        2S         -0.00000   0.00000  -0.00000   0.00000  -0.00000
                          46        47        48        49        50
  46 6   H  1S          0.18473
  47        2S          0.07033   0.07233
  48 7   H  1S         -0.00000  -0.00003   0.17687
  49        2S          0.00002   0.00036   0.07291   0.07668
  50 8   C  1S          0.00000   0.00000   0.00000  -0.00000   2.03447
  51        2S         -0.00000  -0.00000  -0.00000  -0.00001   0.01888
  52        2PX        -0.00000  -0.00000  -0.00000  -0.00003   0.00000
  53        2PY        -0.00000  -0.00000  -0.00000   0.00001   0.00000
  54        2PZ         0.00000   0.00000  -0.00000   0.00000   0.00000
  55        3S         -0.00000   0.00000  -0.00001   0.00059  -0.06616
  56        3PX        -0.00000  -0.00000   0.00004   0.00050   0.00000
  57        3PY        -0.00000  -0.00001  -0.00000   0.00054   0.00000
  58        3PZ         0.00000   0.00000  -0.00000   0.00000   0.00000
  59 9   H  1S         -0.00000  -0.00000  -0.00000  -0.00000   0.00000
  60        2S         -0.00000  -0.00006  -0.00000  -0.00003  -0.00000
  61 10  H  1S         -0.00000  -0.00000  -0.00000  -0.00000   0.00000
  62        2S         -0.00000  -0.00006  -0.00000  -0.00003  -0.00000
  63 11  H  1S         -0.00000  -0.00000  -0.00000   0.00004  -0.00110
  64        2S         -0.00000  -0.00000   0.00005   0.00049   0.00026
  65 12  H  1S          0.00000   0.00000   0.00000  -0.00000  -0.00110
  66        2S          0.00000   0.00000   0.00000  -0.00001   0.00027
                          51        52        53        54        55
  51        2S          0.11675
  52        2PX         0.00000   0.31090
  53        2PY         0.00000   0.00000   0.28032
  54        2PZ         0.00000   0.00000   0.00000   0.23008
  55        3S          0.16365   0.00000   0.00000   0.00000   0.65112
  56        3PX         0.00000   0.07830   0.00000   0.00000   0.00000
  57        3PY         0.00000   0.00000   0.13383   0.00000   0.00000
  58        3PZ         0.00000   0.00000   0.00000   0.14523   0.00000
  59 9   H  1S         -0.00000  -0.00000  -0.00000  -0.00000  -0.00005
  60        2S          0.00001   0.00000   0.00002  -0.00016  -0.00031
  61 10  H  1S         -0.00000  -0.00000  -0.00000  -0.00000  -0.00005
  62        2S          0.00001   0.00000   0.00002  -0.00017  -0.00031
  63 11  H  1S          0.01087   0.01612   0.04109   0.00000   0.06342
  64        2S          0.00779   0.01230   0.02766   0.00000   0.05765
  65 12  H  1S          0.01061   0.01628   0.04110   0.00000   0.06461
  66        2S          0.00724   0.01249   0.02852   0.00000   0.05977
                          56        57        58        59        60
  56        3PX         0.07868
  57        3PY         0.00000   0.24249
  58        3PZ         0.00000   0.00000   0.33090
  59 9   H  1S         -0.00006   0.00008  -0.00026   0.18117
  60        2S         -0.00015   0.00118  -0.00231   0.09001   0.12794
  61 10  H  1S         -0.00006   0.00008  -0.00026  -0.00015  -0.00497
  62        2S         -0.00016   0.00118  -0.00232  -0.00497  -0.01678
  63 11  H  1S          0.01637   0.06644   0.00000   0.00000  -0.00000
  64        2S          0.01661   0.06547   0.00000  -0.00000  -0.00003
  65 12  H  1S          0.01466   0.06650   0.00000  -0.00000   0.00003
  66        2S          0.01500   0.06733  -0.00000  -0.00000   0.00029
                          61        62        63        64        65
  61 10  H  1S          0.18115
  62        2S          0.09003   0.12801
  63 11  H  1S          0.00000  -0.00000   0.17857
  64        2S         -0.00000  -0.00003   0.08618   0.10878
  65 12  H  1S         -0.00000   0.00003  -0.00014  -0.00382   0.17900
  66        2S         -0.00000   0.00029  -0.00407  -0.01202   0.08822
                          66
  66        2S          0.11392
     Gross orbital populations:
                           1
   1 1   C  1S          1.98705
   2        2S          0.41161
   3        2PX         0.64917
   4        2PY         0.46903
   5        2PZ         0.38934
   6        3S          0.78665
   7        3PX         0.39845
   8        3PY         0.17599
   9        3PZ         0.54531
  10 2   C  1S          1.98822
  11        2S          0.38520
  12        2PX         0.58537
  13        2PY         0.57226
  14        2PZ         0.45598
  15        3S          0.92951
  16        3PX         0.24642
  17        3PY         0.50406
  18        3PZ         0.67344
  19 3   C  1S          1.98849
  20        2S          0.39785
  21        2PX         0.64547
  22        2PY         0.54781
  23        2PZ         0.40397
  24        3S          0.84309
  25        3PX         0.36389
  26        3PY         0.33741
  27        3PZ         0.57062
  28 4   C  1S          1.98867
  29        2S          0.36218
  30        2PX         0.41589
  31        2PY         0.55383
  32        2PZ         0.57282
  33        3S          1.03437
  34        3PX         0.19844
  35        3PY         0.35406
  36        3PZ         0.58747
  37 5   O  1S          1.98652
  38        2S          0.41235
  39        2PX         0.65395
  40        2PY         0.58742
  41        2PZ         0.83999
  42        3S          1.53134
  43        3PX         0.86642
  44        3PY         0.75708
  45        3PZ         1.01831
  46 6   H  1S          0.46956
  47        2S          0.25694
  48 7   H  1S          0.46012
  49        2S          0.29144
  50 8   C  1S          1.98696
  51        2S          0.38728
  52        2PX         0.60547
  53        2PY         0.54719
  54        2PZ         0.43459
  55        3S          0.96658
  56        3PX         0.29059
  57        3PY         0.57509
  58        3PZ         0.64776
  59 9   H  1S          0.46224
  60        2S          0.29932
  61 10  H  1S          0.46220
  62        2S          0.29937
  63 11  H  1S          0.46265
  64        2S          0.32629
  65 12  H  1S          0.46365
  66        2S          0.33198
          Condensed to atoms (all electrons):
               1          2          3          4          5          6
     1  C    4.920061   0.496782  -0.137899  -0.097886   0.259808   0.379623
     2  C    0.496782   5.426296   0.303369  -0.102011  -0.087377  -0.032036
     3  C   -0.137899   0.303369   5.427208   0.257479  -0.032172   0.002191
     4  C   -0.097886  -0.102011   0.257479   5.083230   0.216175   0.002943
     5  O    0.259808  -0.087377  -0.032172   0.216175   8.376201  -0.024157
     6  H    0.379623  -0.032036   0.002191   0.002943  -0.024157   0.397714
     7  H   -0.014512   0.383561  -0.022340   0.001902   0.001096   0.000354
     8  C    0.002588  -0.056862   0.511145  -0.042805   0.002450  -0.000010
     9  H    0.002052   0.003979  -0.050127   0.374541  -0.029321  -0.000061
    10  H    0.002047   0.003991  -0.050206   0.374546  -0.029318  -0.000061
    11  H    0.000017  -0.001247  -0.052794   0.001858  -0.000012  -0.000001
    12  H   -0.000084   0.002020  -0.057273  -0.002242   0.000002   0.000000
               7          8          9         10         11         12
     1  C   -0.014512   0.002588   0.002052   0.002047   0.000017  -0.000084
     2  C    0.383561  -0.056862   0.003979   0.003991  -0.001247   0.002020
     3  C   -0.022340   0.511145  -0.050127  -0.050206  -0.052794  -0.057273
     4  C    0.001902  -0.042805   0.374541   0.374546   0.001858  -0.002242
     5  O    0.001096   0.002450  -0.029321  -0.029318  -0.000012   0.000002
     6  H    0.000354  -0.000010  -0.000061  -0.000061  -0.000001   0.000000
     7  H    0.399361   0.001630  -0.000027  -0.000027   0.000570  -0.000011
     8  C    0.001630   5.223181  -0.002020  -0.002033   0.400947   0.403287
     9  H   -0.000027  -0.002020   0.489131  -0.026867  -0.000034   0.000312
    10  H   -0.000027  -0.002033  -0.026867   0.489217  -0.000034   0.000314
    11  H    0.000570   0.400947  -0.000034  -0.000034   0.459714  -0.020046
    12  H   -0.000011   0.403287   0.000312   0.000314  -0.020046   0.469350
 Mulliken charges:
               1
     1  C    0.187403
     2  C   -0.340465
     3  C   -0.098580
     4  C   -0.067731
     5  O   -0.653375
     6  H    0.273500
     7  H    0.248443
     8  C   -0.441499
     9  H    0.238442
    10  H    0.238432
    11  H    0.211060
    12  H    0.204370
 Sum of Mulliken charges =  -0.00000
 Mulliken charges with hydrogens summed into heavy atoms:
               1
     1  C    0.460902
     2  C   -0.092022
     3  C   -0.098580
     4  C    0.409143
     5  O   -0.653375
     8  C   -0.026068
 Electronic spatial extent (au):  <R**2>=            507.8916
 Charge=             -0.0000 electrons
 Dipole moment (field-independent basis, Debye):
    X=              0.6361    Y=              0.6030    Z=              0.0004  Tot=              0.8765
 Quadrupole moment (field-independent basis, Debye-Ang):
   XX=            -35.7451   YY=            -31.9137   ZZ=            -38.9398
   XY=             -3.8725   XZ=             -0.0005   YZ=             -0.0008
 Traceless Quadrupole moment (field-independent basis, Debye-Ang):
   XX=             -0.2122   YY=              3.6192   ZZ=             -3.4069
   XY=             -3.8725   XZ=             -0.0005   YZ=             -0.0008
 Octapole moment (field-independent basis, Debye-Ang**2):
  XXX=             -5.5318  YYY=             -1.5528  ZZZ=             -0.0006  XYY=              0.5414
  XXY=              8.7662  XXZ=             -0.0045  XZZ=             -4.7641  YZZ=             -4.9523
  YYZ=              0.0037  XYZ=              0.0038
 Hexadecapole moment (field-independent basis, Debye-Ang**3):
 XXXX=           -383.8371 YYYY=           -192.3023 ZZZZ=            -45.3575 XXXY=            -17.0523
 XXXZ=             -0.0032 YYYX=              3.1626 YYYZ=              0.0012 ZZZX=              0.0016
 ZZZY=             -0.0019 XXYY=            -95.9579 XXZZ=            -84.9406 YYZZ=            -42.9820
 XXYZ=             -0.0040 YYXZ=             -0.0011 ZZXY=              1.6609
 N-N= 2.190060081747D+02 E-N=-1.059728909610D+03  KE= 2.651445654302D+02
 Orbital energies and kinetic energies (alpha):
                                 1                 2
   1         O               -20.481984         28.928030
   2         O               -11.257761         15.874348
   3         O               -11.241372         15.882203
   4         O               -11.200371         15.876182
   5         O               -11.180054         15.876477
   6         O               -11.165520         15.871319
   7         O                -1.406548          2.434513
   8         O                -1.098365          1.674830
   9         O                -1.017915          1.634341
  10         O                -0.930054          1.601678
  11         O                -0.793516          1.413943
  12         O                -0.748875          1.392647
  13         O                -0.694334          1.274512
  14         O                -0.657049          1.220856
  15         O                -0.598757          1.138096
  16         O                -0.588650          1.558909
  17         O                -0.565007          1.415747
  18         O                -0.529650          1.887260
  19         O                -0.501193          1.586607
  20         O                -0.474971          1.551957
  21         O                -0.432346          1.140869
  22         O                -0.295710          1.336959
  23         V                 0.129516          1.252261
  24         V                 0.251472          1.305145
  25         V                 0.281875          1.214546
  26         V                 0.287425          1.098912
  27         V                 0.298670          1.075188
  28         V                 0.312816          1.294948
  29         V                 0.336246          1.168336
  30         V                 0.366982          1.110065
  31         V                 0.385142          1.599330
  32         V                 0.418416          1.874946
  33         V                 0.484401          2.072889
  34         V                 0.569347          1.564536
  35         V                 0.584340          1.468647
  36         V                 0.679936          2.532575
  37         V                 0.900383          2.619649
  38         V                 0.928861          2.728622
  39         V                 0.940346          2.464337
  40         V                 0.975762          2.489514
  41         V                 0.997595          2.636439
  42         V                 1.005164          2.643971
  43         V                 1.071190          2.861719
  44         V                 1.077149          2.607431
  45         V                 1.102283          2.751561
  46         V                 1.104992          2.581087
  47         V                 1.138906          2.799658
  48         V                 1.199986          2.871658
  49         V                 1.227698          2.833542
  50         V                 1.299370          3.293457
  51         V                 1.300733          2.758911
  52         V                 1.311339          3.154900
  53         V                 1.330820          3.135081
  54         V                 1.374443          3.262885
  55         V                 1.491769          2.794348
  56         V                 1.547174          2.919268
  57         V                 1.618398          2.931174
  58         V                 1.739504          3.134628
  59         V                 1.863288          3.333147
  60         V                 1.941315          5.009601
  61         V                 1.983325          3.370117
  62         V                 2.062094          4.372606
  63         V                 2.146917          3.935135
  64         V                 2.362730          3.718193
  65         V                 2.402351          5.129049
  66         V                 3.573833          6.790560
 Total kinetic energy from orbitals= 2.651445654302D+02
 1\1\GINC-IISERK51\SP\RHF\3-21G*\C5H6O1\GAUSSIAN\14-Jun-2025\0\\# hf/3-
 21g* pop=full geom=connectivity\\methyl_furan_isomer sp with HF3-31G\\
 0,1\C,0,-1.376408,0.741147,-0.000284\C,0,-0.098937,1.200904,0.000305\C
 ,0,0.808952,0.04697,0.000325\C,0,-0.092512,-1.165082,0.000275\O,0,-1.4
 55767,-0.648411,-0.000198\H,0,-2.350056,1.231026,-0.000444\H,0,0.24113
 8,2.233325,0.000643\C,0,2.138966,0.044316,-0.000309\H,0,0.013205,-1.78
 7866,0.9221\H,0,0.014072,-1.787601,-0.921731\H,0,2.723601,0.972633,-0.
 000425\H,0,2.723812,-0.883752,-0.000432\\Version=EM64L-G16RevB.01\Stat
 e=1-A\HF=-266.146166\RMSD=3.037e-09\Dipole=0.2502561,0.2372485,0.00014
 53\Quadrupole=-0.1577945,2.6907615,-2.532967,-2.8790791,-0.0003769,-0.
 000626\PG=C01 [X(C5H6O1)]\\@


 Human beings, who are almost unique in having the
 ability to learn from the experience of others, are
 also remarkable for their apparent disinclination to do so.
                               -- Douglas Adams,
                                Last Chance to See
 Job cpu time:       0 days  0 hours  0 minutes  0.8 seconds.
 Elapsed time:       0 days  0 hours  0 minutes  0.8 seconds.
 File lengths (MBytes):  RWF=      6 Int=      0 D2E=      0 Chk=      1 Scr=      1
 Normal termination of Gaussian 16 at Sat Jun 14 14:40:30 2025.
