 Entering Gaussian System, Link 0=g16
 Input=/home/gaussian/Documents/Summer_Internship/Aromaticity/hetrocyclic/furan/meth_furan_sp.com
 Output=/home/gaussian/Documents/Summer_Internship/Aromaticity/hetrocyclic/furan/meth_furan_sp.log
 Initial command:
 /usr/local/g16/l1.exe "/home/gaussian/tmp/Gau-46953.inp" -scrdir="/home/gaussian/tmp/"
 Entering Link 1 = /usr/local/g16/l1.exe PID=     46956.
  
 Copyright (c) 1988-2017, Gaussian, Inc.  All Rights Reserved.
  
 This is part of the Gaussian(R) 16 program.  It is based on
 the Gaussian(R) 09 system (copyright 2009, Gaussian, Inc.),
 the Gaussian(R) 03 system (copyright 2003, Gaussian, Inc.),
 the Gaussian(R) 98 system (copyright 1998, Gaussian, Inc.),
 the Gaussian(R) 94 system (copyright 1995, Gaussian, Inc.),
 the Gaussian 92(TM) system (copyright 1992, Gaussian, Inc.),
 the Gaussian 90(TM) system (copyright 1990, Gaussian, Inc.),
 the Gaussian 88(TM) system (copyright 1988, Gaussian, Inc.),
 the Gaussian 86(TM) system (copyright 1986, Carnegie Mellon
 University), and the Gaussian 82(TM) system (copyright 1983,
 Carnegie Mellon University). Gaussian is a federally registered
 trademark of Gaussian, Inc.
  
 This software contains proprietary and confidential information,
 including trade secrets, belonging to Gaussian, Inc.
  
 This software is provided under written license and may be
 used, copied, transmitted, or stored only in accord with that
 written license.
  
 The following legend is applicable only to US Government
 contracts under FAR:
  
                    RESTRICTED RIGHTS LEGEND
  
 Use, reproduction and disclosure by the US Government is
 subject to restrictions as set forth in subparagraphs (a)
 and (c) of the Commercial Computer Software - Restricted
 Rights clause in FAR 52.227-19.
  
 Gaussian, Inc.
 340 Quinnipiac St., Bldg. 40, Wallingford CT 06492
  
  
 ---------------------------------------------------------------
 Warning -- This program may not be used in any manner that
 competes with the business of Gaussian, Inc. or will provide
 assistance to any competitor of Gaussian, Inc.  The licensee
 of this program is prohibited from giving any competitor of
 Gaussian, Inc. access to this program.  By using this program,
 the user acknowledges that Gaussian, Inc. is engaged in the
 business of creating and licensing software in the field of
 computational chemistry and represents and warrants to the
 licensee that it is not a competitor of Gaussian, Inc. and that
 it will not use this program in any manner prohibited above.
 ---------------------------------------------------------------
  

 Cite this work as:
 Gaussian 16, Revision B.01,
 M. J. Frisch, G. W. Trucks, H. B. Schlegel, G. E. Scuseria, 
 M. A. Robb, J. R. Cheeseman, G. Scalmani, V. Barone, 
 G. A. Petersson, H. Nakatsuji, X. Li, M. Caricato, A. V. Marenich, 
 J. Bloino, B. G. Janesko, R. Gomperts, B. Mennucci, H. P. Hratchian, 
 J. V. Ortiz, A. F. Izmaylov, J. L. Sonnenberg, D. Williams-Young, 
 F. Ding, F. Lipparini, F. Egidi, J. Goings, B. Peng, A. Petrone, 
 T. Henderson, D. Ranasinghe, V. G. Zakrzewski, J. Gao, N. Rega, 
 G. Zheng, W. Liang, M. Hada, M. Ehara, K. Toyota, R. Fukuda, 
 J. Hasegawa, M. Ishida, T. Nakajima, Y. Honda, O. Kitao, H. Nakai, 
 T. Vreven, K. Throssell, J. A. Montgomery, Jr., J. E. Peralta, 
 F. Ogliaro, M. J. Bearpark, J. J. Heyd, E. N. Brothers, K. N. Kudin, 
 V. N. Staroverov, T. A. Keith, R. Kobayashi, J. Normand, 
 K. Raghavachari, A. P. Rendell, J. C. Burant, S. S. Iyengar, 
 J. Tomasi, M. Cossi, J. M. Millam, M. Klene, C. Adamo, R. Cammi, 
 J. W. Ochterski, R. L. Martin, K. Morokuma, O. Farkas, 
 J. B. Foresman, and D. J. Fox, Gaussian, Inc., Wallingford CT, 2016.
 
 ******************************************
 Gaussian 16:  EM64L-G16RevB.01 20-Dec-2017
                14-Jun-2025 
 ******************************************
 %chk=meth_furan_sp.chk
 --------------------------------------
 # hf/3-21g* pop=full geom=connectivity
 --------------------------------------
 1/38=1,57=2,172=1/1;
 2/12=2,17=6,18=5,40=1/2;
 3/5=5,7=1,11=9,25=1,30=1/1,2,3;
 4//1;
 5/5=2,38=5/2;
 6/7=3,28=1/1;
 99/5=1,9=1/99;
 -----------------------------
 methyl_furan sp with HF3-21G*
 -----------------------------
 Symbolic Z-matrix:
 Charge =  0 Multiplicity = 1
 C                     1.46823   0.68597  0. 
 C                     0.17284   1.15657   0.00001 
 C                    -0.69358  -0.00868  0. 
 C                     0.13842  -1.11276  0. 
 O                     1.47356  -0.70968  0. 
 H                     2.45477   1.13869   0.00001 
 H                    -0.16251   2.18918  -0.00001 
 H                    -0.00918  -2.1878    0.00002 
 C                    -2.15616   0.01922   0. 
 H                    -2.53598   0.55561   0.90622 
 H                    -2.53597   0.55597  -0.90602 
 H                    -2.57805  -1.01619  -0.00021 
 
                          Input orientation:                          
 ---------------------------------------------------------------------
 Center     Atomic      Atomic             Coordinates (Angstroms)
 Number     Number       Type             X           Y           Z
 ---------------------------------------------------------------------
      1          6           0        1.468233    0.685974   -0.000003
      2          6           0        0.172836    1.156573    0.000006
      3          6           0       -0.693584   -0.008679   -0.000001
      4          6           0        0.138420   -1.112756   -0.000002
      5          8           0        1.473556   -0.709684   -0.000001
      6          1           0        2.454773    1.138694    0.000010
      7          1           0       -0.162510    2.189178   -0.000014
      8          1           0       -0.009181   -2.187799    0.000017
      9          6           0       -2.156159    0.019222    0.000000
     10          1           0       -2.535979    0.555614    0.906219
     11          1           0       -2.535973    0.555969   -0.906015
     12          1           0       -2.578050   -1.016187   -0.000205
 ---------------------------------------------------------------------
                    Distance matrix (angstroms):
                    1          2          3          4          5
     1  C    0.000000
     2  C    1.378230   0.000000
     3  C    2.270682   1.452066   0.000000
     4  C    2.236925   2.269590   1.382468   0.000000
     5  O    1.395668   2.274816   2.277697   1.394652   0.000000
     6  H    1.085457   2.282007   3.350913   3.230251   2.092675
     7  H    2.217869   1.085693   2.261109   3.315619   3.328680
     8  H    3.231304   3.349321   2.284069   1.085128   2.093641
     9  C    3.685210   2.591869   1.462841   2.558606   3.702180
    10  H    4.107547   2.918913   2.129338   3.279803   4.300998
    11  H    4.107484   2.918775   2.129339   3.279921   4.301054
    12  H    4.389733   3.505461   2.136887   2.718186   4.063183
                    6          7          8          9         10
     6  H    0.000000
     7  H    2.820228   0.000000
     8  H    4.139641   4.379662   0.000000
     9  C    4.744883   2.946752   3.079035   0.000000
    10  H    5.105762   3.020454   3.838258   1.119470   0.000000
    11  H    5.105683   3.020188   3.838468   1.119473   1.812234
    12  H    5.474744   4.013627   2.823431   1.118063   1.814920
                   11         12
    11  H    0.000000
    12  H    1.814921   0.000000
 Stoichiometry    C5H6O
 Framework group  C1[X(C5H6O)]
 Deg. of freedom    30
 Full point group                 C1      NOp   1
 Largest Abelian subgroup         C1      NOp   1
 Largest concise Abelian subgroup C1      NOp   1
                         Standard orientation:                         
 ---------------------------------------------------------------------
 Center     Atomic      Atomic             Coordinates (Angstroms)
 Number     Number       Type             X           Y           Z
 ---------------------------------------------------------------------
      1          6           0        1.468233    0.685974   -0.000003
      2          6           0        0.172836    1.156573    0.000006
      3          6           0       -0.693584   -0.008679   -0.000001
      4          6           0        0.138420   -1.112756   -0.000002
      5          8           0        1.473556   -0.709684   -0.000001
      6          1           0        2.454773    1.138694    0.000010
      7          1           0       -0.162510    2.189178   -0.000014
      8          1           0       -0.009181   -2.187799    0.000017
      9          6           0       -2.156159    0.019222   -0.000000
     10          1           0       -2.535979    0.555614    0.906219
     11          1           0       -2.535973    0.555969   -0.906015
     12          1           0       -2.578050   -1.016187   -0.000205
 ---------------------------------------------------------------------
 Rotational constants (GHZ):           8.5907659           3.3720869           2.4605876
 Standard basis: 3-21G* (6D, 7F)
 There are    66 symmetry adapted cartesian basis functions of A   symmetry.
 There are    66 symmetry adapted basis functions of A   symmetry.
    66 basis functions,   108 primitive gaussians,    66 cartesian basis functions
    22 alpha electrons       22 beta electrons
       nuclear repulsion energy       218.9129257252 Hartrees.
 NAtoms=   12 NActive=   12 NUniq=   12 SFac= 1.00D+00 NAtFMM=   60 NAOKFM=F Big=F
 Integral buffers will be    131072 words long.
 Raffenetti 1 integral format.
 Two-electron integral symmetry is turned on.
 One-electron integrals computed using PRISM.
 NBasis=    66 RedAO= T EigKep=  3.01D-03  NBF=    66
 NBsUse=    66 1.00D-06 EigRej= -1.00D+00 NBFU=    66
 ExpMin= 1.83D-01 ExpMax= 3.22D+02 ExpMxC= 3.22D+02 IAcc=3 IRadAn=         5 AccDes= 0.00D+00
 Harris functional with IExCor=  205 and IRadAn=       5 diagonalized for initial guess.
 HarFok:  IExCor=  205 AccDes= 0.00D+00 IRadAn=         5 IDoV= 1 UseB2=F ITyADJ=14
 ICtDFT=  3500011 ScaDFX=  1.000000  1.000000  1.000000  1.000000
 FoFCou: FMM=F IPFlag=           0 FMFlag=      100000 FMFlg1=           0
         NFxFlg=           0 DoJE=T BraDBF=F KetDBF=T FulRan=T
         wScrn=  0.000000 ICntrl=       500 IOpCl=  0 I1Cent=   200000004 NGrid=           0
         NMat0=    1 NMatS0=      1 NMatT0=    0 NMatD0=    1 NMtDS0=    0 NMtDT0=    0
 Petite list used in FoFCou.
 Keep R1 ints in memory in canonical form, NReq=3270729.
 Requested convergence on RMS density matrix=1.00D-08 within 128 cycles.
 Requested convergence on MAX density matrix=1.00D-06.
 Requested convergence on             energy=1.00D-06.
 No special actions if energy rises.
 SCF Done:  E(RHF) =  -266.164056518     A.U. after   13 cycles
            NFock= 13  Conv=0.70D-08     -V/T= 2.0044

 **********************************************************************

            Population analysis using the SCF Density.

 **********************************************************************

 Orbital symmetries:
       Occupied  (A) (A) (A) (A) (A) (A) (A) (A) (A) (A) (A) (A)
                 (A) (A) (A) (A) (A) (A) (A) (A) (A) (A)
       Virtual   (A) (A) (A) (A) (A) (A) (A) (A) (A) (A) (A) (A)
                 (A) (A) (A) (A) (A) (A) (A) (A) (A) (A) (A) (A)
                 (A) (A) (A) (A) (A) (A) (A) (A) (A) (A) (A) (A)
                 (A) (A) (A) (A) (A) (A) (A) (A)
 The electronic state is 1-A.
 Alpha  occ. eigenvalues --  -20.52184 -11.24320 -11.23463 -11.18975 -11.18248
 Alpha  occ. eigenvalues --  -11.17913  -1.43794  -1.09854  -1.00771  -0.94064
 Alpha  occ. eigenvalues --   -0.78740  -0.76307  -0.70256  -0.61706  -0.59602
 Alpha  occ. eigenvalues --   -0.58586  -0.56431  -0.56112  -0.53659  -0.49797
 Alpha  occ. eigenvalues --   -0.37885  -0.31452
 Alpha virt. eigenvalues --    0.16470   0.23011   0.28126   0.29511   0.30930
 Alpha virt. eigenvalues --    0.31843   0.33359   0.36574   0.39527   0.41037
 Alpha virt. eigenvalues --    0.47373   0.56086   0.63939   0.69275   0.89800
 Alpha virt. eigenvalues --    0.93261   0.94716   0.96669   0.99514   1.04767
 Alpha virt. eigenvalues --    1.06756   1.07098   1.09103   1.14920   1.17471
 Alpha virt. eigenvalues --    1.19245   1.20015   1.28252   1.30393   1.31953
 Alpha virt. eigenvalues --    1.33975   1.36591   1.47413   1.51269   1.62683
 Alpha virt. eigenvalues --    1.73041   1.84163   1.87245   1.91986   2.08083
 Alpha virt. eigenvalues --    2.23155   2.27817   2.48294   3.54208
     Molecular Orbital Coefficients:
                           1         2         3         4         5
                           O         O         O         O         O
     Eigenvalues --   -20.52184 -11.24320 -11.23463 -11.18975 -11.18248
   1 1   C  1S         -0.00048   0.98650   0.02726   0.00068   0.00148
   2        2S         -0.00089   0.09595  -0.00030  -0.00033  -0.00369
   3        2PX         0.00034  -0.00119   0.00106   0.00058   0.00146
   4        2PY        -0.00228  -0.00192   0.00063  -0.00045  -0.00018
   5        2PZ         0.00000   0.00000   0.00000   0.00000  -0.00000
   6        3S          0.01468  -0.06443   0.01178  -0.00451   0.03604
   7        3PX        -0.00754   0.01696  -0.01542   0.00219  -0.02341
   8        3PY        -0.01104  -0.00113  -0.00506   0.00194  -0.00171
   9        3PZ         0.00000  -0.00000  -0.00000  -0.00000   0.00000
  10 2   C  1S          0.00016  -0.00203  -0.00123  -0.02907   0.98670
  11        2S          0.00072  -0.00364  -0.00050  -0.00580   0.09975
  12        2PX        -0.00117  -0.00192  -0.00036   0.00015   0.00066
  13        2PY        -0.00045   0.00033   0.00049   0.00062  -0.00180
  14        2PZ         0.00000   0.00000   0.00000  -0.00000  -0.00000
  15        3S         -0.00422   0.03017  -0.01128   0.02834  -0.09290
  16        3PX        -0.00134   0.01559  -0.00691  -0.00558  -0.00930
  17        3PY         0.00628  -0.00777   0.00612  -0.01479   0.02875
  18        3PZ        -0.00000  -0.00000   0.00000  -0.00000   0.00000
  19 3   C  1S          0.00014  -0.00061  -0.00317   0.98687   0.02811
  20        2S          0.00053   0.00009  -0.00386   0.10004  -0.00018
  21        2PX         0.00048  -0.00058  -0.00090   0.00102  -0.00086
  22        2PY         0.00098  -0.00004   0.00207  -0.00005  -0.00054
  23        2PZ        -0.00000   0.00000   0.00000   0.00000  -0.00000
  24        3S         -0.00455  -0.01568   0.03042  -0.09123   0.02794
  25        3PX        -0.01229  -0.00722   0.01311  -0.01529   0.02111
  26        3PY         0.00249   0.00534  -0.01548   0.00193   0.01338
  27        3PZ         0.00000  -0.00000  -0.00000   0.00000   0.00000
  28 4   C  1S         -0.00051  -0.02819   0.98650   0.00253   0.00116
  29        2S         -0.00103  -0.00574   0.09600  -0.00347  -0.00069
  30        2PX         0.00214  -0.00038   0.00153   0.00064   0.00074
  31        2PY         0.00041  -0.00131   0.00155  -0.00129  -0.00070
  32        2PZ         0.00000   0.00000   0.00000   0.00000  -0.00000
  33        3S          0.01847   0.01560  -0.06618   0.03108  -0.00448
  34        3PX         0.00803  -0.00005   0.00712  -0.00684  -0.00285
  35        3PY         0.01273   0.01720  -0.01599   0.01750  -0.00320
  36        3PZ        -0.00000  -0.00000  -0.00000  -0.00000   0.00000
  37 5   O  1S          0.98375   0.00006   0.00006   0.00006   0.00008
  38        2S          0.10007   0.00138   0.00142   0.00018   0.00038
  39        2PX        -0.00336  -0.00014  -0.00115   0.00006   0.00004
  40        2PY         0.00250   0.00117  -0.00019   0.00004   0.00000
  41        2PZ        -0.00000  -0.00000  -0.00000  -0.00000  -0.00000
  42        3S         -0.05334   0.00101   0.00122  -0.00215  -0.00342
  43        3PX         0.01020   0.00172   0.00209   0.00192   0.00035
  44        3PY        -0.00736  -0.00168  -0.00099   0.00000  -0.00288
  45        3PZ         0.00000   0.00000   0.00000   0.00000   0.00000
  46 6   H  1S          0.00014  -0.00287   0.00106  -0.00014   0.00001
  47        2S          0.00324   0.00720   0.00647  -0.00019   0.00518
  48 7   H  1S         -0.00069  -0.00080  -0.00051  -0.00046  -0.00293
  49        2S         -0.00212   0.00198  -0.00136   0.00178   0.00354
  50 8   H  1S          0.00022   0.00122  -0.00274  -0.00041  -0.00030
  51        2S          0.00374   0.00603   0.00743   0.00326  -0.00043
  52 9   C  1S          0.00010  -0.00099  -0.00162  -0.01494  -0.02382
  53        2S          0.00039  -0.00076  -0.00053  -0.00324  -0.00303
  54        2PX        -0.00057  -0.00019  -0.00061  -0.00118  -0.00027
  55        2PY         0.00021  -0.00012   0.00033   0.00040  -0.00016
  56        2PZ        -0.00000  -0.00000  -0.00000   0.00000  -0.00000
  57        3S         -0.00727   0.00030   0.00143   0.01097   0.00822
  58        3PX        -0.00261   0.00076   0.00169   0.00853   0.00367
  59        3PY        -0.00119  -0.00041   0.00217  -0.00241  -0.00252
  60        3PZ         0.00000   0.00000   0.00000  -0.00000   0.00000
  61 10  H  1S          0.00035  -0.00016  -0.00003  -0.00097  -0.00012
  62        2S          0.00033   0.00014  -0.00002   0.00237   0.00027
  63 11  H  1S          0.00035  -0.00016  -0.00003  -0.00097  -0.00012
  64        2S          0.00033   0.00014  -0.00002   0.00237   0.00027
  65 12  H  1S         -0.00016  -0.00021  -0.00015  -0.00078  -0.00050
  66        2S          0.00040   0.00018   0.00170  -0.00071  -0.00028
                           6         7         8         9        10
                           O         O         O         O         O
     Eigenvalues --   -11.17913  -1.43794  -1.09854  -1.00771  -0.94064
   1 1   C  1S          0.00087  -0.07116  -0.03481  -0.13896  -0.05225
   2        2S         -0.00076   0.08224   0.04524   0.15286   0.05420
   3        2PX         0.00039  -0.02125  -0.07730  -0.06878   0.06167
   4        2PY        -0.00004  -0.07385   0.04871   0.03054  -0.04213
   5        2PZ         0.00000   0.00000   0.00000   0.00000   0.00000
   6        3S          0.00223   0.06729   0.03729   0.32474   0.15541
   7        3PX        -0.00330   0.03049  -0.00991  -0.05385   0.01241
   8        3PY        -0.00035   0.02267   0.01069   0.01712  -0.00762
   9        3PZ        -0.00000   0.00000   0.00000   0.00000   0.00000
  10 2   C  1S          0.02332  -0.02692  -0.11691  -0.11770   0.02259
  11        2S          0.00196   0.02694   0.12647   0.12456  -0.02423
  12        2PX         0.00055   0.01987  -0.01017   0.09712   0.01014
  13        2PY        -0.00009  -0.02389  -0.06778  -0.01907   0.03507
  14        2PZ        -0.00000  -0.00000  -0.00000  -0.00000   0.00000
  15        3S          0.00112   0.04888   0.24213   0.27474  -0.05889
  16        3PX        -0.00151   0.00902   0.01624  -0.00291  -0.01696
  17        3PY        -0.00318  -0.03322  -0.03177  -0.03777   0.01592
  18        3PZ         0.00000  -0.00000  -0.00000  -0.00000  -0.00000
  19 3   C  1S          0.01535  -0.02707  -0.15678   0.04830   0.02545
  20        2S         -0.00038   0.02773   0.17020  -0.05174  -0.02631
  21        2PX         0.00179   0.02651   0.02459   0.06489  -0.16757
  22        2PY         0.00020  -0.01106   0.00697   0.08344   0.05965
  23        2PZ         0.00000   0.00000   0.00000  -0.00000  -0.00000
  24        3S          0.01839   0.05066   0.31175  -0.10355  -0.06722
  25        3PX        -0.02625   0.05916   0.03471  -0.00241  -0.03839
  26        3PY        -0.00004  -0.01322   0.00086  -0.01481  -0.00829
  27        3PZ        -0.00000  -0.00000   0.00000  -0.00000  -0.00000
  28 4   C  1S          0.00165  -0.07048  -0.05810   0.09333   0.11827
  29        2S         -0.00044   0.08196   0.06981  -0.09845  -0.12932
  30        2PX         0.00064   0.06426  -0.08245  -0.00746   0.01004
  31        2PY        -0.00013   0.04128   0.06896   0.00329  -0.03809
  32        2PZ        -0.00000   0.00000   0.00000  -0.00000  -0.00000
  33        3S          0.00563   0.04893   0.09210  -0.23754  -0.30332
  34        3PX         0.00087  -0.01095  -0.01764   0.01188   0.02537
  35        3PY         0.00576  -0.04656   0.01805  -0.01910  -0.04732
  36        3PZ         0.00000   0.00000  -0.00000  -0.00000  -0.00000
  37 5   O  1S          0.00003  -0.21369   0.07529   0.03090  -0.03987
  38        2S          0.00011   0.19190  -0.07000  -0.02926   0.03799
  39        2PX         0.00004  -0.06687  -0.02651   0.05676   0.11117
  40        2PY        -0.00007   0.04968   0.00946   0.11179   0.08228
  41        2PZ         0.00000  -0.00000   0.00000   0.00000  -0.00000
  42        3S         -0.00154   0.69613  -0.27519  -0.11710   0.15573
  43        3PX         0.00048  -0.10360  -0.00915   0.05508   0.09649
  44        3PY         0.00008   0.07634  -0.00115   0.09630   0.08034
  45        3PZ        -0.00000  -0.00000   0.00000  -0.00000  -0.00000
  46 6   H  1S          0.00017   0.01434   0.00746   0.07338   0.04960
  47        2S          0.00137  -0.02026  -0.00382   0.02645   0.01939
  48 7   H  1S          0.00005   0.00668   0.04704   0.05635  -0.00310
  49        2S          0.00123   0.00934   0.01103   0.01834  -0.00073
  50 8   H  1S          0.00056   0.01387   0.01861  -0.05936  -0.07023
  51        2S          0.00152  -0.02277   0.00202  -0.02300  -0.03010
  52 9   C  1S          0.98727  -0.00307  -0.09061   0.08818  -0.15529
  53        2S          0.10228   0.00090   0.08807  -0.08427   0.14732
  54        2PX        -0.00013   0.00534   0.05759  -0.02750  -0.00281
  55        2PY         0.00008  -0.00143  -0.00006   0.01150   0.00915
  56        2PZ         0.00000   0.00000  -0.00000  -0.00000   0.00000
  57        3S         -0.09008   0.03698   0.24202  -0.25817   0.47711
  58        3PX        -0.01041   0.01236   0.01551  -0.01358   0.00677
  59        3PY         0.00000   0.00685   0.00307   0.00850   0.01054
  60        3PZ         0.00000  -0.00000   0.00000  -0.00000   0.00000
  61 10  H  1S          0.00083  -0.00051   0.03764  -0.04076   0.08960
  62        2S          0.01357  -0.00298  -0.00712  -0.00121   0.01694
  63 11  H  1S          0.00083  -0.00051   0.03764  -0.04075   0.08960
  64        2S          0.01357  -0.00298  -0.00712  -0.00121   0.01695
  65 12  H  1S          0.00074   0.00145   0.03725  -0.04686   0.08468
  66        2S          0.01352  -0.00090  -0.00335  -0.00466   0.01934
                          11        12        13        14        15
                           O         O         O         O         O
     Eigenvalues --    -0.78740  -0.76307  -0.70256  -0.61706  -0.59602
   1 1   C  1S          0.09826   0.05758   0.01000  -0.00000   0.02597
   2        2S         -0.10716  -0.06696  -0.01600   0.00000  -0.03238
   3        2PX        -0.12223   0.01070   0.21728   0.00000  -0.16215
   4        2PY         0.02566  -0.17344   0.02070   0.00000  -0.16826
   5        2PZ        -0.00000  -0.00000   0.00000   0.15150   0.00000
   6        3S         -0.31787  -0.17780   0.00018  -0.00000  -0.05685
   7        3PX        -0.03384  -0.02306   0.17165   0.00000  -0.18293
   8        3PY        -0.02489  -0.08494   0.00196   0.00000  -0.14047
   9        3PZ        -0.00000  -0.00000   0.00000   0.15310   0.00000
  10 2   C  1S         -0.10731   0.03315  -0.01822   0.00000  -0.03606
  11        2S          0.10735  -0.03303   0.01546  -0.00000   0.04059
  12        2PX        -0.09833  -0.13992  -0.16738  -0.00000   0.03457
  13        2PY         0.05901  -0.12366   0.11226  -0.00001   0.11363
  14        2PZ        -0.00000   0.00000  -0.00000   0.10193   0.00000
  15        3S          0.37004  -0.13195   0.10919   0.00000   0.07038
  16        3PX        -0.02098  -0.05934  -0.07487   0.00000  -0.01722
  17        3PY         0.02847  -0.05788   0.08900  -0.00001   0.15847
  18        3PZ        -0.00000   0.00000  -0.00000   0.08300   0.00000
  19 3   C  1S          0.02622  -0.09242  -0.06799  -0.00000   0.02912
  20        2S         -0.02809   0.09247   0.06493   0.00000  -0.03334
  21        2PX        -0.01602   0.04807  -0.09251  -0.00000  -0.01207
  22        2PY         0.19197   0.04900   0.03684   0.00001  -0.10319
  23        2PZ        -0.00000   0.00000   0.00000   0.12725   0.00000
  24        3S         -0.08937   0.32144   0.29460   0.00000  -0.04236
  25        3PX        -0.02417   0.03683  -0.09050  -0.00000   0.05143
  26        3PY         0.09796   0.01592   0.00741   0.00001  -0.08097
  27        3PZ        -0.00000   0.00000  -0.00000   0.10364   0.00000
  28 4   C  1S          0.05500   0.08083  -0.00113   0.00000  -0.00458
  29        2S         -0.06650  -0.08553   0.00001  -0.00000   0.00941
  30        2PX         0.16633  -0.05995  -0.09242   0.00000  -0.15931
  31        2PY        -0.04199   0.19502  -0.10315  -0.00000  -0.09419
  32        2PZ        -0.00000  -0.00000   0.00000   0.16232   0.00001
  33        3S         -0.13514  -0.28502   0.02640  -0.00000  -0.00769
  34        3PX         0.07428   0.00209  -0.00342   0.00000  -0.09518
  35        3PY        -0.00916   0.10833  -0.09497  -0.00000  -0.12089
  36        3PZ        -0.00000  -0.00000   0.00000   0.16164   0.00001
  37 5   O  1S         -0.04864  -0.02226  -0.03738   0.00000  -0.01378
  38        2S          0.04748   0.02030   0.04256  -0.00000   0.01287
  39        2PX        -0.05046   0.06283   0.21523  -0.00000   0.15095
  40        2PY        -0.15959   0.13909  -0.06578  -0.00000   0.17645
  41        2PZ        -0.00000  -0.00000   0.00000   0.35424   0.00001
  42        3S          0.20150   0.09990   0.13410  -0.00000   0.05906
  43        3PX        -0.05427   0.06459   0.22319  -0.00000   0.16849
  44        3PY        -0.15852   0.14222  -0.06482  -0.00000   0.19002
  45        3PZ        -0.00000  -0.00000   0.00000   0.38369   0.00002
  46 6   H  1S         -0.13358  -0.08694   0.10230   0.00000  -0.18194
  47        2S         -0.06925  -0.03696   0.05602   0.00000  -0.11554
  48 7   H  1S          0.13016  -0.06623   0.10432  -0.00001   0.10430
  49        2S          0.06855  -0.03797   0.06044  -0.00000   0.05100
  50 8   H  1S         -0.04305  -0.16413   0.06645   0.00000   0.08851
  51        2S         -0.01618  -0.08611   0.03388   0.00000   0.05376
  52 9   C  1S         -0.01002   0.03765   0.04448  -0.00000   0.00106
  53        2S          0.00893  -0.03318  -0.03212   0.00000  -0.00238
  54        2PX        -0.01740   0.08038   0.15847   0.00000  -0.03601
  55        2PY         0.05464   0.01743   0.01353   0.00001  -0.15997
  56        2PZ        -0.00000   0.00000  -0.00000   0.12231  -0.00000
  57        3S          0.03113  -0.14579  -0.22358  -0.00000   0.02056
  58        3PX        -0.00917   0.03632   0.06921   0.00000  -0.00908
  59        3PY         0.03070   0.01289   0.01349   0.00001  -0.13076
  60        3PZ         0.00000   0.00000   0.00000   0.09087  -0.00000
  61 10  H  1S          0.02379  -0.03495  -0.05744   0.06389  -0.04479
  62        2S          0.01567  -0.02129  -0.03843   0.05564  -0.03421
  63 11  H  1S          0.02380  -0.03495  -0.05743  -0.06388  -0.04482
  64        2S          0.01567  -0.02129  -0.03842  -0.05562  -0.03424
  65 12  H  1S         -0.01725  -0.05261  -0.07228  -0.00002   0.11085
  66        2S         -0.01266  -0.02989  -0.04466  -0.00002   0.10222
                          16        17        18        19        20
                           O         O         O         O         O
     Eigenvalues --    -0.58586  -0.56431  -0.56112  -0.53659  -0.49797
   1 1   C  1S          0.01708  -0.00000   0.01893   0.02101   0.00297
   2        2S         -0.01838   0.00000  -0.02491  -0.02585  -0.00283
   3        2PX         0.08656  -0.00003   0.19728   0.02694  -0.13952
   4        2PY         0.10674   0.00001  -0.12254   0.07421   0.06733
   5        2PZ         0.00001  -0.06604  -0.00001  -0.00000   0.00000
   6        3S         -0.04172  -0.00000  -0.01147  -0.06999   0.00224
   7        3PX         0.08134  -0.00001   0.08128   0.09113  -0.09549
   8        3PY         0.07148   0.00000  -0.04439   0.01049   0.00453
   9        3PZ         0.00001  -0.07743  -0.00001  -0.00000   0.00000
  10 2   C  1S         -0.00083  -0.00000   0.00359  -0.02818   0.00975
  11        2S         -0.00410   0.00000  -0.00148   0.02767  -0.00765
  12        2PX         0.00741   0.00003  -0.20000  -0.04080   0.20010
  13        2PY         0.18661  -0.00001   0.14572  -0.16877   0.11523
  14        2PZ         0.00000  -0.00014  -0.00000   0.00000  -0.00000
  15        3S          0.05605   0.00001  -0.07531   0.12575  -0.01128
  16        3PX        -0.00350   0.00002  -0.17414  -0.00912   0.13133
  17        3PY         0.14218  -0.00001   0.18126  -0.11133   0.12195
  18        3PZ         0.00000   0.00764  -0.00000   0.00000  -0.00000
  19 3   C  1S         -0.00703  -0.00000   0.03318  -0.00507  -0.00171
  20        2S          0.01102   0.00000  -0.03662   0.00201   0.00199
  21        2PX         0.02249  -0.00002   0.17877   0.28140  -0.01327
  22        2PY        -0.17679  -0.00000  -0.02337   0.03518  -0.23291
  23        2PZ         0.00000   0.08224   0.00001   0.00000  -0.00000
  24        3S         -0.00772   0.00002  -0.10302   0.06357   0.03424
  25        3PX        -0.02639  -0.00003   0.26200   0.23858  -0.06403
  26        3PY        -0.12514  -0.00000  -0.00121  -0.00382  -0.21006
  27        3PZ         0.00000   0.05902   0.00001  -0.00000  -0.00000
  28 4   C  1S          0.00899   0.00001  -0.04744   0.00444  -0.01278
  29        2S         -0.00884  -0.00001   0.05590  -0.00554   0.01631
  30        2PX         0.01378  -0.00000  -0.03745  -0.10526  -0.15171
  31        2PY         0.26499  -0.00001   0.06937   0.02606   0.13272
  32        2PZ         0.00000  -0.02313  -0.00000  -0.00000  -0.00000
  33        3S         -0.04071  -0.00001   0.10249  -0.04213   0.04083
  34        3PX         0.02935   0.00001  -0.06310  -0.01363  -0.03720
  35        3PY         0.23868  -0.00001   0.02357  -0.04946   0.10086
  36        3PZ         0.00000  -0.03384  -0.00000  -0.00000   0.00000
  37 5   O  1S         -0.01726  -0.00000   0.03011  -0.03114  -0.02920
  38        2S          0.01636   0.00000  -0.03462   0.03978   0.03339
  39        2PX        -0.06493   0.00002  -0.08144   0.27313   0.15341
  40        2PY        -0.10834  -0.00002   0.18156  -0.18251  -0.07958
  41        2PZ         0.00001  -0.19489  -0.00002  -0.00000   0.00000
  42        3S          0.07179   0.00001  -0.10955   0.10956   0.10191
  43        3PX        -0.06693   0.00002  -0.10356   0.31663   0.19693
  44        3PY        -0.12408  -0.00002   0.20631  -0.21501  -0.09986
  45        3PZ         0.00001  -0.22074  -0.00002  -0.00000   0.00000
  46 6   H  1S          0.06397  -0.00001   0.06066   0.01936  -0.08176
  47        2S          0.04471  -0.00001   0.05750   0.00852  -0.07000
  48 7   H  1S          0.11716  -0.00001   0.14097  -0.07745   0.02951
  49        2S          0.08814  -0.00001   0.10443  -0.07994   0.01747
  50 8   H  1S         -0.19049   0.00000   0.01533  -0.00543  -0.06904
  51        2S         -0.12751   0.00000  -0.00307  -0.01431  -0.06460
  52 9   C  1S         -0.00054  -0.00000   0.00257   0.00773  -0.00147
  53        2S          0.00194   0.00000  -0.01362  -0.01468   0.00496
  54        2PX        -0.01442   0.00002  -0.20138  -0.24694   0.01930
  55        2PY        -0.19056  -0.00002   0.13222  -0.04607   0.23216
  56        2PZ         0.00000   0.33531   0.00004  -0.00000  -0.00000
  57        3S         -0.01587  -0.00001   0.09619   0.01541  -0.03199
  58        3PX        -0.02016   0.00001  -0.09645  -0.16731  -0.00490
  59        3PY        -0.15091  -0.00002   0.11703  -0.03976   0.24356
  60        3PZ         0.00000   0.29393   0.00004  -0.00000  -0.00000
  61 10  H  1S         -0.05715   0.19155   0.08902   0.03604   0.08440
  62        2S         -0.04958   0.17379   0.09289   0.04293   0.08274
  63 11  H  1S         -0.05720  -0.19153   0.08901   0.03603   0.08446
  64        2S         -0.04962  -0.17378   0.09287   0.04292   0.08280
  65 12  H  1S          0.12352  -0.00004  -0.03805   0.09264  -0.17470
  66        2S          0.10651  -0.00003  -0.02748   0.10201  -0.17704
                          21        22        23        24        25
                           O         O         V         V         V
     Eigenvalues --    -0.37885  -0.31452   0.16470   0.23011   0.28126
   1 1   C  1S         -0.00000  -0.00000   0.00000   0.00000   0.00132
   2        2S          0.00000   0.00000  -0.00000  -0.00000   0.00069
   3        2PX         0.00000  -0.00000  -0.00000   0.00001   0.04229
   4        2PY         0.00000   0.00000  -0.00000   0.00000  -0.04569
   5        2PZ        -0.13163  -0.27509   0.29111  -0.17339   0.00001
   6        3S          0.00000   0.00000  -0.00003   0.00000  -0.08232
   7        3PX         0.00000   0.00000  -0.00000   0.00002   0.16087
   8        3PY        -0.00000   0.00000  -0.00001  -0.00000  -0.19724
   9        3PZ        -0.11581  -0.33750   0.56062  -0.42990   0.00003
  10 2   C  1S          0.00000   0.00000   0.00000  -0.00000  -0.02259
  11        2S         -0.00000  -0.00000   0.00000   0.00000   0.02675
  12        2PX        -0.00000  -0.00000   0.00000  -0.00000  -0.01335
  13        2PY        -0.00000  -0.00000  -0.00000   0.00002   0.03073
  14        2PZ        -0.28834  -0.14981  -0.16651   0.24244  -0.00002
  15        3S         -0.00000  -0.00000  -0.00001   0.00003   0.19761
  16        3PX        -0.00000   0.00000   0.00002   0.00002   0.19387
  17        3PY        -0.00000  -0.00000   0.00000   0.00007   0.26751
  18        3PZ        -0.33808  -0.20069  -0.36336   0.64545  -0.00005
  19 3   C  1S         -0.00000  -0.00000  -0.00000  -0.00000  -0.00633
  20        2S          0.00000   0.00000   0.00000  -0.00000   0.00162
  21        2PX         0.00000   0.00000   0.00000   0.00000   0.00813
  22        2PY         0.00000  -0.00000  -0.00000   0.00000  -0.00310
  23        2PZ        -0.21909   0.20825  -0.15353  -0.27232   0.00002
  24        3S          0.00000  -0.00000   0.00001   0.00008   0.38183
  25        3PX         0.00000  -0.00000   0.00000   0.00003   0.31202
  26        3PY         0.00000   0.00000   0.00002   0.00001   0.02432
  27        3PZ        -0.27121   0.27365  -0.31600  -0.59238   0.00006
  28 4   C  1S          0.00000   0.00000   0.00000  -0.00000  -0.04128
  29        2S          0.00000  -0.00000  -0.00000   0.00000   0.04300
  30        2PX         0.00000   0.00000   0.00000   0.00000   0.04851
  31        2PY        -0.00000   0.00000   0.00000   0.00000  -0.03747
  32        2PZ        -0.05847   0.30861   0.26966   0.18896  -0.00002
  33        3S         -0.00000   0.00000  -0.00001   0.00000   0.26157
  34        3PX         0.00000  -0.00000   0.00000   0.00003   0.25814
  35        3PY        -0.00000   0.00001   0.00001  -0.00001  -0.35249
  36        3PZ        -0.02949   0.37217   0.51717   0.42936  -0.00004
  37 5   O  1S          0.00000  -0.00000  -0.00000   0.00000   0.03243
  38        2S         -0.00000   0.00000   0.00000  -0.00000  -0.01452
  39        2PX         0.00000  -0.00000   0.00000   0.00000   0.05288
  40        2PY        -0.00000  -0.00000   0.00000   0.00001   0.01466
  41        2PZ         0.26994  -0.03116  -0.23641  -0.00532   0.00000
  42        3S         -0.00000   0.00000  -0.00000  -0.00002  -0.29751
  43        3PX         0.00000  -0.00000   0.00000   0.00001   0.10343
  44        3PY         0.00000  -0.00000  -0.00000   0.00001   0.03822
  45        3PZ         0.34661  -0.04200  -0.39789  -0.00407   0.00001
  46 6   H  1S          0.00000  -0.00000   0.00000  -0.00000  -0.00955
  47        2S          0.00000   0.00000   0.00002  -0.00003  -0.07755
  48 7   H  1S         -0.00000  -0.00000   0.00000  -0.00000   0.03562
  49        2S         -0.00000   0.00000   0.00001  -0.00008  -0.27987
  50 8   H  1S          0.00000  -0.00000   0.00000   0.00001   0.02129
  51        2S          0.00000   0.00000   0.00001  -0.00002  -0.47685
  52 9   C  1S          0.00000  -0.00000  -0.00000  -0.00001  -0.14918
  53        2S          0.00000  -0.00000   0.00000   0.00000   0.04511
  54        2PX        -0.00000   0.00000  -0.00000  -0.00001  -0.10671
  55        2PY        -0.00000  -0.00000  -0.00001   0.00001  -0.03457
  56        2PZ         0.09280  -0.05383   0.00630  -0.08889  -0.00001
  57        3S         -0.00000   0.00000   0.00001   0.00009   2.02042
  58        3PX         0.00000  -0.00000  -0.00001  -0.00003  -0.52087
  59        3PY        -0.00000  -0.00001  -0.00007   0.00003  -0.16392
  60        3PZ         0.11273  -0.05263   0.01995  -0.41433  -0.00003
  61 10  H  1S          0.07276  -0.05309   0.03689   0.07102  -0.00504
  62        2S          0.08503  -0.08780   0.07074   0.56397  -0.86821
  63 11  H  1S         -0.07274   0.05308  -0.03688  -0.07101  -0.00504
  64        2S         -0.08501   0.08779  -0.07066  -0.56397  -0.86817
  65 12  H  1S         -0.00001   0.00001  -0.00001  -0.00002  -0.01273
  66        2S         -0.00002   0.00001  -0.00010  -0.00014  -1.16317
                          26        27        28        29        30
                           V         V         V         V         V
     Eigenvalues --     0.29511   0.30930   0.31843   0.33359   0.36574
   1 1   C  1S          0.05665   0.01248   0.11175  -0.01852  -0.00002
   2        2S         -0.01627  -0.00997  -0.07758   0.00971   0.00001
   3        2PX        -0.11773   0.01805  -0.10606   0.15224   0.00000
   4        2PY        -0.10584   0.11449   0.03678   0.08392   0.00003
   5        2PZ        -0.00001   0.00001  -0.00000  -0.00000  -0.05270
   6        3S         -0.95058  -0.02260  -1.01175   0.33058   0.00030
   7        3PX        -0.31122   0.10306  -0.85326   0.64360  -0.00002
   8        3PY        -0.31819   0.37050  -0.16409   0.34701   0.00015
   9        3PZ        -0.00004   0.00003  -0.00001   0.00001  -0.16976
  10 2   C  1S          0.04527   0.03641  -0.08274  -0.01396  -0.00000
  11        2S         -0.01574  -0.02035   0.07419  -0.00844  -0.00000
  12        2PX         0.08694   0.03510  -0.02649  -0.04647  -0.00004
  13        2PY        -0.13621   0.06789   0.08059   0.09850  -0.00004
  14        2PZ         0.00002  -0.00002  -0.00000   0.00001   0.13949
  15        3S         -0.59644  -0.29597   0.57292   0.43698   0.00003
  16        3PX         0.39084   0.13947  -0.20396   0.09968  -0.00027
  17        3PY        -0.60404   0.18682   0.86597   0.26097  -0.00027
  18        3PZ         0.00005  -0.00003  -0.00001  -0.00002   0.35961
  19 3   C  1S         -0.00292  -0.01976   0.00770  -0.04785   0.00001
  20        2S          0.01643   0.04177  -0.01538   0.02589   0.00002
  21        2PX         0.07086   0.05265  -0.04153   0.04956  -0.00001
  22        2PY        -0.04914   0.06373  -0.01789  -0.03444  -0.00001
  23        2PZ        -0.00001   0.00000   0.00000   0.00001  -0.16810
  24        3S         -0.11531  -0.07377   0.11518   0.44153  -0.00038
  25        3PX         0.08960  -0.06454   0.09343  -0.03908  -0.00022
  26        3PY        -0.14098   0.25160   0.08273  -0.01038  -0.00010
  27        3PZ        -0.00003  -0.00000   0.00002   0.00005  -0.66348
  28 4   C  1S          0.06663   0.02774   0.03803   0.07719   0.00002
  29        2S         -0.03548  -0.01177  -0.01726  -0.04193  -0.00001
  30        2PX         0.05931  -0.02897  -0.10354   0.07076  -0.00006
  31        2PY         0.08092   0.16612  -0.00428   0.12907  -0.00001
  32        2PZ        -0.00000   0.00001  -0.00001  -0.00002   0.06039
  33        3S         -0.80399  -0.35790  -0.35848  -0.98568  -0.00006
  34        3PX         0.28184  -0.06176  -0.40119   0.32779  -0.00024
  35        3PY         0.36669   0.80218   0.02533   0.71055   0.00009
  36        3PZ        -0.00000   0.00000  -0.00001  -0.00005   0.29619
  37 5   O  1S          0.01497  -0.02890  -0.06903  -0.01067  -0.00002
  38        2S         -0.00283   0.01519   0.04387   0.01103   0.00001
  39        2PX         0.03085   0.00872  -0.07648  -0.03224  -0.00005
  40        2PY        -0.03517   0.04934   0.09243   0.02935  -0.00003
  41        2PZ         0.00001  -0.00001   0.00000   0.00001  -0.00276
  42        3S         -0.15966   0.24804   0.55834   0.06128   0.00020
  43        3PX         0.10787   0.03392  -0.14399  -0.04198  -0.00011
  44        3PY        -0.07214   0.10446   0.13297   0.06389  -0.00006
  45        3PZ         0.00001  -0.00001   0.00000   0.00001  -0.02332
  46 6   H  1S          0.03729  -0.01748   0.04100  -0.01286   0.00001
  47        2S          1.03013  -0.26456   1.45987  -1.00363  -0.00018
  48 7   H  1S          0.06709  -0.01413  -0.03696   0.00008  -0.00002
  49        2S          1.19271  -0.06121  -1.29842  -0.50767   0.00015
  50 8   H  1S          0.04775   0.02539   0.01805   0.04202  -0.00001
  51        2S          0.92138   1.07843   0.20294   1.36122   0.00008
  52 9   C  1S         -0.04088  -0.03957  -0.00256   0.00948  -0.00002
  53        2S          0.02527   0.01439  -0.00616   0.00567  -0.00000
  54        2PX         0.05269  -0.02679  -0.04151  -0.01685  -0.00004
  55        2PY        -0.05184   0.21617   0.00034  -0.14774  -0.00003
  56        2PZ         0.00000   0.00001  -0.00000  -0.00001   0.29851
  57        3S          0.41197   0.48398   0.14436  -0.18421   0.00021
  58        3PX         0.13805  -0.13736  -0.11127  -0.14648  -0.00014
  59        3PY        -0.17695   0.94865  -0.18472  -0.73350  -0.00008
  60        3PZ         0.00003   0.00005  -0.00001  -0.00006   1.41449
  61 10  H  1S          0.00988  -0.03139   0.01864   0.02677  -0.02205
  62        2S          0.00528  -0.84880   0.01208   0.44320  -1.31474
  63 11  H  1S          0.00989  -0.03140   0.01866   0.02678   0.02205
  64        2S          0.00540  -0.84909   0.01213   0.44339   1.31428
  65 12  H  1S         -0.01819   0.05722  -0.04093  -0.05442  -0.00001
  66        2S         -0.35628   0.91215  -0.27726  -0.83108   0.00002
                          31        32        33        34        35
                           V         V         V         V         V
     Eigenvalues --     0.39527   0.41037   0.47373   0.56086   0.63939
   1 1   C  1S         -0.00408   0.08176  -0.01467   0.07985  -0.00045
   2        2S         -0.00606  -0.04890   0.02908   0.00495  -0.01469
   3        2PX         0.02336   0.01104  -0.03844   0.23266  -0.07384
   4        2PY        -0.17901   0.07757  -0.13660  -0.06844   0.03931
   5        2PZ        -0.00001  -0.00001   0.00000   0.00000  -0.00000
   6        3S         -0.02123  -1.07331  -0.34483  -1.86671  -0.60659
   7        3PX         0.14719   0.08617   0.07026   2.01644   0.74153
   8        3PY        -0.92258   0.19150  -0.50817  -0.60861  -0.82033
   9        3PZ        -0.00002  -0.00004  -0.00001  -0.00001  -0.00001
  10 2   C  1S         -0.07423   0.04524   0.00889  -0.08342   0.01237
  11        2S          0.02203  -0.00207  -0.02939   0.02152  -0.02974
  12        2PX         0.05608   0.13149   0.05231   0.11800   0.10697
  13        2PY         0.13713   0.07749   0.06443  -0.08273   0.05952
  14        2PZ         0.00001   0.00003   0.00000   0.00000   0.00001
  15        3S          1.25304  -0.89422   0.41204   1.69252   0.37690
  16        3PX        -0.07358   1.10214   0.49686   2.10031   1.20374
  17        3PY         0.70196   0.74840  -0.17584  -0.62470  -0.27168
  18        3PZ         0.00004   0.00008   0.00001  -0.00000  -0.00001
  19 3   C  1S          0.04871  -0.06592  -0.14687  -0.02374   0.07127
  20        2S         -0.03851  -0.01172   0.04524   0.01666  -0.01269
  21        2PX         0.01672   0.04767  -0.22518   0.09217  -0.16104
  22        2PY        -0.10161   0.15768  -0.05491   0.07368   0.27773
  23        2PZ        -0.00003  -0.00003  -0.00000  -0.00000   0.00000
  24        3S         -0.35171   1.33526   2.53198   0.18988  -1.86986
  25        3PX         0.46495   0.59111  -1.73013   0.55569  -2.20327
  26        3PY        -0.48777   1.04364  -0.35394   0.27605   2.48385
  27        3PZ        -0.00011  -0.00014  -0.00002  -0.00001   0.00002
  28 4   C  1S         -0.02663  -0.07539   0.04643   0.05003  -0.10891
  29        2S          0.03219   0.04163  -0.03686  -0.01032  -0.01013
  30        2PX         0.16707   0.17454   0.02751   0.00769  -0.02922
  31        2PY         0.12531  -0.02503  -0.07626  -0.13046   0.17292
  32        2PZ         0.00002   0.00001   0.00000   0.00000  -0.00002
  33        3S         -0.24195   0.86751  -0.38847  -0.49697   2.69930
  34        3PX         0.63333   0.43717   0.61184  -0.75377  -1.45170
  35        3PY         0.13350  -0.23305  -0.02964  -0.52809   2.38897
  36        3PZ         0.00005   0.00006   0.00001   0.00000  -0.00001
  37 5   O  1S          0.09882   0.01140   0.03098  -0.04154   0.03190
  38        2S         -0.03952  -0.00845   0.00097   0.01060  -0.01182
  39        2PX         0.08703   0.15585  -0.07009  -0.16007   0.02239
  40        2PY        -0.06868   0.20929  -0.04001  -0.03952  -0.11286
  41        2PZ        -0.00000   0.00000  -0.00000  -0.00000   0.00000
  42        3S         -1.00828  -0.08829  -0.43582   0.52862  -0.40119
  43        3PX         0.22630   0.36512  -0.03569  -0.57160   0.05705
  44        3PY        -0.25679   0.50980  -0.09703  -0.12301  -0.43940
  45        3PZ        -0.00001  -0.00000  -0.00000   0.00000   0.00000
  46 6   H  1S         -0.00598  -0.06862  -0.03052   0.06756  -0.04959
  47        2S          0.24015   0.29788   0.28172  -0.78713  -0.05892
  48 7   H  1S          0.05344  -0.04116   0.02841   0.01358  -0.03006
  49        2S         -1.17722  -0.04460   0.13905   0.51468   0.31870
  50 8   H  1S         -0.04802   0.05280  -0.02032   0.02793  -0.06666
  51        2S          0.31915  -0.55227   0.15781  -0.34853   0.95223
  52 9   C  1S         -0.00427   0.03290   0.10750  -0.01209   0.01269
  53        2S          0.01037   0.00338   0.02172   0.00107   0.04055
  54        2PX         0.14376   0.08338  -0.09618   0.03208   0.01299
  55        2PY         0.07049  -0.02488   0.06228   0.16015  -0.06439
  56        2PZ         0.00006   0.00009   0.00002   0.00002  -0.00003
  57        3S          0.05117  -0.43305  -2.06147   0.28032  -0.91441
  58        3PX         0.65988   0.16853  -1.89245   0.37657  -0.85341
  59        3PY         0.40872  -0.38696   0.33672   0.01831  -0.87672
  60        3PZ         0.00028   0.00035   0.00008   0.00003  -0.00003
  61 10  H  1S          0.01591  -0.00660  -0.05803   0.07650  -0.04879
  62        2S          0.04474   0.37613  -0.13548  -0.03920   0.21331
  63 11  H  1S          0.01592  -0.00660  -0.05802   0.07653  -0.04880
  64        2S          0.04514   0.37689  -0.13540  -0.03917   0.21341
  65 12  H  1S          0.02309   0.03875  -0.06588  -0.08397   0.00250
  66        2S          0.67234   0.08153   0.30409   0.24994  -0.70567
                          36        37        38        39        40
                           V         V         V         V         V
     Eigenvalues --     0.69275   0.89800   0.93261   0.94716   0.96669
   1 1   C  1S          0.10387   0.05086  -0.00118   0.00000   0.01306
   2        2S         -0.00662   0.04440   0.05063  -0.00001  -0.07823
   3        2PX         0.04549  -0.03606  -0.22798   0.00005   0.16085
   4        2PY         0.26648   0.21956   0.24521  -0.00005  -0.62800
   5        2PZ         0.00001   0.00001  -0.00003  -0.38934   0.00006
   6        3S         -1.80703  -0.25784   0.34376  -0.00003  -0.31869
   7        3PX         1.62495   0.55556   0.09845  -0.00002   0.43692
   8        3PY         0.72904  -0.30740  -0.24166   0.00004   0.56786
   9        3PZ        -0.00001  -0.00002   0.00002   0.30389  -0.00005
  10 2   C  1S         -0.13940  -0.02127   0.04127  -0.00001  -0.06362
  11        2S          0.02311   0.01478  -0.03857   0.00000  -0.15647
  12        2PX         0.04022   0.59214   0.33478  -0.00001   0.03205
  13        2PY        -0.19707   0.11021   0.12247  -0.00002  -0.18487
  14        2PZ        -0.00000  -0.00001  -0.00004  -0.34016  -0.00001
  15        3S          3.25351   0.53714  -0.13653   0.00001   0.81215
  16        3PX         0.14091  -0.25307  -0.51922   0.00004   0.23318
  17        3PY        -2.65631  -0.16758   0.21459   0.00000  -0.11402
  18        3PZ        -0.00001   0.00001   0.00003   0.22391   0.00001
  19 3   C  1S          0.09221  -0.02878  -0.07572   0.00001   0.01629
  20        2S         -0.00524   0.08737  -0.02119   0.00001  -0.10512
  21        2PX        -0.19103   0.08299   0.03281   0.00001  -0.01596
  22        2PY        -0.12668  -0.26463   0.12199  -0.00003  -0.20150
  23        2PZ        -0.00000   0.00001  -0.00007  -0.46394   0.00000
  24        3S         -2.16166   0.05556  -0.04981   0.00005  -0.21110
  25        3PX        -2.63369   0.18844   0.59750  -0.00002  -0.31807
  26        3PY        -1.09638  -0.07459  -0.29572   0.00002  -0.00376
  27        3PZ        -0.00001   0.00000   0.00000   0.05301  -0.00001
  28 4   C  1S         -0.06747   0.03792   0.01105   0.00000  -0.01722
  29        2S          0.01762   0.09343  -0.08933   0.00001   0.01012
  30        2PX         0.21455  -0.31864   0.58548  -0.00007   0.04895
  31        2PY         0.05542  -0.02087  -0.05926  -0.00000   0.16477
  32        2PZ         0.00000   0.00003  -0.00007  -0.63606   0.00003
  33        3S          1.15420  -0.42631  -0.31528  -0.00000   0.23449
  34        3PX         0.54069   0.28728  -0.39251   0.00007   0.06077
  35        3PY         1.30802  -0.27995  -0.34256  -0.00001  -0.07972
  36        3PZ        -0.00000  -0.00003   0.00007   0.59839  -0.00002
  37 5   O  1S         -0.00909  -0.02977   0.00821  -0.00000   0.01747
  38        2S          0.01272   0.07208  -0.02267   0.00000  -0.05800
  39        2PX         0.10770  -0.13895   0.07806  -0.00001  -0.02056
  40        2PY         0.22478   0.05209   0.09721  -0.00001  -0.07369
  41        2PZ        -0.00000   0.00000  -0.00000  -0.03594   0.00000
  42        3S          0.04714  -0.01482   0.05695   0.00000   0.17180
  43        3PX         0.30480  -0.16226  -0.02653  -0.00000   0.00242
  44        3PY         0.56598   0.03252  -0.01851   0.00001   0.06546
  45        3PZ         0.00000   0.00001  -0.00001  -0.12316   0.00001
  46 6   H  1S          0.13708   0.25568  -0.00219   0.00001  -0.28011
  47        2S         -0.79014  -0.35463  -0.01541  -0.00000  -0.08626
  48 7   H  1S         -0.11456  -0.09002   0.07820  -0.00003  -0.63948
  49        2S          1.07054   0.00839  -0.19699   0.00002   0.36364
  50 8   H  1S         -0.09752   0.28407  -0.15266   0.00003  -0.24829
  51        2S          0.63299  -0.25353  -0.06378  -0.00003   0.15238
  52 9   C  1S          0.01112   0.00200   0.02069  -0.00000   0.00453
  53        2S          0.05868  -0.02099  -0.15952   0.00002  -0.03788
  54        2PX         0.11781  -0.07993  -0.73098   0.00010  -0.37714
  55        2PY        -0.00953  -0.39256   0.08591  -0.00001  -0.19306
  56        2PZ        -0.00002   0.00001  -0.00007  -0.37093  -0.00004
  57        3S         -1.12161   0.09828   0.38547  -0.00002  -0.12217
  58        3PX        -0.91874   0.18784   0.90247  -0.00011   0.32488
  59        3PY         0.42032   0.65242  -0.09253   0.00003   0.35354
  60        3PZ        -0.00001  -0.00001   0.00012   0.67141   0.00005
  61 10  H  1S         -0.03059  -0.17200   0.09926  -0.26184  -0.05308
  62        2S         -0.14864   0.01892   0.00992  -0.05471  -0.00917
  63 11  H  1S         -0.03058  -0.17213   0.09939   0.26174  -0.05310
  64        2S         -0.14876   0.01893   0.00991   0.05469  -0.00919
  65 12  H  1S         -0.08228   0.39865  -0.03703   0.00008   0.16118
  66        2S          0.18444  -0.00666   0.02872   0.00002   0.04830
                          41        42        43        44        45
                           V         V         V         V         V
     Eigenvalues --     0.99514   1.04767   1.06756   1.07098   1.09103
   1 1   C  1S         -0.00000   0.00000   0.02967   0.00583   0.00000
   2        2S          0.00000   0.00000   0.25185  -0.09404   0.00002
   3        2PX         0.00001  -0.00002   0.27713  -0.22769   0.00002
   4        2PY         0.00001  -0.00000  -0.47243   0.34524  -0.00005
   5        2PZ         0.83097   0.08960  -0.00003   0.00007   0.57962
   6        3S          0.00003  -0.00004  -0.18863  -0.07445  -0.00001
   7        3PX        -0.00007   0.00007  -0.72867   0.59568  -0.00006
   8        3PY        -0.00000   0.00002   0.78783  -0.42200   0.00008
   9        3PZ        -0.81922   0.01267   0.00004  -0.00010  -0.83056
  10 2   C  1S          0.00000  -0.00000  -0.00610   0.01214   0.00000
  11        2S          0.00001   0.00000   0.10338   0.02885  -0.00000
  12        2PX         0.00000   0.00001   0.37472  -0.06016   0.00001
  13        2PY         0.00002   0.00000   0.18068  -0.19698   0.00002
  14        2PZ         0.25482   0.61965   0.00004  -0.00007  -0.74121
  15        3S         -0.00009   0.00003  -0.28180   0.68236  -0.00003
  16        3PX        -0.00003   0.00002  -0.64586   0.18750  -0.00004
  17        3PY         0.00002  -0.00005  -0.43690   0.18872  -0.00005
  18        3PZ        -0.05679  -0.60601  -0.00004   0.00008   0.92368
  19 3   C  1S         -0.00000   0.00000   0.00250   0.01533  -0.00000
  20        2S          0.00002  -0.00001  -0.07267  -0.03251  -0.00001
  21        2PX         0.00001   0.00000  -0.11584   0.17330  -0.00002
  22        2PY        -0.00000  -0.00006   0.46481   0.31748   0.00003
  23        2PZ        -0.21283   0.25047  -0.00000  -0.00006  -0.02640
  24        3S          0.00003  -0.00004  -0.14371   0.60628  -0.00008
  25        3PX         0.00006  -0.00008   0.10333  -0.41149   0.00005
  26        3PY         0.00001   0.00010  -0.75264  -0.61010  -0.00006
  27        3PZ        -0.00336  -0.19128   0.00001   0.00005  -0.03887
  28 4   C  1S          0.00000   0.00000  -0.03314  -0.01284  -0.00000
  29        2S          0.00000  -0.00001  -0.16388  -0.23355   0.00002
  30        2PX         0.00000  -0.00005  -0.22858  -0.64404   0.00007
  31        2PY        -0.00002   0.00000   0.01038   0.14281  -0.00003
  32        2PZ         0.00123  -0.80425   0.00002  -0.00001  -0.33549
  33        3S         -0.00003   0.00010   0.01089   0.14336  -0.00006
  34        3PX        -0.00001   0.00007   0.46864   1.05439  -0.00009
  35        3PY        -0.00000   0.00003  -0.12717  -0.52726   0.00008
  36        3PZ         0.05426   0.87509  -0.00001   0.00001   0.34990
  37 5   O  1S         -0.00000   0.00000  -0.00298   0.00940  -0.00000
  38        2S          0.00000   0.00000  -0.01041   0.02683  -0.00000
  39        2PX         0.00000  -0.00001   0.11930  -0.24466   0.00003
  40        2PY        -0.00000   0.00001  -0.02391   0.20310  -0.00002
  41        2PZ         0.03717  -0.02767  -0.00000  -0.00000   0.00401
  42        3S          0.00001  -0.00003   0.17518  -0.54766   0.00007
  43        3PX        -0.00000   0.00001   0.14660   0.03088  -0.00000
  44        3PY        -0.00001   0.00001   0.17806   0.08239  -0.00000
  45        3PZ         0.09337  -0.10302  -0.00000   0.00001   0.05673
  46 6   H  1S          0.00002   0.00001   0.65990  -0.24000   0.00004
  47        2S          0.00002  -0.00004  -0.21415  -0.02877  -0.00001
  48 7   H  1S          0.00003  -0.00002   0.22728  -0.02951   0.00003
  49        2S         -0.00003   0.00004  -0.01512  -0.08239  -0.00000
  50 8   H  1S          0.00004  -0.00001  -0.42282  -0.58783   0.00003
  51        2S         -0.00003  -0.00000   0.23476   0.14724   0.00003
  52 9   C  1S         -0.00000   0.00000   0.00120   0.00285  -0.00000
  53        2S          0.00000  -0.00000  -0.01311   0.03616  -0.00001
  54        2PX         0.00006  -0.00006  -0.05684  -0.13738   0.00000
  55        2PY         0.00002   0.00010  -0.02722   0.02453  -0.00007
  56        2PZ        -0.44655   0.11518  -0.00001   0.00002   0.39468
  57        3S          0.00003  -0.00006   0.08506  -0.41199   0.00005
  58        3PX        -0.00005   0.00005   0.07933   0.09965   0.00001
  59        3PY        -0.00003  -0.00012   0.11902   0.02940   0.00011
  60        3PZ         0.81042  -0.34468   0.00001  -0.00003  -0.67289
  61 10  H  1S         -0.30888   0.23484  -0.00879   0.09040   0.21288
  62        2S         -0.04674  -0.00312   0.00472   0.00761   0.04711
  63 11  H  1S          0.30880  -0.23479  -0.00878   0.09040  -0.21285
  64        2S          0.04672   0.00317   0.00471   0.00761  -0.04713
  65 12  H  1S          0.00006  -0.00002  -0.02610   0.00416  -0.00006
  66        2S          0.00000  -0.00003   0.02387   0.08192   0.00003
                          46        47        48        49        50
                           V         V         V         V         V
     Eigenvalues --     1.14920   1.17471   1.19245   1.20015   1.28252
   1 1   C  1S          0.02694  -0.00001   0.00268  -0.00339   0.02685
   2        2S         -0.20537   0.00011  -0.36405   0.12399  -0.10017
   3        2PX         0.25177  -0.00016   0.48094  -0.28370  -0.72739
   4        2PY         0.14964  -0.00009   0.25245  -0.08397  -0.26131
   5        2PZ         0.00002   0.01140  -0.00001  -0.00001  -0.00001
   6        3S         -0.04695  -0.00017   0.33670  -0.29901  -0.72048
   7        3PX        -0.42209   0.00039  -0.87619   0.76113   2.17810
   8        3PY        -0.27235   0.00017  -0.37087   0.19978   0.73874
   9        3PZ        -0.00002   0.13195   0.00005   0.00000   0.00001
  10 2   C  1S         -0.01760  -0.00000   0.00496   0.00126  -0.00066
  11        2S         -0.09349   0.00007  -0.26089   0.15489  -0.03841
  12        2PX        -0.18079  -0.00003  -0.12505  -0.26884  -0.31578
  13        2PY        -0.01687  -0.00003   0.09348  -0.26450   0.43193
  14        2PZ        -0.00001   0.32377   0.00011   0.00000  -0.00002
  15        3S         -0.59523   0.00021   0.33907   0.38473   1.44033
  16        3PX         0.42603   0.00009  -0.21585   0.34974   0.89847
  17        3PY         0.27446  -0.00020   0.10158   0.08310  -1.63470
  18        3PZ        -0.00004  -0.75163  -0.00018   0.00005   0.00002
  19 3   C  1S          0.00434  -0.00000  -0.00514  -0.01894  -0.01470
  20        2S         -0.09648   0.00005  -0.16920   0.29352   0.02469
  21        2PX        -0.62804   0.00004  -0.05889  -0.50395   0.22792
  22        2PY        -0.27405   0.00002   0.26583   0.19126  -0.13901
  23        2PZ        -0.00017  -0.93152  -0.00009   0.00015   0.00002
  24        3S         -0.42296   0.00001  -0.22189   0.05833  -1.32870
  25        3PX         0.38030  -0.00002  -0.00355   1.15107  -1.50704
  26        3PY         1.06328  -0.00012  -1.15641  -0.80014   0.29942
  27        3PZ         0.00028   1.63789   0.00018  -0.00027  -0.00004
  28 4   C  1S         -0.00139  -0.00001   0.01362  -0.02291  -0.02415
  29        2S         -0.17650   0.00012  -0.29271   0.24247   0.05058
  30        2PX        -0.36179   0.00008   0.10395   0.08615  -0.06612
  31        2PY        -0.17839   0.00013  -0.60175   0.19469  -0.69158
  32        2PZ         0.00006   0.11123  -0.00003  -0.00005   0.00002
  33        3S          0.68191  -0.00016  -0.45730  -0.96319   0.61333
  34        3PX         0.20159  -0.00010   0.05394  -0.07387   0.10729
  35        3PY         0.80559  -0.00022   0.79509  -0.57615   2.06534
  36        3PZ        -0.00014  -0.50930  -0.00001   0.00013  -0.00002
  37 5   O  1S          0.00727  -0.00000   0.00774  -0.00667   0.00072
  38        2S          0.02643  -0.00001   0.01172  -0.02564  -0.00455
  39        2PX        -0.02215   0.00003  -0.03158   0.06549  -0.01240
  40        2PY        -0.00029  -0.00002   0.03041  -0.04215  -0.03298
  41        2PZ         0.00001  -0.00045  -0.00001  -0.00001  -0.00000
  42        3S         -0.40681   0.00019  -0.31289   0.33676   0.01253
  43        3PX         0.19045  -0.00008   0.15640  -0.17145   0.01518
  44        3PY        -0.08049   0.00005  -0.17410   0.07057   0.04049
  45        3PZ         0.00002   0.04633  -0.00000  -0.00001   0.00000
  46 6   H  1S          0.21655  -0.00000  -0.26911   0.01009   0.32817
  47        2S          0.06929  -0.00019   0.63917  -0.40265  -1.43919
  48 7   H  1S         -0.11397   0.00009  -0.02696   0.36121  -0.18295
  49        2S          0.12321   0.00003  -0.17762  -0.28936   0.87262
  50 8   H  1S          0.19373   0.00001  -0.18407   0.00226  -0.26413
  51        2S          0.21223  -0.00008   0.60984  -0.09894   1.28460
  52 9   C  1S          0.05080   0.00000  -0.01027   0.06634   0.00619
  53        2S         -0.03989   0.00001   0.00780  -0.07113   0.03768
  54        2PX        -0.44012   0.00004  -0.01467  -0.01873   0.03347
  55        2PY         0.41952  -0.00009  -0.55775  -0.50731   0.01361
  56        2PZ         0.00011   0.52766   0.00006  -0.00010  -0.00001
  57        3S         -0.06708  -0.00001   0.07059   0.42490  -0.61939
  58        3PX         0.66230  -0.00005   0.03573   0.47920  -0.27056
  59        3PY        -0.93493   0.00020   1.35923   1.14176  -0.00698
  60        3PZ        -0.00021  -1.32703  -0.00015   0.00025   0.00004
  61 10  H  1S          0.22062   0.08597  -0.12005   0.31731   0.05993
  62        2S          0.24499   0.39362  -0.24022  -0.30699  -0.02673
  63 11  H  1S          0.22067  -0.08596  -0.12010   0.31732   0.05995
  64        2S          0.24495  -0.39362  -0.24050  -0.30698  -0.02672
  65 12  H  1S          0.18240   0.00003   0.05093   0.49325   0.15430
  66        2S         -0.27387  -0.00005   0.54472   0.32394  -0.09348
                          51        52        53        54        55
                           V         V         V         V         V
     Eigenvalues --     1.30393   1.31953   1.33975   1.36591   1.47413
   1 1   C  1S          0.00657   0.00000   0.01848   0.01336  -0.01328
   2        2S          0.04521  -0.00001  -0.04745  -0.12258   0.13394
   3        2PX         0.03066  -0.00006  -0.07668  -0.32342   0.00913
   4        2PY        -0.07113  -0.00002  -0.12188  -0.02212   0.30098
   5        2PZ         0.00000  -0.01666  -0.00000  -0.00000   0.00001
   6        3S          0.40326  -0.00004   0.71076  -0.24027   0.17113
   7        3PX        -0.26336   0.00017  -0.14408   0.71210  -1.55933
   8        3PY        -0.06244   0.00005  -0.01522  -0.08966  -1.65012
   9        3PZ        -0.00001   0.01356   0.00003  -0.00000  -0.00001
  10 2   C  1S          0.02853  -0.00000   0.03503   0.00580   0.03851
  11        2S          0.02557  -0.00002  -0.11899  -0.03022  -0.32096
  12        2PX         0.09775  -0.00002   0.29467  -0.41630  -0.34463
  13        2PY        -0.69434  -0.00000  -0.58695  -0.09710  -0.26679
  14        2PZ        -0.00002   0.04356   0.00003   0.00000   0.00001
  15        3S         -0.39688   0.00014  -0.40197   0.34184  -1.30218
  16        3PX        -0.20586   0.00005  -0.50143   0.81870   0.79620
  17        3PY         1.55104  -0.00008   1.73508   0.17024   2.40003
  18        3PZ         0.00004   0.02941  -0.00007   0.00001  -0.00002
  19 3   C  1S          0.00183   0.00001  -0.00123   0.01680  -0.01509
  20        2S         -0.05501  -0.00005   0.03319  -0.15200  -0.18073
  21        2PX         0.03936  -0.00001  -0.00335  -0.21550   0.19700
  22        2PY        -0.20331   0.00003  -0.21287   0.11969  -0.27637
  23        2PZ         0.00005   0.25327  -0.00005  -0.00001  -0.00001
  24        3S          0.25517  -0.00001  -0.03312   0.41514   2.08325
  25        3PX         0.28135  -0.00004   0.21873   1.01421   0.72523
  26        3PY         0.56199  -0.00007   0.88302  -0.40113   1.38631
  27        3PZ        -0.00007  -0.37047   0.00010  -0.00003   0.00003
  28 4   C  1S         -0.01982  -0.00000  -0.02432   0.00732   0.02504
  29        2S          0.06718   0.00002   0.20013  -0.05510  -0.40529
  30        2PX         0.12484  -0.00006  -0.13143  -0.09662   0.28690
  31        2PY        -0.37818   0.00007  -0.36428   0.24201   0.21023
  32        2PZ         0.00001  -0.10650   0.00001   0.00000  -0.00001
  33        3S         -0.06792   0.00001   0.12310  -0.42998   0.52188
  34        3PX        -0.25856   0.00009   0.06251   0.24329  -0.84433
  35        3PY         0.78170  -0.00001   1.21639  -0.66505  -1.30590
  36        3PZ         0.00001   0.24038  -0.00004   0.00001   0.00002
  37 5   O  1S         -0.00219   0.00000   0.00454   0.00221   0.01084
  38        2S          0.01394  -0.00000   0.01635  -0.01159  -0.00180
  39        2PX        -0.00841  -0.00000  -0.03502   0.03456   0.09195
  40        2PY         0.02008  -0.00001  -0.02414  -0.01785   0.11870
  41        2PZ         0.00000  -0.03336   0.00000   0.00000   0.00000
  42        3S         -0.02158  -0.00001  -0.22932  -0.00013  -0.25903
  43        3PX         0.00882  -0.00000   0.06964  -0.09880  -0.12324
  44        3PY        -0.09423   0.00002  -0.10042   0.04174  -0.31656
  45        3PZ        -0.00000  -0.01124   0.00000  -0.00000  -0.00000
  46 6   H  1S         -0.00245   0.00004   0.13415   0.33525   0.79532
  47        2S          0.04144  -0.00012  -0.19974  -0.60596   0.57515
  48 7   H  1S          0.51623  -0.00003   0.16223   0.15554  -0.35736
  49        2S         -1.24480   0.00006  -1.13725  -0.16065  -0.70188
  50 8   H  1S         -0.34023   0.00011   0.03054   0.28955  -0.28854
  51        2S          0.76533  -0.00009   0.67588  -0.53351  -0.71782
  52 9   C  1S         -0.01453  -0.00001  -0.00925  -0.07386   0.01047
  53        2S          0.02489   0.00002   0.00587   0.27693  -0.13492
  54        2PX         0.01356  -0.00007  -0.04445  -0.46439   0.20044
  55        2PY         0.39281  -0.00015  -0.33439  -0.19676  -0.14775
  56        2PZ         0.00012   0.73130  -0.00011  -0.00014   0.00002
  57        3S          0.10258  -0.00006   0.10117  -0.02669   0.34471
  58        3PX         0.02128   0.00008   0.10119   0.89683  -0.32201
  59        3PY        -0.49377   0.00018  -0.07480   0.58964  -0.04947
  60        3PZ        -0.00011  -0.72562   0.00009   0.00024  -0.00004
  61 10  H  1S         -0.39082  -0.78559   0.31310  -0.56294   0.11006
  62        2S          0.45047   1.09565  -0.31522   0.44239  -0.21383
  63 11  H  1S         -0.39075   0.78548   0.31310  -0.56317   0.11009
  64        2S          0.45039  -1.09557  -0.31513   0.44276  -0.21389
  65 12  H  1S          0.51712  -0.00011  -0.83552  -0.42058   0.08511
  66        2S         -0.76672   0.00012   0.79540   0.79582  -0.19965
                          56        57        58        59        60
                           V         V         V         V         V
     Eigenvalues --     1.51269   1.62683   1.73041   1.84163   1.87245
   1 1   C  1S          0.02812   0.01528  -0.01165  -0.01369   0.00000
   2        2S         -0.78460  -0.54982  -0.07276  -1.19568   0.00002
   3        2PX        -0.32519  -0.10723  -0.16154   0.26734   0.00000
   4        2PY        -0.23066  -0.14148   0.15182  -0.04183   0.00000
   5        2PZ        -0.00001   0.00000   0.00000   0.00000   0.02546
   6        3S          1.94177   0.50478   1.62020   1.90794  -0.00008
   7        3PX         0.43029   0.91988  -0.54980  -1.05322   0.00002
   8        3PY         0.56733   0.64284  -0.32988  -0.49757  -0.00002
   9        3PZ         0.00003  -0.00001   0.00001  -0.00000  -0.29825
  10 2   C  1S          0.01936   0.00907   0.01692  -0.00459  -0.00000
  11        2S         -0.49942  -0.12193  -0.40015  -0.30624  -0.00002
  12        2PX         0.29137   0.14439   0.28274  -0.11250  -0.00001
  13        2PY        -0.24137   0.31525   0.01801   0.10124  -0.00000
  14        2PZ         0.00001  -0.00001   0.00001  -0.00000  -0.00075
  15        3S          1.04337  -1.07526  -0.86414   0.10461   0.00008
  16        3PX        -1.47941   0.58326  -1.60213  -0.14431   0.00005
  17        3PY         0.65490  -0.98387   2.03640  -0.74187  -0.00003
  18        3PZ        -0.00004   0.00003  -0.00002   0.00001   0.07777
  19 3   C  1S          0.01107  -0.00316  -0.03162   0.01027   0.00000
  20        2S         -0.32522  -0.25635   0.57209   0.58787  -0.00003
  21        2PX        -0.05319  -0.31879  -0.64736   0.31775   0.00001
  22        2PY         0.47238  -0.62254   0.15376  -0.01416  -0.00000
  23        2PZ        -0.00001   0.00001  -0.00000   0.00000  -0.00847
  24        3S          0.17202   0.17185   0.57770  -0.74009   0.00005
  25        3PX         0.46257   1.52245   4.64519  -1.42241  -0.00009
  26        3PY        -1.67601   1.86712  -1.05240  -0.15677   0.00000
  27        3PZ         0.00004  -0.00002   0.00003   0.00000   0.09284
  28 4   C  1S          0.02107   0.01116   0.01183   0.00993   0.00000
  29        2S         -0.51333  -0.63222   0.36835   0.95336   0.00003
  30        2PX         0.05521   0.11466   0.09254  -0.04313  -0.00001
  31        2PY         0.10240   0.24388  -0.04250   0.21279  -0.00000
  32        2PZ         0.00000  -0.00000  -0.00001   0.00000   0.02751
  33        3S         -0.24268   1.33461  -2.83393  -1.01004  -0.00002
  34        3PX         0.48306  -0.97471  -0.29679  -0.28803   0.00002
  35        3PY         0.00459  -1.50727  -2.13482  -0.44680   0.00003
  36        3PZ        -0.00002   0.00002   0.00000   0.00000  -0.30612
  37 5   O  1S          0.01383  -0.01875  -0.01736   0.00895  -0.00000
  38        2S         -0.00564   0.02738   0.01902  -0.01402   0.00000
  39        2PX        -0.07731  -0.03601   0.09381   0.18046   0.00001
  40        2PY        -0.01040   0.04953   0.03112   0.32486  -0.00001
  41        2PZ        -0.00000  -0.00001  -0.00002   0.00000  -1.03706
  42        3S         -0.24259   0.45088   0.35131  -0.14695  -0.00000
  43        3PX         0.09106  -0.15948  -0.42114  -0.30983  -0.00001
  44        3PY        -0.02402   0.04149  -0.19380  -0.65554   0.00001
  45        3PZ        -0.00000   0.00001   0.00001  -0.00000   1.14365
  46 6   H  1S          0.12324  -0.20309  -0.00638   0.19783   0.00001
  47        2S         -0.92414  -0.66847   0.05789   0.07051   0.00001
  48 7   H  1S         -0.11257   0.56086  -0.57433   0.20992   0.00001
  49        2S         -0.76623   0.37007  -0.79366   0.19565  -0.00000
  50 8   H  1S          0.50785  -0.45620  -0.37846  -0.08579   0.00001
  51        2S         -0.36859  -0.90763  -0.38724   0.04434   0.00002
  52 9   C  1S          0.01295  -0.01643  -0.04686   0.01123   0.00000
  53        2S         -0.30361   0.08642   0.63881  -0.16235  -0.00002
  54        2PX         0.25597   0.15765   0.25657  -0.10473  -0.00001
  55        2PY         0.15416  -0.10872   0.15722   0.03099   0.00001
  56        2PZ         0.00001   0.00000   0.00005   0.00001  -0.02841
  57        3S          0.83027   0.76452   1.56772  -0.41568  -0.00002
  58        3PX        -0.25002   0.22483   1.24402  -0.26358  -0.00003
  59        3PY         0.17715  -0.41907  -0.17223  -0.04271  -0.00003
  60        3PZ        -0.00006  -0.00001  -0.00013  -0.00003   0.03253
  61 10  H  1S          0.03496   0.03024  -0.16352   0.00408   0.01973
  62        2S         -0.22530   0.01060   0.42239  -0.01957  -0.04935
  63 11  H  1S          0.03489   0.03029  -0.16349   0.00409  -0.01972
  64        2S         -0.22531   0.01059   0.42225  -0.01960   0.04934
  65 12  H  1S          0.21997  -0.18127  -0.09311   0.03744   0.00001
  66        2S         -0.36308  -0.04160   0.12501  -0.13391  -0.00003
                          61        62        63        64        65
                           V         V         V         V         V
     Eigenvalues --     1.91986   2.08083   2.23155   2.27817   2.48294
   1 1   C  1S         -0.00804  -0.00381  -0.02856  -0.02600  -0.01834
   2        2S         -0.44709   0.40358  -0.22675  -0.31427  -0.74158
   3        2PX         0.08855   0.04425  -0.13803  -0.00757   0.10123
   4        2PY        -0.13164  -0.22709   0.04038  -0.02725   0.29818
   5        2PZ         0.00000   0.00000  -0.00000   0.00000   0.00000
   6        3S          1.88500  -0.56094   3.12322   1.93759   2.19035
   7        3PX        -1.38008  -0.30874  -1.47856  -0.82354  -2.41816
   8        3PY         0.07908   0.20443  -0.58048  -0.60145  -0.16484
   9        3PZ        -0.00001  -0.00001   0.00002   0.00000  -0.00000
  10 2   C  1S          0.00961   0.00078   0.05420   0.03887   0.03974
  11        2S          1.06288  -0.38155   1.16749   0.80208   0.57211
  12        2PX        -0.01632  -0.05691   0.08796   0.09345   0.02620
  13        2PY        -0.17150   0.13472  -0.04722  -0.10514  -0.00621
  14        2PZ        -0.00000  -0.00000   0.00001  -0.00000   0.00000
  15        3S         -2.46913   0.35218  -5.52697  -2.84163  -3.60346
  16        3PX        -0.76486   0.10103  -1.03928  -0.18700  -1.05064
  17        3PY         0.85116  -0.52446   3.54751   1.53442   1.71254
  18        3PZ         0.00001   0.00001  -0.00001   0.00001   0.00002
  19 3   C  1S          0.00876   0.00117  -0.03639  -0.05656  -0.04705
  20        2S          1.14047  -0.30921  -0.56057  -1.09208  -0.65106
  21        2PX         0.12602  -0.11949  -0.46507   0.11063   0.00957
  22        2PY        -0.00279   0.02440   0.01953   0.05056   0.05064
  23        2PZ        -0.00000   0.00000  -0.00001   0.00000   0.00000
  24        3S         -2.57305   0.05394   3.02838   4.40257   4.05957
  25        3PX        -1.00792  -0.22339   5.98284  -0.40294   1.62841
  26        3PY         1.22088  -0.00284   0.33569   0.31616  -0.62680
  27        3PZ         0.00003  -0.00000   0.00003  -0.00001  -0.00001
  28 4   C  1S         -0.01602  -0.00455   0.02406   0.02569   0.01977
  29        2S         -0.85199   0.38749   0.37305   0.12862   0.74329
  30        2PX         0.19141   0.22295   0.07481   0.00011   0.25899
  31        2PY        -0.07549   0.04107  -0.07571  -0.06091   0.17423
  32        2PZ         0.00000   0.00000  -0.00000  -0.00000  -0.00001
  33        3S          2.98232  -0.24666  -3.29077  -1.37358  -2.24382
  34        3PX        -0.63768  -0.24080  -0.57856  -0.11301   0.64062
  35        3PY         1.55224   0.45161  -2.20968  -0.22537  -2.27042
  36        3PZ        -0.00001  -0.00000  -0.00000   0.00001   0.00002
  37 5   O  1S          0.04032   0.03267   0.00129   0.00248   0.00038
  38        2S         -0.08747  -0.22372  -0.04894   0.02172   0.00260
  39        2PX        -0.26511  -0.73310   0.02413   0.37207  -0.48814
  40        2PY         0.09756   0.54275   0.32981   0.32032  -0.68814
  41        2PZ        -0.00003  -0.00000  -0.00000  -0.00000   0.00000
  42        3S         -0.54116   0.30812   0.23276  -0.20159  -0.02880
  43        3PX         0.65334   0.95770  -0.38555  -0.66358   0.72103
  44        3PY        -0.30021  -0.67606  -0.84484  -0.75438   1.00726
  45        3PZ         0.00003   0.00001   0.00000   0.00000  -0.00000
  46 6   H  1S          0.16400   0.11010   0.02658  -0.01195   0.34205
  47        2S          0.16116   0.17341   0.20381   0.14838   0.58874
  48 7   H  1S         -0.11658   0.09922  -0.36835  -0.08138  -0.09034
  49        2S         -0.02130   0.13628  -0.68685  -0.18384  -0.30612
  50 8   H  1S          0.12365   0.13837  -0.20250   0.15692  -0.30885
  51        2S          0.08086   0.20766  -0.42811   0.06405  -0.54393
  52 9   C  1S         -0.00066   0.00912  -0.06596   0.06075   0.01665
  53        2S          0.35832   0.34801  -1.33784   1.37629   0.30107
  54        2PX        -0.01920   0.01603   0.17817   0.00015   0.01679
  55        2PY         0.01128  -0.00471  -0.00764  -0.02979   0.00871
  56        2PZ         0.00003  -0.00000   0.00000  -0.00001  -0.00001
  57        3S         -0.69127  -0.75191   5.22137  -3.59454  -0.43834
  58        3PX         0.05507  -0.12609   1.36517  -0.86986  -0.07695
  59        3PY        -0.36744   0.01934  -0.14782   0.02451   0.10510
  60        3PZ        -0.00010   0.00001  -0.00002   0.00004   0.00003
  61 10  H  1S          0.01030   0.05361  -0.25349   0.27679   0.06882
  62        2S          0.23790   0.08566  -0.36812   0.29593   0.02948
  63 11  H  1S          0.01034   0.05360  -0.25349   0.27678   0.06882
  64        2S          0.23780   0.08567  -0.36811   0.29598   0.02951
  65 12  H  1S         -0.03525   0.05322  -0.28618   0.23588   0.05353
  66        2S         -0.00058   0.09309  -0.40697   0.39617   0.14428
                          66
                           V
     Eigenvalues --     3.54208
   1 1   C  1S          0.04312
   2        2S          0.05218
   3        2PX        -0.03239
   4        2PY         0.21210
   5        2PZ        -0.00000
   6        3S         -0.99360
   7        3PX         0.63707
   8        3PY         0.61759
   9        3PZ        -0.00000
  10 2   C  1S         -0.01267
  11        2S         -0.09108
  12        2PX         0.10552
  13        2PY         0.03550
  14        2PZ        -0.00000
  15        3S          0.44289
  16        3PX         0.12273
  17        3PY        -0.43445
  18        3PZ         0.00000
  19 3   C  1S         -0.01171
  20        2S         -0.06541
  21        2PX        -0.03838
  22        2PY        -0.08877
  23        2PZ         0.00000
  24        3S          0.43407
  25        3PX         0.86233
  26        3PY        -0.20818
  27        3PZ        -0.00000
  28 4   C  1S          0.04464
  29        2S          0.06318
  30        2PX        -0.20131
  31        2PY        -0.03773
  32        2PZ        -0.00000
  33        3S         -1.25233
  34        3PX        -0.38281
  35        3PY        -0.93397
  36        3PZ         0.00000
  37 5   O  1S          0.04989
  38        2S         -1.77192
  39        2PX         0.20490
  40        2PY        -0.15355
  41        2PZ         0.00000
  42        3S          2.78364
  43        3PX        -0.72587
  44        3PY         0.52703
  45        3PZ        -0.00000
  46 6   H  1S         -0.03772
  47        2S         -0.23066
  48 7   H  1S          0.05953
  49        2S          0.11772
  50 8   H  1S         -0.04426
  51        2S         -0.25653
  52 9   C  1S         -0.00716
  53        2S         -0.03295
  54        2PX         0.04908
  55        2PY        -0.01263
  56        2PZ         0.00000
  57        3S          0.49948
  58        3PX         0.16227
  59        3PY         0.08139
  60        3PZ        -0.00001
  61 10  H  1S         -0.02875
  62        2S         -0.02301
  63 11  H  1S         -0.02875
  64        2S         -0.02302
  65 12  H  1S          0.01111
  66        2S         -0.02553
     Density Matrix:
                           1         2         3         4         5
   1 1   C  1S          2.03418
   2        2S          0.09284   0.12649
   3        2PX         0.00265  -0.01038   0.34025
   4        2PY        -0.02146   0.02259  -0.00487   0.21294
   5        2PZ         0.00000  -0.00000   0.00000  -0.00000   0.24062
   6        3S         -0.33574   0.21923   0.04243   0.04894  -0.00000
   7        3PX         0.03633  -0.00207   0.22843   0.06319   0.00000
   8        3PY        -0.03113   0.03368   0.03891   0.10327  -0.00000
   9        3PZ         0.00000  -0.00000   0.00000  -0.00000   0.27279
  10 2   C  1S          0.02066  -0.03349   0.06881  -0.02639  -0.00000
[...]
  58        3PX        -0.00113  -0.00000  -0.00240  -0.00407  -0.00040
  59        3PY        -0.00014   0.00000  -0.00354  -0.00197   0.00017
  60        3PZ         0.00000  -0.00040   0.00000   0.00000   0.00000
  61 10  H  1S          0.00000  -0.00000   0.00001   0.00004  -0.00000
  62        2S          0.00003  -0.00007   0.00057   0.00067   0.00009
  63 11  H  1S          0.00000  -0.00000   0.00001   0.00004  -0.00000
  64        2S          0.00003  -0.00007   0.00057   0.00067   0.00009
  65 12  H  1S         -0.00000  -0.00000  -0.00033  -0.00004  -0.00002
  66        2S         -0.00001  -0.00000  -0.00256  -0.00000  -0.00013
                          36        37        38        39        40
  36        3PZ         0.33330
  37 5   O  1S         -0.00000   2.05823
  38        2S          0.00000   0.01744   0.12570
  39        2PX         0.00000   0.00000   0.00000   0.41070
  40        2PY         0.00000   0.00000   0.00000   0.00000   0.37291
  41        2PZ         0.00735   0.00000   0.00000   0.00000   0.00000
  42        3S          0.00000  -0.09541   0.27772   0.00000   0.00000
  43        3PX        -0.00000   0.00000   0.00000   0.23016   0.00000
  44        3PY         0.00000   0.00000   0.00000   0.00000   0.20160
  45        3PZ         0.03144   0.00000   0.00000   0.00000   0.00000
  46 6   H  1S         -0.00000   0.00000  -0.00000  -0.00001  -0.00001
  47        2S         -0.00000   0.00018  -0.00079  -0.00048  -0.00030
  48 7   H  1S         -0.00000  -0.00000   0.00000   0.00000   0.00000
  49        2S         -0.00000  -0.00000   0.00000   0.00002   0.00003
  50 8   H  1S          0.00000   0.00000  -0.00000  -0.00000  -0.00001
  51        2S          0.00000   0.00019  -0.00078  -0.00011  -0.00060
  52 9   C  1S          0.00000   0.00000   0.00000   0.00000   0.00000
  53        2S         -0.00000  -0.00000   0.00000   0.00000  -0.00000
  54        2PX        -0.00000  -0.00000   0.00000   0.00000   0.00000
  55        2PY         0.00000  -0.00000   0.00000   0.00000  -0.00000
  56        2PZ        -0.00038  -0.00000   0.00000   0.00000  -0.00000
  57        3S          0.00000  -0.00000   0.00000   0.00001   0.00000
  58        3PX        -0.00000  -0.00000   0.00000   0.00004   0.00001
  59        3PY         0.00000   0.00000  -0.00000   0.00000   0.00000
  60        3PZ        -0.00368  -0.00000  -0.00000   0.00000  -0.00000
  61 10  H  1S         -0.00007   0.00000  -0.00000  -0.00000  -0.00000
  62        2S         -0.00124   0.00000  -0.00000  -0.00000  -0.00000
  63 11  H  1S         -0.00007   0.00000  -0.00000  -0.00000  -0.00000
  64        2S         -0.00124   0.00000  -0.00000  -0.00000  -0.00000
  65 12  H  1S         -0.00000  -0.00000  -0.00000   0.00000   0.00000
  66        2S         -0.00000   0.00000   0.00000  -0.00000   0.00000
                          41        42        43        44        45
  41        2PZ         0.47461
  42        3S          0.00000   1.42552
  43        3PX         0.00000   0.00000   0.52568
  44        3PY         0.00000   0.00000   0.00000   0.44291
  45        3PZ         0.27314   0.00000   0.00000   0.00000   0.63569
  46 6   H  1S          0.00000  -0.00099  -0.00090  -0.00101  -0.00000
  47        2S         -0.00000  -0.01054  -0.00399  -0.00220  -0.00000
  48 7   H  1S         -0.00000   0.00000   0.00000   0.00000  -0.00000
  49        2S         -0.00000   0.00015   0.00040   0.00056  -0.00000
  50 8   H  1S         -0.00000  -0.00098  -0.00039  -0.00142  -0.00000
  51        2S         -0.00000  -0.01056  -0.00053  -0.00497  -0.00000
  52 9   C  1S          0.00000  -0.00000  -0.00000  -0.00000  -0.00000
  53        2S          0.00000   0.00000   0.00000  -0.00000   0.00000
  54        2PX        -0.00000   0.00000   0.00000   0.00000   0.00000
  55        2PY         0.00000   0.00000   0.00000   0.00000   0.00000
  56        2PZ         0.00000   0.00000   0.00000  -0.00000   0.00000
  57        3S         -0.00000   0.00005   0.00042   0.00006  -0.00000
  58        3PX         0.00000   0.00011   0.00099   0.00016   0.00000
  59        3PY         0.00000  -0.00001   0.00011   0.00000   0.00000
  60        3PZ         0.00000   0.00000   0.00000  -0.00000   0.00004
  61 10  H  1S          0.00000  -0.00000  -0.00000  -0.00000   0.00000
  62        2S          0.00000  -0.00000  -0.00001  -0.00000   0.00001
  63 11  H  1S          0.00000  -0.00000  -0.00000  -0.00000   0.00000
  64        2S          0.00000  -0.00000  -0.00001  -0.00000   0.00001
  65 12  H  1S          0.00000   0.00000   0.00000   0.00000   0.00000
  66        2S          0.00000   0.00000  -0.00000   0.00000   0.00000
                          46        47        48        49        50
  46 6   H  1S          0.18383
  47        2S          0.06979   0.06912
  48 7   H  1S         -0.00000  -0.00002   0.17802
  49        2S          0.00003   0.00036   0.07289   0.07668
  50 8   H  1S         -0.00000  -0.00000  -0.00000  -0.00000   0.18273
  51        2S         -0.00000  -0.00002  -0.00000  -0.00002   0.06951
  52 9   C  1S          0.00000   0.00000   0.00000   0.00000   0.00000
  53        2S         -0.00000  -0.00000  -0.00000  -0.00001  -0.00000
  54        2PX        -0.00000  -0.00000  -0.00000   0.00002  -0.00000
  55        2PY        -0.00000  -0.00000  -0.00000   0.00001  -0.00000
  56        2PZ         0.00000   0.00000  -0.00000   0.00000   0.00000
  57        3S         -0.00000  -0.00000  -0.00002  -0.00001   0.00002
  58        3PX        -0.00000  -0.00001  -0.00001   0.00055   0.00005
  59        3PY        -0.00000  -0.00000   0.00002   0.00044   0.00002
  60        3PZ        -0.00000   0.00000  -0.00000   0.00000   0.00000
  61 10  H  1S         -0.00000  -0.00000  -0.00000  -0.00000  -0.00000
  62        2S         -0.00000  -0.00000   0.00002   0.00010   0.00000
  63 11  H  1S         -0.00000  -0.00000  -0.00000  -0.00000  -0.00000
  64        2S         -0.00000  -0.00000   0.00002   0.00011   0.00000
  65 12  H  1S          0.00000   0.00000   0.00000  -0.00000  -0.00000
  66        2S          0.00000   0.00000   0.00000  -0.00002   0.00002
                          51        52        53        54        55
  51        2S          0.06888
  52 9   C  1S          0.00000   2.03833
  53        2S         -0.00001   0.02293   0.09938
  54        2PX         0.00003   0.00000   0.00000   0.27880
  55        2PY         0.00002   0.00000   0.00000   0.00000   0.27819
  56        2PZ        -0.00000   0.00000   0.00000   0.00000   0.00000
  57        3S          0.00002  -0.08060   0.17455   0.00000   0.00000
  58        3PX         0.00061   0.00000   0.00000   0.08105   0.00000
  59        3PY         0.00074   0.00000   0.00000   0.00000   0.13308
  60        3PZ        -0.00000   0.00000   0.00000   0.00000   0.00000
  61 10  H  1S         -0.00000  -0.00076   0.00780   0.00594   0.01258
  62        2S         -0.00003   0.00140   0.00305   0.00542   0.00995
  63 11  H  1S         -0.00000  -0.00076   0.00780   0.00594   0.01259
  64        2S         -0.00003   0.00140   0.00305   0.00542   0.00996
  65 12  H  1S          0.00002  -0.00077   0.00785   0.00756   0.04761
  66        2S          0.00041   0.00129   0.00358   0.00663   0.03789
                          56        57        58        59        60
  56        2PZ         0.27780
  57        3S          0.00000   0.89196
  58        3PX         0.00000   0.00000   0.08966
  59        3PY         0.00000   0.00000   0.00000   0.23204
  60        3PZ         0.13009   0.00000   0.00000   0.00000   0.22026
  61 10  H  1S          0.03613   0.05701   0.00582   0.02112   0.05896
  62        2S          0.02931   0.03216   0.00761   0.02330   0.06742
  63 11  H  1S          0.03611   0.05701   0.00582   0.02114   0.05893
  64        2S          0.02930   0.03216   0.00761   0.02333   0.06739
  65 12  H  1S          0.00000   0.05783   0.00731   0.07881   0.00000
  66        2S          0.00000   0.03577   0.00925   0.08885   0.00000
                          61        62        63        64        65
  61 10  H  1S          0.17340
  62        2S          0.09494   0.14380
  63 11  H  1S         -0.00014  -0.00480   0.17340
  64        2S         -0.00480  -0.01678   0.09494   0.14379
  65 12  H  1S         -0.00013  -0.00417  -0.00013  -0.00417   0.17429
  66        2S         -0.00421  -0.01288  -0.00421  -0.01288   0.09388
                          66
  66        2S          0.13589
     Gross orbital populations:
                           1
   1 1   C  1S          1.98693
   2        2S          0.40229
   3        2PX         0.63751
   4        2PY         0.43641
   5        2PZ         0.44169
   6        3S          0.79541
   7        3PX         0.40287
   8        3PY         0.16319
   9        3PZ         0.60478
  10 2   C  1S          1.98821
  11        2S          0.38673
  12        2PX         0.58176
  13        2PY         0.57916
  14        2PZ         0.43892
  15        3S          0.91597
  16        3PX         0.26727
  17        3PY         0.50796
  18        3PZ         0.65039
  19 3   C  1S          1.98830
  20        2S          0.39110
  21        2PX         0.60330
  22        2PY         0.57643
  23        2PZ         0.43242
  24        3S          0.83630
  25        3PX         0.39217
  26        3PY         0.30218
  27        3PZ         0.62097
  28 4   C  1S          1.98696
  29        2S          0.39992
  30        2PX         0.45269
  31        2PY         0.61021
  32        2PZ         0.45910
  33        3S          0.77817
  34        3PX         0.13025
  35        3PY         0.41403
  36        3PZ         0.62543
  37 5   O  1S          1.98661
  38        2S          0.41581
  39        2PX         0.68270
  40        2PY         0.62843
  41        2PZ         0.76334
  42        3S          1.53649
  43        3PX         0.86208
  44        3PY         0.79112
  45        3PZ         0.96839
  46 6   H  1S          0.46901
  47        2S          0.26329
  48 7   H  1S          0.46216
  49        2S          0.28979
  50 8   H  1S          0.46786
  51        2S          0.26567
  52 9   C  1S          1.98839
  53        2S          0.35192
  54        2PX         0.54247
  55        2PY         0.53859
  56        2PZ         0.53675
  57        3S          1.16580
  58        3PX         0.31545
  59        3PY         0.58538
  60        3PZ         0.57796
  61 10  H  1S          0.45168
  62        2S          0.33160
  63 11  H  1S          0.45168
  64        2S          0.33161
  65 12  H  1S          0.45409
  66        2S          0.33649
          Condensed to atoms (all electrons):
               1          2          3          4          5          6
     1  C    4.996616   0.505686  -0.134588  -0.154438   0.283419   0.383254
     2  C    0.505686   5.320061   0.392244  -0.125853  -0.089078  -0.027025
     3  C   -0.134588   0.392244   5.459048   0.523421  -0.062414   0.001572
     4  C   -0.154438  -0.125853   0.523421   4.999331   0.259921   0.002679
     5  O    0.283419  -0.089078  -0.062414   0.259921   8.281243  -0.021043
     6  H    0.383254  -0.027025   0.001572   0.002679  -0.021043   0.392528
     7  H   -0.014857   0.382241  -0.020991   0.002379   0.001154   0.000372
     8  H    0.002801   0.001111  -0.029149   0.386471  -0.020184  -0.000017
     9  C    0.003075  -0.042179   0.184793  -0.033903   0.001987  -0.000022
    10  H    0.000094  -0.001654  -0.058689   0.000118  -0.000012  -0.000000
    11  H    0.000094  -0.001655  -0.058685   0.000120  -0.000012  -0.000000
    12  H   -0.000086   0.002480  -0.053392  -0.003482  -0.000001   0.000000
               7          8          9         10         11         12
     1  C   -0.014857   0.002801   0.003075   0.000094   0.000094  -0.000086
     2  C    0.382241   0.001111  -0.042179  -0.001654  -0.001655   0.002480
     3  C   -0.020991  -0.029149   0.184793  -0.058689  -0.058685  -0.053392
     4  C    0.002379   0.386471  -0.033903   0.000118   0.000120  -0.003482
     5  O    0.001154  -0.020184   0.001987  -0.000012  -0.000012  -0.000001
     6  H    0.000372  -0.000017  -0.000022  -0.000000  -0.000000   0.000000
     7  H    0.400471  -0.000020   0.000988   0.000119   0.000119  -0.000022
     8  H   -0.000020   0.390623   0.001492  -0.000031  -0.000031   0.000460
     9  C    0.000988   0.001492   5.328620   0.384199   0.384199   0.389460
    10  H    0.000119  -0.000031   0.384199   0.507066  -0.026536  -0.021389
    11  H    0.000119  -0.000031   0.384199  -0.026536   0.507066  -0.021389
    12  H   -0.000022   0.000460   0.389460  -0.021389  -0.021389   0.497932
 Mulliken charges:
               1
     1  C    0.128931
     2  C   -0.316379
     3  C   -0.143170
     4  C    0.143236
     5  O   -0.634982
     6  H    0.267700
     7  H    0.248046
     8  H    0.266475
     9  C   -0.602710
    10  H    0.216715
    11  H    0.216710
    12  H    0.209427
 Sum of Mulliken charges =  -0.00000
 Mulliken charges with hydrogens summed into heavy atoms:
               1
     1  C    0.396631
     2  C   -0.068332
     3  C   -0.143170
     4  C    0.409711
     5  O   -0.634982
     9  C    0.040142
 Electronic spatial extent (au):  <R**2>=            519.2737
 Charge=             -0.0000 electrons
 Dipole moment (field-independent basis, Debye):
    X=             -1.1641    Y=              0.7835    Z=              0.0000  Tot=              1.4032
 Quadrupole moment (field-independent basis, Debye-Ang):
   XX=            -34.4425   YY=            -31.8971   ZZ=            -39.2914
   XY=              3.1024   XZ=              0.0000   YZ=             -0.0001
 Traceless Quadrupole moment (field-independent basis, Debye-Ang):
   XX=              0.7678   YY=              3.3133   ZZ=             -4.0811
   XY=              3.1024   XZ=              0.0000   YZ=             -0.0001
 Octapole moment (field-independent basis, Debye-Ang**2):
  XXX=              7.8256  YYY=             -5.8390  ZZZ=              0.0005  XYY=              0.3297
  XXY=              7.5226  XXZ=              0.0001  XZZ=              0.6041  YZZ=             -1.3661
  YYZ=             -0.0004  XYZ=              0.0000
 Hexadecapole moment (field-independent basis, Debye-Ang**3):
 XXXX=           -425.6989 YYYY=           -163.9088 ZZZZ=            -46.0351 XXXY=             16.5892
 XXXZ=              0.0004 YYYX=             -1.6740 YYYZ=             -0.0006 ZZZX=             -0.0011
 ZZZY=             -0.0000 XXYY=           -103.7154 XXZZ=            -82.1265 YYZZ=            -44.1262
 XXYZ=              0.0002 YYXZ=              0.0012 ZZXY=             -4.8001
 N-N= 2.189129257252D+02 E-N=-1.059277643473D+03  KE= 2.650060134861D+02
 Orbital energies and kinetic energies (alpha):
                                 1                 2
   1         O               -20.521838         28.929160
   2         O               -11.243196         15.874912
   3         O               -11.234631         15.874439
   4         O               -11.189751         15.876877
   5         O               -11.182475         15.877352
   6         O               -11.179130         15.878224
   7         O                -1.437939          2.488646
   8         O                -1.098538          1.656345
   9         O                -1.007711          1.633127
  10         O                -0.940639          1.548945
  11         O                -0.787400          1.518299
  12         O                -0.763072          1.385903
  13         O                -0.702555          1.399471
  14         O                -0.617060          1.472272
  15         O                -0.596023          1.380549
  16         O                -0.585857          1.226017
  17         O                -0.564309          1.105984
  18         O                -0.561117          1.519238
  19         O                -0.536588          1.853775
  20         O                -0.497970          1.448614
  21         O                -0.378847          1.413881
  22         O                -0.314521          1.140977
  23         V                 0.164696          1.573048
  24         V                 0.230108          1.226327
  25         V                 0.281257          1.087697
  26         V                 0.295106          1.043018
  27         V                 0.309303          1.024088
  28         V                 0.318435          1.417437
  29         V                 0.333591          1.042232
  30         V                 0.365735          1.047133
  31         V                 0.395275          1.702135
  32         V                 0.410367          1.884016
  33         V                 0.473733          1.802422
  34         V                 0.560857          1.752554
  35         V                 0.639390          1.786707
  36         V                 0.692752          2.722023
  37         V                 0.897999          2.435604
  38         V                 0.932613          2.907597
  39         V                 0.947156          2.425048
  40         V                 0.966688          2.488732
  41         V                 0.995145          2.429246
  42         V                 1.047668          2.611610
  43         V                 1.067560          2.667953
  44         V                 1.070984          2.874728
  45         V                 1.091026          2.654522
  46         V                 1.149199          2.958939
  47         V                 1.174713          2.747229
  48         V                 1.192453          2.749036
  49         V                 1.200145          2.889312
  50         V                 1.282518          3.405836
  51         V                 1.303927          3.047080
  52         V                 1.319526          2.860602
  53         V                 1.339753          2.865442
  54         V                 1.365906          3.101470
  55         V                 1.474134          2.810716
  56         V                 1.512693          3.100769
  57         V                 1.626835          2.854368
  58         V                 1.730409          3.095170
  59         V                 1.841632          3.339324
  60         V                 1.872455          5.098863
  61         V                 1.919861          3.396308
  62         V                 2.080827          4.833074
  63         V                 2.231550          3.478504
  64         V                 2.278173          3.711678
  65         V                 2.482936          4.852220
  66         V                 3.542080          6.826931
 Total kinetic energy from orbitals= 2.650060134861D+02
 1\1\GINC-IISERK51\SP\RHF\3-21G*\C5H6O1\GAUSSIAN\14-Jun-2025\0\\# hf/3-
 21g* pop=full geom=connectivity\\methyl_furan sp with HF3-21G*\\0,1\C,
 0,1.468233,0.685974,-0.000003\C,0,0.172836,1.156573,0.000006\C,0,-0.69
 3584,-0.008679,-0.000001\C,0,0.13842,-1.112756,-0.000002\O,0,1.473556,
 -0.709684,-0.000001\H,0,2.454773,1.138694,0.00001\H,0,-0.16251,2.18917
 8,-0.000014\H,0,-0.009181,-2.187799,0.000017\C,0,-2.156159,0.019222,0.
 \H,0,-2.535979,0.555614,0.906219\H,0,-2.535973,0.555969,-0.906015\H,0,
 -2.57805,-1.016187,-0.000205\\Version=EM64L-G16RevB.01\State=1-A\HF=-2
 66.1640565\RMSD=6.956e-09\Dipole=-0.4579922,0.3082399,0.0000089\Quadru
 pole=0.5708487,2.4633506,-3.0341993,2.3065774,0.0000256,-0.0000612\PG=
 C01 [X(C5H6O1)]\\@


 THE GREAT THING ABOUT BEING IMPERFECT IS THE JOY IT BRINGS OTHERS.
   -- SIGN OUTSIDE LAKE AGASSIZ JR. HIGH SCHOOL, FARGO, N.D.
 Job cpu time:       0 days  0 hours  0 minutes  0.8 seconds.
 Elapsed time:       0 days  0 hours  0 minutes  0.8 seconds.
 File lengths (MBytes):  RWF=      6 Int=      0 D2E=      0 Chk=      1 Scr=      1
 Normal termination of Gaussian 16 at Sat Jun 14 14:35:22 2025.
