 Entering Gaussian System, Link 0=g16
 Input=/home/gaussian/Documents/Summer_Internship/Aromaticity/hetrocyclic/furan/meth_furan_opt.com
 Output=/home/gaussian/Documents/Summer_Internship/Aromaticity/hetrocyclic/furan/meth_furan_opt.log
 Initial command:
 /usr/local/g16/l1.exe "/home/gaussian/tmp/Gau-46934.inp" -scrdir="/home/gaussian/tmp/"
 Entering Link 1 = /usr/local/g16/l1.exe PID=     46937.
  
 Copyright (c) 1988-2017, Gaussian, Inc.  All Rights Reserved.
  
 This is part of the Gaussian(R) 16 program.  It is based on
 the Gaussian(R) 09 system (copyright 2009, Gaussian, Inc.),
 the Gaussian(R) 03 system (copyright 2003, Gaussian, Inc.),
 the Gaussian(R) 98 system (copyright 1998, Gaussian, Inc.),
 the Gaussian(R) 94 system (copyright 1995, Gaussian, Inc.),
 the Gaussian 92(TM) system (copyright 1992, Gaussian, Inc.),
 the Gaussian 90(TM) system (copyright 1990, Gaussian, Inc.),
 the Gaussian 88(TM) system (copyright 1988, Gaussian, Inc.),
 the Gaussian 86(TM) system (copyright 1986, Carnegie Mellon
 University), and the Gaussian 82(TM) system (copyright 1983,
 Carnegie Mellon University). Gaussian is a federally registered
 trademark of Gaussian, Inc.
  
 This software contains proprietary and confidential information,
 including trade secrets, belonging to Gaussian, Inc.
  
 This software is provided under written license and may be
 used, copied, transmitted, or stored only in accord with that
 written license.
  
 The following legend is applicable only to US Government
 contracts under FAR:
  
                    RESTRICTED RIGHTS LEGEND
  
 Use, reproduction and disclosure by the US Government is
 subject to restrictions as set forth in subparagraphs (a)
 and (c) of the Commercial Computer Software - Restricted
 Rights clause in FAR 52.227-19.
  
 Gaussian, Inc.
 340 Quinnipiac St., Bldg. 40, Wallingford CT 06492
  
  
 ---------------------------------------------------------------
 Warning -- This program may not be used in any manner that
 competes with the business of Gaussian, Inc. or will provide
 assistance to any competitor of Gaussian, Inc.  The licensee
 of this program is prohibited from giving any competitor of
 Gaussian, Inc. access to this program.  By using this program,
 the user acknowledges that Gaussian, Inc. is engaged in the
 business of creating and licensing software in the field of
 computational chemistry and represents and warrants to the
 licensee that it is not a competitor of Gaussian, Inc. and that
 it will not use this program in any manner prohibited above.
 ---------------------------------------------------------------
  

 Cite this work as:
 Gaussian 16, Revision B.01,
 M. J. Frisch, G. W. Trucks, H. B. Schlegel, G. E. Scuseria, 
 M. A. Robb, J. R. Cheeseman, G. Scalmani, V. Barone, 
 G. A. Petersson, H. Nakatsuji, X. Li, M. Caricato, A. V. Marenich, 
 J. Bloino, B. G. Janesko, R. Gomperts, B. Mennucci, H. P. Hratchian, 
 J. V. Ortiz, A. F. Izmaylov, J. L. Sonnenberg, D. Williams-Young, 
 F. Ding, F. Lipparini, F. Egidi, J. Goings, B. Peng, A. Petrone, 
 T. Henderson, D. Ranasinghe, V. G. Zakrzewski, J. Gao, N. Rega, 
 G. Zheng, W. Liang, M. Hada, M. Ehara, K. Toyota, R. Fukuda, 
 J. Hasegawa, M. Ishida, T. Nakajima, Y. Honda, O. Kitao, H. Nakai, 
 T. Vreven, K. Throssell, J. A. Montgomery, Jr., J. E. Peralta, 
 F. Ogliaro, M. J. Bearpark, J. J. Heyd, E. N. Brothers, K. N. Kudin, 
 V. N. Staroverov, T. A. Keith, R. Kobayashi, J. Normand, 
 K. Raghavachari, A. P. Rendell, J. C. Burant, S. S. Iyengar, 
 J. Tomasi, M. Cossi, J. M. Millam, M. Klene, C. Adamo, R. Cammi, 
 J. W. Ochterski, R. L. Martin, K. Morokuma, O. Farkas, 
 J. B. Foresman, and D. J. Fox, Gaussian, Inc., Wallingford CT, 2016.
 
 ******************************************
 Gaussian 16:  EM64L-G16RevB.01 20-Dec-2017
                14-Jun-2025 
 ******************************************
 %chk=meth_furan_opt.chk
 -----------------------------------------
 # opt freq am1 pop=full geom=connectivity
 -----------------------------------------
 1/18=20,19=15,26=1,38=1,57=2/1,3;
 2/9=110,12=2,17=6,18=5,40=1/2;
 3/5=2,25=1,41=700000,71=1/1,2,3;
 4/35=1/1;
 5/5=2,35=1,38=5/2;
 6/7=3,28=1/1;
 7//1,2,3,16;
 1/18=20,19=15,26=1/3(2);
 2/9=110/2;
 99//99;
 2/9=110/2;
 3/5=2,25=1,41=700000,71=1,135=20/1,2,3;
 4/5=5,16=3,35=1/1;
 5/5=2,35=1,38=5/2;
 7//1,2,3,16;
 1/18=20,19=15,26=1/3(-5);
 2/9=110/2;
 6/7=3,19=2,28=1/1;
 99/9=1/99;
 ------------------------------
 methyl_furan opt freq with AM1
 ------------------------------
 Symbolic Z-matrix:
 Charge =  0 Multiplicity = 1
 C                    -0.04871   1.06629  -0.04161 
 C                     1.29581   1.04901  -0.09981 
 C                     1.74644   2.48388  -0.00184 
 C                     0.63021   3.22813   0.10561 
 O                    -0.56742   2.42532  -0.09435 
 H                    -0.65941   0.19113   0.03604 
 H                     1.92207   0.18573  -0.18611 
 H                     0.62392   4.27759   0.31415 
 C                     3.19878   2.99602  -0.00719 
 H                     3.56876   3.02979   0.99624 
 H                     3.80743   2.33641  -0.58974 
 H                     3.22924   3.9777   -0.43179 
 

 GradGradGradGradGradGradGradGradGradGradGradGradGradGradGradGradGradGrad
 Berny optimization.
 Initialization pass.
                           ----------------------------
                           !    Initial Parameters    !
                           ! (Angstroms and Degrees)  !
 --------------------------                            --------------------------
 ! Name  Definition              Value          Derivative Info.                !
 --------------------------------------------------------------------------------
 ! R1    R(1,2)                  1.3459         estimate D2E/DX2                !
 ! R2    R(1,5)                  1.4556         estimate D2E/DX2                !
 ! R3    R(1,6)                  1.07           estimate D2E/DX2                !
 ! R4    R(2,3)                  1.5072         estimate D2E/DX2                !
 ! R5    R(2,7)                  1.07           estimate D2E/DX2                !
 ! R6    R(3,4)                  1.3459         estimate D2E/DX2                !
 ! R7    R(3,9)                  1.54           estimate D2E/DX2                !
 ! R8    R(4,5)                  1.4556         estimate D2E/DX2                !
 ! R9    R(4,8)                  1.07           estimate D2E/DX2                !
 ! R10   R(9,10)                 1.07           estimate D2E/DX2                !
 ! R11   R(9,11)                 1.07           estimate D2E/DX2                !
 ! R12   R(9,12)                 1.07           estimate D2E/DX2                !
 ! A1    A(2,1,5)              111.4945         estimate D2E/DX2                !
 ! A2    A(2,1,6)              124.25           estimate D2E/DX2                !
 ! A3    A(5,1,6)              124.2554         estimate D2E/DX2                !
 ! A4    A(1,2,3)              106.4783         estimate D2E/DX2                !
 ! A5    A(1,2,7)              126.7657         estimate D2E/DX2                !
 ! A6    A(3,2,7)              126.7519         estimate D2E/DX2                !
 ! A7    A(2,3,4)              106.4794         estimate D2E/DX2                !
 ! A8    A(2,3,9)              126.7523         estimate D2E/DX2                !
 ! A9    A(4,3,9)              126.7649         estimate D2E/DX2                !
 ! A10   A(3,4,5)              111.4952         estimate D2E/DX2                !
 ! A11   A(3,4,8)              124.2497         estimate D2E/DX2                !
 ! A12   A(5,4,8)              124.255          estimate D2E/DX2                !
 ! A13   A(1,5,4)              102.5189         estimate D2E/DX2                !
 ! A14   A(3,9,10)             109.4712         estimate D2E/DX2                !
 ! A15   A(3,9,11)             109.4712         estimate D2E/DX2                !
 ! A16   A(3,9,12)             109.4712         estimate D2E/DX2                !
 ! A17   A(10,9,11)            109.4712         estimate D2E/DX2                !
 ! A18   A(10,9,12)            109.4712         estimate D2E/DX2                !
 ! A19   A(11,9,12)            109.4712         estimate D2E/DX2                !
 ! D1    D(5,1,2,3)              7.8381         estimate D2E/DX2                !
 ! D2    D(5,1,2,7)           -172.8647         estimate D2E/DX2                !
 ! D3    D(6,1,2,3)           -172.0259         estimate D2E/DX2                !
 ! D4    D(6,1,2,7)              7.2713         estimate D2E/DX2                !
 ! D5    D(2,1,5,4)            -12.0461         estimate D2E/DX2                !
 ! D6    D(6,1,5,4)            167.8178         estimate D2E/DX2                !
 ! D7    D(1,2,3,4)             -0.0173         estimate D2E/DX2                !
 ! D8    D(1,2,3,9)            179.3415         estimate D2E/DX2                !
 ! D9    D(7,2,3,4)           -179.3146         estimate D2E/DX2                !
 ! D10   D(7,2,3,9)              0.0442         estimate D2E/DX2                !
 ! D11   D(2,3,4,5)             -7.81           estimate D2E/DX2                !
 ! D12   D(2,3,4,8)            172.0536         estimate D2E/DX2                !
 ! D13   D(9,3,4,5)            172.8313         estimate D2E/DX2                !
 ! D14   D(9,3,4,8)             -7.305          estimate D2E/DX2                !
 ! D15   D(2,3,9,10)           -89.6162         estimate D2E/DX2                !
 ! D16   D(2,3,9,11)            30.3838         estimate D2E/DX2                !
 ! D17   D(2,3,9,12)           150.3838         estimate D2E/DX2                !
 ! D18   D(4,3,9,10)            89.6162         estimate D2E/DX2                !
 ! D19   D(4,3,9,11)          -150.3838         estimate D2E/DX2                !
 ! D20   D(4,3,9,12)           -30.3838         estimate D2E/DX2                !
 ! D21   D(3,4,5,1)             12.0343         estimate D2E/DX2                !
 ! D22   D(8,4,5,1)           -167.8293         estimate D2E/DX2                !
 --------------------------------------------------------------------------------
 Trust Radius=3.00D-01 FncErr=1.00D-07 GrdErr=1.00D-07 EigMax=2.50D+02 EigMin=1.00D-04
 Number of steps in this run=     63 maximum allowed number of steps=    100.
 GradGradGradGradGradGradGradGradGradGradGradGradGradGradGradGradGradGrad

                          Input orientation:                          
 ---------------------------------------------------------------------
 Center     Atomic      Atomic             Coordinates (Angstroms)
 Number     Number       Type             X           Y           Z
 ---------------------------------------------------------------------
      1          6           0       -0.048707    1.066289   -0.041605
      2          6           0        1.295808    1.049006   -0.099812
      3          6           0        1.746440    2.483884   -0.001840
      4          6           0        0.630213    3.228128    0.105613
      5          8           0       -0.567417    2.425319   -0.094349
      6          1           0       -0.659411    0.191125    0.036040
      7          1           0        1.922070    0.185727   -0.186106
      8          1           0        0.623922    4.277592    0.314146
      9          6           0        3.198778    2.996024   -0.007189
     10          1           0        3.568760    3.029793    0.996242
     11          1           0        3.807426    2.336415   -0.589738
     12          1           0        3.229240    3.977700   -0.431786
 ---------------------------------------------------------------------
                    Distance matrix (angstroms):
                    1          2          3          4          5
     1  C    0.000000
     2  C    1.345885   0.000000
     3  C    2.287731   1.507165   0.000000
     4  C    2.270717   2.287748   1.345886   0.000000
     5  O    1.455611   2.316436   2.316446   1.455611   0.000000
     6  H    1.070000   2.139462   3.323598   3.300206   2.239885
     7  H    2.163384   1.070000   2.312212   3.318162   3.349886
     8  H    3.300221   3.323637   2.139459   1.070000   2.239882
     9  C    3.777727   2.724106   1.540000   2.581497   3.810187
    10  H    4.244826   3.207985   2.148263   3.076949   4.320039
    11  H    4.096759   2.864555   2.148263   3.372440   4.403699
    12  H    4.401533   3.524999   2.148263   2.757825   4.115623
                    6          7          8          9         10
     6  H    0.000000
     7  H    2.591027   0.000000
     8  H    4.292260   4.321898   0.000000
     9  C    4.770215   3.091886   2.894056   0.000000
    10  H    5.182418   3.492599   3.270219   1.070000   0.000000
    11  H    4.994647   2.888415   3.836649   1.070000   1.747303
    12  H    5.447809   4.018471   2.726542   1.070000   1.747303
                   11         12
    11  H    0.000000
    12  H    1.747303   0.000000
 Stoichiometry    C5H6O
 Framework group  C1[X(C5H6O)]
 Deg. of freedom    30
 Full point group                 C1      NOp   1
 Largest Abelian subgroup         C1      NOp   1
 Largest concise Abelian subgroup C1      NOp   1
                         Standard orientation:                         
 ---------------------------------------------------------------------
 Center     Atomic      Atomic             Coordinates (Angstroms)
 Number     Number       Type             X           Y           Z
 ---------------------------------------------------------------------
      1          6           0        1.510235    0.654943    0.041939
      2          6           0        0.268796    1.172523   -0.006506
      3          6           0       -0.682550    0.003636    0.007227
      4          6           0        0.076927   -1.106128    0.062241
      5          8           0        1.489791   -0.793938   -0.096372
      6          1           0        2.400156    1.235380    0.168558
      7          1           0        0.008119    2.209855   -0.036324
      8          1           0       -0.309173   -2.093520    0.206758
      9          6           0       -2.220995    0.067301   -0.019846
     10          1           0       -2.593712    0.114228    0.982043
     11          1           0       -2.532513    0.938414   -0.557450
     12          1           0       -2.605682   -0.806504   -0.502941
 ---------------------------------------------------------------------
 Rotational constants (GHZ):           8.3382238           3.2370402           2.3718775
 Standard basis: VSTO-6G (5D, 7F)
 There are    30 symmetry adapted cartesian basis functions of A   symmetry.
 There are    30 symmetry adapted basis functions of A   symmetry.
    30 basis functions,   180 primitive gaussians,    30 cartesian basis functions
    16 alpha electrons       16 beta electrons
       nuclear repulsion energy       136.4501013655 Hartrees.
 Integral buffers will be    131072 words long.
 Regular integral format.
 Two-electron integral symmetry is turned off.
 Do NDO integrals.
 One-electron integrals computed using PRISM.
 NBasis=    30 RedAO= F EigKep=  0.00D+00  NBF=    30
 NBsUse=    30 1.00D-04 EigRej=  0.00D+00 NBFU=    30
 Simple Huckel Guess.
 Keep J ints in memory in canonical form, NReq=861564.
 Overlap will be assumed to be unity.
 Requested convergence on RMS density matrix=1.00D-08 within 128 cycles.
 Requested convergence on MAX density matrix=1.00D-06.
 Requested convergence on             energy=1.00D-06.
 No special actions if energy rises.
 SCF Done:  E(RAM1) =  0.236002517233E-01 A.U. after   13 cycles
            NFock= 12  Conv=0.97D-08     -V/T= 1.0004

 **********************************************************************

            Population analysis using the SCF Density.

 **********************************************************************

 Orbital symmetries:
       Occupied  (A) (A) (A) (A) (A) (A) (A) (A) (A) (A) (A) (A)
                 (A) (A) (A) (A)
       Virtual   (A) (A) (A) (A) (A) (A) (A) (A) (A) (A) (A) (A)
                 (A) (A)
 The electronic state is 1-A.
 Alpha  occ. eigenvalues --   -1.48473  -1.25296  -1.13636  -1.01971  -0.80943
 Alpha  occ. eigenvalues --   -0.75637  -0.64984  -0.56989  -0.56084  -0.53123
 Alpha  occ. eigenvalues --   -0.51662  -0.50596  -0.48672  -0.46049  -0.38373
 Alpha  occ. eigenvalues --   -0.34656
 Alpha virt. eigenvalues --    0.02594   0.05982   0.08641   0.13149   0.13497
 Alpha virt. eigenvalues --    0.15382   0.16602   0.16956   0.17083   0.18212
 Alpha virt. eigenvalues --    0.18378   0.19289   0.20787   0.21161
     Molecular Orbital Coefficients:
                           1         2         3         4         5
                           O         O         O         O         O
     Eigenvalues --    -1.48473  -1.25296  -1.13636  -1.01971  -0.80943
   1 1   C  1S          0.36975   0.02002   0.45916   0.22887   0.45209
   2        1PX        -0.11122   0.08586  -0.12117   0.06820   0.20976
   3        1PY        -0.11531  -0.14839   0.14509  -0.03741  -0.00965
   4        1PZ        -0.01235  -0.00975   0.00021  -0.00987   0.01967
   5 2   C  1S          0.32196  -0.26832   0.47755   0.03365  -0.37752
   6        1PX         0.04526   0.06772   0.17275   0.06434   0.28659
   7        1PY        -0.12216   0.05321  -0.00735   0.06591  -0.06613
   8        1PZ         0.00290  -0.00305   0.00685  -0.00228   0.01438
   9 3   C  1S          0.34242  -0.46818  -0.13137  -0.17153  -0.11691
  10        1PX         0.11332   0.05508   0.15428  -0.25193  -0.04002
  11        1PY        -0.02415  -0.00384   0.15298   0.17784  -0.32387
  12        1PZ         0.00162  -0.00275  -0.00071  -0.01172   0.01947
  13 4   C  1S          0.37698  -0.12484  -0.25774  -0.49747   0.23406
  14        1PX         0.08507   0.21527  -0.00872   0.06149  -0.17767
  15        1PY         0.13394  -0.07614   0.02661  -0.04373  -0.06002
  16        1PZ        -0.01530  -0.00891   0.00932  -0.00077   0.03151
  17 5   O  1S          0.58779   0.58332  -0.28663   0.22338  -0.21173
  18        1PX        -0.13892  -0.00740   0.06613   0.19248   0.04286
  19        1PY         0.11306   0.03271   0.13241   0.12882   0.24076
  20        1PZ         0.02424   0.01074  -0.00119  -0.00858   0.03681
  21 6   H  1S          0.08441   0.00366   0.17271   0.11027   0.30283
  22 7   H  1S          0.07653  -0.09234   0.16750   0.03848  -0.24479
  23 8   H  1S          0.08763  -0.05361  -0.11256  -0.19355   0.17363
  24 9   C  1S          0.11257  -0.41317  -0.35904   0.50262   0.05733
  25        1PX         0.04969  -0.08848  -0.02163  -0.07157  -0.05747
  26        1PY        -0.00412   0.00512   0.02575   0.03197  -0.08896
  27        1PZ         0.00080  -0.00204  -0.00111  -0.00211   0.00448
  28 10  H  1S          0.03877  -0.15122  -0.13980   0.21685   0.03612
  29 11  H  1S          0.03881  -0.15161  -0.12834   0.22947  -0.01400
  30 12  H  1S          0.04046  -0.15268  -0.15170   0.20211   0.08139
                           6         7         8         9        10
                           O         O         O         O         O
     Eigenvalues --    -0.75637  -0.64984  -0.56989  -0.56084  -0.53123
   1 1   C  1S         -0.00989   0.00538   0.01779  -0.10147   0.05872
   2        1PX         0.09998   0.30414   0.07146  -0.22501   0.16704
   3        1PY        -0.31610   0.16319  -0.05024  -0.38280  -0.16690
   4        1PZ        -0.02733   0.01862   0.33524  -0.04807  -0.04708
   5 2   C  1S         -0.17182   0.08311  -0.01747   0.16662  -0.02786
   6        1PX        -0.19370  -0.12937  -0.10640  -0.02437  -0.22328
   7        1PY        -0.23290   0.29421  -0.04602   0.13882  -0.06469
   8        1PZ        -0.00891   0.00012   0.23540  -0.00199  -0.07817
   9 3   C  1S          0.38615   0.14939   0.02387  -0.20518  -0.02540
  10        1PX         0.01698  -0.22356  -0.00341   0.10160  -0.00865
  11        1PY         0.02356  -0.03811   0.13476  -0.06481   0.27922
  12        1PZ        -0.00023   0.01340   0.28609   0.06291  -0.13987
  13 4   C  1S         -0.26447   0.03087   0.00840   0.08614   0.10566
  14        1PX        -0.23370  -0.28699   0.11458  -0.26716   0.08208
  15        1PY         0.30205  -0.24299  -0.01790  -0.21421  -0.25964
  16        1PZ        -0.00362   0.04010   0.34984   0.11751  -0.04404
  17 5   O  1S          0.02222   0.21285  -0.03911  -0.02069  -0.11054
  18        1PX         0.26396   0.45510  -0.00072   0.24101  -0.08866
  19        1PY         0.36804  -0.19995  -0.03833   0.40874   0.18576
  20        1PZ        -0.01903  -0.03050   0.66336   0.07024  -0.01297
  21 6   H  1S         -0.04989   0.22111   0.06242  -0.34573   0.08455
  22 7   H  1S         -0.17975   0.24620  -0.02530   0.20127  -0.01085
  23 8   H  1S         -0.24511   0.21868   0.02009   0.27309   0.22780
  24 9   C  1S         -0.14544  -0.09546  -0.00051   0.00672  -0.00489
  25        1PX         0.20925   0.24632   0.02021  -0.21595   0.02907
  26        1PY         0.00138  -0.03781   0.11960  -0.09339   0.48739
  27        1PZ         0.00457   0.00844   0.23784   0.04514  -0.27031
  28 10  H  1S         -0.10764  -0.10050   0.16716   0.08944  -0.19577
  29 11  H  1S         -0.10493  -0.11518  -0.02110  -0.02201   0.41934
  30 12  H  1S         -0.11698  -0.08418  -0.16235   0.11165  -0.22929
                          11        12        13        14        15
                           O         O         O         O         O
     Eigenvalues --    -0.51662  -0.50596  -0.48672  -0.46049  -0.38373
   1 1   C  1S          0.02533  -0.03618  -0.06331   0.02740  -0.00211
   2        1PX        -0.04149   0.39090   0.09379   0.23531  -0.01605
   3        1PY         0.02575  -0.10450   0.16377  -0.05556  -0.02218
   4        1PZ        -0.16747  -0.03230   0.04062  -0.02568   0.30694
   5 2   C  1S         -0.01561  -0.01851   0.02918   0.04746  -0.00813
   6        1PX         0.03228  -0.29045  -0.05569  -0.36000  -0.03733
   7        1PY        -0.11595   0.41853  -0.17005  -0.28267   0.02147
   8        1PZ        -0.03253  -0.03838   0.02934  -0.03751   0.59973
   9 3   C  1S          0.00127  -0.04437  -0.02414   0.01643  -0.01231
  10        1PX        -0.02807   0.15332   0.50702   0.16882  -0.02114
  11        1PY         0.09430  -0.13609  -0.06484   0.40493   0.03173
  12        1PZ         0.13467   0.01862   0.02298  -0.03860   0.43418
  13 4   C  1S          0.01723   0.08768   0.02019  -0.01076  -0.00485
  14        1PX        -0.02657   0.08969  -0.22981   0.14351  -0.00147
  15        1PY        -0.12808   0.29661   0.15810  -0.25019  -0.00002
  16        1PZ        -0.04689  -0.06389   0.02178  -0.02684   0.13046
  17 5   O  1S          0.00716  -0.09246   0.11267  -0.05723   0.00918
  18        1PX         0.00506  -0.24034   0.38316  -0.03530  -0.08131
  19        1PY         0.00526   0.21846  -0.25388  -0.00780   0.06812
  20        1PZ        -0.40914  -0.07442  -0.03236  -0.08363  -0.51429
  21 6   H  1S         -0.01536   0.21121   0.09117   0.17894   0.01089
  22 7   H  1S         -0.10364   0.37949  -0.10457  -0.12861   0.01216
  23 8   H  1S          0.10493  -0.19330  -0.05644   0.17420   0.01875
  24 9   C  1S          0.00006  -0.00625  -0.02287  -0.01496   0.00216
  25        1PX         0.02586  -0.17147  -0.47255  -0.14154   0.01218
  26        1PY         0.23447   0.01039   0.18507  -0.38939  -0.00736
  27        1PZ         0.56559   0.14149  -0.05838   0.04798  -0.14961
  28 10  H  1S          0.43826   0.15798   0.08751   0.06166  -0.15971
  29 11  H  1S         -0.08451  -0.00670   0.25834  -0.28411   0.07252
  30 12  H  1S         -0.37613  -0.01765   0.02435   0.31548   0.08046
                          16        17        18        19        20
                           O         V         V         V         V
     Eigenvalues --    -0.34656   0.02594   0.05982   0.08641   0.13149
   1 1   C  1S         -0.00905  -0.02155  -0.02130   0.28569   0.32100
   2        1PX         0.04728  -0.05220   0.03578   0.12428   0.04458
   3        1PY         0.07520  -0.01307   0.07377  -0.36008   0.03260
   4        1PZ        -0.51819   0.55220  -0.41002   0.01680   0.01076
   5 2   C  1S         -0.01252  -0.00704  -0.00900  -0.04412  -0.34837
   6        1PX         0.01586   0.01020   0.01188   0.00287   0.10907
   7        1PY        -0.00325  -0.00295   0.03206  -0.03362   0.17024
   8        1PZ        -0.32444  -0.36981   0.57130  -0.00831  -0.00499
   9 3   C  1S          0.01024  -0.01056   0.00833  -0.08401   0.44083
  10        1PX        -0.00573   0.00257   0.02417   0.04963  -0.06776
  11        1PY         0.02986  -0.01596   0.01166  -0.01092   0.15973
  12        1PZ         0.45965  -0.37454  -0.55468  -0.00269  -0.01032
  13 4   C  1S          0.00661  -0.01946   0.02428   0.29766  -0.22546
  14        1PX         0.07253   0.00898   0.07089   0.37155   0.02882
  15        1PY         0.07473   0.06232   0.05284  -0.03423  -0.00166
  16        1PZ         0.59451   0.55611   0.38823   0.00884   0.01008
  17 5   O  1S          0.00183   0.02010  -0.00095  -0.20077  -0.00604
  18        1PX        -0.02789  -0.03462   0.03447   0.40173  -0.10791
  19        1PY        -0.01498   0.02626   0.03855  -0.32578  -0.14474
  20        1PZ        -0.06173  -0.29478   0.00485  -0.11586  -0.00596
  21 6   H  1S          0.02053   0.03397  -0.01393  -0.28810  -0.36273
  22 7   H  1S         -0.01254   0.01222  -0.01370   0.12751   0.20253
  23 8   H  1S         -0.01677   0.03324   0.01118  -0.29156   0.21928
  24 9   C  1S          0.00532   0.00641   0.00727   0.07151  -0.19525
  25        1PX         0.01562   0.01338   0.01480   0.14569  -0.37594
  26        1PY        -0.01233  -0.00470   0.00055  -0.00849   0.09378
  27        1PZ        -0.10408  -0.01317  -0.05132  -0.00110  -0.01022
  28 10  H  1S         -0.12900   0.07346   0.12360  -0.00587   0.03209
  29 11  H  1S          0.05470  -0.03795  -0.07026  -0.01761  -0.04321
  30 12  H  1S          0.06793  -0.04103  -0.05623  -0.00463   0.10313
                          21        22        23        24        25
                           V         V         V         V         V
     Eigenvalues --     0.13497   0.15382   0.16602   0.16956   0.17083
   1 1   C  1S         -0.16416  -0.00797  -0.07944  -0.33428  -0.09166
   2        1PX         0.13190   0.05988  -0.30733  -0.04948  -0.01409
   3        1PY         0.23408  -0.09592  -0.16997  -0.15489  -0.03150
   4        1PZ         0.07578  -0.02111  -0.05581   0.00619  -0.01106
   5 2   C  1S         -0.05770  -0.12424  -0.23975  -0.03252  -0.00308
   6        1PX         0.35665   0.10796   0.02995   0.41578   0.10566
   7        1PY         0.26903  -0.16679  -0.22048  -0.02843  -0.00447
   8        1PZ        -0.03873   0.01707   0.02226  -0.00605   0.04327
   9 3   C  1S         -0.01625  -0.06797  -0.03843   0.32303   0.09636
  10        1PX         0.23842   0.42141   0.01731  -0.03183  -0.03145
  11        1PY         0.43438  -0.14350   0.02606   0.03064   0.00008
  12        1PZ         0.02719   0.01712  -0.01428   0.05482  -0.14132
  13 4   C  1S          0.17958  -0.34955   0.02017   0.01394   0.01143
  14        1PX         0.14314   0.12023  -0.10165   0.31336   0.11096
  15        1PY         0.22664   0.15395  -0.03429  -0.20686  -0.04374
  16        1PZ        -0.08371  -0.03514   0.01553  -0.03268   0.05869
  17 5   O  1S          0.00606  -0.01608  -0.00999  -0.04331  -0.01411
  18        1PX         0.21798  -0.03985  -0.00735   0.17194   0.06132
  19        1PY         0.27420  -0.10918  -0.10337   0.12748   0.04370
  20        1PZ         0.00049   0.00422   0.00341  -0.01693  -0.01713
  21 6   H  1S         -0.09862   0.00686   0.36382   0.34670   0.09104
  22 7   H  1S         -0.12835   0.29732   0.39993   0.14675   0.02743
  23 8   H  1S          0.11596   0.46580  -0.07415  -0.08572  -0.02376
  24 9   C  1S          0.06593   0.10523   0.00094  -0.09698  -0.02085
  25        1PX         0.21994   0.39680   0.06236  -0.21781  -0.10390
  26        1PY         0.20323  -0.18544   0.45487  -0.22618  -0.06968
  27        1PZ         0.01495   0.02624   0.01785  -0.19798   0.66705
  28 10  H  1S         -0.00177   0.03228  -0.01334   0.17113  -0.55319
  29 11  H  1S         -0.16719   0.18831  -0.31295   0.09051   0.33035
  30 12  H  1S          0.22017  -0.08678   0.35644  -0.23175   0.19291
                          26        27        28        29        30
                           V         V         V         V         V
     Eigenvalues --     0.18212   0.18378   0.19289   0.20787   0.21161
   1 1   C  1S          0.04259  -0.10218  -0.09832   0.09820   0.06085
   2        1PX        -0.00593   0.22413   0.46320  -0.22913  -0.22971
   3        1PY         0.14179  -0.32187   0.12378  -0.20195   0.39627
   4        1PZ         0.01241  -0.00822   0.04343  -0.03367   0.03129
   5 2   C  1S         -0.10416   0.37346   0.11682  -0.10344  -0.08965
   6        1PX        -0.00365   0.11865   0.25867  -0.01057  -0.35275
   7        1PY         0.01625   0.13129  -0.28417   0.47954   0.01415
   8        1PZ        -0.00222   0.00929   0.00797  -0.00168  -0.02814
   9 3   C  1S          0.04982   0.11785   0.06227   0.16350   0.12972
  10        1PX         0.15509  -0.04438   0.17276   0.45871   0.11650
  11        1PY         0.02678  -0.33042  -0.16161   0.05534  -0.40455
  12        1PZ        -0.00991   0.00307  -0.00147  -0.00566   0.03489
  13 4   C  1S          0.05194  -0.22585  -0.06566  -0.11086  -0.09807
  14        1PX        -0.12823   0.17272  -0.11294  -0.13252   0.46796
  15        1PY        -0.31962  -0.02973  -0.36667  -0.31834  -0.20237
  16        1PZ         0.04522   0.01134   0.05140   0.04516  -0.02992
  17 5   O  1S          0.04933  -0.04988   0.06778   0.00063  -0.00027
  18        1PX        -0.09673  -0.04466  -0.19957  -0.13189   0.23440
  19        1PY         0.08718  -0.13815   0.11970  -0.14829   0.30037
  20        1PZ         0.01525  -0.02297   0.01965   0.00112  -0.00388
  21 6   H  1S         -0.08054   0.04857  -0.27147   0.14329  -0.04344
  22 7   H  1S          0.05790  -0.35541   0.18649  -0.26429  -0.02033
  23 8   H  1S         -0.31356   0.17292  -0.23726  -0.16645   0.03854
  24 9   C  1S         -0.40965  -0.20642   0.23113   0.25532   0.05494
  25        1PX         0.33908   0.03784  -0.02878   0.08071  -0.00097
  26        1PY        -0.07606   0.30799   0.13847  -0.02694   0.13832
  27        1PZ         0.02871   0.00379   0.00356   0.00925  -0.01115
  28 10  H  1S          0.34694   0.13148  -0.16069  -0.13609  -0.02994
  29 11  H  1S          0.41366  -0.04833  -0.23576  -0.11620  -0.11168
  30 12  H  1S          0.32772   0.34158  -0.06674  -0.14030   0.04137
     Density Matrix:
                           1         2         3         4         5
   1 1   C  1S          1.25139
   2        1PX         0.06976   0.98078
   3        1PY         0.06431   0.02981   0.81793
   4        1PZ         0.01622  -0.00707  -0.02892   1.02575
   5 2   C  1S          0.30625  -0.44408   0.17379  -0.01633   1.23308
   6        1PX         0.47063  -0.51448   0.28153  -0.05199  -0.02862
   7        1PY        -0.18436   0.23197   0.05062   0.01269   0.07164
   8        1PZ         0.01875  -0.07978  -0.04352   0.88857  -0.00347
   9 3   C  1S         -0.02982   0.02796   0.00644   0.00345   0.24902
  10        1PX        -0.01559   0.01091  -0.02245   0.00408   0.23678
  11        1PY         0.00526   0.04525  -0.07027  -0.00826   0.36831
  12        1PZ        -0.01589  -0.00108   0.03977  -0.05184  -0.01838
  13 4   C  1S          0.01310   0.01776  -0.02518  -0.00402  -0.03180
  14        1PX         0.02831   0.00039   0.03214  -0.01665   0.00014
  15        1PY        -0.01313   0.00073   0.00831  -0.02387  -0.02896
  16        1PZ        -0.00433   0.01622   0.01798  -0.28217   0.00283
  17 5   O  1S          0.08687   0.00243  -0.22955  -0.02647  -0.00088
  18        1PX        -0.00707   0.11618   0.04433   0.01447   0.05826
  19        1PY         0.42739   0.00703  -0.81363  -0.08526  -0.04847
  20        1PZ         0.04196  -0.01148  -0.11650   0.33172  -0.00162
  21 6   H  1S          0.61291   0.66866   0.31702   0.06086  -0.05782
  22 7   H  1S         -0.06017   0.06865  -0.00077   0.00206   0.58847
  23 8   H  1S          0.04317  -0.00552  -0.08203  -0.01050   0.04900
  24 9   C  1S          0.02122  -0.02403   0.00727  -0.00357  -0.02422
  25        1PX         0.04054  -0.04379   0.01662  -0.00847  -0.04392
  26        1PY         0.00162   0.00101   0.00207   0.00177  -0.01414
  27        1PZ         0.00108   0.00102  -0.00211  -0.00888   0.00194
  28 10  H  1S         -0.00191   0.00510  -0.00719   0.00573   0.01234
  29 11  H  1S         -0.00242  -0.00282   0.00789  -0.00106  -0.01481
  30 12  H  1S         -0.00850   0.01291  -0.00700  -0.00173   0.03785
                           6         7         8         9        10
   6        1PX         0.91704
   7        1PY        -0.01965   0.98161
   8        1PZ        -0.01264   0.00329   1.06323
   9 3   C  1S         -0.32092  -0.32565  -0.01109   1.22925
  10        1PX        -0.20093  -0.29573  -0.01307  -0.04602   0.95154
  11        1PY        -0.46268  -0.37190   0.00028   0.01581  -0.00119
  12        1PZ         0.00958   0.02645   0.37352  -0.00285  -0.00377
  13 4   C  1S         -0.00414   0.02107  -0.01573   0.31456   0.25980
  14        1PX        -0.07244  -0.04377  -0.03829  -0.26657  -0.06892
  15        1PY         0.03136   0.01822  -0.00724   0.40501   0.31014
  16        1PZ         0.00921  -0.00332  -0.04584  -0.01921  -0.01577
  17 5   O  1S          0.01778   0.02254   0.01477  -0.00176  -0.01725
  18        1PX        -0.00554  -0.04085  -0.02772   0.06687   0.05009
  19        1PY        -0.06881   0.03835   0.01329  -0.05234  -0.02817
  20        1PZ         0.01678   0.00946  -0.22456  -0.00334  -0.00778
  21 6   H  1S         -0.07934   0.04090   0.00598   0.05131   0.03813
  22 7   H  1S         -0.20091   0.74523  -0.00782  -0.04328  -0.04352
  23 8   H  1S         -0.04655  -0.05110   0.00734  -0.05599  -0.05602
  24 9   C  1S          0.02769   0.01765   0.00006   0.23030  -0.37974
  25        1PX         0.04674   0.05045   0.00020   0.51733  -0.69375
  26        1PY         0.00205   0.00554   0.00124  -0.01765   0.03398
  27        1PZ        -0.00020   0.00145  -0.01248   0.00986  -0.01492
  28 10  H  1S         -0.01126  -0.01395  -0.03786  -0.02372   0.04017
  29 11  H  1S          0.01944   0.02055   0.01835  -0.02401   0.03937
  30 12  H  1S         -0.04591  -0.03864   0.01754  -0.02604   0.04136
                          11        12        13        14        15
  11        1PY         0.92068
  12        1PZ         0.01385   1.05273
  13 4   C  1S         -0.42123   0.02161   1.24903
  14        1PX         0.37157   0.03208  -0.04691   0.80929
  15        1PY        -0.38726   0.10011  -0.08480  -0.00210   0.98283
  16        1PZ         0.06198   0.87747   0.01783   0.03010   0.01565
  17 5   O  1S         -0.02248   0.01500   0.08747   0.22530   0.04476
  18        1PX        -0.05422  -0.02006  -0.42248  -0.78105  -0.18267
  19        1PY        -0.03076   0.02223  -0.07708  -0.14166   0.09112
  20        1PZ        -0.02142  -0.21846   0.04819   0.12521   0.04042
  21 6   H  1S          0.05609   0.00617   0.04164   0.07930   0.02123
  22 7   H  1S         -0.05910   0.00102   0.04501  -0.02749   0.04265
  23 8   H  1S          0.07043   0.00601   0.61329  -0.17337  -0.71769
  24 9   C  1S          0.01922  -0.00031  -0.03063   0.01309  -0.02134
  25        1PX         0.04409  -0.00239  -0.05631   0.01463  -0.06242
  26        1PY         0.09734  -0.00059   0.02041   0.00579   0.00683
  27        1PZ         0.00173   0.14347  -0.00038  -0.00226  -0.00768
  28 10  H  1S         -0.00262   0.02241   0.01264  -0.01157   0.00284
  29 11  H  1S          0.01605  -0.01593   0.04375  -0.02160   0.04297
  30 12  H  1S         -0.01803  -0.01018  -0.01318   0.01401  -0.00828
                          16        17        18        19        20
  16        1PZ         1.03818
  17 5   O  1S         -0.02929   1.89453
  18        1PX         0.10100   0.20645   1.23717
  19        1PY         0.00850  -0.16843  -0.07691   1.20312
  20        1PZ         0.32423  -0.04295   0.09001  -0.06598   1.79570
  21 6   H  1S         -0.01138  -0.03079   0.01357  -0.09794  -0.02380
  22 7   H  1S         -0.00963   0.01960  -0.03154   0.10119   0.01510
  23 8   H  1S          0.07289  -0.03116   0.09910   0.00436  -0.02522
  24 9   C  1S          0.00261   0.00792  -0.04793   0.00453   0.00678
  25        1PX         0.00344   0.01711  -0.09475   0.01053   0.01444
  26        1PY        -0.00030  -0.00342   0.01244   0.00180  -0.00325
  27        1PZ        -0.03728  -0.00039  -0.00161  -0.00100   0.00720
  28 10  H  1S         -0.10705  -0.00385   0.01321  -0.00601   0.02964
  29 11  H  1S          0.05178  -0.00079   0.02201   0.00317  -0.01738
  30 12  H  1S          0.05382  -0.00105  -0.00374  -0.00369  -0.01768
                          21        22        23        24        25
  21 6   H  1S          0.81699
  22 7   H  1S          0.01111   0.84114
  23 8   H  1S         -0.02175  -0.01511   0.81629
  24 9   C  1S         -0.00760  -0.00421   0.00087   1.19872
  25        1PX        -0.01466  -0.00356   0.00775  -0.06160   0.89068
  26        1PY        -0.00261   0.00059  -0.00293   0.00188   0.00199
  27        1PZ        -0.00058   0.00128   0.00067  -0.00110  -0.00382
  28 10  H  1S          0.00159   0.00130  -0.00089   0.49982  -0.27594
  29 11  H  1S         -0.00470   0.01145  -0.00490   0.50104  -0.22495
  30 12  H  1S          0.01137  -0.00341   0.01396   0.50141  -0.28087
                          26        27        28        29        30
  26        1PY         1.02564
  27        1PZ        -0.00272   1.02128
  28 10  H  1S          0.03682   0.80195   0.91768
  29 11  H  1S          0.69963  -0.42977  -0.04948   0.91553
  30 12  H  1S         -0.70471  -0.38604  -0.05249  -0.05133   0.92120
    Full Mulliken population analysis:
                           1         2         3         4         5
   1 1   C  1S          1.25139
   2        1PX         0.00000   0.98078
   3        1PY         0.00000   0.00000   0.81793
   4        1PZ         0.00000   0.00000   0.00000   1.02575
   5 2   C  1S          0.00000   0.00000   0.00000   0.00000   1.23308
   6        1PX         0.00000   0.00000   0.00000   0.00000   0.00000
   7        1PY         0.00000   0.00000   0.00000   0.00000   0.00000
   8        1PZ         0.00000   0.00000   0.00000   0.00000   0.00000
   9 3   C  1S          0.00000   0.00000   0.00000   0.00000   0.00000
  10        1PX         0.00000   0.00000   0.00000   0.00000   0.00000
  11        1PY         0.00000   0.00000   0.00000   0.00000   0.00000
  12        1PZ         0.00000   0.00000   0.00000   0.00000   0.00000
  13 4   C  1S          0.00000   0.00000   0.00000   0.00000   0.00000
  14        1PX         0.00000   0.00000   0.00000   0.00000   0.00000
  15        1PY         0.00000   0.00000   0.00000   0.00000   0.00000
  16        1PZ         0.00000   0.00000   0.00000   0.00000   0.00000
  17 5   O  1S          0.00000   0.00000   0.00000   0.00000   0.00000
  18        1PX         0.00000   0.00000   0.00000   0.00000   0.00000
  19        1PY         0.00000   0.00000   0.00000   0.00000   0.00000
  20        1PZ         0.00000   0.00000   0.00000   0.00000   0.00000
  21 6   H  1S          0.00000   0.00000   0.00000   0.00000   0.00000
  22 7   H  1S          0.00000   0.00000   0.00000   0.00000   0.00000
  23 8   H  1S          0.00000   0.00000   0.00000   0.00000   0.00000
  24 9   C  1S          0.00000   0.00000   0.00000   0.00000   0.00000
  25        1PX         0.00000   0.00000   0.00000   0.00000   0.00000
  26        1PY         0.00000   0.00000   0.00000   0.00000   0.00000
  27        1PZ         0.00000   0.00000   0.00000   0.00000   0.00000
  28 10  H  1S          0.00000   0.00000   0.00000   0.00000   0.00000
  29 11  H  1S          0.00000   0.00000   0.00000   0.00000   0.00000
  30 12  H  1S          0.00000   0.00000   0.00000   0.00000   0.00000
                           6         7         8         9        10
   6        1PX         0.91704
   7        1PY         0.00000   0.98161
   8        1PZ         0.00000   0.00000   1.06323
   9 3   C  1S          0.00000   0.00000   0.00000   1.22925
  10        1PX         0.00000   0.00000   0.00000   0.00000   0.95154
  11        1PY         0.00000   0.00000   0.00000   0.00000   0.00000
  12        1PZ         0.00000   0.00000   0.00000   0.00000   0.00000
  13 4   C  1S          0.00000   0.00000   0.00000   0.00000   0.00000
  14        1PX         0.00000   0.00000   0.00000   0.00000   0.00000
  15        1PY         0.00000   0.00000   0.00000   0.00000   0.00000
  16        1PZ         0.00000   0.00000   0.00000   0.00000   0.00000
  17 5   O  1S          0.00000   0.00000   0.00000   0.00000   0.00000
  18        1PX         0.00000   0.00000   0.00000   0.00000   0.00000
  19        1PY         0.00000   0.00000   0.00000   0.00000   0.00000
  20        1PZ         0.00000   0.00000   0.00000   0.00000   0.00000
  21 6   H  1S          0.00000   0.00000   0.00000   0.00000   0.00000
  22 7   H  1S          0.00000   0.00000   0.00000   0.00000   0.00000
  23 8   H  1S          0.00000   0.00000   0.00000   0.00000   0.00000
  24 9   C  1S          0.00000   0.00000   0.00000   0.00000   0.00000
  25        1PX         0.00000   0.00000   0.00000   0.00000   0.00000
  26        1PY         0.00000   0.00000   0.00000   0.00000   0.00000
  27        1PZ         0.00000   0.00000   0.00000   0.00000   0.00000
  28 10  H  1S          0.00000   0.00000   0.00000   0.00000   0.00000
  29 11  H  1S          0.00000   0.00000   0.00000   0.00000   0.00000
  30 12  H  1S          0.00000   0.00000   0.00000   0.00000   0.00000
                          11        12        13        14        15
  11        1PY         0.92068
  12        1PZ         0.00000   1.05273
  13 4   C  1S          0.00000   0.00000   1.24903
  14        1PX         0.00000   0.00000   0.00000   0.80929
  15        1PY         0.00000   0.00000   0.00000   0.00000   0.98283
  16        1PZ         0.00000   0.00000   0.00000   0.00000   0.00000
  17 5   O  1S          0.00000   0.00000   0.00000   0.00000   0.00000
  18        1PX         0.00000   0.00000   0.00000   0.00000   0.00000
  19        1PY         0.00000   0.00000   0.00000   0.00000   0.00000
  20        1PZ         0.00000   0.00000   0.00000   0.00000   0.00000
  21 6   H  1S          0.00000   0.00000   0.00000   0.00000   0.00000
  22 7   H  1S          0.00000   0.00000   0.00000   0.00000   0.00000
  23 8   H  1S          0.00000   0.00000   0.00000   0.00000   0.00000
  24 9   C  1S          0.00000   0.00000   0.00000   0.00000   0.00000
  25        1PX         0.00000   0.00000   0.00000   0.00000   0.00000
  26        1PY         0.00000   0.00000   0.00000   0.00000   0.00000
  27        1PZ         0.00000   0.00000   0.00000   0.00000   0.00000
  28 10  H  1S          0.00000   0.00000   0.00000   0.00000   0.00000
  29 11  H  1S          0.00000   0.00000   0.00000   0.00000   0.00000
  30 12  H  1S          0.00000   0.00000   0.00000   0.00000   0.00000
                          16        17        18        19        20
  16        1PZ         1.03818
  17 5   O  1S          0.00000   1.89453
  18        1PX         0.00000   0.00000   1.23717
  19        1PY         0.00000   0.00000   0.00000   1.20312
  20        1PZ         0.00000   0.00000   0.00000   0.00000   1.79570
  21 6   H  1S          0.00000   0.00000   0.00000   0.00000   0.00000
  22 7   H  1S          0.00000   0.00000   0.00000   0.00000   0.00000
  23 8   H  1S          0.00000   0.00000   0.00000   0.00000   0.00000
  24 9   C  1S          0.00000   0.00000   0.00000   0.00000   0.00000
  25        1PX         0.00000   0.00000   0.00000   0.00000   0.00000
  26        1PY         0.00000   0.00000   0.00000   0.00000   0.00000
  27        1PZ         0.00000   0.00000   0.00000   0.00000   0.00000
  28 10  H  1S          0.00000   0.00000   0.00000   0.00000   0.00000
  29 11  H  1S          0.00000   0.00000   0.00000   0.00000   0.00000
  30 12  H  1S          0.00000   0.00000   0.00000   0.00000   0.00000
                          21        22        23        24        25
  21 6   H  1S          0.81699
  22 7   H  1S          0.00000   0.84114
  23 8   H  1S          0.00000   0.00000   0.81629
  24 9   C  1S          0.00000   0.00000   0.00000   1.19872
  25        1PX         0.00000   0.00000   0.00000   0.00000   0.89068
  26        1PY         0.00000   0.00000   0.00000   0.00000   0.00000
  27        1PZ         0.00000   0.00000   0.00000   0.00000   0.00000
  28 10  H  1S          0.00000   0.00000   0.00000   0.00000   0.00000
  29 11  H  1S          0.00000   0.00000   0.00000   0.00000   0.00000
  30 12  H  1S          0.00000   0.00000   0.00000   0.00000   0.00000
                          26        27        28        29        30
  26        1PY         1.02564
  27        1PZ         0.00000   1.02128
  28 10  H  1S          0.00000   0.00000   0.91768
  29 11  H  1S          0.00000   0.00000   0.00000   0.91553
  30 12  H  1S          0.00000   0.00000   0.00000   0.00000   0.92120
     Gross orbital populations:
                           1
   1 1   C  1S          1.25139
   2        1PX         0.98078
   3        1PY         0.81793
   4        1PZ         1.02575
   5 2   C  1S          1.23308
   6        1PX         0.91704
   7        1PY         0.98161
   8        1PZ         1.06323
   9 3   C  1S          1.22925
  10        1PX         0.95154
  11        1PY         0.92068
  12        1PZ         1.05273
  13 4   C  1S          1.24903
  14        1PX         0.80929
  15        1PY         0.98283
  16        1PZ         1.03818
  17 5   O  1S          1.89453
  18        1PX         1.23717
  19        1PY         1.20312
  20        1PZ         1.79570
  21 6   H  1S          0.81699
  22 7   H  1S          0.84114
  23 8   H  1S          0.81629
  24 9   C  1S          1.19872
  25        1PX         0.89068
  26        1PY         1.02564
  27        1PZ         1.02128
  28 10  H  1S          0.91768
  29 11  H  1S          0.91553
  30 12  H  1S          0.92120
          Condensed to atoms (all electrons):
               1          2          3          4          5          6
     1  C    4.075843   0.000000   0.000000   0.000000   0.000000   0.000000
     2  C    0.000000   4.194969   0.000000   0.000000   0.000000   0.000000
     3  C    0.000000   0.000000   4.154197   0.000000   0.000000   0.000000
     4  C    0.000000   0.000000   0.000000   4.079322   0.000000   0.000000
     5  O    0.000000   0.000000   0.000000   0.000000   6.130521   0.000000
     6  H    0.000000   0.000000   0.000000   0.000000   0.000000   0.816995
     7  H    0.000000   0.000000   0.000000   0.000000   0.000000   0.000000
     8  H    0.000000   0.000000   0.000000   0.000000   0.000000   0.000000
     9  C    0.000000   0.000000   0.000000   0.000000   0.000000   0.000000
    10  H    0.000000   0.000000   0.000000   0.000000   0.000000   0.000000
    11  H    0.000000   0.000000   0.000000   0.000000   0.000000   0.000000
    12  H    0.000000   0.000000   0.000000   0.000000   0.000000   0.000000
               7          8          9         10         11         12
     1  C    0.000000   0.000000   0.000000   0.000000   0.000000   0.000000
     2  C    0.000000   0.000000   0.000000   0.000000   0.000000   0.000000
     3  C    0.000000   0.000000   0.000000   0.000000   0.000000   0.000000
     4  C    0.000000   0.000000   0.000000   0.000000   0.000000   0.000000
     5  O    0.000000   0.000000   0.000000   0.000000   0.000000   0.000000
     6  H    0.000000   0.000000   0.000000   0.000000   0.000000   0.000000
     7  H    0.841138   0.000000   0.000000   0.000000   0.000000   0.000000
     8  H    0.000000   0.816288   0.000000   0.000000   0.000000   0.000000
     9  C    0.000000   0.000000   4.136324   0.000000   0.000000   0.000000
    10  H    0.000000   0.000000   0.000000   0.917679   0.000000   0.000000
    11  H    0.000000   0.000000   0.000000   0.000000   0.915530   0.000000
    12  H    0.000000   0.000000   0.000000   0.000000   0.000000   0.921195
 Mulliken charges:
               1
     1  C   -0.075843
     2  C   -0.194969
     3  C   -0.154197
     4  C   -0.079322
     5  O   -0.130521
     6  H    0.183005
     7  H    0.158862
     8  H    0.183712
     9  C   -0.136324
    10  H    0.082321
    11  H    0.084470
    12  H    0.078805
 Sum of Mulliken charges =   0.00000
 Mulliken charges with hydrogens summed into heavy atoms:
               1
     1  C    0.107163
     2  C   -0.036107
     3  C   -0.154197
     4  C    0.104390
     5  O   -0.130521
     9  C    0.109272
 Charge=              0.0000 electrons
 Dipole moment (field-independent basis, Debye):
    X=             -1.0503    Y=              0.7201    Z=              0.3072  Tot=              1.3100
 N-N= 1.364501013655D+02 E-N=-1.898668721853D+02  KE=-6.004323948817D+01
 Orbital energies and kinetic energies (alpha):
                                 1                 2
   1         O                -1.484728         -2.994567
   2         O                -1.252964         -2.693241
   3         O                -1.136363         -2.208985
   4         O                -1.019712         -2.030106
   5         O                -0.809433         -1.844074
   6         O                -0.756373         -1.960884
   7         O                -0.649838         -1.911485
   8         O                -0.569885         -2.170801
   9         O                -0.560844         -1.672411
  10         O                -0.531228         -1.332737
  11         O                -0.516620         -1.431637
  12         O                -0.505960         -1.456763
  13         O                -0.486718         -1.754794
  14         O                -0.460489         -1.270021
  15         O                -0.383729         -1.829406
  16         O                -0.346561         -1.459708
  17         V                 0.025941         -1.482324
  18         V                 0.059819         -1.340028
  19         V                 0.086413         -1.597004
  20         V                 0.131493         -1.188594
  21         V                 0.134970         -1.346226
  22         V                 0.153824         -0.966056
  23         V                 0.166017         -0.765725
  24         V                 0.169557         -1.127045
  25         V                 0.170833         -0.819567
  26         V                 0.182119         -0.800302
  27         V                 0.183780         -1.032830
  28         V                 0.192891         -1.088015
  29         V                 0.207873         -1.143993
  30         V                 0.211606         -1.414028
 Total kinetic energy from orbitals=-6.004323948817D+01
 Calling FoFJK, ICntrl=      2127 FMM=F ISym2X=0 I1Cent= 0 IOpClX= 0 NMat=1 NMatS=1 NMatT=0.
 ***** Axes restored to original set *****
 -------------------------------------------------------------------
 Center     Atomic                   Forces (Hartrees/Bohr)
 Number     Number              X              Y              Z
 -------------------------------------------------------------------
      1        6          -0.021862565    0.038601139   -0.010741560
      2        6           0.032173445    0.047913843    0.003367534
      3        6           0.053591466   -0.038912578   -0.004891392
      4        6          -0.038221612   -0.015396543   -0.014219920
      5        8           0.055794775   -0.019584073    0.028433447
      6        1          -0.023827225    0.003113128   -0.002652752
      7        1           0.010958641   -0.006514529    0.001098344
      8        1          -0.021077919    0.011216767   -0.002141272
      9        6          -0.075734186   -0.030149069    0.001090928
     10        1           0.010839928    0.000361443    0.033234262
     11        1           0.018025518   -0.022291587   -0.018834581
     12        1          -0.000660265    0.031642058   -0.013743037
 -------------------------------------------------------------------
 Cartesian Forces:  Max     0.075734186 RMS     0.027688210

 GradGradGradGradGradGradGradGradGradGradGradGradGradGradGradGradGradGrad
 Berny optimization.
 FormGI is forming the generalized inverse of G from B-inverse, IUseBI=4.
 Internal  Forces:  Max     0.051626093 RMS     0.018038860
 Search for a local minimum.
 Step number   1 out of a maximum of   63
 All quantities printed in internal units (Hartrees-Bohrs-Radians)
 Mixed Optimization -- RFO/linear search
 Second derivative matrix not updated -- first step.
 ITU=  0
     Eigenvalues ---    0.00237   0.00959   0.01366   0.01645   0.02074
     Eigenvalues ---    0.02232   0.02301   0.07243   0.07243   0.15998
     Eigenvalues ---    0.16000   0.16000   0.16000   0.16000   0.16000
     Eigenvalues ---    0.22482   0.23305   0.24997   0.28519   0.30834
     Eigenvalues ---    0.35983   0.36320   0.37230   0.37230   0.37230
     Eigenvalues ---    0.37230   0.37230   0.37230   0.50837   0.55528
 RFO step:  Lambda=-4.96122284D-02 EMin= 2.36824182D-03
 Linear search not attempted -- first point.
 Maximum step size (   0.300) exceeded in Quadratic search.
    -- Step size scaled by   0.810
 Iteration  1 RMS(Cart)=  0.06001537 RMS(Int)=  0.00256077
 Iteration  2 RMS(Cart)=  0.00291918 RMS(Int)=  0.00101464
 Iteration  3 RMS(Cart)=  0.00000590 RMS(Int)=  0.00101462
 Iteration  4 RMS(Cart)=  0.00000001 RMS(Int)=  0.00101462
 Variable       Old X    -DE/DX   Delta X   Delta X   Delta X     New X
                                 (Linear)    (Quad)   (Total)
    R1        2.54335   0.02935   0.00000   0.03985   0.03983   2.58318
    R2        2.75071  -0.04856   0.00000  -0.09519  -0.09525   2.65545
    R3        2.02201   0.01086   0.00000   0.02086   0.02086   2.04287
    R4        2.84813  -0.04019   0.00000  -0.08505  -0.08499   2.76313
    R5        2.02201   0.01158   0.00000   0.02224   0.02224   2.04425
    R6        2.54336   0.02830   0.00000   0.03826   0.03831   2.58167
    R7        2.91018  -0.05163   0.00000  -0.12495  -0.12495   2.78523
    R8        2.75071  -0.04909   0.00000  -0.09638  -0.09641   2.65430
    R9        2.02201   0.01071   0.00000   0.02057   0.02057   2.04257
   R10        2.02201   0.03493   0.00000   0.06708   0.06708   2.08909
   R11        2.02201   0.03425   0.00000   0.06578   0.06578   2.08779
   R12        2.02201   0.03446   0.00000   0.06619   0.06619   2.08820
    A1        1.94595  -0.00195   0.00000  -0.00308  -0.00431   1.94164
    A2        2.16857   0.02251   0.00000   0.08476   0.08490   2.25347
    A3        2.16867  -0.02057   0.00000  -0.08178  -0.08143   2.08723
    A4        1.85840  -0.00635   0.00000  -0.00773  -0.00874   1.84965
    A5        2.21248   0.00828   0.00000   0.02369   0.02411   2.23659
    A6        2.21224  -0.00191   0.00000  -0.01574  -0.01531   2.19693
    A7        1.85842  -0.00317   0.00000   0.00127   0.00036   1.85877
    A8        2.21224  -0.00350   0.00000  -0.01436  -0.01392   2.19832
    A9        2.21246   0.00668   0.00000   0.01317   0.01362   2.22608
   A10        1.94596  -0.00346   0.00000  -0.00830  -0.00942   1.93654
   A11        2.16857   0.02311   0.00000   0.08676   0.08687   2.25543
   A12        2.16866  -0.01966   0.00000  -0.07856  -0.07825   2.09041
   A13        1.78929   0.01691   0.00000   0.04112   0.04016   1.82945
   A14        1.91063  -0.00145   0.00000  -0.00570  -0.00572   1.90491
   A15        1.91063  -0.00206   0.00000  -0.00812  -0.00814   1.90249
   A16        1.91063  -0.00155   0.00000  -0.00575  -0.00577   1.90486
   A17        1.91063   0.00155   0.00000   0.00552   0.00549   1.91613
   A18        1.91063   0.00162   0.00000   0.00653   0.00652   1.91715
   A19        1.91063   0.00189   0.00000   0.00751   0.00748   1.91812
    D1        0.13680  -0.00625   0.00000  -0.06396  -0.06233   0.07447
    D2       -3.01706  -0.00456   0.00000  -0.04562  -0.04508  -3.06214
    D3       -3.00242  -0.00236   0.00000  -0.02176  -0.01951  -3.02193
    D4        0.12691  -0.00067   0.00000  -0.00341  -0.00226   0.12465
    D5       -0.21024   0.00670   0.00000   0.08992   0.08974  -0.12051
    D6        2.92897   0.00289   0.00000   0.04799   0.05179   2.98076
    D7       -0.00030   0.00041   0.00000   0.00379   0.00342   0.00312
    D8        3.13010   0.00116   0.00000   0.01209   0.01100   3.14110
    D9       -3.12963  -0.00137   0.00000  -0.01491  -0.01368   3.13988
   D10        0.00077  -0.00062   0.00000  -0.00661  -0.00610  -0.00533
   D11       -0.13631   0.00564   0.00000   0.05803   0.05680  -0.07951
   D12        3.00290   0.00184   0.00000   0.01704   0.01516   3.01806
   D13        3.01648   0.00498   0.00000   0.04996   0.04929   3.06577
   D14       -0.12750   0.00118   0.00000   0.00897   0.00765  -0.11984
   D15       -1.56410  -0.00021   0.00000  -0.00296  -0.00257  -1.56667
   D16        0.53030  -0.00046   0.00000  -0.00465  -0.00425   0.52604
   D17        2.62469  -0.00035   0.00000  -0.00395  -0.00355   2.62114
   D18        1.56410   0.00061   0.00000   0.00686   0.00646   1.57056
   D19       -2.62469   0.00036   0.00000   0.00516   0.00477  -2.61992
   D20       -0.53030   0.00046   0.00000   0.00587   0.00547  -0.52482
   D21        0.21004  -0.00665   0.00000  -0.08809  -0.08785   0.12219
   D22       -2.92917  -0.00293   0.00000  -0.04737  -0.05095  -2.98012
         Item               Value     Threshold  Converged?
 Maximum Force            0.051626     0.000450     NO 
 RMS     Force            0.018039     0.000300     NO 
 Maximum Displacement     0.190455     0.001800     NO 
 RMS     Displacement     0.061006     0.001200     NO 
 Predicted change in Energy=-2.696946D-02
 GradGradGradGradGradGradGradGradGradGradGradGradGradGradGradGradGradGrad

                          Input orientation:                          
 ---------------------------------------------------------------------
 Center     Atomic      Atomic             Coordinates (Angstroms)
 Number     Number       Type             X           Y           Z
 ---------------------------------------------------------------------
      1          6           0       -0.015345    1.096157   -0.048495
      2          6           0        1.350717    1.079041   -0.094973
      3          6           0        1.774160    2.475398   -0.000749
      4          6           0        0.633636    3.220841    0.098821
      5          8           0       -0.507742    2.412109   -0.028018
      6          1           0       -0.706168    0.266746    0.010544
      7          1           0        2.005483    0.222887   -0.187222
      8          1           0        0.523137    4.279048    0.289335
      9          6           0        3.166068    2.960012   -0.008603
     10          1           0        3.543748    2.994647    1.029800
     11          1           0        3.784423    2.268452   -0.608590
     12          1           0        3.195005    3.971664   -0.452234
 ---------------------------------------------------------------------
                    Distance matrix (angstroms):
                    1          2          3          4          5
     1  C    0.000000
     2  C    1.366960   0.000000
     3  C    2.259849   1.462188   0.000000
     4  C    2.226468   2.266951   1.366160   0.000000
     5  O    1.405206   2.288105   2.282943   1.404593   0.000000
     6  H    1.081038   2.213986   3.321189   3.244925   2.154864
     7  H    2.205809   1.081771   2.272023   3.309306   3.336815
     8  H    3.245749   3.327555   2.214127   1.080883   2.156128
     9  C    3.687402   2.615532   1.473879   2.548093   3.714493
    10  H    4.175420   3.121545   2.112603   3.063762   4.227636
    11  H    4.015746   2.757068   2.110320   3.366738   4.333634
    12  H    4.328729   3.449101   2.112215   2.725437   4.040113
                    6          7          8          9         10
     6  H    0.000000
     7  H    2.719207   0.000000
     8  H    4.205648   4.344755   0.000000
     9  C    4.716806   2.978374   2.968788   0.000000
    10  H    5.151904   3.395594   3.364827   1.105497   0.000000
    11  H    4.955357   2.743449   3.935066   1.104809   1.808206
    12  H    5.399975   3.941893   2.789854   1.105028   1.809035
                   11         12
    11  H    0.000000
    12  H    1.809086   0.000000
 Stoichiometry    C5H6O
 Framework group  C1[X(C5H6O)]
 Deg. of freedom    30
 Full point group                 C1      NOp   1
 Largest Abelian subgroup         C1      NOp   1
 Largest concise Abelian subgroup C1      NOp   1
                         Standard orientation:                         
 ---------------------------------------------------------------------
 Center     Atomic      Atomic             Coordinates (Angstroms)
 Number     Number       Type             X           Y           Z
 ---------------------------------------------------------------------
      1          6           0        1.471931    0.664520    0.020070
      2          6           0        0.198780    1.161762   -0.000353
      3          6           0       -0.687609   -0.001114    0.004798
      4          6           0        0.118803   -1.103547    0.031929
      5          8           0        1.472036   -0.738438   -0.059376
      6          1           0        2.409059    1.193371    0.123761
      7          1           0       -0.113934    2.197135   -0.021332
      8          1           0       -0.149740   -2.144216    0.146819
      9          6           0       -2.160987    0.033761   -0.011306
     10          1           0       -2.534395    0.059741    1.028893
     11          1           0       -2.493567    0.938737   -0.550761
     12          1           0       -2.539222   -0.869562   -0.523196
 ---------------------------------------------------------------------
 Rotational constants (GHZ):           8.5514940           3.3778278           2.4629044
 Standard basis: VSTO-6G (5D, 7F)
 There are    30 symmetry adapted cartesian basis functions of A   symmetry.
 There are    30 symmetry adapted basis functions of A   symmetry.
    30 basis functions,   180 primitive gaussians,    30 cartesian basis functions
    16 alpha electrons       16 beta electrons
       nuclear repulsion energy       137.5513297811 Hartrees.
 Integral buffers will be    131072 words long.
 Regular integral format.
 Two-electron integral symmetry is turned off.
 Do NDO integrals.
 One-electron integrals computed using PRISM.
 NBasis=    30 RedAO= F EigKep=  0.00D+00  NBF=    30
 NBsUse=    30 1.00D-04 EigRej=  0.00D+00 NBFU=    30
 Initial guess from the checkpoint file:  "meth_furan_opt.chk"
 B after Tr=    -0.000000   -0.000000   -0.000000
         Rot=    0.999934   -0.001796   -0.000537   -0.011361 Ang=  -1.32 deg.
 Keep J ints in memory in canonical form, NReq=861564.
 Overlap will be assumed to be unity.
 Requested convergence on RMS density matrix=1.00D-08 within 128 cycles.
 Requested convergence on MAX density matrix=1.00D-06.
 Requested convergence on             energy=1.00D-06.
 No special actions if energy rises.
 SCF Done:  E(RAM1) = -0.273376145327E-02 A.U. after   13 cycles
            NFock= 12  Conv=0.26D-08     -V/T= 1.0000
 Calling FoFJK, ICntrl=      2127 FMM=F ISym2X=0 I1Cent= 0 IOpClX= 0 NMat=1 NMatS=1 NMatT=0.
 ***** Axes restored to original set *****
 -------------------------------------------------------------------
 Center     Atomic                   Forces (Hartrees/Bohr)
 Number     Number              X              Y              Z
 -------------------------------------------------------------------
      1        6          -0.008064786   -0.001585059   -0.004124226
      2        6           0.011722604    0.012764018    0.000320191
      3        6           0.017492374   -0.015875359   -0.001548076
      4        6          -0.010272563    0.006639297   -0.003719108
      5        8           0.010845727   -0.004907009    0.013564583
      6        1          -0.010340890    0.004459798   -0.003133838
      7        1           0.002341113   -0.001696619    0.001113462
      8        1          -0.010797508    0.002403270   -0.003355549
      9        6          -0.019726016   -0.007755253    0.000285136
     10        1           0.005763236    0.001153071    0.007555467
     11        1           0.007431008   -0.003904692   -0.004100026
     12        1           0.003605700    0.008304537   -0.002858015
 -------------------------------------------------------------------
 Cartesian Forces:  Max     0.019726016 RMS     0.008220575

 GradGradGradGradGradGradGradGradGradGradGradGradGradGradGradGradGradGrad
 Berny optimization.
 Using GEDIIS/GDIIS optimizer.
 FormGI is forming the generalized inverse of G from B-inverse, IUseBI=4.
 Internal  Forces:  Max     0.018875965 RMS     0.005815913
 Search for a local minimum.
 Step number   2 out of a maximum of   63
 All quantities printed in internal units (Hartrees-Bohrs-Radians)
 Mixed Optimization -- RFO/linear search
 Update second derivatives using D2CorX and points    1    2
 DE= -2.63D-02 DEPred=-2.70D-02 R= 9.76D-01
 TightC=F SS=  1.41D+00  RLast= 3.51D-01 DXNew= 5.0454D-01 1.0537D+00
 Trust test= 9.76D-01 RLast= 3.51D-01 DXMaxT set to 5.05D-01
 ITU=  1  0
 Use linear search instead of GDIIS.
     Eigenvalues ---    0.00237   0.00963   0.01376   0.01640   0.02073
     Eigenvalues ---    0.02309   0.02390   0.07310   0.07326   0.14249
     Eigenvalues ---    0.15985   0.16000   0.16000   0.16000   0.16461
     Eigenvalues ---    0.22411   0.23380   0.24986   0.29852   0.31553
     Eigenvalues ---    0.36018   0.36809   0.37226   0.37230   0.37230
     Eigenvalues ---    0.37230   0.37230   0.40656   0.50871   0.54318
 RFO step:  Lambda=-6.01830640D-03 EMin= 2.36823349D-03
 Quartic linear search produced a step of  0.36041.
 Iteration  1 RMS(Cart)=  0.05808696 RMS(Int)=  0.00387144
 Iteration  2 RMS(Cart)=  0.00466033 RMS(Int)=  0.00184071
 Iteration  3 RMS(Cart)=  0.00001757 RMS(Int)=  0.00184063
 Iteration  4 RMS(Cart)=  0.00000005 RMS(Int)=  0.00184063
 Variable       Old X    -DE/DX   Delta X   Delta X   Delta X     New X
                                 (Linear)    (Quad)   (Total)
    R1        2.58318   0.01445   0.01435   0.01769   0.03222   2.61540
    R2        2.65545  -0.00960  -0.03433   0.00605  -0.02869   2.62677
    R3        2.04287   0.00302   0.00752   0.00160   0.00912   2.05199
    R4        2.76313  -0.00469  -0.03063   0.02051  -0.00959   2.75355
    R5        2.04425   0.00266   0.00802  -0.00025   0.00776   2.05201
    R6        2.58167   0.01888   0.01381   0.03014   0.04408   2.62574
    R7        2.78523  -0.00349  -0.04503   0.04154  -0.00349   2.78173
    R8        2.65430  -0.00866  -0.03475   0.01104  -0.02416   2.63014
    R9        2.04257   0.00287   0.00741   0.00120   0.00861   2.05118
   R10        2.08909   0.00910   0.02418   0.00303   0.02721   2.11629
   R11        2.08779   0.00883   0.02371   0.00263   0.02634   2.11412
   R12        2.08820   0.00884   0.02386   0.00250   0.02636   2.11456
    A1        1.94164  -0.00305  -0.00155  -0.01374  -0.01870   1.92294
    A2        2.25347   0.01244   0.03060   0.05077   0.08266   2.33613
    A3        2.08723  -0.00944  -0.02935  -0.03754  -0.06523   2.02200
    A4        1.84965   0.00101  -0.00315   0.01758   0.01167   1.86132
    A5        2.23659   0.00038   0.00869  -0.01233  -0.00292   2.23367
    A6        2.19693  -0.00139  -0.00552  -0.00545  -0.01008   2.18685
    A7        1.85877  -0.00320   0.00013  -0.00791  -0.01045   1.84833
    A8        2.19832  -0.00023  -0.00502   0.00094  -0.00303   2.19529
    A9        2.22608   0.00343   0.00491   0.00710   0.01294   2.23903
   A10        1.93654  -0.00257  -0.00340  -0.00384  -0.01076   1.92578
   A11        2.25543   0.01207   0.03131   0.04501   0.07755   2.33298
   A12        2.09041  -0.00955  -0.02820  -0.04187  -0.06836   2.02204
   A13        1.82945   0.00846   0.01447   0.02742   0.03575   1.86520
   A14        1.90491   0.00291  -0.00206   0.02578   0.02335   1.92826
   A15        1.90249   0.00317  -0.00293   0.03017   0.02680   1.92929
   A16        1.90486   0.00393  -0.00208   0.03589   0.03332   1.93818
   A17        1.91613  -0.00326   0.00198  -0.03120  -0.02951   1.88661
   A18        1.91715  -0.00338   0.00235  -0.03112  -0.02918   1.88797
   A19        1.91812  -0.00322   0.00270  -0.02824  -0.02608   1.89204
    D1        0.07447  -0.00321  -0.02246  -0.08422  -0.10369  -0.02922
    D2       -3.06214  -0.00239  -0.01625  -0.03999  -0.05495  -3.11709
    D3       -3.02193  -0.00162  -0.00703  -0.06944  -0.07389  -3.09582
    D4        0.12465  -0.00080  -0.00081  -0.02522  -0.02515   0.09949
    D5       -0.12051   0.00435   0.03234   0.13454   0.16652   0.04601
    D6        2.98076   0.00355   0.01867   0.12389   0.14677   3.12753
    D7        0.00312   0.00004   0.00123  -0.00306  -0.00210   0.00102
    D8        3.14110   0.00047   0.00396   0.03213   0.03442  -3.10767
    D9        3.13988  -0.00075  -0.00493  -0.04602  -0.04914   3.09073
   D10       -0.00533  -0.00033  -0.00220  -0.01082  -0.01262  -0.01796
   D11       -0.07951   0.00314   0.02047   0.08904   0.10703   0.02752
   D12        3.01806   0.00154   0.00546   0.06864   0.07153   3.08959
   D13        3.06577   0.00271   0.01777   0.05313   0.06933   3.13510
   D14       -0.11984   0.00111   0.00276   0.03273   0.03383  -0.08601
   D15       -1.56667  -0.00007  -0.00093  -0.01247  -0.01280  -1.57947
   D16        0.52604  -0.00040  -0.00153  -0.01694  -0.01802   0.50802
   D17        2.62114  -0.00006  -0.00128  -0.01169  -0.01237   2.60877
   D18        1.57056   0.00043   0.00233   0.03007   0.03189   1.60245
   D19       -2.61992   0.00010   0.00172   0.02559   0.02667  -2.59325
   D20       -0.52482   0.00044   0.00197   0.03084   0.03232  -0.49251
   D21        0.12219  -0.00426  -0.03166  -0.13529  -0.16761  -0.04542
   D22       -2.98012  -0.00343  -0.01836  -0.11948  -0.14300  -3.12312
         Item               Value     Threshold  Converged?
 Maximum Force            0.018876     0.000450     NO 
 RMS     Force            0.005816     0.000300     NO 
 Maximum Displacement     0.225008     0.001800     NO 
 RMS     Displacement     0.059001     0.001200     NO 
 Predicted change in Energy=-6.419686D-03
 GradGradGradGradGradGradGradGradGradGradGradGradGradGradGradGradGradGrad

                          Input orientation:                          
 ---------------------------------------------------------------------
 Center     Atomic      Atomic             Coordinates (Angstroms)
 Number     Number       Type             X           Y           Z
 ---------------------------------------------------------------------
      1          6           0       -0.021096    1.085106   -0.051366
      2          6           0        1.362701    1.081023   -0.075170
      3          6           0        1.785917    2.472030    0.020588
      4          6           0        0.618004    3.220877    0.097216
      5          8           0       -0.494319    2.384316    0.091051
      6          1           0       -0.775929    0.304563   -0.060380
      7          1           0        2.026456    0.230095   -0.195511
      8          1           0        0.413292    4.279683    0.220502
      9          6           0        3.177092    2.952322   -0.008118
     10          1           0        3.596281    3.001100    1.029217
     11          1           0        3.818643    2.261129   -0.609997
     12          1           0        3.240079    3.974757   -0.458416
 ---------------------------------------------------------------------
                    Distance matrix (angstroms):
                    1          2          3          4          5
     1  C    0.000000
     2  C    1.384008   0.000000
     3  C    2.279042   1.457114   0.000000
     4  C    2.234289   2.272282   1.389484   0.000000
     5  O    1.390025   2.274802   2.283010   1.391810   0.000000
     6  H    1.085864   2.275268   3.356713   3.236167   2.104188
     7  H    2.223576   1.085878   2.265133   3.318766   3.328227
     8  H    3.235418   3.349660   2.278525   1.085438   2.105453
     9  C    3.703617   2.607350   1.472030   2.575296   3.716413
    10  H    4.233688   3.145671   2.138847   3.128428   4.241885
    11  H    4.054466   2.776750   2.138713   3.415458   4.371303
    12  H    4.376189   3.470608   2.145278   2.784301   4.095991
                    6          7          8          9         10
     6  H    0.000000
     7  H    2.806630   0.000000
     8  H    4.158692   4.378872   0.000000
     9  C    4.758123   2.961351   3.074531   0.000000
    10  H    5.251167   3.412152   3.524232   1.119894   0.000000
    11  H    5.023975   2.740225   4.044836   1.118747   1.812188
    12  H    5.455004   3.945185   2.923120   1.118976   1.813268
                   11         12
    11  H    0.000000
    12  H    1.815002   0.000000
 Stoichiometry    C5H6O
 Framework group  C1[X(C5H6O)]
 Deg. of freedom    30
 Full point group                 C1      NOp   1
 Largest Abelian subgroup         C1      NOp   1
 Largest concise Abelian subgroup C1      NOp   1
                         Standard orientation:                         
 ---------------------------------------------------------------------
 Center     Atomic      Atomic             Coordinates (Angstroms)
 Number     Number       Type             X           Y           Z
 ---------------------------------------------------------------------
      1          6           0        1.476990    0.679005   -0.015243
      2          6           0        0.178860    1.158193    0.011533
      3          6           0       -0.696216   -0.006891    0.012258
      4          6           0        0.143453   -1.113681   -0.012970
      5          8           0        1.475546   -0.710846    0.006726
      6          1           0        2.454120    1.151944    0.010145
      7          1           0       -0.152608    2.191850   -0.016990
      8          1           0       -0.027581   -2.185092    0.018688
      9          6           0       -2.167874    0.022028   -0.003891
     10          1           0       -2.571135    0.029796    1.040850
     11          1           0       -2.536730    0.940394   -0.525565
     12          1           0       -2.581706   -0.874043   -0.531061
 ---------------------------------------------------------------------
 Rotational constants (GHZ):           8.5881860           3.3430440           2.4450979
 Standard basis: VSTO-6G (5D, 7F)
 There are    30 symmetry adapted cartesian basis functions of A   symmetry.
 There are    30 symmetry adapted basis functions of A   symmetry.
    30 basis functions,   180 primitive gaussians,    30 cartesian basis functions
    16 alpha electrons       16 beta electrons
       nuclear repulsion energy       137.3278881427 Hartrees.
 Integral buffers will be    131072 words long.
 Regular integral format.
 Two-electron integral symmetry is turned off.
 Do NDO integrals.
 One-electron integrals computed using PRISM.
 NBasis=    30 RedAO= F EigKep=  0.00D+00  NBF=    30
 NBsUse=    30 1.00D-04 EigRej=  0.00D+00 NBFU=    30
 Initial guess from the checkpoint file:  "meth_furan_opt.chk"
 B after Tr=    -0.000000    0.000000    0.000000
         Rot=    0.999987   -0.001142   -0.000241   -0.004963 Ang=  -0.58 deg.
 Keep J ints in memory in canonical form, NReq=861564.
 Overlap will be assumed to be unity.
 Requested convergence on RMS density matrix=1.00D-08 within 128 cycles.
 Requested convergence on MAX density matrix=1.00D-06.
 Requested convergence on             energy=1.00D-06.
 No special actions if energy rises.
 SCF Done:  E(RAM1) = -0.762106308676E-02 A.U. after   13 cycles
            NFock= 12  Conv=0.31D-08     -V/T= 0.9999
 Calling FoFJK, ICntrl=      2127 FMM=F ISym2X=0 I1Cent= 0 IOpClX= 0 NMat=1 NMatS=1 NMatT=0.
 ***** Axes restored to original set *****
 -------------------------------------------------------------------
 Center     Atomic                   Forces (Hartrees/Bohr)
 Number     Number              X              Y              Z
 -------------------------------------------------------------------
      1        6           0.010304020   -0.005044921    0.005407053
      2        6          -0.002259085    0.006447236   -0.003711497
      3        6          -0.002285992   -0.000863986   -0.003681553
      4        6           0.011161184   -0.002405808    0.005743091
      5        8          -0.003886330    0.003526071   -0.003290281
      6        1          -0.001315686    0.002074896   -0.001278777
      7        1          -0.000343877    0.000155460    0.001394659
      8        1          -0.002202744   -0.000793375   -0.001696816
      9        6          -0.007320148   -0.002291055    0.000657080
     10        1          -0.000541272   -0.000193855   -0.000052999
     11        1          -0.000653310   -0.000003192    0.000158612
     12        1          -0.000656761   -0.000607470    0.000351429
 -------------------------------------------------------------------
 Cartesian Forces:  Max     0.011161184 RMS     0.003806543

 GradGradGradGradGradGradGradGradGradGradGradGradGradGradGradGradGradGrad
 Berny optimization.
 Using GEDIIS/GDIIS optimizer.
 FormGI is forming the generalized inverse of G from B-inverse, IUseBI=4.
 Internal  Forces:  Max     0.009699469 RMS     0.002383790
 Search for a local minimum.
 Step number   3 out of a maximum of   63
 All quantities printed in internal units (Hartrees-Bohrs-Radians)
 Mixed Optimization -- RFO/linear search
 Update second derivatives using D2CorX and points    2    3
 DE= -4.89D-03 DEPred=-6.42D-03 R= 7.61D-01
 TightC=F SS=  1.41D+00  RLast= 4.28D-01 DXNew= 8.4853D-01 1.2835D+00
 Trust test= 7.61D-01 RLast= 4.28D-01 DXMaxT set to 8.49D-01
 ITU=  1  1  0
 Use linear search instead of GDIIS.
     Eigenvalues ---    0.00237   0.01006   0.01479   0.01833   0.02272
     Eigenvalues ---    0.02380   0.02480   0.06953   0.07036   0.11966
     Eigenvalues ---    0.15955   0.15985   0.16000   0.16001   0.16482
     Eigenvalues ---    0.22564   0.23390   0.24982   0.29966   0.33409
     Eigenvalues ---    0.36350   0.36887   0.37222   0.37230   0.37230
     Eigenvalues ---    0.37230   0.37246   0.40053   0.50879   0.57877
 RFO step:  Lambda=-1.42850975D-03 EMin= 2.36818042D-03
 Quartic linear search produced a step of -0.07989.
 Iteration  1 RMS(Cart)=  0.02012576 RMS(Int)=  0.00066757
 Iteration  2 RMS(Cart)=  0.00052612 RMS(Int)=  0.00049863
 Iteration  3 RMS(Cart)=  0.00000025 RMS(Int)=  0.00049863
 Variable       Old X    -DE/DX   Delta X   Delta X   Delta X     New X
                                 (Linear)    (Quad)   (Total)
    R1        2.61540  -0.00602  -0.00257  -0.00145  -0.00403   2.61137
    R2        2.62677   0.00264   0.00229   0.00068   0.00289   2.62966
    R3        2.05199  -0.00057  -0.00073   0.00086   0.00013   2.05211
    R4        2.75355  -0.00633   0.00077  -0.02091  -0.02007   2.73348
    R5        2.05201  -0.00049  -0.00062   0.00066   0.00004   2.05205
    R6        2.62574  -0.00746  -0.00352  -0.00089  -0.00436   2.62138
[...]
 ! A6    A(3,2,7)              125.3758         -DE/DX =    0.0                 !
 ! A7    A(2,3,4)              106.3667         -DE/DX =    0.0                 !
 ! A8    A(2,3,9)              125.5397         -DE/DX =    0.0                 !
 ! A9    A(4,3,9)              128.0937         -DE/DX =    0.0                 !
 ! A10   A(3,4,5)              110.2019         -DE/DX =    0.0                 !
 ! A11   A(3,4,8)              135.1816         -DE/DX =    0.0                 !
 ! A12   A(5,4,8)              114.6165         -DE/DX =    0.0                 !
 ! A13   A(1,5,4)              106.5803         -DE/DX =    0.0                 !
 ! A14   A(3,9,10)             110.3873         -DE/DX =    0.0                 !
 ! A15   A(3,9,11)             110.3871         -DE/DX =    0.0                 !
 ! A16   A(3,9,12)             111.0762         -DE/DX =    0.0                 !
 ! A17   A(10,9,11)            108.0777         -DE/DX =    0.0                 !
 ! A18   A(10,9,12)            108.4121         -DE/DX =    0.0                 !
 ! A19   A(11,9,12)            108.412          -DE/DX =    0.0                 !
 ! D1    D(5,1,2,3)             -0.0006         -DE/DX =    0.0                 !
 ! D2    D(5,1,2,7)            180.0014         -DE/DX =    0.0                 !
 ! D3    D(6,1,2,3)           -179.9991         -DE/DX =    0.0                 !
 ! D4    D(6,1,2,7)              0.003          -DE/DX =    0.0                 !
 ! D5    D(2,1,5,4)              0.0005         -DE/DX =    0.0                 !
 ! D6    D(6,1,5,4)            179.9993         -DE/DX =    0.0                 !
 ! D7    D(1,2,3,4)              0.0005         -DE/DX =    0.0                 !
 ! D8    D(1,2,3,9)           -179.9998         -DE/DX =    0.0                 !
 ! D9    D(7,2,3,4)           -180.0015         -DE/DX =    0.0                 !
 ! D10   D(7,2,3,9)             -0.0018         -DE/DX =    0.0                 !
 ! D11   D(2,3,4,5)             -0.0003         -DE/DX =    0.0                 !
 ! D12   D(2,3,4,8)           -180.0018         -DE/DX =    0.0                 !
 ! D13   D(9,3,4,5)           -179.9999         -DE/DX =    0.0                 !
 ! D14   D(9,3,4,8)             -0.0015         -DE/DX =    0.0                 !
 ! D15   D(2,3,9,10)           -59.7232         -DE/DX =    0.0                 !
 ! D16   D(2,3,9,11)            59.7017         -DE/DX =    0.0                 !
 ! D17   D(2,3,9,12)          -180.0109         -DE/DX =    0.0                 !
 ! D18   D(4,3,9,10)           120.2763         -DE/DX =    0.0                 !
 ! D19   D(4,3,9,11)          -120.2987         -DE/DX =    0.0                 !
 ! D20   D(4,3,9,12)            -0.0113         -DE/DX =    0.0                 !
 ! D21   D(3,4,5,1)             -0.0001         -DE/DX =    0.0                 !
 ! D22   D(8,4,5,1)            180.0011         -DE/DX =    0.0                 !
 --------------------------------------------------------------------------------
 GradGradGradGradGradGradGradGradGradGradGradGradGradGradGradGradGradGrad


 ----------------------------------------------------------------------

 Electric dipole moment (input orientation):
 (Debye = 10**-18 statcoulomb cm , SI units = C m)
                  (au)            (Debye)         (10**-30 SI)
   Tot        0.279018D+00      0.709194D+00      0.236561D+01
   x          0.274503D+00      0.697718D+00      0.232734D+01
   y         -0.499848D-01     -0.127049D+00     -0.423789D+00
   z          0.714574D-03      0.181627D-02      0.605841D-02

 Dipole polarizability, Alpha (input orientation).
 (esu units = cm**3 , SI units = C**2 m**2 J**-1)
 Alpha(0;0):
               (au)            (10**-24 esu)      (10**-40 SI)
   iso        0.431541D+02      0.639478D+01      0.711515D+01
   aniso      0.414652D+02      0.614451D+01      0.683669D+01
   xx         0.603641D+02      0.894504D+01      0.995270D+01
   yx         0.197521D+00      0.292696D-01      0.325668D-01
   yy         0.532791D+02      0.789514D+01      0.878453D+01
   zx         0.350497D-01      0.519382D-02      0.577891D-02
   zy        -0.359387D+00     -0.532557D-01     -0.592549D-01
   zz         0.158191D+02      0.234415D+01      0.260821D+01

 First dipole hyperpolarizability, Beta (input orientation).
 ||, _|_  parallel and perpendicular components, (z) with respect to z axis,
 vector components x,y,z.  Values do not include the 1/n! factor of 1/2.
 (esu units = statvolt**-1 cm**4 , SI units = C**3 m**3 J**-2)
 Beta(0;0,0):
               (au)            (10**-30 esu)      (10**-50 SI)
   || (z)     0.861501D-01      0.744270D-03      0.276228D-03
   _|_(z)     0.287167D-01      0.248090D-03      0.920761D-04
   x         -0.164521D+03     -0.142133D+01     -0.527513D+00
   y         -0.589147D+02     -0.508977D+00     -0.188902D+00
   z          0.430751D+00      0.372135D-02      0.138114D-02
   ||         0.349504D+02      0.301944D+00      0.112064D+00
   xxx       -0.561331D+02     -0.484946D+00     -0.179983D+00
   xxy       -0.237894D+02     -0.205522D+00     -0.762773D-01
   yxy       -0.191292D+02     -0.165261D+00     -0.613350D-01
   yyy        0.130095D+02      0.112392D+00      0.417130D-01
   xxz        0.147447D+00      0.127382D-02      0.472767D-03
   yxz        0.369339D+00      0.319080D-02      0.118423D-02
   yyz       -0.318463D+00     -0.275127D-02     -0.102111D-02
   zxz        0.204219D+02      0.176430D+00      0.654801D-01
   zyz       -0.885833D+01     -0.765291D-01     -0.284030D-01
   zzz        0.314600D+00      0.271790D-02      0.100872D-02

 ----------------------------------------------------------------------

 Dipole orientation:
     6          0.33968136          1.97739595         -0.37811256
     6          0.42826510          2.43908881          2.18358456
     6          0.94185177          5.11790465          2.48318122
     6          1.13107884          6.10536973          0.07191989
     8          0.76714028          4.20734321         -1.71999557
     1          0.02319685          0.32690646         -1.55421194
     1          0.17166117          1.10012451          3.71676816
     1          1.48759874          7.96537345         -0.71435356
     6          1.19641996          6.44534935          4.89457539
     1         -0.58177727          6.26516383          6.02632273
     1          2.78148809          5.61978963          6.02653458
     1          1.59053839          8.49913111          4.59339551

 Electric dipole moment (dipole orientation):
 (Debye = 10**-18 statcoulomb cm , SI units = C m)
                  (au)            (Debye)         (10**-30 SI)
   Tot        0.279018D+00      0.709194D+00      0.236561D+01
   x          0.000000D+00      0.000000D+00      0.000000D+00
   y          0.000000D+00      0.000000D+00      0.000000D+00
   z          0.279018D+00      0.709194D+00      0.236561D+01

 Dipole polarizability, Alpha (dipole orientation).
 (esu units = cm**3 , SI units = C**2 m**2 J**-1)
 Alpha(0;0):
               (au)            (10**-24 esu)      (10**-40 SI)
   iso        0.431541D+02      0.639478D+01      0.711515D+01
   aniso      0.414652D+02      0.614451D+01      0.683669D+01
   xx         0.171543D+02      0.254201D+01      0.282837D+01
   yx         0.698306D+01      0.103478D+01      0.115135D+01
   yy         0.522406D+02      0.774126D+01      0.861331D+01
   zx         0.270879D+00      0.401402D-01      0.446620D-01
   zy         0.140690D+01      0.208482D+00      0.231967D+00
   zz         0.600673D+02      0.890106D+01      0.990376D+01

 First dipole hyperpolarizability, Beta (dipole orientation).
 ||, _|_  parallel and perpendicular components, (z) with respect to z axis,
 vector components x,y,z.  Values do not include the 1/n! factor of 1/2.
 (esu units = statvolt**-1 cm**4 , SI units = C**3 m**3 J**-2)
 Beta(0;0,0):
               (au)            (10**-30 esu)      (10**-50 SI)
   || (z)    -0.302607D+02     -0.261429D+00     -0.970266D-01
   _|_(z)    -0.100869D+02     -0.871428D-01     -0.323422D-01
   x         -0.164686D+02     -0.142276D+00     -0.528043D-01
   y         -0.858738D+02     -0.741883D+00     -0.275342D+00
   z         -0.151303D+03     -0.130714D+01     -0.485133D+00
   ||         0.349504D+02      0.301944D+00      0.112064D+00
   xxx       -0.276397D+01     -0.238786D-01     -0.886230D-02
   xxy       -0.444287D+01     -0.383829D-01     -0.142454D-01
   yxy        0.178429D+01      0.154149D-01      0.572108D-02
   yyy       -0.661699D+00     -0.571656D-02     -0.212165D-02
   xxz        0.198795D+02      0.171743D+00      0.637407D-01
   yxz       -0.940388D+01     -0.812422D-01     -0.301523D-01
   yyz       -0.273504D+02     -0.236286D+00     -0.876952D-01
   zxz       -0.450985D+01     -0.389616D-01     -0.144602D-01
   zyz       -0.235200D+02     -0.203195D+00     -0.754137D-01
   zzz       -0.429635D+02     -0.371171D+00     -0.137757D+00

 ----------------------------------------------------------------------
 1\1\GINC-IISERK51\Freq\RAM1\ZDO\C5H6O1\GAUSSIAN\14-Jun-2025\0\\#N Geom
 =AllCheck Guess=TCheck SCRF=Check GenChk RAM1/ZDO Freq\\methyl_furan o
 pt freq with AM1\\0,1\C,-0.0066844384,1.0803413391,0.0101008716\C,1.37
 15435877,1.0822305729,0.0112228945\C,1.7861174351,2.4737969896,-0.0018
 010925\C,0.6261024798,3.2258038341,-0.0099719931\O,-0.4900219071,2.389
 5797949,-0.0028609159\H,-0.7783099886,0.316950484,0.0168076675\H,2.040
 4866064,0.2271461415,0.0199591793\H,0.3963108124,4.2862724044,-0.02031
 94098\C,3.1696708799,2.9488467127,-0.0052237501\H,3.7095813167,2.58383
 84702,0.9049842132\H,3.7111842546,2.5661094684,-0.9071622809\H,3.21114
 06216,4.0660866982,-0.0161180138\\Version=EM64L-G16RevB.01\State=1-A\H
 F=-0.0084362\RMSD=1.007e-09\RMSF=5.930e-06\ZeroPoint=0.0996694\Thermal
 =0.1051301\Dipole=0.2745035,-0.0499848,0.0007146\DipoleDeriv=0.159649,
 -0.1944681,0.0021244,-0.3739559,-0.0097857,-0.0017289,0.0038475,-0.001
 5904,-0.1578539,-0.3073017,-0.0026819,-0.0000572,-0.0517171,-0.0767332
 ,-0.00122,0.0004016,-0.0011773,-0.1999547,-0.0197436,0.12614,-0.001149
 2,0.1642097,-0.157346,0.0007332,-0.0014989,0.0007015,-0.0945561,0.4151
 919,-0.0980941,0.0014386,0.1919284,-0.2294255,0.0005102,-0.0013447,0.0
 002674,-0.193293,-0.807965,0.1569605,-0.0021257,0.0802187,-0.2561047,0
 .0020077,-0.0013856,0.0020762,-0.0535576,0.2142002,0.1257869,-0.001199
 5,0.1297381,0.1995586,0.0001566,-0.0012362,0.0001555,0.204844,0.143662
 1,-0.0717039,0.0006657,-0.0853695,0.1619721,0.0000258,0.0007993,0.0000
 351,0.1719173,0.0909756,-0.0625189,0.0005027,-0.0787304,0.308611,-0.00
 09979,0.0006569,-0.0009848,0.2112926,0.0489669,0.0258947,-0.0001888,0.
 0566483,-0.0496609,0.0003045,-0.0005051,0.0002864,-0.0222782,0.0199587
 ,-0.0041374,-0.0028348,-0.0179269,0.0402099,0.0051415,0.012718,0.00204
 34,0.0439831,0.0199886,-0.0040815,0.0028742,-0.0181589,0.0400712,-0.00
 50992,-0.0124049,-0.0019751,0.0441065,0.0224228,0.0029043,-0.0000503,0
 .0031223,0.0286408,0.0001663,-0.0000483,0.0001619,0.0453453\Polar=60.3
 64105,0.1975209,53.2790691,0.0350497,-0.3593871,15.819084\HyperPolar=-
 56.1330521,-23.7893767,-19.1291501,13.0094606,0.1474466,0.3693387,-0.3
 184627,20.4219486,-8.8583296,0.3145996\PG=C01 [X(C5H6O1)]\NImag=0\\0.9
 0763878,0.16050603,0.72136483,-0.00089993,-0.00558701,0.12581917,-0.49
 211297,-0.04404872,0.00007042,0.84797963,0.03377727,-0.08722705,0.0002
 4190,-0.16581493,0.75489464,-0.00067662,0.00017770,-0.06491326,0.00217
 473,-0.00608120,0.13529135,-0.05694717,-0.05714141,0.00049044,-0.10007
 793,-0.10052421,0.00094064,1.04068198,-0.10897255,-0.00489918,0.000091
 08,-0.01771326,-0.29547198,0.00214719,0.05158208,0.65526532,0.00098792
 ,0.00013331,0.01392460,0.00014576,0.00207941,-0.07036451,0.00022497,-0
 .00467789,0.16357931,-0.00296171,-0.04221866,0.00039774,0.03353424,0.0
 8267096,-0.00077789,-0.35431497,0.14455573,-0.00162602,0.71014093,-0.0
 4084178,-0.13086522,0.00127551,0.03000700,-0.09486403,0.00107161,0.219
 58860,-0.20888729,0.00157034,-0.14073612,0.92060558,0.00038458,0.00127
 476,0.00550803,-0.00027208,0.00111504,0.01417914,-0.00234577,0.0015087
 8,-0.06404635,0.00183106,-0.00776307,0.12335377,-0.12715390,0.10890725
 ,-0.00110596,-0.09473649,0.03979173,-0.00046897,-0.13237991,0.02286858
 ,-0.00033530,-0.28138646,-0.13400158,0.00109804,0.62872547,0.10160670,
 -0.31750849,0.00262449,0.08672823,-0.03887205,0.00055191,-0.02237170,0
 .00222259,0.00004659,-0.12787819,-0.16660987,0.00099488,-0.00667643,0.
 60458719,-0.00103575,0.00263015,-0.05278709,-0.00091977,0.00051320,0.0
 1114957,0.00009868,0.00008311,0.00894051,0.00103956,0.00099038,-0.0519
 5754,0.00052361,-0.00515020,0.06860342,-0.19543275,-0.15126384,0.00132
 078,-0.02259247,-0.01964406,0.00016781,-0.00318826,0.00065333,-0.00001
 320,-0.00229828,0.00292606,-0.00003185,0.01078054,0.00083042,0.0000000
 8,0.21229688,-0.14785929,-0.17748912,0.00126892,-0.00223115,0.00307748
 ,-0.00000279,0.00122901,0.00019593,0.00004907,0.00591527,-0.00283765,0
 .00005432,-0.02278518,-0.04689885,0.00044087,0.16697977,0.22395895,0.0
 0128878,0.00126651,-0.03289675,0.,-0.00001713,0.00297303,-0.00001871,0
 .00004851,0.00519497,-0.00006048,0.00005195,0.00231793,0.00022673,0.00
 045994,0.00094608,-0.00144755,-0.00182196,0.02015779,-0.02700821,0.025
 28942,-0.00026461,-0.15128149,0.14516444,-0.00148389,0.00764737,-0.005
 43390,0.00005535,-0.00099187,-0.00248768,0.00002050,-0.00387400,0.0006
 5342,-0.00001515,-0.00022280,-0.00016262,0.00000085,0.17523196,0.00557
 736,0.00054222,-0.00000041,0.14652832,-0.22407608,0.00191149,0.0137768
 3,-0.03068571,0.00034169,-0.00115410,-0.00320319,0.00006037,-0.0022323
 6,0.00225800,0.00004277,0.00010428,0.00034428,0.00000269,-0.16328279,0
 .25451864,-0.00007615,0.00001583,0.00002831,-0.00149627,0.00190982,-0.
 03705686,-0.00012895,0.00032635,0.00376297,0.00000774,0.00005938,0.003
 18712,0.00001251,0.00004516,0.00691477,-0.00000171,0.00000247,0.000616
 39,0.00168872,-0.00235234,0.02296047,-0.00646867,-0.00061485,-0.000001
 24,-0.00282538,0.00150878,-0.00002088,-0.00550280,0.02504581,-0.000247
 02,-0.05320136,0.07038876,-0.00069176,0.00370992,-0.03350944,0.0003236
 7,0.00075615,-0.00097768,0.00000931,0.00027045,0.00050897,-0.00000458,
 0.06280204,-0.00342367,0.00133583,0.00000590,0.00065720,-0.00009782,0.
 00004918,0.00795121,-0.01425323,0.00016972,0.06714035,-0.31998141,0.00
 281419,-0.01008778,-0.03978763,0.00038180,0.00007019,-0.00064221,0.000
 01451,0.00001511,-0.00016932,0.00000045,-0.06240921,0.37345737,0.00002
 586,0.00000808,0.00224512,-0.00001281,0.00004993,0.00497921,-0.0000832
 7,0.00018394,0.00276305,-0.00066029,0.00281626,-0.03202373,0.00009902,
 0.00036291,0.00088797,-0.00000076,0.00001367,0.00086470,0.00000018,0.0
 0000086,-0.00012407,0.00063320,-0.00344074,0.01974818,0.00087991,0.000
 24577,-0.00000411,-0.01511193,-0.01665940,0.00014541,-0.32221506,-0.08
 780976,0.00063191,-0.04629943,-0.00207496,-0.00001792,-0.00224582,0.00
 160338,-0.00002348,-0.00002036,-0.00013426,0.00000139,0.00028345,0.000
 09523,-0.00000051,0.00039277,0.00017638,-0.00000194,0.61028665,-0.0004
 4676,-0.00543644,0.00008163,-0.03252859,-0.01699228,0.00016378,-0.0918
 3677,-0.09794129,0.00023281,0.01278944,0.00651441,-0.00005363,0.004913
 24,0.00119135,0.00006543,-0.00064894,0.00028596,-0.00000477,0.00020979
 ,0.00031519,-0.00000561,0.00025336,0.00029685,0.00000334,0.03398976,0.
 53464734,0.00000244,0.00008257,0.00311054,0.00029772,0.00017709,0.0028
 8785,0.00067256,0.00023640,-0.06584275,-0.00016063,-0.00006513,-0.0001
 7445,-0.00005548,0.00006192,0.00756035,0.00000636,-0.00000437,-0.00015
 538,-0.00000160,-0.00000574,-0.00029168,-0.00000264,0.00000315,0.00062
 306,-0.00023053,-0.00037004,0.49346770,-0.00016037,0.00062199,0.000301
 18,0.00027992,0.00008701,-0.00005409,-0.03159070,0.00471939,-0.0260986
 9,-0.00079740,-0.00118759,-0.00117391,-0.00091174,-0.00054949,0.001261
 15,0.00003217,-0.00002810,-0.00003354,-0.00000188,0.00001410,-0.000052
 42,-0.00000570,-0.00007325,0.00015011,-0.09256210,0.03779986,-0.093980
 21,0.11680757,0.00002133,0.00028691,0.00005866,-0.00035499,-0.00029750
 ,0.00005754,-0.00403101,0.00678652,-0.00567445,-0.00030398,-0.00004697
 ,-0.00029804,-0.00058736,-0.00045179,0.00036413,0.00001712,-0.00001316
 ,-0.00001323,-0.00000924,0.00005442,0.00002902,-0.00001890,-0.00008734
 ,0.00015811,0.03811538,-0.06764921,0.06540309,-0.04406850,0.07350519,-
 0.00002167,-0.00000448,-0.00002955,0.00018909,0.00007406,0.00016303,-0
 .01201631,-0.00049771,-0.00094167,0.00039541,-0.00016600,-0.00019843,0
 .00030600,0.00007651,-0.00009904,-0.00000289,-0.00002430,0.00000387,-0
 .00001586,-0.00002133,0.00001382,0.00002151,0.00004129,0.00000512,-0.0
 9434559,0.06531077,-0.20126925,0.11635255,-0.07877147,0.23711684,-0.00
 015970,0.00061606,-0.00031311,0.00028029,0.00008800,0.00005261,-0.0316
 5773,0.00522836,0.02594764,-0.00079952,-0.00116571,0.00119555,-0.00090
 926,-0.00057311,-0.00125156,0.00003213,-0.00002750,0.00003412,-0.00000
 199,0.00001501,0.00005210,-0.00000542,-0.00007598,-0.00014873,-0.09289
 405,0.03974965,0.09340910,0.00686863,-0.00209929,-0.00718450,0.1172183
 3,0.00002182,0.00028579,-0.00006459,-0.00035854,-0.00029975,-0.0000489
 7,-0.00380543,0.00690423,0.00551483,-0.00031265,-0.00003823,0.00029423
 ,-0.00059265,-0.00046007,-0.00035817,0.00001715,-0.00001242,0.00001355
 ,-0.00000882,0.00005426,-0.00002988,-0.00001910,-0.00009114,-0.0001562
 9,0.04007313,-0.07025668,-0.06789374,-0.00196829,0.00616115,0.00563421
 ,-0.04647956,0.07664839,0.00002103,-0.00000061,-0.00002889,-0.00018187
 ,-0.00006479,0.00016522,0.01203796,0.00035338,-0.00099235,-0.00039023,
 0.00016070,-0.00020590,-0.00029596,-0.00007041,-0.00009325,0.00000260,
 0.00002457,0.00000320,0.00001603,0.00002061,0.00001412,-0.00002116,-0.
 00003953,0.00000866,0.09376938,-0.06780149,-0.19832933,0.00729349,-0.0
 0638930,-0.03224111,-0.11567473,0.08182652,0.23356250,-0.00011295,-0.0
 0089907,0.00000840,-0.00333543,-0.00044560,0.00000114,-0.01045478,-0.0
 3472395,0.00032667,-0.00062420,-0.00041482,0.00000354,0.00038171,0.000
 13638,-0.00000102,-0.00014300,0.00008167,-0.00000089,-0.00005110,0.000
 04909,-0.00000049,0.00007792,0.00005945,-0.00000056,-0.04049391,-0.004
 24425,0.00004289,0.00204157,0.01331944,-0.00367767,0.00202828,0.013432
 95,0.00342336,0.05068574,0.00003339,-0.00039060,0.00000391,-0.00087058
 ,0.00022651,0.00000256,-0.01441719,-0.01923596,0.00021457,-0.00046862,
 0.00021382,-0.00000183,0.00048305,0.00032987,-0.00000346,-0.00004144,0
 .00003089,-0.00000059,0.00005307,0.00004731,-0.00000065,-0.00015647,0.
 00002002,-0.00000007,-0.00762084,-0.28497490,0.00237478,0.00463298,-0.
 01824822,0.00834848,0.00472418,-0.01889554,-0.00801967,0.01364859,0.34
 087670,-0.00000049,0.00000319,0.00001990,0.00000509,0.00000268,0.00054
 664,0.00012777,0.00019686,0.00402237,0.00000406,-0.00000194,0.00006015
 ,-0.00000425,-0.00000370,-0.00006561,0.00000030,-0.00000048,-0.0000260
 5,-0.00000053,-0.00000066,-0.00002568,0.00000156,0.00000008,0.00002255
 ,0.00007597,0.00237776,-0.04158650,-0.00396581,0.02507589,-0.00252365,
 0.00388169,-0.02473166,-0.00186289,-0.00012536,-0.00291802,0.04141879\
 \0.00001666,0.00000178,-0.00000194,-0.00000801,0.00000480,0.00000306,-
 0.00001724,-0.00000197,-0.00000078,0.00001239,-0.00001110,-0.00000110,
 -0.00000731,0.00000169,0.00000021,-0.00000131,0.00000332,0.00000055,-0
 .00000082,0.00000085,-0.00000103,-0.00000305,-0.00000178,0.00000093,0.
 00001309,0.00000086,0.00000170,-0.00000260,0.00000185,-0.00000422,-0.0
 0000201,0.00000143,0.00000283,0.00000019,-0.00000174,-0.00000020\\\@


 TO BEHOLD HARMS OF OUR OWN HANDS DOING,
 WHERE NONE BESIDE US WROUGHT,
 CAUSES SHARP RUING...

                                         SOPHOCLES
 Job cpu time:       0 days  0 hours  0 minutes  0.5 seconds.
 Elapsed time:       0 days  0 hours  0 minutes  0.5 seconds.
 File lengths (MBytes):  RWF=      8 Int=      0 D2E=      0 Chk=      2 Scr=      1
 Normal termination of Gaussian 16 at Sat Jun 14 14:34:02 2025.
