 Entering Gaussian System, Link 0=g16
 Input=/home/gaussian/Documents/Summer_Internship/Aromaticity/hetrocyclic/furan/meth_furan_isomer_opt.com
 Output=/home/gaussian/Documents/Summer_Internship/Aromaticity/hetrocyclic/furan/meth_furan_isomer_opt.log
 Initial command:
 /usr/local/g16/l1.exe "/home/gaussian/tmp/Gau-46999.inp" -scrdir="/home/gaussian/tmp/"
 Entering Link 1 = /usr/local/g16/l1.exe PID=     47002.
  
 Copyright (c) 1988-2017, Gaussian, Inc.  All Rights Reserved.
  
 This is part of the Gaussian(R) 16 program.  It is based on
 the Gaussian(R) 09 system (copyright 2009, Gaussian, Inc.),
 the Gaussian(R) 03 system (copyright 2003, Gaussian, Inc.),
 the Gaussian(R) 98 system (copyright 1998, Gaussian, Inc.),
 the Gaussian(R) 94 system (copyright 1995, Gaussian, Inc.),
 the Gaussian 92(TM) system (copyright 1992, Gaussian, Inc.),
 the Gaussian 90(TM) system (copyright 1990, Gaussian, Inc.),
 the Gaussian 88(TM) system (copyright 1988, Gaussian, Inc.),
 the Gaussian 86(TM) system (copyright 1986, Carnegie Mellon
 University), and the Gaussian 82(TM) system (copyright 1983,
 Carnegie Mellon University). Gaussian is a federally registered
 trademark of Gaussian, Inc.
  
 This software contains proprietary and confidential information,
 including trade secrets, belonging to Gaussian, Inc.
  
 This software is provided under written license and may be
 used, copied, transmitted, or stored only in accord with that
 written license.
  
 The following legend is applicable only to US Government
 contracts under FAR:
  
                    RESTRICTED RIGHTS LEGEND
  
 Use, reproduction and disclosure by the US Government is
 subject to restrictions as set forth in subparagraphs (a)
 and (c) of the Commercial Computer Software - Restricted
 Rights clause in FAR 52.227-19.
  
 Gaussian, Inc.
 340 Quinnipiac St., Bldg. 40, Wallingford CT 06492
  
  
 ---------------------------------------------------------------
 Warning -- This program may not be used in any manner that
 competes with the business of Gaussian, Inc. or will provide
 assistance to any competitor of Gaussian, Inc.  The licensee
 of this program is prohibited from giving any competitor of
 Gaussian, Inc. access to this program.  By using this program,
 the user acknowledges that Gaussian, Inc. is engaged in the
 business of creating and licensing software in the field of
 computational chemistry and represents and warrants to the
 licensee that it is not a competitor of Gaussian, Inc. and that
 it will not use this program in any manner prohibited above.
 ---------------------------------------------------------------
  

 Cite this work as:
 Gaussian 16, Revision B.01,
 M. J. Frisch, G. W. Trucks, H. B. Schlegel, G. E. Scuseria, 
 M. A. Robb, J. R. Cheeseman, G. Scalmani, V. Barone, 
 G. A. Petersson, H. Nakatsuji, X. Li, M. Caricato, A. V. Marenich, 
 J. Bloino, B. G. Janesko, R. Gomperts, B. Mennucci, H. P. Hratchian, 
 J. V. Ortiz, A. F. Izmaylov, J. L. Sonnenberg, D. Williams-Young, 
 F. Ding, F. Lipparini, F. Egidi, J. Goings, B. Peng, A. Petrone, 
 T. Henderson, D. Ranasinghe, V. G. Zakrzewski, J. Gao, N. Rega, 
 G. Zheng, W. Liang, M. Hada, M. Ehara, K. Toyota, R. Fukuda, 
 J. Hasegawa, M. Ishida, T. Nakajima, Y. Honda, O. Kitao, H. Nakai, 
 T. Vreven, K. Throssell, J. A. Montgomery, Jr., J. E. Peralta, 
 F. Ogliaro, M. J. Bearpark, J. J. Heyd, E. N. Brothers, K. N. Kudin, 
 V. N. Staroverov, T. A. Keith, R. Kobayashi, J. Normand, 
 K. Raghavachari, A. P. Rendell, J. C. Burant, S. S. Iyengar, 
 J. Tomasi, M. Cossi, J. M. Millam, M. Klene, C. Adamo, R. Cammi, 
 J. W. Ochterski, R. L. Martin, K. Morokuma, O. Farkas, 
 J. B. Foresman, and D. J. Fox, Gaussian, Inc., Wallingford CT, 2016.
 
 ******************************************
 Gaussian 16:  EM64L-G16RevB.01 20-Dec-2017
                14-Jun-2025 
 ******************************************
 %chk=meth_furan_isomer_opt.chk
 -----------------------------------------
 # opt freq am1 pop=full geom=connectivity
 -----------------------------------------
 1/18=20,19=15,26=1,38=1,57=2/1,3;
 2/9=110,12=2,17=6,18=5,40=1/2;
 3/5=2,25=1,41=700000,71=1/1,2,3;
 4/35=1/1;
 5/5=2,35=1,38=5/2;
 6/7=3,28=1/1;
 7//1,2,3,16;
 1/18=20,19=15,26=1/3(2);
 2/9=110/2;
 99//99;
 2/9=110/2;
 3/5=2,25=1,41=700000,71=1,135=20/1,2,3;
 4/5=5,16=3,35=1/1;
 5/5=2,35=1,38=5/2;
 7//1,2,3,16;
 1/18=20,19=15,26=1/3(-5);
 2/9=110/2;
 6/7=3,19=2,28=1/1;
 99/9=1/99;
 -------------------------------------
 methyl_furan_isomer opt freq with AM1
 -------------------------------------
 Symbolic Z-matrix:
 Charge =  0 Multiplicity = 1
 C                     1.46823   0.68597  0. 
 C                     0.17284   1.15657   0.00001 
 C                    -0.69358  -0.00868  0. 
 C                     0.13842  -1.11276  0. 
 O                     1.47356  -0.70968  0. 
 H                     2.45477   1.13869   0.00001 
 H                    -0.16251   2.18918  -0.00001 
 C                    -2.15616   0.01922   0. 
 H                    -0.05385  -1.701    -0.87287 
 H                    -0.05385  -1.701     0.87286 
 H                    -2.68217   0.49575  -0.80071 
 H                    -2.69996  -0.4369    0.80071 
 

 GradGradGradGradGradGradGradGradGradGradGradGradGradGradGradGradGradGrad
 Berny optimization.
 Initialization pass.
                           ----------------------------
                           !    Initial Parameters    !
                           ! (Angstroms and Degrees)  !
 --------------------------                            --------------------------
 ! Name  Definition              Value          Derivative Info.                !
 --------------------------------------------------------------------------------
 ! R1    R(1,2)                  1.3782         estimate D2E/DX2                !
 ! R2    R(1,5)                  1.3957         estimate D2E/DX2                !
 ! R3    R(1,6)                  1.0855         estimate D2E/DX2                !
 ! R4    R(2,3)                  1.4521         estimate D2E/DX2                !
 ! R5    R(2,7)                  1.0857         estimate D2E/DX2                !
 ! R6    R(3,4)                  1.3825         estimate D2E/DX2                !
 ! R7    R(3,8)                  1.4628         estimate D2E/DX2                !
 ! R8    R(4,5)                  1.3947         estimate D2E/DX2                !
 ! R9    R(4,9)                  1.07           estimate D2E/DX2                !
 ! R10   R(4,10)                 1.07           estimate D2E/DX2                !
 ! R11   R(8,11)                 1.07           estimate D2E/DX2                !
 ! R12   R(8,12)                 1.07           estimate D2E/DX2                !
 ! A1    A(2,1,5)              110.1839         estimate D2E/DX2                !
 ! A2    A(2,1,6)              135.3844         estimate D2E/DX2                !
 ! A3    A(5,1,6)              114.4317         estimate D2E/DX2                !
 ! A4    A(1,2,3)              106.6672         estimate D2E/DX2                !
 ! A5    A(1,2,7)              127.9569         estimate D2E/DX2                !
 ! A6    A(3,2,7)              125.3759         estimate D2E/DX2                !
 ! A7    A(2,3,4)              106.3667         estimate D2E/DX2                !
 ! A8    A(2,3,8)              125.5397         estimate D2E/DX2                !
 ! A9    A(4,3,8)              128.0936         estimate D2E/DX2                !
 ! A10   A(3,4,5)              110.2019         estimate D2E/DX2                !
 ! A11   A(3,4,9)              109.3242         estimate D2E/DX2                !
 ! A12   A(3,4,10)             109.3242         estimate D2E/DX2                !
 ! A13   A(5,4,9)              109.3242         estimate D2E/DX2                !
 ! A14   A(5,4,10)             109.3242         estimate D2E/DX2                !
 ! A15   A(9,4,10)             109.3258         estimate D2E/DX2                !
 ! A16   A(1,5,4)              106.5803         estimate D2E/DX2                !
 ! A17   A(3,8,11)             120.0            estimate D2E/DX2                !
 ! A18   A(3,8,12)             120.0            estimate D2E/DX2                !
 ! A19   A(11,8,12)            120.0            estimate D2E/DX2                !
 ! D1    D(5,1,2,3)             -0.0006         estimate D2E/DX2                !
 ! D2    D(5,1,2,7)           -179.9986         estimate D2E/DX2                !
 ! D3    D(6,1,2,3)           -179.999          estimate D2E/DX2                !
 ! D4    D(6,1,2,7)              0.003          estimate D2E/DX2                !
 ! D5    D(2,1,5,4)              0.0005         estimate D2E/DX2                !
 ! D6    D(6,1,5,4)            179.9993         estimate D2E/DX2                !
 ! D7    D(1,2,3,4)              0.0005         estimate D2E/DX2                !
 ! D8    D(1,2,3,8)           -179.9998         estimate D2E/DX2                !
 ! D9    D(7,2,3,4)            179.9985         estimate D2E/DX2                !
 ! D10   D(7,2,3,8)             -0.0017         estimate D2E/DX2                !
 ! D11   D(2,3,4,5)             -0.0002         estimate D2E/DX2                !
 ! D12   D(2,3,4,9)           -120.1784         estimate D2E/DX2                !
 ! D13   D(2,3,4,10)           120.178          estimate D2E/DX2                !
 ! D14   D(8,3,4,5)           -179.9999         estimate D2E/DX2                !
 ! D15   D(8,3,4,9)             59.8219         estimate D2E/DX2                !
 ! D16   D(8,3,4,10)           -59.8217         estimate D2E/DX2                !
 ! D17   D(2,3,8,11)            59.7797         estimate D2E/DX2                !
 ! D18   D(2,3,8,12)          -120.2203         estimate D2E/DX2                !
 ! D19   D(4,3,8,11)          -120.2207         estimate D2E/DX2                !
 ! D20   D(4,3,8,12)            59.7794         estimate D2E/DX2                !
 ! D21   D(3,4,5,1)             -0.0002         estimate D2E/DX2                !
 ! D22   D(9,4,5,1)            120.178          estimate D2E/DX2                !
 ! D23   D(10,4,5,1)          -120.1783         estimate D2E/DX2                !
 --------------------------------------------------------------------------------
 Trust Radius=3.00D-01 FncErr=1.00D-07 GrdErr=1.00D-07 EigMax=2.50D+02 EigMin=1.00D-04
 Number of steps in this run=     64 maximum allowed number of steps=    100.
 GradGradGradGradGradGradGradGradGradGradGradGradGradGradGradGradGradGrad

                          Input orientation:                          
 ---------------------------------------------------------------------
 Center     Atomic      Atomic             Coordinates (Angstroms)
 Number     Number       Type             X           Y           Z
 ---------------------------------------------------------------------
      1          6           0        1.468233    0.685974   -0.000003
      2          6           0        0.172836    1.156573    0.000006
      3          6           0       -0.693584   -0.008679   -0.000001
      4          6           0        0.138420   -1.112756   -0.000002
      5          8           0        1.473556   -0.709684   -0.000001
      6          1           0        2.454773    1.138694    0.000010
      7          1           0       -0.162510    2.189178   -0.000014
      8          6           0       -2.156159    0.019222    0.000000
      9          1           0       -0.053851   -1.701003   -0.872870
     10          1           0       -0.053852   -1.701005    0.872864
     11          1           0       -2.682166    0.495753   -0.800709
     12          1           0       -2.699957   -0.436900    0.800710
 ---------------------------------------------------------------------
                    Distance matrix (angstroms):
                    1          2          3          4          5
     1  C    0.000000
     2  C    1.378230   0.000000
     3  C    2.270682   1.452066   0.000000
     4  C    2.236925   2.269590   1.382468   0.000000
     5  O    1.395668   2.274816   2.277697   1.394652   0.000000
     6  H    1.085457   2.282007   3.350913   3.230251   2.092675
     7  H    2.217869   1.085693   2.261109   3.315619   3.328680
     8  C    3.685210   2.591869   1.462841   2.558606   3.702180
     9  H    2.962481   2.996504   2.008760   1.070000   2.019303
    10  H    2.962483   2.996501   2.008760   1.070000   2.019303
    11  H    4.231209   3.037905   2.202282   3.344269   4.400482
    12  H    4.390421   3.381305   2.202282   3.025608   4.258375
                    6          7          8          9         10
     6  H    0.000000
     7  H    2.820228   0.000000
     8  C    4.744883   2.946752   0.000000
     9  H    3.888315   3.988382   2.853204   0.000000
    10  H    3.888311   3.988389   2.853203   1.745733   0.000000
    11  H    5.238575   3.139661   1.070000   3.426220   3.812431
    12  H    5.449299   3.738460   1.070000   3.376492   2.933435
                   11         12
    11  H    0.000000
    12  H    1.853294   0.000000
 Stoichiometry    C5H6O
 Framework group  C1[X(C5H6O)]
 Deg. of freedom    30
 Full point group                 C1      NOp   1
 Largest Abelian subgroup         C1      NOp   1
 Largest concise Abelian subgroup C1      NOp   1
                         Standard orientation:                         
 ---------------------------------------------------------------------
 Center     Atomic      Atomic             Coordinates (Angstroms)
 Number     Number       Type             X           Y           Z
 ---------------------------------------------------------------------
      1          6           0       -1.423051    0.705953   -0.016909
      2          6           0       -0.130406    1.183935   -0.027838
      3          6           0        0.742761    0.024055   -0.000389
      4          6           0       -0.082823   -1.084530    0.025449
      5          8           0       -1.420275   -0.689328    0.015853
      6          1           0       -2.412201    1.152812   -0.027648
      7          1           0        0.198943    2.218186   -0.052026
      8          6           0        2.205149    0.060440   -0.000901
      9          1           0        0.112653   -1.650998    0.911904
     10          1           0        0.113064   -1.691981   -0.833348
     11          1           0        2.728194    0.558682    0.788453
     12          1           0        2.751773   -0.411188   -0.790628
 ---------------------------------------------------------------------
 Rotational constants (GHZ):           8.4592432           3.4705292           2.5303379
 Standard basis: VSTO-6G (5D, 7F)
 There are    30 symmetry adapted cartesian basis functions of A   symmetry.
 There are    30 symmetry adapted basis functions of A   symmetry.
    30 basis functions,   180 primitive gaussians,    30 cartesian basis functions
    16 alpha electrons       16 beta electrons
       nuclear repulsion energy       138.6486188938 Hartrees.
 Integral buffers will be    131072 words long.
 Regular integral format.
 Two-electron integral symmetry is turned off.
 Do NDO integrals.
 One-electron integrals computed using PRISM.
 NBasis=    30 RedAO= F EigKep=  0.00D+00  NBF=    30
 NBsUse=    30 1.00D-04 EigRej=  0.00D+00 NBFU=    30
 Simple Huckel Guess.
 Keep J ints in memory in canonical form, NReq=861564.
 Overlap will be assumed to be unity.
 Requested convergence on RMS density matrix=1.00D-08 within 128 cycles.
 Requested convergence on MAX density matrix=1.00D-06.
 Requested convergence on             energy=1.00D-06.
 No special actions if energy rises.
 SCF Done:  E(RAM1) =  0.811408788907E-01 A.U. after   15 cycles
            NFock= 14  Conv=0.41D-08     -V/T= 1.0013

 **********************************************************************

            Population analysis using the SCF Density.

 **********************************************************************

 Orbital symmetries:
       Occupied  (A) (A) (A) (A) (A) (A) (A) (A) (A) (A) (A) (A)
                 (A) (A) (A) (A)
       Virtual   (A) (A) (A) (A) (A) (A) (A) (A) (A) (A) (A) (A)
                 (A) (A)
 The electronic state is 1-A.
 Alpha  occ. eigenvalues --   -1.54479  -1.25866  -1.13426  -1.00486  -0.82798
 Alpha  occ. eigenvalues --   -0.76456  -0.65441  -0.63465  -0.56379  -0.53223
 Alpha  occ. eigenvalues --   -0.50379  -0.49698  -0.48622  -0.45696  -0.39154
 Alpha  occ. eigenvalues --   -0.28895
 Alpha virt. eigenvalues --   -0.01891   0.05444   0.10123   0.13442   0.13831
 Alpha virt. eigenvalues --    0.15824   0.15859   0.16770   0.17811   0.17907
 Alpha virt. eigenvalues --    0.19014   0.19790   0.20287   0.21796
     Molecular Orbital Coefficients:
                           1         2         3         4         5
                           O         O         O         O         O
     Eigenvalues --    -1.54479  -1.25866  -1.13426  -1.00486  -0.82798
   1 1   C  1S          0.34533   0.02672   0.51692   0.03356   0.45012
   2        1PX         0.09928  -0.10626   0.09449  -0.11120  -0.22729
   3        1PY        -0.13774  -0.15985   0.07800  -0.12001  -0.03160
   4        1PZ         0.00343   0.00385  -0.00191   0.00304   0.00069
   5 2   C  1S          0.28392  -0.31572   0.46161  -0.10672  -0.36853
   6        1PX        -0.04089  -0.07657  -0.16582   0.06628  -0.25246
   7        1PY        -0.11953   0.07415  -0.00292   0.02653  -0.04529
   8        1PZ         0.00321  -0.00275   0.00028   0.00025  -0.00172
   9 3   C  1S          0.32251  -0.50845  -0.12306   0.07438  -0.08481
  10        1PX        -0.11477  -0.02731  -0.08744   0.32078   0.05482
  11        1PY        -0.02626  -0.01136   0.20291   0.10529  -0.31378
  12        1PZ         0.00034  -0.00014  -0.00096  -0.00059  -0.00270
  13 4   C  1S          0.40571  -0.15689  -0.40781  -0.38139   0.19854
  14        1PX        -0.09514  -0.22453   0.00598  -0.00804   0.22772
  15        1PY         0.12979  -0.06530   0.04629   0.01318  -0.06151
  16        1PZ        -0.00334   0.00230  -0.00031  -0.00137  -0.00118
  17 5   O  1S          0.60090   0.57922  -0.13989   0.28158  -0.22634
  18        1PX         0.15988  -0.01094  -0.12803  -0.19202  -0.09268
  19        1PY         0.10303   0.04143   0.22139   0.11438   0.28526
  20        1PZ        -0.00211  -0.00047  -0.00480  -0.00240  -0.00863
  21 6   H  1S          0.07510   0.01859   0.18181   0.03537   0.30554
  22 7   H  1S          0.06190  -0.10335   0.15819  -0.01893  -0.22487
  23 8   C  1S          0.09248  -0.34121  -0.18020   0.61631   0.08183
  24        1PX        -0.05340   0.11713   0.03457  -0.00840   0.04367
  25        1PY        -0.00420   0.00280   0.03407   0.01700  -0.07679
  26        1PZ        -0.00002  -0.00013   0.00170   0.00154  -0.01151
  27 9   H  1S          0.11686  -0.06672  -0.17019  -0.15631   0.12890
  28 10  H  1S          0.11681  -0.06715  -0.17087  -0.15334   0.13098
  29 11  H  1S          0.02666  -0.11234  -0.05726   0.26085   0.02273
  30 12  H  1S          0.02787  -0.11222  -0.07337   0.25166   0.07284
                           6         7         8         9        10
                           O         O         O         O         O
     Eigenvalues --    -0.76456  -0.65441  -0.63465  -0.56379  -0.53223
   1 1   C  1S         -0.11089  -0.00342   0.00584  -0.13824   0.02714
   2        1PX        -0.07487   0.32394  -0.00251   0.20055  -0.17645
   3        1PY        -0.31964  -0.14994   0.00063  -0.37142  -0.13718
   4        1PZ         0.00605  -0.00022   0.26045   0.01568  -0.07158
   5 2   C  1S         -0.16930  -0.10722  -0.00840   0.17230  -0.02164
   6        1PX         0.21676  -0.17730   0.00152   0.05117   0.22909
   7        1PY        -0.24796  -0.27317  -0.00814   0.18594  -0.07805
   8        1PZ         0.00629   0.00317   0.17465  -0.00582   0.02802
   9 3   C  1S          0.39232  -0.12309  -0.00345  -0.21083  -0.04120
  10        1PX        -0.09864  -0.18838  -0.00186  -0.12580  -0.05964
  11        1PY        -0.01423  -0.00961   0.01257  -0.06661   0.25786
  12        1PZ         0.00050  -0.00513   0.25878  -0.00744   0.15282
  13 4   C  1S         -0.16587  -0.03536   0.00516   0.08554   0.07330
  14        1PX         0.24336  -0.22586  -0.00606   0.29525  -0.09357
  15        1PY         0.27732   0.27159   0.00852  -0.19741  -0.14934
  16        1PZ        -0.00587  -0.01597   0.53954   0.01195  -0.03976
  17 5   O  1S          0.02314  -0.20169  -0.00939   0.00099  -0.10334
  18        1PX        -0.18805   0.46181   0.01043  -0.25468   0.07598
  19        1PY         0.33150   0.20225   0.02147   0.39184   0.12866
  20        1PZ        -0.00869  -0.01333   0.58536   0.00625  -0.22324
  21 6   H  1S         -0.08779  -0.22850   0.00286  -0.32924   0.10339
  22 7   H  1S         -0.17221  -0.25122  -0.01167   0.23867  -0.01093
  23 8   C  1S         -0.25947   0.13536   0.00429   0.02155   0.00104
  24        1PX        -0.22812   0.24975   0.00458   0.26289   0.06932
  25        1PY        -0.00642   0.00467   0.02490  -0.04011   0.35337
  26        1PZ         0.00040  -0.00302   0.13600  -0.03692   0.46256
  27 9   H  1S         -0.14093  -0.15021   0.29524   0.16819   0.07539
  28 10  H  1S         -0.14583  -0.13944  -0.28779   0.16096   0.11607
  29 11  H  1S         -0.18866   0.14765   0.07558   0.07357   0.41369
  30 12  H  1S         -0.18930   0.15195  -0.06932   0.14571  -0.35164
                          11        12        13        14        15
                           O         O         O         O         O
     Eigenvalues --    -0.50379  -0.49698  -0.48622  -0.45696  -0.39154
   1 1   C  1S          0.02955   0.05781   0.06161  -0.00732   0.00175
   2        1PX         0.43869   0.13151  -0.02134   0.02198  -0.02618
   3        1PY         0.11718  -0.19711  -0.10550   0.03283  -0.01087
   4        1PZ        -0.03492   0.00899   0.06858   0.38470   0.35987
   5 2   C  1S          0.00914  -0.03495   0.01687  -0.01168   0.02153
   6        1PX        -0.41083  -0.07390   0.16610  -0.05267   0.05702
   7        1PY        -0.25656   0.25585  -0.39320   0.06102  -0.02894
   8        1PZ         0.02630  -0.00762  -0.01908   0.18352   0.63135
   9 3   C  1S          0.01967  -0.03004  -0.02024   0.00577  -0.00043
  10        1PX         0.16776   0.50459   0.02786  -0.00650  -0.00426
  11        1PY        -0.04762  -0.00235   0.48053  -0.08461   0.05585
  12        1PZ         0.09646  -0.00549  -0.15801  -0.09959   0.43219
  13 4   C  1S         -0.07652   0.00765  -0.00254   0.00487  -0.01847
  14        1PX         0.16142  -0.18811  -0.14601   0.04139  -0.04509
  15        1PY        -0.20970  -0.12584  -0.42142   0.05213  -0.05278
  16        1PZ         0.00672  -0.00122  -0.03960  -0.45331  -0.06799
  17 5   O  1S          0.13095  -0.12441  -0.07257   0.01727  -0.01281
  18        1PX        -0.29075   0.36505  -0.02746  -0.01794   0.02087
  19        1PY        -0.17905   0.29871   0.03174   0.00192  -0.00156
  20        1PZ        -0.11456   0.00089   0.21593   0.52500  -0.38030
  21 6   H  1S         -0.27313  -0.12931   0.02783  -0.01774   0.01837
  22 7   H  1S         -0.29377   0.15634  -0.25639   0.02653  -0.01291
  23 8   C  1S          0.00764   0.01301  -0.00100  -0.00167  -0.00199
  24        1PX        -0.16969  -0.46087  -0.02526  -0.00004   0.00828
  25        1PY         0.05469  -0.01144   0.01600   0.10358  -0.27404
  26        1PZ         0.20652  -0.00090  -0.29342   0.12632   0.00546
  27 9   H  1S          0.07563   0.03763   0.13991  -0.37639  -0.03992
  28 10  H  1S          0.06579   0.04685   0.23109   0.32600   0.06755
  29 11  H  1S          0.07504  -0.18090  -0.18211   0.12539  -0.14079
  30 12  H  1S         -0.20583  -0.18229   0.16194  -0.12392   0.14109
                          16        17        18        19        20
                           O         V         V         V         V
     Eigenvalues --    -0.28895  -0.01891   0.05444   0.10123   0.13442
   1 1   C  1S          0.00509   0.00404  -0.00480  -0.32760  -0.24843
   2        1PX         0.02715   0.01541  -0.00152   0.13484   0.14680
   3        1PY         0.03729   0.01579  -0.03315   0.36041  -0.36832
   4        1PZ         0.34553  -0.47400  -0.54560  -0.00766   0.02777
   5 2   C  1S         -0.05421  -0.04795   0.02612   0.10551   0.23914
   6        1PX        -0.07965  -0.06472   0.02427   0.02079   0.01843
   7        1PY         0.07731   0.06434  -0.01380   0.02082  -0.28249
   8        1PZ         0.29612   0.19703   0.63728  -0.00040  -0.00575
   9 3   C  1S          0.00087   0.00310  -0.00126  -0.03750  -0.12844
  10        1PX         0.00467   0.00182   0.00086   0.08983   0.02556
  11        1PY        -0.01038   0.00956  -0.02809   0.07953  -0.40477
  12        1PZ        -0.43381   0.50943  -0.42612  -0.00376   0.03511
  13 4   C  1S          0.04701   0.03815  -0.02088  -0.18662   0.04764
  14        1PX         0.06026   0.04818  -0.01740   0.43486  -0.02719
  15        1PY         0.07695   0.06177  -0.03624  -0.00343  -0.27103
  16        1PZ         0.09188  -0.00358  -0.02357  -0.00402   0.03327
  17 5   O  1S          0.01008   0.00770  -0.00256   0.22076  -0.04260
  18        1PX        -0.02804  -0.01708   0.01090   0.37771   0.01325
  19        1PY        -0.00257   0.01175  -0.00529   0.32206  -0.12083
  20        1PZ        -0.25154   0.16398   0.15748  -0.00666  -0.00818
  21 6   H  1S         -0.02433  -0.02011   0.01511   0.35078   0.49436
  22 7   H  1S          0.00860   0.01050  -0.00205  -0.18026   0.05818
  23 8   C  1S          0.00097  -0.00134  -0.00042  -0.04723   0.07868
  24        1PX        -0.01631  -0.01440   0.00645   0.06823  -0.06131
  25        1PY         0.57062   0.49705  -0.22022  -0.00206   0.05127
  26        1PZ        -0.34299  -0.34846   0.11423   0.00833  -0.11965
  27 9   H  1S          0.14819  -0.15963   0.06849   0.13402  -0.21816
  28 10  H  1S         -0.16556   0.14793  -0.07222   0.13013  -0.17694
  29 11  H  1S          0.06836  -0.08277   0.07721   0.00646   0.02541
  30 12  H  1S         -0.06769   0.08565  -0.07741   0.01256  -0.11072
                          21        22        23        24        25
                           V         V         V         V         V
     Eigenvalues --     0.13831   0.15824   0.15859   0.16770   0.17811
   1 1   C  1S         -0.28457  -0.09494   0.26098   0.09347  -0.01287
   2        1PX        -0.13244  -0.04558   0.05043   0.27384   0.36687
   3        1PY        -0.04698  -0.02584   0.12905  -0.04195  -0.11198
   4        1PZ        -0.00748   0.01741   0.00342  -0.00022  -0.00520
   5 2   C  1S          0.24359  -0.03555   0.10701  -0.30743  -0.23081
   6        1PX        -0.22813  -0.18431   0.48736   0.12969  -0.01760
   7        1PY         0.06506   0.02567  -0.05916  -0.29912   0.09170
   8        1PZ         0.00576   0.02152   0.01280   0.00974   0.01515
   9 3   C  1S         -0.34551   0.13307  -0.33318  -0.17947   0.01978
  10        1PX        -0.08028  -0.09684   0.20121  -0.05103   0.19813
  11        1PY         0.23995   0.00342  -0.02822   0.04502   0.34701
  12        1PZ        -0.01721  -0.14846  -0.05671  -0.00131  -0.07690
  13 4   C  1S          0.25143  -0.13855   0.25496  -0.19166   0.30468
  14        1PX        -0.12264  -0.13278   0.29139   0.08686   0.09953
  15        1PY         0.40991   0.00841   0.07836   0.30683   0.08757
  16        1PZ        -0.01247   0.63632   0.25756  -0.01734   0.07293
  17 5   O  1S         -0.05456  -0.00754   0.02691  -0.00801  -0.03473
  18        1PX        -0.28109  -0.01904   0.05488  -0.00401  -0.13037
  19        1PY         0.12679   0.04062  -0.08092  -0.15785  -0.06590
  20        1PZ         0.00138  -0.10137  -0.03817   0.00591  -0.00585
  21 6   H  1S          0.13633   0.04706  -0.20484   0.14670   0.29206
  22 7   H  1S         -0.22771   0.06256  -0.18274   0.47758   0.10730
  23 8   C  1S          0.27506  -0.04333   0.13277   0.22728  -0.27237
  24        1PX        -0.23707  -0.01759   0.03716  -0.00024  -0.02314
  25        1PY        -0.03221  -0.08545  -0.03499   0.00040   0.06466
  26        1PZ         0.06513  -0.04635  -0.02828   0.01668   0.26502
  27 9   H  1S          0.05866  -0.32962  -0.36857   0.26883  -0.21900
  28 10  H  1S          0.05778   0.55239  -0.00181   0.25688  -0.12154
  29 11  H  1S         -0.17664   0.12538  -0.09521  -0.20356   0.02970
  30 12  H  1S         -0.09910  -0.03210  -0.17062  -0.17831   0.42024
                          26        27        28        29        30
                           V         V         V         V         V
     Eigenvalues --     0.17907   0.19014   0.19790   0.20287   0.21796
   1 1   C  1S          0.07396  -0.00361   0.02108  -0.13757   0.08872
   2        1PX         0.10469   0.12694  -0.19918  -0.36803  -0.19489
   3        1PY        -0.21400  -0.14340  -0.07042   0.01566  -0.46256
   4        1PZ         0.00855   0.00018  -0.00269   0.00148   0.01307
   5 2   C  1S          0.21049  -0.00321   0.17375   0.12799   0.04336
   6        1PX         0.23288  -0.04792   0.02500  -0.28026  -0.25925
   7        1PY         0.10264   0.27142  -0.11046  -0.43690   0.16144
   8        1PZ        -0.00919   0.00060   0.03509   0.01089  -0.01071
   9 3   C  1S         -0.02818   0.29398  -0.07752  -0.00293  -0.02834
  10        1PX         0.34972   0.14716  -0.04185   0.51221  -0.09673
  11        1PY        -0.18120   0.04643  -0.25604   0.06228   0.27787
  12        1PZ         0.03440  -0.03123  -0.11912   0.00191   0.01504
  13 4   C  1S         -0.18427  -0.01597  -0.17892   0.13681  -0.09332
  14        1PX        -0.14402  -0.09651   0.04031   0.06965   0.47772
  15        1PY         0.36455  -0.04318  -0.02102   0.14657   0.02487
  16        1PZ        -0.03802   0.02647   0.07593  -0.00307  -0.00801
  17 5   O  1S         -0.07560  -0.03676   0.00930   0.00970  -0.00172
  18        1PX        -0.09222  -0.04193   0.12476   0.02091   0.32262
  19        1PY        -0.18074  -0.05385  -0.08180   0.04284  -0.42945
  20        1PZ         0.00794  -0.00154  -0.00855  -0.00121   0.01023
  21 6   H  1S          0.08483   0.12442  -0.11201  -0.14238  -0.02914
  22 7   H  1S         -0.30289  -0.19067  -0.04518   0.28581  -0.07455
  23 8   C  1S         -0.27979   0.17765   0.01600  -0.17048   0.03249
  24        1PX         0.07659   0.59035  -0.11091   0.33427  -0.06502
  25        1PY        -0.01934   0.07719   0.35378  -0.01120  -0.08421
  26        1PZ        -0.10638   0.12404   0.49560  -0.01901  -0.06635
  27 9   H  1S          0.29797  -0.01868   0.04810  -0.03199   0.00334
  28 10  H  1S          0.26389   0.01223   0.12569  -0.02700   0.00003
  29 11  H  1S          0.26524  -0.47647  -0.38733   0.00798   0.06453
  30 12  H  1S          0.10904  -0.27786   0.44142  -0.02681  -0.05967
     Density Matrix:
                           1         2         3         4         5
   1 1   C  1S          1.26238
   2        1PX        -0.06380   0.97622
   3        1PY         0.07862  -0.02793   0.82747
   4        1PZ         0.00148   0.01333   0.01828   0.95234
   5 2   C  1S          0.30518   0.42817   0.16904  -0.03119   1.23219
   6        1PX        -0.48734  -0.52742  -0.28918  -0.03226   0.03186
   7        1PY        -0.15373  -0.19568   0.06136   0.05787   0.07357
   8        1PZ         0.00544   0.00299   0.02557   0.88250  -0.01277
   9 3   C  1S         -0.03805  -0.02711   0.01721   0.00143   0.26148
  10        1PX         0.02627   0.01245   0.01014   0.00020  -0.23627
  11        1PY         0.00887  -0.03723  -0.09135   0.00367   0.38196
  12        1PZ        -0.00579  -0.02097  -0.02491   0.01883   0.05370
  13 4   C  1S          0.01715  -0.01954  -0.02942   0.02204  -0.03004
  14        1PX        -0.03662   0.00277  -0.04406   0.02676   0.00081
  15        1PY        -0.01631  -0.00853   0.02166   0.03295  -0.03474
  16        1PZ         0.00131   0.00216   0.00078  -0.05311  -0.00371
  17 5   O  1S          0.09096   0.00008  -0.25532   0.01053   0.00001
  18        1PX         0.01604   0.13173  -0.06846  -0.01076  -0.06519
  19        1PY         0.41853   0.01156  -0.81795   0.03105  -0.04736
  20        1PZ        -0.01100  -0.00593   0.01922   0.33096   0.01308
  21 6   H  1S          0.60838  -0.68279   0.29250  -0.02068  -0.06441
  22 7   H  1S         -0.06096  -0.07012  -0.00317   0.00483   0.58428
  23 8   C  1S          0.02700   0.02761   0.00828  -0.00038  -0.02508
  24        1PX        -0.04268  -0.04036  -0.01560  -0.00700   0.03883
  25        1PY         0.00365  -0.00663   0.01120   0.23587  -0.02184
  26        1PZ        -0.00106   0.00461  -0.00473  -0.18715   0.00369
  27 9   H  1S          0.03301   0.00843  -0.05758  -0.05453   0.01387
  28 10  H  1S          0.03134  -0.00174  -0.06980   0.04998   0.04069
  29 11  H  1S         -0.00554  -0.00033   0.00759  -0.00983  -0.00935
  30 12  H  1S         -0.01104  -0.01585  -0.01145   0.01042   0.04040
                           6         7         8         9        10
   6        1PX         0.90176
   7        1PY         0.01872   0.99163
   8        1PZ        -0.00598   0.01399   1.10496
   9 3   C  1S          0.29900  -0.34806   0.01258   1.21471
  10        1PX        -0.16247   0.30073  -0.01055   0.01573   0.95137
  11        1PY         0.43363  -0.38532   0.03304  -0.01071   0.00565
  12        1PZ         0.07163  -0.06046   0.36247  -0.00039  -0.00448
  13 4   C  1S          0.00906   0.01988   0.00723   0.26439  -0.23797
  14        1PX        -0.07539   0.04829   0.00154   0.27965  -0.11655
  15        1PY        -0.02070   0.02507   0.00858   0.41449  -0.34254
  16        1PZ        -0.00493   0.00457  -0.01005  -0.01365   0.01274
  17 5   O  1S         -0.02376   0.02448  -0.00087   0.00505   0.00859
  18        1PX         0.00046   0.04317  -0.00397  -0.05981   0.04013
  19        1PY         0.06760   0.03052  -0.00273  -0.05344   0.02753
  20        1PZ         0.01410  -0.02302  -0.25906   0.00223  -0.00298
  21 6   H  1S          0.09840   0.03281  -0.00367   0.05152  -0.04069
  22 7   H  1S          0.23060   0.73931  -0.01893  -0.04176   0.04167
  23 8   C  1S         -0.02169   0.01972  -0.00101   0.28221   0.44360
  24        1PX         0.02573  -0.04281  -0.00015  -0.50579  -0.64798
  25        1PY         0.01208   0.00946   0.06154  -0.01233  -0.02129
  26        1PZ        -0.00979   0.00078  -0.05392   0.00037   0.00125
  27 9   H  1S          0.00638  -0.00917   0.00045  -0.02178   0.03018
  28 10  H  1S          0.04146  -0.04319   0.00271  -0.02106   0.02663
  29 11  H  1S         -0.01530   0.00969  -0.02951  -0.04665  -0.07399
  30 12  H  1S          0.04325  -0.04382   0.03195  -0.04807  -0.07658
                          11        12        13        14        15
  11        1PY         0.93298
  12        1PZ         0.00068   1.01923
  13 4   C  1S         -0.35527  -0.04729   1.18076
  14        1PX        -0.39052  -0.05496   0.03780   0.81551
  15        1PY        -0.40955  -0.06914  -0.07120   0.02159   0.97610
  16        1PZ         0.02091   0.23270   0.00814   0.00527   0.00825
  17 5   O  1S         -0.03679  -0.00666   0.08680  -0.24724   0.07850
  18        1PX         0.03301   0.02310   0.39128  -0.76096   0.30681
  19        1PY        -0.02436  -0.00654  -0.09046   0.19008   0.08383
  20        1PZ        -0.00534  -0.07058  -0.00908  -0.01610  -0.01580
  21 6   H  1S          0.04819   0.01870   0.04186  -0.08890   0.03970
  22 7   H  1S         -0.05284  -0.01080   0.04298   0.03281   0.05365
  23 8   C  1S          0.00904  -0.00068  -0.02897  -0.01610  -0.02652
  24        1PX        -0.01714   0.01812   0.04587   0.01963   0.05823
  25        1PY         0.20430  -0.62521   0.02762  -0.01130   0.01528
  26        1PZ        -0.06013   0.62213  -0.00548   0.00769  -0.00033
  27 9   H  1S          0.02654   0.05651   0.52526   0.10749  -0.41167
  28 10  H  1S          0.02099  -0.03843   0.49860   0.07390  -0.48941
  29 11  H  1S          0.00689   0.03053   0.03930   0.03422   0.05061
  30 12  H  1S         -0.00721  -0.03129  -0.00555  -0.01104  -0.00589
                          16        17        18        19        20
  16        1PZ         1.02661
  17 5   O  1S         -0.00147   1.87421
  18        1PX        -0.00806  -0.22700   1.25401
  19        1PY         0.00267  -0.17307   0.08155   1.19892
  20        1PZ         0.16098   0.00219   0.00396   0.01312   1.87230
  21 6   H  1S         -0.00247  -0.03641  -0.02207  -0.07967   0.00718
  22 7   H  1S         -0.00111   0.02064   0.03684   0.09196  -0.00361
  23 8   C  1S          0.00195   0.00839   0.04823   0.00370   0.00013
  24        1PX        -0.00205  -0.01450  -0.07532  -0.00528   0.00310
  25        1PY         0.04560  -0.00582  -0.00925   0.00564  -0.10371
  26        1PZ        -0.04307   0.00264   0.00039  -0.00139   0.07948
  27 9   H  1S          0.68596  -0.02118  -0.05591  -0.00714  -0.07597
  28 10  H  1S         -0.66334  -0.02578  -0.04345  -0.00595   0.07823
  29 11  H  1S         -0.01962  -0.00013  -0.02438  -0.00047   0.01112
  30 12  H  1S          0.01807  -0.00432  -0.00573  -0.00571  -0.01147
                          21        22        23        24        25
  21 6   H  1S          0.81200
  22 7   H  1S          0.01373   0.83575
  23 8   C  1S         -0.00862  -0.00358   1.26071
  24        1PX         0.01374   0.00579   0.07744   0.90053
  25        1PY        -0.00277  -0.00554  -0.00039  -0.00212   1.09871
  26        1PZ        -0.00076   0.00564   0.00161   0.00017  -0.01649
  27 9   H  1S         -0.01777  -0.00268   0.00287  -0.00803   0.14176
  28 10  H  1S         -0.00841  -0.00732   0.00416  -0.00173  -0.12788
  29 11  H  1S         -0.00276   0.00760   0.56713   0.36694   0.48234
  30 12  H  1S          0.01186  -0.00163   0.56614   0.39154  -0.46171
                          26        27        28        29        30
  26        1PZ         0.99270
  27 9   H  1S         -0.11370   0.88725
  28 10  H  1S          0.10203  -0.06089   0.89822
  29 11  H  1S          0.51835  -0.01052   0.00576   0.87313
  30 12  H  1S         -0.52018   0.01175  -0.00207  -0.09796   0.87535
    Full Mulliken population analysis:
                           1         2         3         4         5
   1 1   C  1S          1.26238
   2        1PX         0.00000   0.97622
   3        1PY         0.00000   0.00000   0.82747
   4        1PZ         0.00000   0.00000   0.00000   0.95234
   5 2   C  1S          0.00000   0.00000   0.00000   0.00000   1.23219
   6        1PX         0.00000   0.00000   0.00000   0.00000   0.00000
   7        1PY         0.00000   0.00000   0.00000   0.00000   0.00000
   8        1PZ         0.00000   0.00000   0.00000   0.00000   0.00000
   9 3   C  1S          0.00000   0.00000   0.00000   0.00000   0.00000
  10        1PX         0.00000   0.00000   0.00000   0.00000   0.00000
  11        1PY         0.00000   0.00000   0.00000   0.00000   0.00000
  12        1PZ         0.00000   0.00000   0.00000   0.00000   0.00000
  13 4   C  1S          0.00000   0.00000   0.00000   0.00000   0.00000
  14        1PX         0.00000   0.00000   0.00000   0.00000   0.00000
  15        1PY         0.00000   0.00000   0.00000   0.00000   0.00000
  16        1PZ         0.00000   0.00000   0.00000   0.00000   0.00000
  17 5   O  1S          0.00000   0.00000   0.00000   0.00000   0.00000
  18        1PX         0.00000   0.00000   0.00000   0.00000   0.00000
  19        1PY         0.00000   0.00000   0.00000   0.00000   0.00000
  20        1PZ         0.00000   0.00000   0.00000   0.00000   0.00000
  21 6   H  1S          0.00000   0.00000   0.00000   0.00000   0.00000
  22 7   H  1S          0.00000   0.00000   0.00000   0.00000   0.00000
  23 8   C  1S          0.00000   0.00000   0.00000   0.00000   0.00000
  24        1PX         0.00000   0.00000   0.00000   0.00000   0.00000
  25        1PY         0.00000   0.00000   0.00000   0.00000   0.00000
  26        1PZ         0.00000   0.00000   0.00000   0.00000   0.00000
  27 9   H  1S          0.00000   0.00000   0.00000   0.00000   0.00000
  28 10  H  1S          0.00000   0.00000   0.00000   0.00000   0.00000
  29 11  H  1S          0.00000   0.00000   0.00000   0.00000   0.00000
  30 12  H  1S          0.00000   0.00000   0.00000   0.00000   0.00000
                           6         7         8         9        10
   6        1PX         0.90176
   7        1PY         0.00000   0.99163
   8        1PZ         0.00000   0.00000   1.10496
   9 3   C  1S          0.00000   0.00000   0.00000   1.21471
  10        1PX         0.00000   0.00000   0.00000   0.00000   0.95137
  11        1PY         0.00000   0.00000   0.00000   0.00000   0.00000
  12        1PZ         0.00000   0.00000   0.00000   0.00000   0.00000
  13 4   C  1S          0.00000   0.00000   0.00000   0.00000   0.00000
  14        1PX         0.00000   0.00000   0.00000   0.00000   0.00000
  15        1PY         0.00000   0.00000   0.00000   0.00000   0.00000
  16        1PZ         0.00000   0.00000   0.00000   0.00000   0.00000
  17 5   O  1S          0.00000   0.00000   0.00000   0.00000   0.00000
  18        1PX         0.00000   0.00000   0.00000   0.00000   0.00000
  19        1PY         0.00000   0.00000   0.00000   0.00000   0.00000
  20        1PZ         0.00000   0.00000   0.00000   0.00000   0.00000
  21 6   H  1S          0.00000   0.00000   0.00000   0.00000   0.00000
  22 7   H  1S          0.00000   0.00000   0.00000   0.00000   0.00000
  23 8   C  1S          0.00000   0.00000   0.00000   0.00000   0.00000
  24        1PX         0.00000   0.00000   0.00000   0.00000   0.00000
  25        1PY         0.00000   0.00000   0.00000   0.00000   0.00000
  26        1PZ         0.00000   0.00000   0.00000   0.00000   0.00000
  27 9   H  1S          0.00000   0.00000   0.00000   0.00000   0.00000
  28 10  H  1S          0.00000   0.00000   0.00000   0.00000   0.00000
  29 11  H  1S          0.00000   0.00000   0.00000   0.00000   0.00000
  30 12  H  1S          0.00000   0.00000   0.00000   0.00000   0.00000
                          11        12        13        14        15
  11        1PY         0.93298
  12        1PZ         0.00000   1.01923
  13 4   C  1S          0.00000   0.00000   1.18076
  14        1PX         0.00000   0.00000   0.00000   0.81551
  15        1PY         0.00000   0.00000   0.00000   0.00000   0.97610
  16        1PZ         0.00000   0.00000   0.00000   0.00000   0.00000
  17 5   O  1S          0.00000   0.00000   0.00000   0.00000   0.00000
  18        1PX         0.00000   0.00000   0.00000   0.00000   0.00000
  19        1PY         0.00000   0.00000   0.00000   0.00000   0.00000
  20        1PZ         0.00000   0.00000   0.00000   0.00000   0.00000
  21 6   H  1S          0.00000   0.00000   0.00000   0.00000   0.00000
  22 7   H  1S          0.00000   0.00000   0.00000   0.00000   0.00000
  23 8   C  1S          0.00000   0.00000   0.00000   0.00000   0.00000
  24        1PX         0.00000   0.00000   0.00000   0.00000   0.00000
  25        1PY         0.00000   0.00000   0.00000   0.00000   0.00000
  26        1PZ         0.00000   0.00000   0.00000   0.00000   0.00000
  27 9   H  1S          0.00000   0.00000   0.00000   0.00000   0.00000
  28 10  H  1S          0.00000   0.00000   0.00000   0.00000   0.00000
  29 11  H  1S          0.00000   0.00000   0.00000   0.00000   0.00000
  30 12  H  1S          0.00000   0.00000   0.00000   0.00000   0.00000
                          16        17        18        19        20
  16        1PZ         1.02661
  17 5   O  1S          0.00000   1.87421
  18        1PX         0.00000   0.00000   1.25401
  19        1PY         0.00000   0.00000   0.00000   1.19892
  20        1PZ         0.00000   0.00000   0.00000   0.00000   1.87230
  21 6   H  1S          0.00000   0.00000   0.00000   0.00000   0.00000
  22 7   H  1S          0.00000   0.00000   0.00000   0.00000   0.00000
  23 8   C  1S          0.00000   0.00000   0.00000   0.00000   0.00000
  24        1PX         0.00000   0.00000   0.00000   0.00000   0.00000
  25        1PY         0.00000   0.00000   0.00000   0.00000   0.00000
  26        1PZ         0.00000   0.00000   0.00000   0.00000   0.00000
  27 9   H  1S          0.00000   0.00000   0.00000   0.00000   0.00000
  28 10  H  1S          0.00000   0.00000   0.00000   0.00000   0.00000
  29 11  H  1S          0.00000   0.00000   0.00000   0.00000   0.00000
  30 12  H  1S          0.00000   0.00000   0.00000   0.00000   0.00000
                          21        22        23        24        25
  21 6   H  1S          0.81200
  22 7   H  1S          0.00000   0.83575
  23 8   C  1S          0.00000   0.00000   1.26071
  24        1PX         0.00000   0.00000   0.00000   0.90053
  25        1PY         0.00000   0.00000   0.00000   0.00000   1.09871
  26        1PZ         0.00000   0.00000   0.00000   0.00000   0.00000
  27 9   H  1S          0.00000   0.00000   0.00000   0.00000   0.00000
  28 10  H  1S          0.00000   0.00000   0.00000   0.00000   0.00000
  29 11  H  1S          0.00000   0.00000   0.00000   0.00000   0.00000
  30 12  H  1S          0.00000   0.00000   0.00000   0.00000   0.00000
                          26        27        28        29        30
  26        1PZ         0.99270
  27 9   H  1S          0.00000   0.88725
  28 10  H  1S          0.00000   0.00000   0.89822
  29 11  H  1S          0.00000   0.00000   0.00000   0.87313
  30 12  H  1S          0.00000   0.00000   0.00000   0.00000   0.87535
     Gross orbital populations:
                           1
   1 1   C  1S          1.26238
   2        1PX         0.97622
   3        1PY         0.82747
   4        1PZ         0.95234
   5 2   C  1S          1.23219
   6        1PX         0.90176
   7        1PY         0.99163
   8        1PZ         1.10496
   9 3   C  1S          1.21471
  10        1PX         0.95137
  11        1PY         0.93298
  12        1PZ         1.01923
  13 4   C  1S          1.18076
  14        1PX         0.81551
  15        1PY         0.97610
  16        1PZ         1.02661
  17 5   O  1S          1.87421
  18        1PX         1.25401
  19        1PY         1.19892
  20        1PZ         1.87230
  21 6   H  1S          0.81200
  22 7   H  1S          0.83575
  23 8   C  1S          1.26071
  24        1PX         0.90053
  25        1PY         1.09871
  26        1PZ         0.99270
  27 9   H  1S          0.88725
  28 10  H  1S          0.89822
  29 11  H  1S          0.87313
  30 12  H  1S          0.87535
          Condensed to atoms (all electrons):
               1          2          3          4          5          6
     1  C    4.018405   0.000000   0.000000   0.000000   0.000000   0.000000
     2  C    0.000000   4.230540   0.000000   0.000000   0.000000   0.000000
     3  C    0.000000   0.000000   4.118283   0.000000   0.000000   0.000000
     4  C    0.000000   0.000000   0.000000   3.998979   0.000000   0.000000
     5  O    0.000000   0.000000   0.000000   0.000000   6.199437   0.000000
     6  H    0.000000   0.000000   0.000000   0.000000   0.000000   0.812004
     7  H    0.000000   0.000000   0.000000   0.000000   0.000000   0.000000
     8  C    0.000000   0.000000   0.000000   0.000000   0.000000   0.000000
     9  H    0.000000   0.000000   0.000000   0.000000   0.000000   0.000000
    10  H    0.000000   0.000000   0.000000   0.000000   0.000000   0.000000
    11  H    0.000000   0.000000   0.000000   0.000000   0.000000   0.000000
    12  H    0.000000   0.000000   0.000000   0.000000   0.000000   0.000000
               7          8          9         10         11         12
     1  C    0.000000   0.000000   0.000000   0.000000   0.000000   0.000000
     2  C    0.000000   0.000000   0.000000   0.000000   0.000000   0.000000
     3  C    0.000000   0.000000   0.000000   0.000000   0.000000   0.000000
     4  C    0.000000   0.000000   0.000000   0.000000   0.000000   0.000000
     5  O    0.000000   0.000000   0.000000   0.000000   0.000000   0.000000
     6  H    0.000000   0.000000   0.000000   0.000000   0.000000   0.000000
     7  H    0.835745   0.000000   0.000000   0.000000   0.000000   0.000000
     8  C    0.000000   4.252652   0.000000   0.000000   0.000000   0.000000
     9  H    0.000000   0.000000   0.887245   0.000000   0.000000   0.000000
    10  H    0.000000   0.000000   0.000000   0.898221   0.000000   0.000000
    11  H    0.000000   0.000000   0.000000   0.000000   0.873135   0.000000
    12  H    0.000000   0.000000   0.000000   0.000000   0.000000   0.875352
 Mulliken charges:
               1
     1  C   -0.018405
     2  C   -0.230540
     3  C   -0.118283
     4  C    0.001021
     5  O   -0.199437
     6  H    0.187996
     7  H    0.164255
     8  C   -0.252652
     9  H    0.112755
    10  H    0.101779
    11  H    0.126865
    12  H    0.124648
 Sum of Mulliken charges =  -0.00000
 Mulliken charges with hydrogens summed into heavy atoms:
               1
     1  C    0.169591
     2  C   -0.066285
     3  C   -0.118283
     4  C    0.215554
     5  O   -0.199437
     8  C   -0.001139
 Charge=             -0.0000 electrons
 Dipole moment (field-independent basis, Debye):
    X=              0.0984    Y=              0.5049    Z=              0.0486  Tot=              0.5167
 N-N= 1.386486188938D+02 E-N=-1.938105434739D+02  KE=-6.023518515989D+01
 Orbital energies and kinetic energies (alpha):
                                 1                 2
   1         O                -1.544786         -3.050032
   2         O                -1.258659         -2.727199
   3         O                -1.134265         -2.178799
   4         O                -1.004861         -2.071787
   5         O                -0.827980         -1.904191
   6         O                -0.764556         -1.867067
   7         O                -0.654413         -1.900486
   8         O                -0.634646         -1.957338
   9         O                -0.563791         -1.664734
  10         O                -0.532231         -1.375677
  11         O                -0.503785         -1.527207
  12         O                -0.496983         -1.759917
  13         O                -0.486217         -1.412907
  14         O                -0.456959         -1.603063
  15         O                -0.391536         -1.651252
  16         O                -0.288946         -1.465936
  17         V                -0.018909         -1.381711
  18         V                 0.054435         -1.374011
  19         V                 0.101227         -1.531678
  20         V                 0.134420         -0.984954
  21         V                 0.138311         -1.358353
  22         V                 0.158242         -0.853184
  23         V                 0.158585         -1.077632
  24         V                 0.167696         -0.867060
  25         V                 0.178107         -0.982859
  26         V                 0.179067         -1.003540
  27         V                 0.190143         -0.930960
  28         V                 0.197895         -0.921117
  29         V                 0.202873         -1.158824
  30         V                 0.217964         -1.589882
 Total kinetic energy from orbitals=-6.023518515989D+01
 Calling FoFJK, ICntrl=      2127 FMM=F ISym2X=0 I1Cent= 0 IOpClX= 0 NMat=1 NMatS=1 NMatT=0.
 ***** Axes restored to original set *****
 -------------------------------------------------------------------
 Center     Atomic                   Forces (Hartrees/Bohr)
 Number     Number              X              Y              Z
 -------------------------------------------------------------------
      1        6          -0.012439644    0.010857827   -0.000989969
      2        6           0.017123156    0.012934788   -0.020331509
      3        6          -0.185081700    0.108037673   -0.002100529
      4        6           0.007173931   -0.086477197    0.019748317
      5        8           0.065566804    0.016626820    0.000288726
      6        1           0.000655066    0.000697237    0.002021476
      7        1          -0.000276835    0.000107570    0.000399166
      8        6           0.123025263   -0.002977722    0.001186917
      9        1          -0.002526427   -0.027304911   -0.037316189
     10        1          -0.000060054   -0.033284908    0.036776656
     11        1          -0.005953604    0.023909503   -0.000540170
     12        1          -0.007205957   -0.023126678    0.000857108
 -------------------------------------------------------------------
 Cartesian Forces:  Max     0.185081700 RMS     0.047294905

 GradGradGradGradGradGradGradGradGradGradGradGradGradGradGradGradGradGrad
 Berny optimization.
 FormGI is forming the generalized inverse of G from B-inverse, IUseBI=4.
 Internal  Forces:  Max     0.125589215 RMS     0.027706809
 Search for a local minimum.
 Step number   1 out of a maximum of   64
 All quantities printed in internal units (Hartrees-Bohrs-Radians)
 Mixed Optimization -- RFO/linear search
 Second derivative matrix not updated -- first step.
 ITU=  0
     Eigenvalues ---    0.01257   0.01257   0.01698   0.01809   0.01913
     Eigenvalues ---    0.02104   0.02246   0.06314   0.08534   0.11660
     Eigenvalues ---    0.11940   0.16000   0.16000   0.16000   0.16000
     Eigenvalues ---    0.22655   0.23518   0.25000   0.35315   0.35343
     Eigenvalues ---    0.36484   0.36611   0.37230   0.37230   0.37230
     Eigenvalues ---    0.37230   0.42226   0.44350   0.47333   0.48934
 RFO step:  Lambda=-9.27176636D-02 EMin= 1.25748848D-02
 Linear search not attempted -- first point.
 Maximum step size (   0.300) exceeded in Quadratic search.
    -- Step size scaled by   0.738
 Iteration  1 RMS(Cart)=  0.06803746 RMS(Int)=  0.00217587
 Iteration  2 RMS(Cart)=  0.00226455 RMS(Int)=  0.00039873
 Iteration  3 RMS(Cart)=  0.00000517 RMS(Int)=  0.00039871
 Iteration  4 RMS(Cart)=  0.00000000 RMS(Int)=  0.00039871
 Variable       Old X    -DE/DX   Delta X   Delta X   Delta X     New X
                                 (Linear)    (Quad)   (Total)
    R1        2.60448   0.00132   0.00000  -0.00657  -0.00706   2.59742
    R2        2.63743   0.01787   0.00000   0.01910   0.01902   2.65645
    R3        2.05122   0.00089   0.00000   0.00147   0.00147   2.05268
    R4        2.74401   0.01497   0.00000   0.02237   0.02211   2.76612
    R5        2.05166   0.00019   0.00000   0.00031   0.00031   2.05197
    R6        2.61249   0.12559   0.00000   0.16784   0.16818   2.78067
    R7        2.76437  -0.10989   0.00000  -0.17669  -0.17669   2.58768
    R8        2.63551   0.06228   0.00000   0.08827   0.08872   2.72423
    R9        2.02201   0.04591   0.00000   0.07283   0.07283   2.09484
   R10        2.02201   0.04831   0.00000   0.07664   0.07664   2.09865
   R11        2.02201   0.01398   0.00000   0.02218   0.02218   2.04418
   R12        2.02201   0.01416   0.00000   0.02247   0.02247   2.04448
    A1        1.92307   0.02259   0.00000   0.03172   0.03109   1.95416
    A2        2.36290  -0.01166   0.00000  -0.01694  -0.01662   2.34628
    A3        1.99721  -0.01092   0.00000  -0.01478  -0.01447   1.98274
    A4        1.86169   0.01224   0.00000   0.01259   0.01175   1.87344
    A5        2.23327  -0.00588   0.00000  -0.00561  -0.00521   2.22806
    A6        2.18822  -0.00636   0.00000  -0.00698  -0.00659   2.18163
    A7        1.85645  -0.00386   0.00000   0.00300   0.00297   1.85942
    A8        2.19108   0.00164   0.00000  -0.00212  -0.00211   2.18897
    A9        2.23566   0.00222   0.00000  -0.00088  -0.00087   2.23479
   A10        1.92339  -0.03588   0.00000  -0.06071  -0.05965   1.86373
   A11        1.90807   0.01290   0.00000   0.02771   0.02688   1.93495
   A12        1.90807   0.01909   0.00000   0.05066   0.04985   1.95791
   A13        1.90807   0.00600   0.00000  -0.00089  -0.00094   1.90712
   A14        1.90807   0.00359   0.00000  -0.00757  -0.00692   1.90115
   A15        1.90810  -0.00558   0.00000  -0.00896  -0.01002   1.89808
   A16        1.86018   0.00490   0.00000   0.01340   0.01379   1.87396
   A17        2.09440  -0.00066   0.00000  -0.00192  -0.00192   2.09247
   A18        2.09440  -0.00004   0.00000  -0.00012  -0.00012   2.09427
   A19        2.09440   0.00070   0.00000   0.00204   0.00204   2.09643
    D1       -0.00001   0.00180   0.00000   0.01038   0.01054   0.01053
    D2       -3.14157   0.00014   0.00000  -0.00005   0.00001  -3.14156
    D3       -3.14158   0.00171   0.00000   0.01127   0.01134  -3.13024
    D4        0.00005   0.00005   0.00000   0.00084   0.00081   0.00086
    D5        0.00001  -0.00158   0.00000  -0.00800  -0.00801  -0.00800
    D6        3.14158  -0.00150   0.00000  -0.00868  -0.00863   3.13295
    D7        0.00001  -0.00132   0.00000  -0.00872  -0.00876  -0.00875
    D8       -3.14159  -0.00103   0.00000  -0.00594  -0.00605   3.13555
    D9        3.14157   0.00029   0.00000   0.00136   0.00142  -3.14020
   D10       -0.00003   0.00057   0.00000   0.00414   0.00413   0.00410
   D11       -0.00000   0.00038   0.00000   0.00399   0.00402   0.00402
   D12       -2.09751   0.00708   0.00000   0.02526   0.02567  -2.07183
   D13        2.09750  -0.00541   0.00000  -0.01107  -0.01191   2.08559
   D14       -3.14159   0.00008   0.00000   0.00112   0.00121  -3.14038
   D15        1.04409   0.00678   0.00000   0.02239   0.02287   1.06696
   D16       -1.04409  -0.00570   0.00000  -0.01394  -0.01472  -1.05881
   D17        1.04335  -0.01794   0.00000  -0.12614  -0.12610   0.91725
   D18       -2.09824  -0.01740   0.00000  -0.12235  -0.12231  -2.22055
   D19       -2.09825  -0.01759   0.00000  -0.12276  -0.12280  -2.22105
   D20        1.04335  -0.01704   0.00000  -0.11896  -0.11900   0.92434
   D21       -0.00000   0.00070   0.00000   0.00222   0.00206   0.00206
   D22        2.09750  -0.00184   0.00000  -0.00182  -0.00159   2.09591
   D23       -2.09751  -0.00286   0.00000  -0.01784  -0.01842  -2.11593
         Item               Value     Threshold  Converged?
 Maximum Force            0.125589     0.000450     NO 
 RMS     Force            0.027707     0.000300     NO 
 Maximum Displacement     0.255445     0.001800     NO 
 RMS     Displacement     0.068037     0.001200     NO 
 Predicted change in Energy=-5.018570D-02
 GradGradGradGradGradGradGradGradGradGradGradGradGradGradGradGradGradGrad

                          Input orientation:                          
 ---------------------------------------------------------------------
 Center     Atomic      Atomic             Coordinates (Angstroms)
 Number     Number       Type             X           Y           Z
 ---------------------------------------------------------------------
      1          6           0        1.437493    0.707815   -0.005651
      2          6           0        0.145349    1.176208   -0.020160
      3          6           0       -0.741124    0.011571   -0.000240
      4          6           0        0.127722   -1.175903    0.014709
      5          8           0        1.487425   -0.696955    0.009056
      6          1           0        2.416744    1.177876   -0.002433
      7          1           0       -0.185299    2.210417   -0.033232
      8          6           0       -2.109748    0.055884    0.000219
      9          1           0       -0.043458   -1.801704   -0.884141
     10          1           0       -0.030649   -1.799915    0.919622
     11          1           0       -2.630732    0.630928   -0.753473
     12          1           0       -2.667984   -0.480855    0.755712
 ---------------------------------------------------------------------
                    Distance matrix (angstroms):
                    1          2          3          4          5
     1  C    0.000000
     2  C    1.374496   0.000000
     3  C    2.287172   1.463766   0.000000
     4  C    2.294407   2.352435   1.471465   0.000000
     5  O    1.405734   2.304510   2.338488   1.441601   0.000000
     6  H    1.086232   2.271465   3.366364   3.283320   2.092548
     7  H    2.211793   1.085858   2.268250   3.401094   3.354491
     8  C    3.606656   2.518135   1.369341   2.554169   3.675119
     9  H    3.043459   3.106457   2.134475   1.108540   2.088510
    10  H    3.049636   3.125936   2.152302   1.110559   2.085713
    11  H    4.137101   2.922619   2.126401   3.385825   4.393625
    12  H    4.341377   3.355991   2.127613   2.974584   4.227484
                    6          7          8          9         10
     6  H    0.000000
     7  H    2.799592   0.000000
     8  C    4.663476   2.889055   0.000000
     9  H    3.963320   4.103813   2.915866   0.000000
    10  H    3.963226   4.124877   2.934611   1.803809   0.000000
    11  H    5.132273   2.998946   1.081736   3.553697   3.933024
    12  H    5.401910   3.745544   1.081890   3.364803   2.953358
                   11         12
    11  H    0.000000
    12  H    1.874857   0.000000
 Stoichiometry    C5H6O
 Framework group  C1[X(C5H6O)]
 Deg. of freedom    30
 Full point group                 C1      NOp   1
 Largest Abelian subgroup         C1      NOp   1
 Largest concise Abelian subgroup C1      NOp   1
                         Standard orientation:                         
 ---------------------------------------------------------------------
 Center     Atomic      Atomic             Coordinates (Angstroms)
 Number     Number       Type             X           Y           Z
 ---------------------------------------------------------------------
      1          6           0       -1.383913    0.748753   -0.021814
      2          6           0       -0.085529    1.199784   -0.025181
      3          6           0        0.785062    0.023308   -0.000923
      4          6           0       -0.099811   -1.151978    0.029280
      5          8           0       -1.452893   -0.654756    0.016830
      6          1           0       -2.356703    1.231597   -0.042816
      7          1           0        0.259116    2.229162   -0.051407
      8          6           0        2.154160    0.048997   -0.003150
      9          1           0        0.063389   -1.745469    0.951232
     10          1           0        0.049563   -1.811986   -0.851298
     11          1           0        2.683328    0.645119    0.728132
     12          1           0        2.704632   -0.523561   -0.737754
 ---------------------------------------------------------------------
 Rotational constants (GHZ):           8.0055862           3.5339012           2.5189306
 Standard basis: VSTO-6G (5D, 7F)
 There are    30 symmetry adapted cartesian basis functions of A   symmetry.
 There are    30 symmetry adapted basis functions of A   symmetry.
    30 basis functions,   180 primitive gaussians,    30 cartesian basis functions
    16 alpha electrons       16 beta electrons
       nuclear repulsion energy       137.8881829312 Hartrees.
 Integral buffers will be    131072 words long.
 Regular integral format.
 Two-electron integral symmetry is turned off.
 Do NDO integrals.
 One-electron integrals computed using PRISM.
 NBasis=    30 RedAO= F EigKep=  0.00D+00  NBF=    30
 NBsUse=    30 1.00D-04 EigRej=  0.00D+00 NBFU=    30
 Initial guess from the checkpoint file:  "meth_furan_isomer_opt.chk"
 B after Tr=    -0.000000    0.000000    0.000000
         Rot=    0.999943    0.003827    0.000164    0.009944 Ang=   1.22 deg.
 Keep J ints in memory in canonical form, NReq=861564.
 Overlap will be assumed to be unity.
 Requested convergence on RMS density matrix=1.00D-08 within 128 cycles.
 Requested convergence on MAX density matrix=1.00D-06.
 Requested convergence on             energy=1.00D-06.
 No special actions if energy rises.
 SCF Done:  E(RAM1) =  0.362396213816E-01 A.U. after   13 cycles
            NFock= 12  Conv=0.40D-08     -V/T= 1.0006
 Calling FoFJK, ICntrl=      2127 FMM=F ISym2X=0 I1Cent= 0 IOpClX= 0 NMat=1 NMatS=1 NMatT=0.
 ***** Axes restored to original set *****
 -------------------------------------------------------------------
 Center     Atomic                   Forces (Hartrees/Bohr)
 Number     Number              X              Y              Z
 -------------------------------------------------------------------
      1        6          -0.017343982   -0.006200983   -0.001211858
      2        6           0.020686613   -0.008566823   -0.018984306
      3        6          -0.046535563    0.031885855   -0.001719654
      4        6          -0.001532896   -0.017591511    0.019912788
      5        8           0.010015878    0.013010713    0.000104878
      6        1           0.000785535    0.000380710    0.001732783
      7        1          -0.000821236   -0.000401850    0.000321233
      8        6           0.042836593   -0.004593523    0.001559073
      9        1           0.002921710   -0.002678145   -0.008781975
     10        1           0.005190601   -0.006011657    0.007026428
     11        1          -0.007220308    0.020009977    0.007188963
     12        1          -0.008982945   -0.019242762   -0.007148353
 -------------------------------------------------------------------
 Cartesian Forces:  Max     0.046535563 RMS     0.015311950

 GradGradGradGradGradGradGradGradGradGradGradGradGradGradGradGradGradGrad
 Berny optimization.
 Using GEDIIS/GDIIS optimizer.
 FormGI is forming the generalized inverse of G from B-inverse, IUseBI=4.
 Internal  Forces:  Max     0.026742674 RMS     0.008312576
 Search for a local minimum.
 Step number   2 out of a maximum of   64
 All quantities printed in internal units (Hartrees-Bohrs-Radians)
 Mixed Optimization -- RFO/linear search
 Update second derivatives using D2CorX and points    1    2
 DE= -4.49D-02 DEPred=-5.02D-02 R= 8.95D-01
 TightC=F SS=  1.41D+00  RLast= 3.90D-01 DXNew= 5.0454D-01 1.1687D+00
 Trust test= 8.95D-01 RLast= 3.90D-01 DXMaxT set to 5.05D-01
 ITU=  1  0
 Use linear search instead of GDIIS.
     Eigenvalues ---    0.01204   0.01258   0.01700   0.01806   0.01920
     Eigenvalues ---    0.02101   0.02245   0.06541   0.08371   0.11490
     Eigenvalues ---    0.11559   0.15966   0.15999   0.16000   0.16001
     Eigenvalues ---    0.22632   0.23712   0.24955   0.35315   0.35339
     Eigenvalues ---    0.36431   0.36568   0.37067   0.37230   0.37230
     Eigenvalues ---    0.39230   0.41267   0.45675   0.47442   0.62387
 RFO step:  Lambda=-3.36960057D-02 EMin= 1.20355393D-02
 Quartic linear search produced a step of  0.47234.
 Iteration  1 RMS(Cart)=  0.06682809 RMS(Int)=  0.06938231
 Iteration  2 RMS(Cart)=  0.06609349 RMS(Int)=  0.01582353
 Iteration  3 RMS(Cart)=  0.01885169 RMS(Int)=  0.00062504
 Iteration  4 RMS(Cart)=  0.00048119 RMS(Int)=  0.00042504
 Iteration  5 RMS(Cart)=  0.00000027 RMS(Int)=  0.00042504
 Variable       Old X    -DE/DX   Delta X   Delta X   Delta X     New X
                                 (Linear)    (Quad)   (Total)
    R1        2.59742  -0.01332  -0.00333  -0.03554  -0.03903   2.55839
    R2        2.65645  -0.00903   0.00898  -0.03787  -0.02894   2.62751
    R3        2.05268   0.00088   0.00069   0.00226   0.00296   2.05564
    R4        2.76612  -0.00005   0.01044  -0.01121  -0.00083   2.76529
    R5        2.05197  -0.00014   0.00015  -0.00063  -0.00049   2.05149
    R6        2.78067   0.02597   0.07944  -0.01285   0.06672   2.84739
    R7        2.58768  -0.02674  -0.08346   0.00259  -0.08086   2.50682
    R8        2.72423   0.00734   0.04191  -0.02220   0.01983   2.74407
    R9        2.09484   0.00818   0.03440  -0.01091   0.02349   2.11833
   R10        2.09865   0.00836   0.03620  -0.01229   0.02391   2.12256
   R11        2.04418   0.00911   0.01048   0.01843   0.02890   2.07309
   R12        2.04448   0.00919   0.01061   0.01855   0.02917   2.07364
    A1        1.95416   0.00731   0.01469   0.00444   0.01882   1.97298
    A2        2.34628  -0.00364  -0.00785  -0.00147  -0.00918   2.33710
    A3        1.98274  -0.00367  -0.00683  -0.00298  -0.00967   1.97308
    A4        1.87344   0.00568   0.00555   0.01368   0.01880   1.89224
    A5        2.22806  -0.00191  -0.00246  -0.00092  -0.00332   2.22474
    A6        2.18163  -0.00378  -0.00311  -0.01296  -0.01602   2.16561
    A7        1.85942  -0.00745   0.00140  -0.02605  -0.02469   1.83473
    A8        2.18897   0.00722  -0.00100   0.02979   0.02880   2.21777
    A9        2.23479   0.00023  -0.00041  -0.00376  -0.00416   2.23063
   A10        1.86373  -0.00615  -0.02818   0.01407  -0.01360   1.85014
   A11        1.93495   0.00243   0.01270  -0.00405   0.00758   1.94253
   A12        1.95791   0.00713   0.02354   0.02694   0.04954   2.00745
   A13        1.90712  -0.00126  -0.00045  -0.02692  -0.02754   1.87958
   A14        1.90115  -0.00285  -0.00327  -0.03387  -0.03649   1.86466
   A15        1.89808   0.00035  -0.00473   0.02116   0.01456   1.91264
   A16        1.87396   0.00060   0.00651  -0.00635   0.00013   1.87409
   A17        2.09247   0.00227  -0.00091   0.01679   0.01588   2.10836
   A18        2.09427   0.00330  -0.00006   0.02281   0.02275   2.11702
   A19        2.09643  -0.00557   0.00096  -0.03961  -0.03865   2.05778
    D1        0.01053   0.00138   0.00498   0.01850   0.02389   0.03442
    D2       -3.14156   0.00010   0.00001  -0.00216  -0.00199   3.13964
    D3       -3.13024   0.00144   0.00536   0.02548   0.03105  -3.09919
    D4        0.00086   0.00016   0.00038   0.00483   0.00516   0.00603
    D5       -0.00800  -0.00116  -0.00378  -0.01252  -0.01621  -0.02421
    D6        3.13295  -0.00121  -0.00408  -0.01796  -0.02182   3.11113
    D7       -0.00875  -0.00094  -0.00414  -0.01666  -0.02075  -0.02950
    D8        3.13555  -0.00073  -0.00286  -0.00992  -0.01278   3.12277
    D9       -3.14020   0.00028   0.00067   0.00321   0.00397  -3.13623
   D10        0.00410   0.00049   0.00195   0.00995   0.01194   0.01604
   D11        0.00402   0.00026   0.00190   0.00922   0.01104   0.01506
   D12       -2.07183   0.00413   0.01213   0.03545   0.04803  -2.02381
   D13        2.08559  -0.00305  -0.00563  -0.00778  -0.01451   2.07107
   D14       -3.14038   0.00005   0.00057   0.00232   0.00306  -3.13732
   D15        1.06696   0.00393   0.01080   0.02855   0.04004   1.10700
   D16       -1.05881  -0.00326  -0.00695  -0.01469  -0.02250  -1.08130
   D17        0.91725  -0.01799  -0.05956  -0.39866  -0.45821   0.45904
   D18       -2.22055  -0.01782  -0.05777  -0.39746  -0.45522  -2.67576
   D19       -2.22105  -0.01773  -0.05800  -0.39044  -0.44845  -2.66950
   D20        0.92434  -0.01756  -0.05621  -0.38924  -0.44547   0.47888
   D21        0.00206   0.00047   0.00097   0.00131   0.00197   0.00403
   D22        2.09591  -0.00088  -0.00075  -0.01020  -0.01113   2.08479
   D23       -2.11593  -0.00286  -0.00870  -0.02014  -0.02899  -2.14492
         Item               Value     Threshold  Converged?
 Maximum Force            0.026743     0.000450     NO 
 RMS     Force            0.008313     0.000300     NO 
 Maximum Displacement     0.525910     0.001800     NO 
 RMS     Displacement     0.145482     0.001200     NO 
 Predicted change in Energy=-3.202753D-02
 GradGradGradGradGradGradGradGradGradGradGradGradGradGradGradGradGradGrad

                          Input orientation:                          
 ---------------------------------------------------------------------
 Center     Atomic      Atomic             Coordinates (Angstroms)
 Number     Number       Type             X           Y           Z
 ---------------------------------------------------------------------
      1          6           0        1.417108    0.700671   -0.028997
      2          6           0        0.147806    1.168397   -0.083680
      3          6           0       -0.768244    0.030228   -0.001541
      4          6           0        0.119898   -1.185045    0.066843
      5          8           0        1.483448   -0.686350    0.041952
      6          1           0        2.396128    1.174777   -0.022277
      7          1           0       -0.172437    2.204067   -0.141649
      8          6           0       -2.094216    0.069376   -0.001641
      9          1           0       -0.019034   -1.841928   -0.830809
     10          1           0        0.014759   -1.798220    1.002025
     11          1           0       -2.631663    0.898860   -0.477650
     12          1           0       -2.687814   -0.719465    0.477413
 ---------------------------------------------------------------------
                    Distance matrix (angstroms):
                    1          2          3          4          5
     1  C    0.000000
     2  C    1.353842   0.000000
     3  C    2.286048   1.463326   0.000000
     4  C    2.290822   2.358416   1.506772   0.000000
     5  O    1.390419   2.289064   2.363365   1.452097   0.000000
     6  H    1.087796   2.249169   3.365066   3.279928   2.073863
     7  H    2.190786   1.085600   2.258361   3.408080   3.336192
     8  C    3.567728   2.498248   1.326550   2.545695   3.656871
     9  H    3.028237   3.106139   2.180360   1.120971   2.086750
    10  H    3.045332   3.161847   2.227883   1.123211   2.077268
    11  H    4.078372   2.820161   2.110339   3.494313   4.440385
    12  H    4.373056   3.452475   2.115699   2.875514   4.194061
                    6          7          8          9         10
     6  H    0.000000
     7  H    2.769695   0.000000
     8  C    4.624449   2.875716   0.000000
     9  H    3.948068   4.107134   2.940575   0.000000
    10  H    3.944467   4.166694   2.990491   1.833666   0.000000
    11  H    5.055904   2.804327   1.097031   3.802955   4.057983
    12  H    5.448330   3.906072   1.097324   3.177067   2.956828
                   11         12
    11  H    0.000000
    12  H    1.879966   0.000000
 Stoichiometry    C5H6O
 Framework group  C1[X(C5H6O)]
 Deg. of freedom    30
 Full point group                 C1      NOp   1
 Largest Abelian subgroup         C1      NOp   1
 Largest concise Abelian subgroup C1      NOp   1
                         Standard orientation:                         
 ---------------------------------------------------------------------
 Center     Atomic      Atomic             Coordinates (Angstroms)
 Number     Number       Type             X           Y           Z
 ---------------------------------------------------------------------
      1          6           0       -1.361152    0.752830   -0.023881
      2          6           0       -0.081100    1.193418   -0.008529
      3          6           0        0.807868    0.031082   -0.002847
      4          6           0       -0.108597   -1.164584    0.026082
      5          8           0       -1.460055   -0.633538    0.014385
      6          1           0       -2.328879    1.247845   -0.065904
      7          1           0        0.263400    2.222625   -0.032647
      8          6           0        2.134383    0.038917   -0.008380
      9          1           0        0.018377   -1.752132    0.972254
     10          1           0       -0.021299   -1.851514   -0.858287
     11          1           0        2.692800    0.890306    0.400016
     12          1           0        2.707632   -0.798806   -0.425184
 ---------------------------------------------------------------------
 Rotational constants (GHZ):           8.0009023           3.5775040           2.5229973
 Standard basis: VSTO-6G (5D, 7F)
 There are    30 symmetry adapted cartesian basis functions of A   symmetry.
 There are    30 symmetry adapted basis functions of A   symmetry.
    30 basis functions,   180 primitive gaussians,    30 cartesian basis functions
    16 alpha electrons       16 beta electrons
       nuclear repulsion energy       137.9997852916 Hartrees.
 Integral buffers will be    131072 words long.
 Regular integral format.
 Two-electron integral symmetry is turned off.
 Do NDO integrals.
 One-electron integrals computed using PRISM.
 NBasis=    30 RedAO= F EigKep=  0.00D+00  NBF=    30
 NBsUse=    30 1.00D-04 EigRej=  0.00D+00 NBFU=    30
 Initial guess from the checkpoint file:  "meth_furan_isomer_opt.chk"
 B after Tr=    -0.000000   -0.000000    0.000000
         Rot=    0.999957    0.008246   -0.000163    0.004171 Ang=   1.06 deg.
 Keep J ints in memory in canonical form, NReq=861564.
 Overlap will be assumed to be unity.
 Requested convergence on RMS density matrix=1.00D-08 within 128 cycles.
 Requested convergence on MAX density matrix=1.00D-06.
 Requested convergence on             energy=1.00D-06.
 No special actions if energy rises.
 SCF Done:  E(RAM1) =  0.744453538456E-02 A.U. after   12 cycles
            NFock= 11  Conv=0.81D-08     -V/T= 1.0001
 Calling FoFJK, ICntrl=      2127 FMM=F ISym2X=0 I1Cent= 0 IOpClX= 0 NMat=1 NMatS=1 NMatT=0.
 ***** Axes restored to original set *****
 -------------------------------------------------------------------
 Center     Atomic                   Forces (Hartrees/Bohr)
 Number     Number              X              Y              Z
 -------------------------------------------------------------------
      1        6           0.006206105   -0.000593466   -0.001153101
      2        6           0.000017935    0.004929176   -0.008087990
      3        6           0.006332995    0.000973851   -0.000550739
      4        6          -0.004420585   -0.008249896    0.009959224
      5        8           0.002435357   -0.002556069    0.000846112
      6        1           0.001420395    0.001453221    0.000078667
      7        1          -0.001313556    0.001053773   -0.000311188
      8        6          -0.007427242   -0.002395288    0.001223293
      9        1           0.001614406    0.001955898    0.000094901
     10        1           0.000493115    0.003125390   -0.001859754
     11        1          -0.002644744    0.004145575    0.010061933
     12        1          -0.002714178   -0.003842166   -0.010301357
 -------------------------------------------------------------------
 Cartesian Forces:  Max     0.010301357 RMS     0.004454350

 GradGradGradGradGradGradGradGradGradGradGradGradGradGradGradGradGradGrad
 Berny optimization.
 Using GEDIIS/GDIIS optimizer.
 FormGI is forming the generalized inverse of G from B-inverse, IUseBI=4.
 Internal  Forces:  Max     0.012718788 RMS     0.003694659
 Search for a local minimum.
 Step number   3 out of a maximum of   64
 All quantities printed in internal units (Hartrees-Bohrs-Radians)
 Mixed Optimization -- RFO/linear search
 Update second derivatives using D2CorX and points    2    3
 DE= -2.88D-02 DEPred=-3.20D-02 R= 8.99D-01
 TightC=F SS=  1.41D+00  RLast= 9.23D-01 DXNew= 8.4853D-01 2.7690D+00
 Trust test= 8.99D-01 RLast= 9.23D-01 DXMaxT set to 8.49D-01
 ITU=  1  1  0
 Use linear search instead of GDIIS.
     Eigenvalues ---    0.01258   0.01641   0.01712   0.01820   0.01988
     Eigenvalues ---    0.02110   0.02253   0.06601   0.08032   0.11462
     Eigenvalues ---    0.11687   0.15597   0.15986   0.16000   0.16006
     Eigenvalues ---    0.22593   0.23632   0.24705   0.35235   0.35322
     Eigenvalues ---    0.36024   0.36878   0.37206   0.37230   0.37344
     Eigenvalues ---    0.39966   0.42925   0.45737   0.47781   0.60485
 RFO step:  Lambda=-8.63451979D-03 EMin= 1.25760570D-02
 Quartic linear search produced a step of  0.59374.
 Iteration  1 RMS(Cart)=  0.07012009 RMS(Int)=  0.06153586
 Iteration  2 RMS(Cart)=  0.06565423 RMS(Int)=  0.00878283
 Iteration  3 RMS(Cart)=  0.01000910 RMS(Int)=  0.00022966
 Iteration  4 RMS(Cart)=  0.00014463 RMS(Int)=  0.00018528
 Iteration  5 RMS(Cart)=  0.00000003 RMS(Int)=  0.00018528
 Variable       Old X    -DE/DX   Delta X   Delta X   Delta X     New X
                                 (Linear)    (Quad)   (Total)
[...]
 ! A7    A(2,3,4)              105.1651         -DE/DX =    0.0                 !
 ! A8    A(2,3,8)              128.3092         -DE/DX =    0.0                 !
 ! A9    A(4,3,8)              126.5257         -DE/DX =    0.0                 !
 ! A10   A(3,4,5)              105.8834         -DE/DX =    0.0                 !
 ! A11   A(3,4,9)              112.9978         -DE/DX =    0.0                 !
 ! A12   A(3,4,10)             112.9587         -DE/DX =    0.0                 !
 ! A13   A(5,4,9)              106.6328         -DE/DX =    0.0                 !
 ! A14   A(5,4,10)             106.6378         -DE/DX =    0.0                 !
 ! A15   A(9,4,10)             111.1674         -DE/DX =    0.0                 !
 ! A16   A(1,5,4)              107.488          -DE/DX =    0.0                 !
 ! A17   A(3,8,11)             122.0876         -DE/DX =    0.0                 !
 ! A18   A(3,8,12)             122.3324         -DE/DX =    0.0                 !
 ! A19   A(11,8,12)            115.58           -DE/DX =    0.0                 !
 ! D1    D(5,1,2,3)              0.022          -DE/DX =    0.0                 !
 ! D2    D(5,1,2,7)           -179.9824         -DE/DX =    0.0                 !
 ! D3    D(6,1,2,3)           -180.0045         -DE/DX =    0.0                 !
 ! D4    D(6,1,2,7)             -0.0089         -DE/DX =    0.0                 !
 ! D5    D(2,1,5,4)             -0.0102         -DE/DX =    0.0                 !
 ! D6    D(6,1,5,4)            180.0108         -DE/DX =    0.0                 !
 ! D7    D(1,2,3,4)             -0.0238         -DE/DX =    0.0                 !
 ! D8    D(1,2,3,8)            179.9386         -DE/DX =    0.0                 !
 ! D9    D(7,2,3,4)            179.9803         -DE/DX =    0.0                 !
 ! D10   D(7,2,3,8)             -0.0573         -DE/DX =    0.0                 !
 ! D11   D(2,3,4,5)              0.0175         -DE/DX =    0.0                 !
 ! D12   D(2,3,4,9)           -116.346          -DE/DX =    0.0                 !
 ! D13   D(2,3,4,10)           116.3664         -DE/DX =    0.0                 !
 ! D14   D(8,3,4,5)           -179.9458         -DE/DX =    0.0                 !
 ! D15   D(8,3,4,9)             63.6907         -DE/DX =    0.0                 !
 ! D16   D(8,3,4,10)           -63.5969         -DE/DX =    0.0                 !
 ! D17   D(2,3,8,11)             0.0325         -DE/DX =    0.0                 !
 ! D18   D(2,3,8,12)          -179.9871         -DE/DX =    0.0                 !
 ! D19   D(4,3,8,11)           179.9874         -DE/DX =    0.0                 !
 ! D20   D(4,3,8,12)            -0.0322         -DE/DX =    0.0                 !
 ! D21   D(3,4,5,1)             -0.0055         -DE/DX =    0.0                 !
 ! D22   D(9,4,5,1)            120.5883         -DE/DX =    0.0                 !
 ! D23   D(10,4,5,1)          -120.5563         -DE/DX =    0.0                 !
 --------------------------------------------------------------------------------
 GradGradGradGradGradGradGradGradGradGradGradGradGradGradGradGradGradGrad


 ----------------------------------------------------------------------

 Electric dipole moment (input orientation):
 (Debye = 10**-18 statcoulomb cm , SI units = C m)
                  (au)            (Debye)         (10**-30 SI)
   Tot        0.276105D+00      0.701789D+00      0.234092D+01
   x         -0.232909D+00     -0.591996D+00     -0.197468D+01
   y          0.147551D+00      0.375038D+00      0.125099D+01
   z         -0.146982D-01     -0.373591D-01     -0.124617D+00

 Dipole polarizability, Alpha (input orientation).
 (esu units = cm**3 , SI units = C**2 m**2 J**-1)
 Alpha(0;0):
               (au)            (10**-24 esu)      (10**-40 SI)
   iso        0.484744D+02      0.718316D+01      0.799234D+01
   aniso      0.606775D+02      0.899148D+01      0.100044D+02
   xx         0.845370D+02      0.125271D+02      0.139383D+02
   yx        -0.474348D+01     -0.702912D+00     -0.782095D+00
   yy         0.453078D+02      0.671392D+01      0.747024D+01
   zx         0.708969D+00      0.105058D+00      0.116893D+00
   zy        -0.281150D+01     -0.416622D+00     -0.463554D+00
   zz         0.155783D+02      0.230847D+01      0.256852D+01

 First dipole hyperpolarizability, Beta (input orientation).
 ||, _|_  parallel and perpendicular components, (z) with respect to z axis,
 vector components x,y,z.  Values do not include the 1/n! factor of 1/2.
 (esu units = statvolt**-1 cm**4 , SI units = C**3 m**3 J**-2)
 Beta(0;0,0):
               (au)            (10**-30 esu)      (10**-50 SI)
   || (z)    -0.195637D+01     -0.169015D-01     -0.627283D-02
   _|_(z)    -0.652124D+00     -0.563384D-02     -0.209094D-02
   x         -0.476657D+03     -0.411794D+01     -0.152833D+01
   y          0.868294D+02      0.750139D+00      0.278406D+00
   z         -0.978186D+01     -0.845076D-01     -0.313642D-01
   ||         0.969199D+02      0.837312D+00      0.310760D+00
   xxx       -0.651205D+02     -0.562590D+00     -0.208800D+00
   xxy       -0.276783D+02     -0.239119D+00     -0.887467D-01
   yxy       -0.879756D+02     -0.760041D+00     -0.282082D+00
   yyy        0.815925D+02      0.704896D+00      0.261615D+00
   xxz        0.242993D+01      0.209927D-01      0.779122D-02
   yxz        0.771443D+01      0.666467D-01      0.247353D-01
   yyz       -0.128639D+02     -0.111134D+00     -0.412462D-01
   zxz       -0.578946D+01     -0.500164D-01     -0.185631D-01
   zyz       -0.249711D+02     -0.215731D+00     -0.800663D-01
   zzz        0.717333D+01      0.619719D-01      0.230003D-01

 ----------------------------------------------------------------------

 Dipole orientation:
     6          1.20390354          2.26084056         -1.57395280
     6          0.96011791          1.80339553          0.93879289
     6         -0.33292612         -0.62979578          1.26468939
     6         -0.83318347         -1.57018578         -1.38361859
     8          0.18895393          0.35200059         -3.07193847
     1          2.02508862          3.80589493         -2.66059347
     1          1.58355325          2.97719909          2.50496349
     6         -0.94887934         -1.79231764          3.40622155
     1         -2.89160592         -1.73128567         -1.82687604
     1          0.18503246         -3.36679595         -1.82592385
     1         -0.51655051         -0.98007202          5.26400984
     1         -1.92139380         -3.62281100          3.43402725

 Electric dipole moment (dipole orientation):
 (Debye = 10**-18 statcoulomb cm , SI units = C m)
                  (au)            (Debye)         (10**-30 SI)
   Tot        0.276105D+00      0.701789D+00      0.234092D+01
   x          0.000000D+00      0.000000D+00      0.000000D+00
   y          0.000000D+00      0.000000D+00      0.000000D+00
   z          0.276105D+00      0.701789D+00      0.234092D+01

 Dipole polarizability, Alpha (dipole orientation).
 (esu units = cm**3 , SI units = C**2 m**2 J**-1)
 Alpha(0;0):
               (au)            (10**-24 esu)      (10**-40 SI)
   iso        0.484744D+02      0.718316D+01      0.799234D+01
   aniso      0.606775D+02      0.899148D+01      0.100044D+02
   xx         0.234901D+02      0.348088D+01      0.387300D+01
   yx         0.153934D+02      0.228107D+01      0.253803D+01
   yy         0.442943D+02      0.656374D+01      0.730315D+01
   zx        -0.731983D+01     -0.108469D+01     -0.120688D+01
   zy        -0.138058D+02     -0.204581D+01     -0.227627D+01
   zz         0.776386D+02      0.115049D+02      0.128009D+02

 First dipole hyperpolarizability, Beta (dipole orientation).
 ||, _|_  parallel and perpendicular components, (z) with respect to z axis,
 vector components x,y,z.  Values do not include the 1/n! factor of 1/2.
 (esu units = statvolt**-1 cm**4 , SI units = C**3 m**3 J**-2)
 Beta(0;0,0):
               (au)            (10**-30 esu)      (10**-50 SI)
   || (z)     0.898015D+02      0.775815D+00      0.287936D+00
   _|_(z)     0.299338D+02      0.258605D+00      0.959786D-01
   x         -0.853145D+02     -0.737051D+00     -0.273549D+00
   y         -0.161092D+03     -0.139171D+01     -0.516518D+00
   z          0.449007D+03      0.387907D+01      0.143968D+01
   ||         0.969199D+02      0.837312D+00      0.310760D+00
   xxx       -0.360226D+02     -0.311207D+00     -0.115502D+00
   xxy       -0.234378D+02     -0.202485D+00     -0.751502D-01
   yxy       -0.142017D+02     -0.122691D+00     -0.455357D-01
   yyy       -0.711221D+02     -0.614440D+00     -0.228043D+00
   xxz        0.866247D+01      0.748370D-01      0.277750D-01
   yxz        0.350937D+02      0.303182D+00      0.112523D+00
   yyz        0.561108D+02      0.484754D+00      0.179912D+00
   zxz        0.217861D+02      0.188215D+00      0.698541D-01
   zyz        0.408627D+02      0.353022D+00      0.131021D+00
   zzz        0.848958D+02      0.733433D+00      0.272207D+00

 ----------------------------------------------------------------------
 1\1\GINC-IISERK51\Freq\RAM1\ZDO\C5H6O1\GAUSSIAN\14-Jun-2025\0\\#N Geom
 =AllCheck Guess=TCheck SCRF=Check GenChk RAM1/ZDO Freq\\methyl_furan_i
 somer opt freq with AM1\\0,1\C,1.4305020959,0.6937394249,-0.0576043166
 \C,0.1615353272,1.1738523303,-0.107849562\C,-0.7669928918,0.041017215,
 -0.0061387049\C,0.1124761598,-1.1814797138,0.111092231\O,1.4848079437,
 -0.6910321894,0.0713406618\H,2.4128116649,1.164334619,-0.0973575703\H,
 -0.1598761171,2.2076229255,-0.2056190487\C,-2.0968309479,0.0618163053,
 -0.0126667306\H,-0.0008358551,-1.8850142996,-0.7497190118\H,-0.0089181
 227,-1.7139513258,1.0861420875\H,-2.6646383693,0.9962873514,-0.1017125
 757\H,-2.6983019575,-0.8518255627,0.0700828903\\Version=EM64L-G16RevB.
 01\State=1-A\HF=-0.002054\RMSD=1.156e-09\RMSF=3.154e-05\ZeroPoint=0.10
 02156\Thermal=0.1052553\Dipole=-0.232909,0.1475513,-0.0146982\DipoleDe
 riv=0.2699011,-0.2182454,0.0213308,-0.8221997,0.82863,-0.0791877,0.077
 3355,-0.0766383,0.021264,-0.6084528,0.1835071,-0.0180413,-0.0177888,-0
 .2560904,-0.0079848,0.0005086,-0.0071004,-0.3398596,0.1936273,-0.01703
 ,0.0024521,0.236366,-0.057526,0.0017703,-0.020881,0.0006696,-0.0492684
 ,0.2294306,0.2795912,-0.0259425,0.0021238,0.1239181,0.0086167,-0.00018
 76,0.0098645,0.2159517,-0.4328982,-0.2172189,0.0197008,0.6058407,-1.04
 01787,0.0709453,-0.0568368,0.0673743,-0.311656,0.3091126,0.0640268,-0.
 0054649,0.1021179,0.0833246,0.0100183,-0.0088865,0.0098669,0.1856052,0
 .0836463,-0.0498517,0.0041931,-0.0647531,0.2000419,-0.0010908,0.005598
 8,-0.0010217,0.1916558,-0.3056305,0.012461,-0.0011006,-0.042015,-0.113
 0624,-0.0211037,0.0040922,-0.0208813,-0.335994,0.0203515,-0.0151435,0.
 0084431,0.0047458,0.0585837,0.0288574,-0.0006047,0.0530052,0.048136,0.
 0203869,-0.0159858,-0.0058289,0.0050748,0.0432726,-0.0278794,-0.000563
 1,-0.052208,0.0631778,0.1139101,-0.0371604,0.0032804,-0.1177867,0.0774
 168,0.0079572,0.0107211,0.0082839,0.1668831,0.1066207,0.0310469,-0.003
 0218,0.108262,0.0516729,0.0090803,-0.0102953,0.0087845,0.1440987\Polar
 =84.5370163,-4.7434842,45.3077523,0.7089688,-2.8115033,15.5783098\Hype
 rPolar=-65.1204996,-27.6783108,-87.9756222,81.5925215,2.4299266,7.7144
 316,-12.8638716,-5.7894586,-24.9710725,7.1733259\PG=C01 [X(C5H6O1)]\NI
 mag=0\\1.02096191,0.00265666,0.67391878,0.00358146,-0.05097372,0.13077
 281,-0.51360440,0.13325454,-0.01438415,0.81894860,0.17527582,-0.133656
 64,0.00767829,-0.16124691,0.82408712,-0.01830241,0.00749526,-0.0601487
 5,0.01795883,-0.06555283,0.13448101,-0.10576810,-0.02133285,0.00148742
 ,-0.14374535,-0.13004388,0.01180947,1.16061276,-0.03505389,0.01936547,
 -0.00079282,-0.10588789,-0.22416551,0.01391142,0.01791739,0.55357523,0
 .00276412,-0.00073684,0.01249688,0.00955837,0.01381261,-0.07141240,0.0
 0200555,-0.03611676,0.16806664,-0.00660682,-0.07720133,0.00714921,0.00
 663279,-0.00201836,0.00016283,-0.11589698,0.08773855,-0.00832096,0.490
 08794,-0.07085171,-0.06543612,0.00570764,0.00145696,-0.08061322,0.0085
 8473,0.08516854,-0.19450851,0.01130491,0.01181358,0.65916062,0.0065586
 0,0.00568061,-0.00131066,-0.00015162,0.00857708,0.01082253,-0.00808452
 ,0.01131297,-0.07765352,-0.00130488,-0.01242384,0.52464411,-0.09587460
 ,0.03986508,-0.00394200,-0.02060688,0.06227959,-0.00593333,-0.07978493
 ,0.01321424,-0.00157623,-0.25522066,-0.02862083,0.00179644,0.50473694,
 0.02861543,-0.38497729,0.03225983,0.07317415,-0.08330551,0.00919420,0.
 01926286,-0.00199755,0.00054066,-0.02911655,-0.08593247,0.00300038,-0.
 01725521,0.61325019,-0.00289279,0.03230616,-0.04225119,-0.00695311,0.0
 0914362,0.01123019,-0.00213983,0.00051318,0.00288943,0.00185111,0.0030
 0259,-0.05259388,0.00345045,-0.05073751,0.07301849,-0.27972302,-0.1094
 0491,0.00919000,-0.02784097,-0.00870159,0.00067490,-0.00232093,0.00039
 864,-0.00007768,-0.00068432,0.00130021,-0.00013581,-0.00167033,-0.0155
 2744,0.00142270,0.31223072,-0.10804878,-0.08665833,0.00390606,0.008974
 90,0.00753850,-0.00026137,0.00216671,-0.00154499,0.00081497,0.00371367
 ,-0.00490624,0.00074594,-0.03745718,-0.03427723,0.00336092,0.13190059,
 0.11919907,0.00907120,0.00390136,-0.04023176,-0.00097512,-0.00033674,0
 .00434719,-0.00024189,0.00080755,0.00702940,-0.00036073,0.00073620,0.0
 0287583,0.00346311,0.00345294,0.00324414,-0.01107256,-0.00846591,0.023
 09567,-0.01354586,0.03142862,-0.00298879,-0.06330287,0.08265395,-0.007
 82411,0.00460273,-0.01933187,0.00180138,-0.00180465,-0.00263186,0.0002
 3057,-0.00392715,0.00259821,-0.00028942,-0.00015831,0.00002076,-0.0000
 0402,0.07758064,0.01193682,-0.01504028,0.00151161,0.08435765,-0.306760
 19,0.02557956,-0.00137653,-0.02845583,0.00308433,-0.00130137,-0.001752
 47,0.00030684,-0.00018939,0.00306333,0.00037963,0.00036319,0.00032896,
 0.00000199,-0.09450873,0.34867746,-0.00117352,0.00159929,0.00048693,-0
 .00798120,0.02557129,-0.03871871,0.00012615,0.00300888,0.00441005,0.00
 010798,0.00029996,0.00157054,-0.00003051,0.00038861,0.00709180,-0.0000
 3604,0.00000007,0.00033020,0.00905095,-0.03087130,0.02484148,0.0038786
 2,-0.00497282,0.00047694,-0.05404962,-0.02213746,0.00183975,-0.6564509
 9,0.01436059,-0.00342009,-0.03645744,0.01933043,-0.00194527,-0.0028906
 4,0.00276050,-0.00027143,-0.00000495,0.00018144,-0.00001714,0.00025563
 ,0.00037425,-0.00003231,0.97748670,-0.00249123,-0.00697856,0.00067602,
 -0.03482276,-0.00217238,0.00062921,0.00912117,-0.07631460,0.00189850,0
 .03017240,-0.00458124,0.00096855,0.00597836,-0.00002853,0.00009213,-0.
 00034147,0.00063458,-0.00007634,-0.00013778,0.00013682,-0.00003230,-0.
 00464856,0.56950515,0.00024299,0.00067041,0.00034088,0.00302068,0.0006
 7339,0.00589772,-0.00293743,0.00191395,-0.05645714,-0.00295758,0.00093
 522,0.00458409,-0.00057136,0.00007435,0.00067027,0.00003221,-0.0000733
 0,-0.00015276,0.00001434,-0.00003002,-0.00019660,0.00344762,-0.0411309
 1,0.13137160,-0.00452351,0.00219627,-0.00286891,-0.00043987,0.00130160
 ,-0.00074241,0.00134212,0.01412225,0.01090673,-0.03873094,-0.00870248,
 -0.01262761,-0.02188454,-0.03422831,-0.02143342,0.00018444,-0.00068643
 ,0.00053584,0.00017989,0.00023568,0.00015587,-0.00027669,0.00073356,-0
 .00014590,0.05863350,-0.00090537,-0.00053804,-0.00097250,0.00009883,-0
 .00064425,0.00071577,0.00923567,-0.02489871,-0.01878198,-0.01292604,-0
 .13166746,-0.11781510,-0.02002091,-0.01495215,-0.01368967,-0.00001515,
 -0.00012956,0.00012339,-0.00011191,-0.00013028,-0.00009669,-0.00039627
 ,-0.00053397,-0.00010166,0.02508634,0.16626712,0.00076203,-0.00046933,
 -0.00008599,-0.00017170,0.00043240,-0.00043707,0.00247274,-0.00660110,
 0.00212919,-0.01614777,-0.11980858,-0.18863849,-0.01178327,-0.00735822
 ,0.00032993,-0.00010717,0.00016509,-0.00008547,0.00004766,-0.00001024,
 0.00005759,-0.00042958,0.00041816,0.00000469,0.02576477,0.14505430,0.2
 1624748,-0.00453696,0.00267976,0.00237923,-0.00044614,0.00141981,0.000
 48925,0.00147382,0.01180192,-0.01330017,-0.03902243,-0.00705536,0.0155
 7689,-0.02220867,-0.02976038,0.02721012,0.00018720,-0.00077155,-0.0003
 9841,0.00018186,0.00020271,-0.00019559,-0.00028250,0.00075106,0.000004
 17,0.00545531,-0.00008619,-0.00039418,0.05913984,-0.00104217,-0.000259
 39,0.00099822,0.00013489,-0.00084478,-0.00063796,0.00845662,-0.0193780
 0,0.02288646,-0.01054492,-0.09045083,0.09922746,-0.01763081,-0.0106425
 5,0.01560970,0.00000606,-0.00018095,-0.00010603,-0.00011969,-0.0001044
 7,0.00012603,-0.00031079,-0.00057159,0.00020873,0.00008745,0.00714194,
 -0.01179859,0.02091652,0.11532292,-0.00061851,0.00052430,-0.00034727,0
 .00014789,-0.00034261,-0.00023032,-0.00410477,0.01075178,-0.00354880,0
 .01981840,0.10124405,-0.22945961,0.01511194,0.00916478,-0.00364369,0.0
 0011007,-0.00015381,-0.00003726,-0.00002476,0.00004244,0.00002974,0.00
 049368,-0.00030331,0.00004774,0.00070074,0.00493071,-0.02940607,-0.031
 64046,-0.12586577,0.26659135,-0.00012577,0.00139890,-0.00013033,0.0007
 8670,0.00002961,0.00001662,-0.03153170,0.03085433,-0.00300423,-0.00199
 368,-0.00110717,0.00006516,-0.00108149,-0.00048262,0.00004020,-0.00005
 298,-0.00009298,0.00000701,-0.00003802,-0.00012912,0.00001111,-0.11102
 840,0.11984601,-0.01140771,-0.00005018,0.00004875,-0.00005069,-0.00005
 464,0.00006485,0.00004037,0.13796287,0.00018049,-0.00064557,0.00006067
 ,-0.00048128,0.00020720,-0.00045370,0.01042990,-0.00115433,0.00068337,
 -0.00042610,0.00017851,0.00082863,-0.00010724,0.00046092,-0.00004599,0
 .00009955,0.00007297,0.00002975,0.00001650,0.00008743,0.00001499,0.124
 03770,-0.24402825,0.01932255,-0.00014411,0.00013692,-0.00006710,-0.000
 02537,-0.00007225,0.00003586,-0.14130417,0.27353246,-0.00001780,0.0000
 6394,-0.00000442,0.00006489,-0.00045070,-0.00460193,-0.00109621,0.0007
 5182,0.00570278,-0.00000191,0.00082932,0.00902396,0.00000873,-0.000047
 89,-0.00002452,-0.00001113,0.00002903,0.00038422,-0.00000264,0.0000145
 9,0.00024607,-0.01180448,0.01931139,-0.04309100,-0.00063212,0.00115103
 ,-0.00023861,0.00064765,-0.00118124,-0.00002287,0.01356821,-0.02390493
 ,0.02444900,-0.00053163,-0.00056768,0.00004988,-0.00233159,0.00118785,
 -0.00014941,-0.03253273,-0.03013406,0.00266319,-0.00030280,-0.00010043
 ,0.00002207,0.00041312,-0.00004096,0.00000546,-0.00014665,0.00009899,-
 0.00000730,-0.00002399,0.00003472,-0.00000288,-0.12017960,-0.12416082,
 0.01125798,0.00011049,-0.00000774,0.00003713,0.00011333,-0.00001801,-0
 .00003457,0.00720726,0.00772409,-0.00072317,0.14820477,-0.00027202,0.0
 0090560,-0.00005925,0.00098704,0.00032968,0.00079578,-0.00900568,-0.00
 052275,0.00060986,0.00009673,0.00050955,-0.00040950,-0.00005594,-0.000
 66089,0.00006522,-0.00007770,-0.00007677,-0.00006819,0.00012375,-0.000
 05052,-0.00000888,-0.12857897,-0.23506726,0.01753728,-0.00000183,-0.00
 005162,0.00004319,-0.00007291,0.00003989,-0.00002844,-0.00912634,-0.02
 877603,0.00343364,0.14598396,0.26342110,0.00002464,-0.00006139,0.00028
 272,-0.00013379,0.00079427,0.00877130,0.00070333,0.00053921,0.00634817
 ,0.00000428,-0.00041218,-0.00386452,0.00000606,0.00006783,0.00003881,0
 .00001052,-0.00006773,-0.00079969,-0.00001114,-0.00000948,-0.00014974,
 0.01166231,0.01754892,-0.04301938,0.00038638,-0.00051764,0.00012252,-0
 .00037848,0.00053299,0.00002677,0.00084428,0.00349590,0.00817726,-0.01
 311838,-0.02191074,0.02406545\\-0.00007761,-0.00002890,0.00004524,0.00
 004252,-0.00004295,-0.00000672,0.00003405,0.00002962,-0.00000697,-0.00
 005629,-0.00001244,-0.00006198,0.00002880,0.00005409,-0.00001819,-0.00
 001647,-0.00000534,-0.00000944,0.00000376,-0.00001879,-0.00000410,0.00
 006579,0.00001602,0.00003566,0.00002478,0.00000819,0.00001749,-0.00000
 877,0.00001382,0.00002034,-0.00002200,-0.00002390,-0.00000441,-0.00001
 856,0.00001058,-0.00000691\\\@


 "MATHEMATICS IS THE ART OF GIVING THE SAME NAME
 TO DIFFERENT THINGS."
                    - H. POINCARE
 Job cpu time:       0 days  0 hours  0 minutes  0.5 seconds.
 Elapsed time:       0 days  0 hours  0 minutes  0.5 seconds.
 File lengths (MBytes):  RWF=      8 Int=      0 D2E=      0 Chk=      2 Scr=      1
 Normal termination of Gaussian 16 at Sat Jun 14 14:39:15 2025.
