 Entering Gaussian System, Link 0=g16
 Input=/home/gaussian/Documents/jeeva/Aromaticity/cyclooctatetraene/meth_cyclooctatetraene_isomer.com
 Output=/home/gaussian/Documents/jeeva/Aromaticity/cyclooctatetraene/meth_cyclooctatetraene_isomer.log
 Initial command:
 /usr/local/g16/l1.exe "/home/gaussian/tmp/Gau-95746.inp" -scrdir="/home/gaussian/tmp/"
 Entering Link 1 = /usr/local/g16/l1.exe PID=     95749.
  
 Copyright (c) 1988-2017, Gaussian, Inc.  All Rights Reserved.
  
 This is part of the Gaussian(R) 16 program.  It is based on
 the Gaussian(R) 09 system (copyright 2009, Gaussian, Inc.),
 the Gaussian(R) 03 system (copyright 2003, Gaussian, Inc.),
 the Gaussian(R) 98 system (copyright 1998, Gaussian, Inc.),
 the Gaussian(R) 94 system (copyright 1995, Gaussian, Inc.),
 the Gaussian 92(TM) system (copyright 1992, Gaussian, Inc.),
 the Gaussian 90(TM) system (copyright 1990, Gaussian, Inc.),
 the Gaussian 88(TM) system (copyright 1988, Gaussian, Inc.),
 the Gaussian 86(TM) system (copyright 1986, Carnegie Mellon
 University), and the Gaussian 82(TM) system (copyright 1983,
 Carnegie Mellon University). Gaussian is a federally registered
 trademark of Gaussian, Inc.
  
 This software contains proprietary and confidential information,
 including trade secrets, belonging to Gaussian, Inc.
  
 This software is provided under written license and may be
 used, copied, transmitted, or stored only in accord with that
 written license.
  
 The following legend is applicable only to US Government
 contracts under FAR:
  
                    RESTRICTED RIGHTS LEGEND
  
 Use, reproduction and disclosure by the US Government is
 subject to restrictions as set forth in subparagraphs (a)
 and (c) of the Commercial Computer Software - Restricted
 Rights clause in FAR 52.227-19.
  
 Gaussian, Inc.
 340 Quinnipiac St., Bldg. 40, Wallingford CT 06492
  
  
 ---------------------------------------------------------------
 Warning -- This program may not be used in any manner that
 competes with the business of Gaussian, Inc. or will provide
 assistance to any competitor of Gaussian, Inc.  The licensee
 of this program is prohibited from giving any competitor of
 Gaussian, Inc. access to this program.  By using this program,
 the user acknowledges that Gaussian, Inc. is engaged in the
 business of creating and licensing software in the field of
 computational chemistry and represents and warrants to the
 licensee that it is not a competitor of Gaussian, Inc. and that
 it will not use this program in any manner prohibited above.
 ---------------------------------------------------------------
  

 Cite this work as:
 Gaussian 16, Revision B.01,
 M. J. Frisch, G. W. Trucks, H. B. Schlegel, G. E. Scuseria, 
 M. A. Robb, J. R. Cheeseman, G. Scalmani, V. Barone, 
 G. A. Petersson, H. Nakatsuji, X. Li, M. Caricato, A. V. Marenich, 
 J. Bloino, B. G. Janesko, R. Gomperts, B. Mennucci, H. P. Hratchian, 
 J. V. Ortiz, A. F. Izmaylov, J. L. Sonnenberg, D. Williams-Young, 
 F. Ding, F. Lipparini, F. Egidi, J. Goings, B. Peng, A. Petrone, 
 T. Henderson, D. Ranasinghe, V. G. Zakrzewski, J. Gao, N. Rega, 
 G. Zheng, W. Liang, M. Hada, M. Ehara, K. Toyota, R. Fukuda, 
 J. Hasegawa, M. Ishida, T. Nakajima, Y. Honda, O. Kitao, H. Nakai, 
 T. Vreven, K. Throssell, J. A. Montgomery, Jr., J. E. Peralta, 
 F. Ogliaro, M. J. Bearpark, J. J. Heyd, E. N. Brothers, K. N. Kudin, 
 V. N. Staroverov, T. A. Keith, R. Kobayashi, J. Normand, 
 K. Raghavachari, A. P. Rendell, J. C. Burant, S. S. Iyengar, 
 J. Tomasi, M. Cossi, J. M. Millam, M. Klene, C. Adamo, R. Cammi, 
 J. W. Ochterski, R. L. Martin, K. Morokuma, O. Farkas, 
 J. B. Foresman, and D. J. Fox, Gaussian, Inc., Wallingford CT, 2016.
 
 ******************************************
 Gaussian 16:  EM64L-G16RevB.01 20-Dec-2017
                 9-Jun-2025 
 ******************************************
 %chk=meth_cyclooctatetraene_isomer.chk
 -------------------------------------
 # opt freq hf/3-21g geom=connectivity
 -------------------------------------
 1/18=20,19=15,38=1,57=2/1,3;
 2/9=110,12=2,17=6,18=5,40=1/2;
 3/5=5,11=9,25=1,30=1,71=1/1,2,3;
 4//1;
 5/5=2,38=5/2;
 6/7=2,8=2,9=2,10=2,28=1/1;
 7//1,2,3,16;
 1/18=20,19=15/3(2);
 2/9=110/2;
 99//99;
 2/9=110/2;
 3/5=5,11=9,25=1,30=1,71=1/1,2,3;
 4/5=5,16=3,69=1/1;
 5/5=2,38=5/2;
 7//1,2,3,16;
 1/18=20,19=15/3(-5);
 2/9=110/2;
 6/7=2,8=2,9=2,10=2,19=2,28=1/1;
 99/9=1/99;
 ------------
 Optimisation
 ------------
 Symbolic Z-matrix:
 Charge =  0 Multiplicity = 1
 C                     0.84534  -0.59355   1.22944 
 C                     2.35945  -0.59355   1.22944 
 C                     1.47337   2.91289   1.22944 
 C                     3.01386   0.48917   2.06748 
 C                     2.98749   2.9129    1.22952 
 C                     3.67874   1.56578   1.22984 
 H                     0.48438  -1.16003   2.13095 
 H                     1.11238   2.84748   2.29126 
 H                     3.3152    3.44965   2.0952 
 H                     2.69763  -1.59645   1.60942 
 H                     3.79701   0.01056   2.71549 
 C                     0.15409   0.75357   1.22909 
 H                     0.04703   1.10456   2.29087 
 C                     0.81897   1.83016   0.39142 
 H                     1.56979   1.37155  -0.30273 
 C                     5.11187   1.78075   1.75094 
 H                     5.56728   2.58966   1.21881 
 H                     5.08066   2.01328   2.7949 
 H                     3.31529   3.44929   0.36365 
 

 GradGradGradGradGradGradGradGradGradGradGradGradGradGradGradGradGradGrad
 Berny optimization.
 Initialization pass.
                           ----------------------------
                           !    Initial Parameters    !
                           ! (Angstroms and Degrees)  !
 --------------------------                            --------------------------
 ! Name  Definition              Value          Derivative Info.                !
 --------------------------------------------------------------------------------
 ! R1    R(1,2)                  1.5141         estimate D2E/DX2                !
 ! R2    R(1,7)                  1.1242         estimate D2E/DX2                !
 ! R3    R(1,12)                 1.5141         estimate D2E/DX2                !
 ! R4    R(2,4)                  1.5175         estimate D2E/DX2                !
 ! R5    R(2,10)                 1.1245         estimate D2E/DX2                !
 ! R6    R(3,5)                  1.5141         estimate D2E/DX2                !
 ! R7    R(3,8)                  1.1234         estimate D2E/DX2                !
 ! R8    R(3,14)                 1.5175         estimate D2E/DX2                !
 ! R9    R(4,6)                  1.5175         estimate D2E/DX2                !
 ! R10   R(4,11)                 1.1235         estimate D2E/DX2                !
 ! R11   R(5,6)                  1.5141         estimate D2E/DX2                !
 ! R12   R(5,9)                  1.07           estimate D2E/DX2                !
 ! R13   R(5,19)                 1.07           estimate D2E/DX2                !
 ! R14   R(6,16)                 1.54           estimate D2E/DX2                !
 ! R15   R(12,13)                1.1234         estimate D2E/DX2                !
 ! R16   R(12,14)                1.5175         estimate D2E/DX2                !
 ! R17   R(14,15)                1.1207         estimate D2E/DX2                !
 ! R18   R(16,17)                1.07           estimate D2E/DX2                !
 ! R19   R(16,18)                1.07           estimate D2E/DX2                !
 ! A1    A(2,1,7)              108.7276         estimate D2E/DX2                !
 ! A2    A(2,1,12)             117.1639         estimate D2E/DX2                !
 ! A3    A(7,1,12)             107.5725         estimate D2E/DX2                !
 ! A4    A(1,2,4)              115.5459         estimate D2E/DX2                !
 ! A5    A(1,2,10)             107.5013         estimate D2E/DX2                !
 ! A6    A(4,2,10)             108.6641         estimate D2E/DX2                !
 ! A7    A(5,3,8)              108.7405         estimate D2E/DX2                !
 ! A8    A(5,3,14)             115.5481         estimate D2E/DX2                !
 ! A9    A(8,3,14)             109.9892         estimate D2E/DX2                !
 ! A10   A(2,4,6)              112.973          estimate D2E/DX2                !
 ! A11   A(2,4,11)             108.3709         estimate D2E/DX2                !
 ! A12   A(6,4,11)             108.3717         estimate D2E/DX2                !
 ! A13   A(3,5,6)              117.1638         estimate D2E/DX2                !
 ! A14   A(3,5,9)              107.8373         estimate D2E/DX2                !
 ! A15   A(3,5,19)             107.8373         estimate D2E/DX2                !
 ! A16   A(6,5,9)              107.8373         estimate D2E/DX2                !
 ! A17   A(6,5,19)             107.8373         estimate D2E/DX2                !
 ! A18   A(9,5,19)             108.0233         estimate D2E/DX2                !
 ! A19   A(4,6,5)              115.5498         estimate D2E/DX2                !
 ! A20   A(4,6,16)             108.6629         estimate D2E/DX2                !
 ! A21   A(5,6,16)             107.5014         estimate D2E/DX2                !
 ! A22   A(1,12,13)            108.739          estimate D2E/DX2                !
 ! A23   A(1,12,14)            115.55           estimate D2E/DX2                !
 ! A24   A(13,12,14)           109.9882         estimate D2E/DX2                !
 ! A25   A(3,14,12)            112.9727         estimate D2E/DX2                !
 ! A26   A(3,14,15)            110.1893         estimate D2E/DX2                !
 ! A27   A(12,14,15)           110.1897         estimate D2E/DX2                !
 ! A28   A(6,16,17)            109.4712         estimate D2E/DX2                !
 ! A29   A(6,16,18)            109.4712         estimate D2E/DX2                !
 ! A30   A(17,16,18)           109.4712         estimate D2E/DX2                !
 ! D1    D(7,1,2,4)            -84.4036         estimate D2E/DX2                !
 ! D2    D(7,1,2,10)            37.1047         estimate D2E/DX2                !
 ! D3    D(12,1,2,4)            37.7555         estimate D2E/DX2                !
 ! D4    D(12,1,2,10)          159.2639         estimate D2E/DX2                !
 ! D5    D(2,1,12,13)          -86.5044         estimate D2E/DX2                !
 ! D6    D(2,1,12,14)           37.7077         estimate D2E/DX2                !
 ! D7    D(7,1,12,13)           36.2501         estimate D2E/DX2                !
 ! D8    D(7,1,12,14)          160.4623         estimate D2E/DX2                !
 ! D9    D(1,2,4,6)           -108.9559         estimate D2E/DX2                !
 ! D10   D(1,2,4,11)           130.9452         estimate D2E/DX2                !
 ! D11   D(10,2,4,6)           130.1628         estimate D2E/DX2                !
 ! D12   D(10,2,4,11)           10.0639         estimate D2E/DX2                !
 ! D13   D(8,3,5,6)             86.4629         estimate D2E/DX2                !
 ! D14   D(8,3,5,9)            -35.326          estimate D2E/DX2                !
 ! D15   D(8,3,5,19)          -151.7483         estimate D2E/DX2                !
 ! D16   D(14,3,5,6)           -37.7504         estimate D2E/DX2                !
 ! D17   D(14,3,5,9)          -159.5392         estimate D2E/DX2                !
 ! D18   D(14,3,5,19)           84.0385         estimate D2E/DX2                !
 ! D19   D(5,3,14,12)          108.953          estimate D2E/DX2                !
 ! D20   D(5,3,14,15)          -14.777          estimate D2E/DX2                !
 ! D21   D(8,3,14,12)          -14.6068         estimate D2E/DX2                !
 ! D22   D(8,3,14,15)         -138.3368         estimate D2E/DX2                !
 ! D23   D(2,4,6,5)            108.9291         estimate D2E/DX2                !
 ! D24   D(2,4,6,16)          -130.1878         estimate D2E/DX2                !
 ! D25   D(11,4,6,5)          -130.9724         estimate D2E/DX2                !
 ! D26   D(11,4,6,16)          -10.0893         estimate D2E/DX2                !
 ! D27   D(3,5,6,4)            -37.7111         estimate D2E/DX2                !
 ! D28   D(3,5,6,16)          -159.2205         estimate D2E/DX2                !
 ! D29   D(9,5,6,4)             84.0778         estimate D2E/DX2                !
 ! D30   D(9,5,6,16)           -37.4317         estimate D2E/DX2                !
 ! D31   D(19,5,6,4)          -159.4999         estimate D2E/DX2                !
 ! D32   D(19,5,6,16)           78.9907         estimate D2E/DX2                !
 ! D33   D(4,6,16,17)         -175.6643         estimate D2E/DX2                !
 ! D34   D(4,6,16,18)          -55.6643         estimate D2E/DX2                !
 ! D35   D(5,6,16,17)          -49.9437         estimate D2E/DX2                !
 ! D36   D(5,6,16,18)           70.0563         estimate D2E/DX2                !
 ! D37   D(1,12,14,3)         -108.929          estimate D2E/DX2                !
 ! D38   D(1,12,14,15)          14.8008         estimate D2E/DX2                !
 ! D39   D(13,12,14,3)          14.6294         estimate D2E/DX2                !
 ! D40   D(13,12,14,15)        138.3592         estimate D2E/DX2                !
 --------------------------------------------------------------------------------
 Trust Radius=3.00D-01 FncErr=1.00D-07 GrdErr=1.00D-07 EigMax=2.50D+02 EigMin=1.00D-04
 Number of steps in this run=     99 maximum allowed number of steps=    114.
 GradGradGradGradGradGradGradGradGradGradGradGradGradGradGradGradGradGrad

                          Input orientation:                          
 ---------------------------------------------------------------------
 Center     Atomic      Atomic             Coordinates (Angstroms)
 Number     Number       Type             X           Y           Z
 ---------------------------------------------------------------------
      1          6           0        0.845338   -0.593547    1.229438
      2          6           0        2.359455   -0.593547    1.229438
      3          6           0        1.473374    2.912893    1.229438
      4          6           0        3.013857    0.489171    2.067483
      5          6           0        2.987489    2.912898    1.229522
      6          6           0        3.678745    1.565775    1.229843
      7          1           0        0.484379   -1.160031    2.130946
      8          1           0        1.112382    2.847480    2.291257
      9          1           0        3.315196    3.449651    2.095203
     10          1           0        2.697632   -1.596448    1.609425
     11          1           0        3.797010    0.010556    2.715489
     12          6           0        0.154086    0.753573    1.229086
     13          1           0        0.047032    1.104560    2.290871
     14          6           0        0.818970    1.830162    0.391416
     15          1           0        1.569787    1.371549   -0.302725
     16          6           0        5.111870    1.780750    1.750937
     17          1           0        5.567279    2.589665    1.218809
     18          1           0        5.080663    2.013283    2.794898
     19          1           0        3.315292    3.449288    0.363651
 ---------------------------------------------------------------------
                    Distance matrix (angstroms):
                    1          2          3          4          5
     1  C    0.000000
     2  C    1.514117   0.000000
     3  C    3.562240   3.616664   0.000000
     4  C    2.564580   1.517511   2.991628   0.000000
     5  C    4.109011   3.562244   1.514115   2.564630   0.000000
     6  C    3.562424   2.530454   2.584258   1.517496   1.514125
     7  H    1.124238   2.156277   4.287136   3.020290   4.864861
     8  H    3.611016   3.810947   1.123412   3.037648   2.155826
     9  H    4.816347   4.243871   2.104749   2.975906   1.070000
    10  H    2.140372   1.124528   4.688001   2.158616   4.534594
    11  H    3.359413   2.154032   4.003897   1.123527   3.359615
    12  C    1.514121   2.584257   2.530451   2.991840   3.562423
    13  H    2.155806   3.059004   2.535973   3.038200   3.611487
    14  C    2.564633   2.991612   1.517508   3.070014   2.564608
    15  H    2.594986   2.613944   2.175445   2.912356   2.594883
    16  C    4.910452   3.672198   3.846084   2.483956   2.463052
    17  H    5.694706   4.519191   4.106659   3.413544   2.599983
    18  H    5.213847   4.080588   4.033918   2.669033   2.764251
    19  H    4.816095   4.243551   2.104749   3.428731   1.070000
                    6          7          8          9         10
     6  C    0.000000
     7  H    4.294878   0.000000
     8  H    3.058690   4.059585   0.000000
     9  H    2.104758   5.409618   2.292038   0.000000
    10  H    3.332615   2.315369   4.767222   5.106905   0.000000
    11  H    2.154028   3.561669   3.928783   3.527644   2.239302
    12  C    3.617028   2.141104   2.535939   4.244009   3.483803
    13  H    3.811540   2.311973   2.042729   4.027236   3.845191
    14  C    2.991851   3.475510   2.174953   3.428816   4.093235
    15  H    2.614229   3.675563   3.019327   3.621467   3.706394
    16  C    1.540000   5.496023   4.174418   2.476244   4.153798
    17  H    2.148263   6.381856   4.589414   2.565058   5.090284
    18  H    2.148263   5.624641   4.086171   2.381092   4.484901
    19  H    2.104758   5.690625   2.988419   1.731552   5.233823
                   11         12         13         14         15
    11  H    0.000000
    12  C    4.004043   0.000000
    13  H    3.929310   1.123405   0.000000
    14  C    4.192971   1.517500   2.174929   0.000000
    15  H    3.990293   2.175442   3.019405   1.120662   0.000000
    16  C    2.406825   5.089896   5.138224   4.503302   4.114769
    17  H    3.467810   5.716117   5.816182   4.879330   4.447338
    18  H    2.380123   5.320695   5.139773   4.896150   4.725816
    19  H    4.193813   4.243710   4.460207   2.975561   2.794252
                   16         17         18         19
    16  C    0.000000
    17  H    1.070000   0.000000
    18  H    1.070000   1.747303   0.000000
    19  H    2.817138   2.557673   3.330105   0.000000
 Stoichiometry    C9H10
 Framework group  C1[X(C9H10)]
 Deg. of freedom    51
 Full point group                 C1      NOp   1
 Largest Abelian subgroup         C1      NOp   1
 Largest concise Abelian subgroup C1      NOp   1
                         Standard orientation:                         
 ---------------------------------------------------------------------
 Center     Atomic      Atomic             Coordinates (Angstroms)
 Number     Number       Type             X           Y           Z
 ---------------------------------------------------------------------
      1          6           0       -2.187637   -0.933363   -0.104597
      2          6           0       -0.857230   -1.597960   -0.388989
      3          6           0       -0.000077    1.852241    0.275587
      4          6           0        0.308016   -1.117982    0.456388
      5          6           0        1.330339    1.187632   -0.008722
      6          6           0        1.309335   -0.291948   -0.329627
      7          1           0       -2.677446   -1.461015    0.758875
      8          1           0       -0.239878    1.728002    1.366052
      9          1           0        1.956649    1.328485    0.847313
     10          1           0       -0.989314   -2.702700   -0.225686
     11          1           0        0.838731   -2.017253    0.871076
     12          6           0       -2.166634    0.546218    0.216277
     13          1           0       -1.989064    0.674059    1.318169
     14          6           0       -1.165328    1.372247   -0.569769
     15          1           0       -0.790089    0.789769   -1.450563
     16          6           0        2.721816   -0.844017   -0.061829
     17          1           0        3.445245   -0.224645   -0.549609
     18          1           0        2.908961   -0.849097    0.991666
     19          1           0        1.780598    1.695991   -0.835606
 ---------------------------------------------------------------------
 Rotational constants (GHZ):           2.6067133           1.5184477           1.0423973
 Standard basis: 3-21G (6D, 7F)
 There are   101 symmetry adapted cartesian basis functions of A   symmetry.
 There are   101 symmetry adapted basis functions of A   symmetry.
   101 basis functions,   165 primitive gaussians,   101 cartesian basis functions
    32 alpha electrons       32 beta electrons
       nuclear repulsion energy       395.6280360761 Hartrees.
 NAtoms=   19 NActive=   19 NUniq=   19 SFac= 1.00D+00 NAtFMM=   60 NAOKFM=F Big=F
 Integral buffers will be    131072 words long.
 Raffenetti 1 integral format.
 Two-electron integral symmetry is turned on.
 One-electron integrals computed using PRISM.
 NBasis=   101 RedAO= T EigKep=  9.04D-03  NBF=   101
 NBsUse=   101 1.00D-06 EigRej= -1.00D+00 NBFU=   101
 ExpMin= 1.83D-01 ExpMax= 1.72D+02 ExpMxC= 1.72D+02 IAcc=3 IRadAn=         5 AccDes= 0.00D+00
 Harris functional with IExCor=  205 and IRadAn=       5 diagonalized for initial guess.
 HarFok:  IExCor=  205 AccDes= 0.00D+00 IRadAn=         5 IDoV= 1 UseB2=F ITyADJ=14
 ICtDFT=  3500011 ScaDFX=  1.000000  1.000000  1.000000  1.000000
 FoFCou: FMM=F IPFlag=           0 FMFlag=      100000 FMFlg1=           0
         NFxFlg=           0 DoJE=T BraDBF=F KetDBF=T FulRan=T
         wScrn=  0.000000 ICntrl=       500 IOpCl=  0 I1Cent=   200000004 NGrid=           0
         NMat0=    1 NMatS0=      1 NMatT0=    0 NMatD0=    1 NMtDS0=    0 NMtDT0=    0
 Petite list used in FoFCou.
 Keep R1 ints in memory in canonical form, NReq=14123981.
 Requested convergence on RMS density matrix=1.00D-08 within 128 cycles.
 Requested convergence on MAX density matrix=1.00D-06.
 Requested convergence on             energy=1.00D-06.
 No special actions if energy rises.
 SCF Done:  E(RHF) =  -344.129612781     A.U. after   21 cycles
            NFock= 21  Conv=0.36D-08     -V/T= 2.0054

 **********************************************************************

            Population analysis using the SCF Density.

 **********************************************************************

 Orbital symmetries:
       Occupied  (A) (A) (A) (A) (A) (A) (A) (A) (A) (A) (A) (A)
                 (A) (A) (A) (A) (A) (A) (A) (A) (A) (A) (A) (A)
                 (A) (A) (A) (A) (A) (A) (A) (A)
       Virtual   (A) (A) (A) (A) (A) (A) (A) (A) (A) (A) (A) (A)
                 (A) (A) (A) (A) (A) (A) (A) (A) (A) (A) (A) (A)
                 (A) (A) (A) (A) (A) (A) (A) (A) (A) (A) (A) (A)
                 (A) (A) (A) (A) (A) (A) (A) (A) (A) (A) (A) (A)
                 (A) (A) (A) (A) (A) (A) (A) (A) (A) (A) (A) (A)
                 (A) (A) (A) (A) (A) (A) (A) (A) (A)
 The electronic state is 1-A.
 Alpha  occ. eigenvalues --  -11.24325 -11.23906 -11.23071 -11.22954 -11.22798
 Alpha  occ. eigenvalues --  -11.22245 -11.21033 -11.20700 -11.16913  -1.13566
 Alpha  occ. eigenvalues --   -1.07329  -1.04882  -0.94683  -0.92472  -0.84137
 Alpha  occ. eigenvalues --   -0.78004  -0.74525  -0.68806  -0.64578  -0.63306
 Alpha  occ. eigenvalues --   -0.58138  -0.57562  -0.56405  -0.53551  -0.51983
 Alpha  occ. eigenvalues --   -0.51154  -0.49732  -0.46858  -0.40117  -0.36788
 Alpha  occ. eigenvalues --   -0.29089  -0.24652
 Alpha virt. eigenvalues --    0.01856   0.02919   0.08694   0.10574   0.24774
 Alpha virt. eigenvalues --    0.25873   0.27684   0.30013   0.30965   0.34572
 Alpha virt. eigenvalues --    0.34609   0.36496   0.37500   0.38525   0.40422
 Alpha virt. eigenvalues --    0.44277   0.45679   0.47454   0.48636   0.51111
 Alpha virt. eigenvalues --    0.52237   0.54578   0.55938   0.90835   0.92575
 Alpha virt. eigenvalues --    0.94165   0.95570   0.97599   0.98346   0.99715
 Alpha virt. eigenvalues --    1.00620   1.01012   1.01523   1.02126   1.03133
 Alpha virt. eigenvalues --    1.04646   1.06403   1.07045   1.08315   1.10366
 Alpha virt. eigenvalues --    1.11135   1.14054   1.17595   1.19947   1.20883
 Alpha virt. eigenvalues --    1.22876   1.26229   1.27811   1.29676   1.31523
 Alpha virt. eigenvalues --    1.33504   1.34794   1.35127   1.38709   1.38842
 Alpha virt. eigenvalues --    1.42568   1.44930   1.46839   1.49235   1.50540
 Alpha virt. eigenvalues --    1.72531   1.89839   1.97377   2.17225   2.22527
 Alpha virt. eigenvalues --    2.26722   2.34007   2.43182   2.66602
          Condensed to atoms (all electrons):
               1          2          3          4          5          6
     1  C    5.476011   0.243235  -0.008190  -0.115854   0.000178   0.006456
     2  C    0.243235   5.493648   0.001771   0.403540   0.001594  -0.094457
     3  C   -0.008190   0.001771   5.462310   0.021959   0.210892  -0.065711
     4  C   -0.115854   0.403540   0.021959   5.597187  -0.106726   0.241272
     5  C    0.000178   0.001594   0.210892  -0.106726   5.614605   0.185957
     6  C    0.006456  -0.094457  -0.065711   0.241272   0.185957   5.676255
     7  H    0.390270  -0.061319  -0.000056  -0.000870  -0.000003  -0.000057
     8  H   -0.000700  -0.000011   0.378857   0.004506  -0.064339   0.002320
     9  H    0.000019  -0.000111  -0.058306   0.000571   0.420078  -0.055636
    10  H   -0.052815   0.381267   0.000016  -0.058529  -0.000050   0.004217
    11  H    0.004561  -0.055186  -0.000383   0.376653   0.005541  -0.061038
    12  C    0.451609  -0.082872  -0.085742  -0.048065   0.003534   0.005099
    13  H   -0.053659   0.005495   0.003581   0.003303  -0.000077  -0.000296
    14  C   -0.079311  -0.005139   0.427508  -0.005506  -0.073385  -0.019300
    15  H   -0.000615   0.004033  -0.048386  -0.000866  -0.001546  -0.000417
    16  C   -0.000124   0.000941   0.006520  -0.099102  -0.102449   0.431989
    17  H    0.000001  -0.000078  -0.000001   0.004987   0.000679  -0.062286
    18  H    0.000004   0.000074  -0.000509  -0.004091   0.008045  -0.057080
    19  H   -0.000043  -0.000221  -0.040441   0.004608   0.347407  -0.051935
               7          8          9         10         11         12
     1  C    0.390270  -0.000700   0.000019  -0.052815   0.004561   0.451609
     2  C   -0.061319  -0.000011  -0.000111   0.381267  -0.055186  -0.082872
     3  C   -0.000056   0.378857  -0.058306   0.000016  -0.000383  -0.085742
     4  C   -0.000870   0.004506   0.000571  -0.058529   0.376653  -0.048065
     5  C   -0.000003  -0.064339   0.420078  -0.000050   0.005541   0.003534
     6  C   -0.000057   0.002320  -0.055636   0.004217  -0.061038   0.005099
     7  H    0.491025  -0.000007  -0.000001  -0.003671  -0.000171  -0.053835
     8  H   -0.000007   0.507184  -0.002083   0.000003  -0.000026  -0.005511
     9  H   -0.000001  -0.002083   0.469260   0.000001   0.000168  -0.000156
    10  H   -0.003671   0.000003   0.000001   0.499061  -0.003353   0.003954
    11  H   -0.000171  -0.000026   0.000168  -0.003353   0.510908   0.000290
    12  C   -0.053835  -0.005511  -0.000156   0.003954   0.000290   5.383168
    13  H   -0.000606   0.007387   0.000014  -0.000183   0.000002   0.358831
    14  C    0.003740  -0.050398   0.003286   0.000105   0.000032   0.312374
    15  H    0.000100   0.003324   0.000072  -0.000031   0.000039  -0.054686
    16  C    0.000000  -0.000114  -0.028844  -0.000055   0.001971  -0.000004
    17  H    0.000000  -0.000002  -0.000936   0.000001   0.000224   0.000001
    18  H   -0.000000   0.000035   0.001844  -0.000002   0.002358  -0.000001
    19  H   -0.000000   0.003075  -0.018956   0.000002  -0.000099  -0.000111
              13         14         15         16         17         18
     1  C   -0.053659  -0.079311  -0.000615  -0.000124   0.000001   0.000004
     2  C    0.005495  -0.005139   0.004033   0.000941  -0.000078   0.000074
     3  C    0.003581   0.427508  -0.048386   0.006520  -0.000001  -0.000509
     4  C    0.003303  -0.005506  -0.000866  -0.099102   0.004987  -0.004091
     5  C   -0.000077  -0.073385  -0.001546  -0.102449   0.000679   0.008045
     6  C   -0.000296  -0.019300  -0.000417   0.431989  -0.062286  -0.057080
     7  H   -0.000606   0.003740   0.000100   0.000000   0.000000  -0.000000
     8  H    0.007387  -0.050398   0.003324  -0.000114  -0.000002   0.000035
     9  H    0.000014   0.003286   0.000072  -0.028844  -0.000936   0.001844
    10  H   -0.000183   0.000105  -0.000031  -0.000055   0.000001  -0.000002
    11  H    0.000002   0.000032   0.000039   0.001971   0.000224   0.002358
    12  C    0.358831   0.312374  -0.054686  -0.000004   0.000001  -0.000001
    13  H    0.486540  -0.053439   0.003441   0.000002  -0.000000  -0.000000
    14  C   -0.053439   5.395318   0.375245   0.000256  -0.000006  -0.000009
    15  H    0.003441   0.375245   0.473855   0.000027  -0.000005   0.000000
    16  C    0.000002   0.000256   0.000027   5.478105   0.381380   0.365545
    17  H   -0.000000  -0.000006  -0.000005   0.381380   0.531918  -0.040560
    18  H   -0.000000  -0.000009   0.000000   0.365545  -0.040560   0.504047
    19  H    0.000011   0.001195   0.000981   0.002826   0.001266  -0.000013
              19
     1  C   -0.000043
     2  C   -0.000221
     3  C   -0.040441
     4  C    0.004608
     5  C    0.347407
     6  C   -0.051935
     7  H   -0.000000
     8  H    0.003075
     9  H   -0.018956
    10  H    0.000002
    11  H   -0.000099
    12  C   -0.000111
    13  H    0.000011
    14  C    0.001195
    15  H    0.000981
    16  C    0.002826
    17  H    0.001266
    18  H   -0.000013
    19  H    0.492010
 Mulliken charges:
               1
     1  C   -0.261032
     2  C   -0.236204
     3  C   -0.205689
     4  C   -0.218976
     5  C   -0.449932
     6  C   -0.085351
     7  H    0.235462
     8  H    0.216501
     9  H    0.269716
    10  H    0.230060
    11  H    0.217509
    12  C   -0.187879
    13  H    0.239651
    14  C   -0.232566
    15  H    0.245435
    16  C   -0.438872
    17  H    0.183416
    18  H    0.220314
    19  H    0.258437
 Sum of Mulliken charges =  -0.00000
 Mulliken charges with hydrogens summed into heavy atoms:
               1
     1  C   -0.025571
     2  C   -0.006143
     3  C    0.010812
     4  C   -0.001467
     5  C    0.078222
     6  C   -0.085351
    12  C    0.051772
    14  C    0.012869
    16  C   -0.035143
 Electronic spatial extent (au):  <R**2>=           1166.2239
 Charge=             -0.0000 electrons
 Dipole moment (field-independent basis, Debye):
    X=              0.5464    Y=              0.1503    Z=              2.0510  Tot=              2.1279
 Quadrupole moment (field-independent basis, Debye-Ang):
   XX=            -62.6221   YY=            -59.6183   ZZ=            -55.7805
   XY=              6.6796   XZ=             -0.6263   YZ=             -1.3097
 Traceless Quadrupole moment (field-independent basis, Debye-Ang):
   XX=             -3.2818   YY=             -0.2780   ZZ=              3.5598
   XY=              6.6796   XZ=             -0.6263   YZ=             -1.3097
 Octapole moment (field-independent basis, Debye-Ang**2):
  XXX=             15.1074  YYY=            -15.9092  ZZZ=              6.4943  XYY=             -3.8680
  XXY=              9.0836  XXZ=             14.2464  XZZ=              2.3312  YZZ=              3.2454
  YYZ=              5.7533  XYZ=             -2.0317
 Hexadecapole moment (field-independent basis, Debye-Ang**3):
 XXXX=          -1073.1088 YYYY=           -594.6430 ZZZZ=           -127.8392 XXXY=             51.1410
 XXXZ=             -6.9595 YYYX=             37.2029 YYYZ=             -5.9274 ZZZX=             -2.1766
 ZZZY=             -0.8055 XXYY=           -283.0985 XXZZ=           -181.8305 YYZZ=           -119.3043
 XXYZ=            -13.2579 YYXZ=             -1.2516 ZZXY=              4.6682
 N-N= 3.956280360761D+02 E-N=-1.589788199531D+03  KE= 3.422781278317D+02
 Calling FoFJK, ICntrl=      2127 FMM=F ISym2X=0 I1Cent= 0 IOpClX= 0 NMat=1 NMatS=1 NMatT=0.
 ***** Axes restored to original set *****
 -------------------------------------------------------------------
 Center     Atomic                   Forces (Hartrees/Bohr)
 Number     Number              X              Y              Z
 -------------------------------------------------------------------
      1        6          -0.044602678    0.108679841    0.027000781
      2        6          -0.025064879    0.006819056    0.105860974
      3        6          -0.053131607   -0.143374499   -0.009164387
      4        6           0.040981330   -0.070656853   -0.095478309
      5        6          -0.014432713    0.040510916   -0.073341037
      6        6           0.093074419    0.020147535    0.145788205
      7        1           0.007416139   -0.003564553   -0.034695104
      8        1          -0.007588259    0.025436683   -0.027367672
      9        1          -0.001484019    0.001611175    0.003417028
     10        1          -0.007978474    0.021823389   -0.015632748
     11        1          -0.014974273    0.009101057   -0.016213336
     12        6           0.090660916   -0.034761610   -0.009285404
     13        1          -0.039616030   -0.015169049   -0.027646536
     14        6           0.082118566    0.012668408    0.094827408
     15        1          -0.033983627    0.020495627   -0.007273049
     16        6          -0.110509158    0.019093771   -0.065145347
     17        1           0.010429577    0.004189463   -0.005747786
     18        1           0.018895216   -0.038176002    0.017053295
     19        1           0.009789553    0.015125646   -0.006956977
 -------------------------------------------------------------------
 Cartesian Forces:  Max     0.145788205 RMS     0.052376768

 GradGradGradGradGradGradGradGradGradGradGradGradGradGradGradGradGradGrad
 Berny optimization.
 FormGI is forming the generalized inverse of G from B-inverse, IUseBI=4.
 Internal  Forces:  Max     0.109620724 RMS     0.029011498
 Search for a local minimum.
 Step number   1 out of a maximum of   99
 All quantities printed in internal units (Hartrees-Bohrs-Radians)
 Mixed Optimization -- RFO/linear search
 Second derivative matrix not updated -- first step.
 ITU=  0
     Eigenvalues ---    0.00237   0.00568   0.00579   0.01021   0.01154
     Eigenvalues ---    0.01609   0.02217   0.02562   0.02931   0.03132
     Eigenvalues ---    0.03462   0.04056   0.04945   0.05087   0.05527
     Eigenvalues ---    0.06614   0.08876   0.09037   0.09226   0.10598
     Eigenvalues ---    0.12354   0.12427   0.12716   0.12840   0.14649
     Eigenvalues ---    0.15753   0.16000   0.16000   0.18987   0.20882
     Eigenvalues ---    0.23216   0.23314   0.28519   0.29134   0.29370
     Eigenvalues ---    0.30308   0.30608   0.30609   0.30858   0.30940
     Eigenvalues ---    0.30940   0.31109   0.31138   0.31209   0.31220
     Eigenvalues ---    0.31221   0.31497   0.37230   0.37230   0.37230
     Eigenvalues ---    0.37230
 RFO step:  Lambda=-2.01326672D-01 EMin= 2.36824221D-03
 Linear search not attempted -- first point.
 Maximum step size (   0.300) exceeded in Quadratic search.
    -- Step size scaled by   0.563
 Iteration  1 RMS(Cart)=  0.06857049 RMS(Int)=  0.00391927
 Iteration  2 RMS(Cart)=  0.00453417 RMS(Int)=  0.00096729
 Iteration  3 RMS(Cart)=  0.00000855 RMS(Int)=  0.00096726
 Iteration  4 RMS(Cart)=  0.00000002 RMS(Int)=  0.00096726
 Variable       Old X    -DE/DX   Delta X   Delta X   Delta X     New X
                                 (Linear)    (Quad)   (Total)
    R1        2.86127  -0.01756   0.00000  -0.01531  -0.01564   2.84563
    R2        2.12450  -0.02841   0.00000  -0.03117  -0.03117   2.09333
    R3        2.86127  -0.10962   0.00000  -0.12448  -0.12426   2.73702
    R4        2.86768  -0.06235   0.00000  -0.06275  -0.06316   2.80452
    R5        2.12505  -0.02714   0.00000  -0.02981  -0.02981   2.09525
    R6        2.86126   0.01629   0.00000   0.01390   0.01426   2.87553
    R7        2.12294  -0.02491   0.00000  -0.02729  -0.02729   2.09565
    R8        2.86768  -0.10714   0.00000  -0.12519  -0.12480   2.74288
    R9        2.86765  -0.00856   0.00000  -0.00341  -0.00390   2.86375
   R10        2.12316  -0.02367   0.00000  -0.02594  -0.02594   2.09722
   R11        2.86128   0.02596   0.00000   0.03231   0.03211   2.89339
   R12        2.02201   0.00312   0.00000   0.00306   0.00306   2.02507
   R13        2.02201   0.01621   0.00000   0.01590   0.01590   2.03791
   R14        2.91018  -0.09585   0.00000  -0.11084  -0.11084   2.79933
   R15        2.12293  -0.02709   0.00000  -0.02968  -0.02968   2.09324
   R16        2.86766  -0.04671   0.00000  -0.05788  -0.05738   2.81028
   R17        2.11774  -0.02665   0.00000  -0.02904  -0.02904   2.08870
   R18        2.02201   0.01046   0.00000   0.01026   0.01026   2.03227
   R19        2.02201   0.00779   0.00000   0.00764   0.00764   2.02965
    A1        1.89766   0.01078   0.00000   0.02106   0.02116   1.91882
    A2        2.04490   0.00189   0.00000   0.01040   0.00888   2.05378
    A3        1.87749   0.00576   0.00000   0.01888   0.01832   1.89581
    A4        2.01666   0.04645   0.00000   0.08103   0.07836   2.09502
    A5        1.87625  -0.00066   0.00000   0.00715   0.00540   1.88165
    A6        1.89655   0.00261   0.00000   0.01014   0.00859   1.90514
    A7        1.89788   0.01993   0.00000   0.04261   0.04195   1.93983
    A8        2.01669   0.01769   0.00000   0.01525   0.01522   2.03191
    A9        1.91967  -0.00712   0.00000   0.00429   0.00253   1.92220
   A10        1.97175   0.03663   0.00000   0.07202   0.06854   2.04029
   A11        1.89143   0.00085   0.00000   0.00124   0.00082   1.89225
   A12        1.89144   0.00127   0.00000   0.00584   0.00548   1.89692
   A13        2.04489  -0.03048   0.00000  -0.03871  -0.03918   2.00571
   A14        1.88212   0.00603   0.00000   0.00694   0.00684   1.88896
   A15        1.88212   0.01146   0.00000   0.01456   0.01506   1.89717
   A16        1.88212   0.01300   0.00000   0.01507   0.01554   1.89765
   A17        1.88212   0.00689   0.00000   0.01082   0.01068   1.89280
   A18        1.88536  -0.00594   0.00000  -0.00746  -0.00765   1.87771
   A19        2.01672   0.00135   0.00000   0.02082   0.01847   2.03519
   A20        1.89653  -0.00304   0.00000   0.00593   0.00407   1.90059
   A21        1.87625   0.04210   0.00000   0.06601   0.06533   1.94158
   A22        1.89785   0.00483   0.00000   0.01734   0.01686   1.91472
   A23        2.01673   0.00008   0.00000  -0.01392  -0.01342   2.00330
   A24        1.91966   0.01374   0.00000   0.03575   0.03516   1.95482
   A25        1.97175   0.01964   0.00000   0.02857   0.02656   1.99831
   A26        1.92317  -0.00126   0.00000   0.00717   0.00608   1.92925
   A27        1.92317   0.01663   0.00000   0.03477   0.03435   1.95752
   A28        1.91063   0.01384   0.00000   0.02873   0.02697   1.93760
   A29        1.91063   0.03651   0.00000   0.06403   0.06232   1.97295
   A30        1.91063   0.00684   0.00000   0.02502   0.02205   1.93268
    D1       -1.47312  -0.03755   0.00000  -0.08474  -0.08581  -1.55893
    D2        0.64760  -0.00388   0.00000  -0.01254  -0.01223   0.63537
    D3        0.65896  -0.01964   0.00000  -0.03473  -0.03594   0.62302
    D4        2.77968   0.01403   0.00000   0.03747   0.03764   2.81732
    D5       -1.50979  -0.03353   0.00000  -0.08008  -0.08032  -1.59011
    D6        0.65812  -0.01130   0.00000  -0.02873  -0.02935   0.62877
    D7        0.63268  -0.01319   0.00000  -0.02939  -0.02949   0.60319
    D8        2.80059   0.00905   0.00000   0.02195   0.02148   2.82207
    D9       -1.90164   0.04379   0.00000   0.09941   0.10070  -1.80094
   D10        2.28542   0.01855   0.00000   0.04590   0.04655   2.33198
   D11        2.27177   0.01110   0.00000   0.02736   0.02722   2.29899
   D12        0.17565  -0.01413   0.00000  -0.02615  -0.02692   0.14872
   D13        1.50906   0.01632   0.00000   0.03503   0.03577   1.54484
   D14       -0.61655   0.01553   0.00000   0.03649   0.03701  -0.57954
   D15       -2.64851   0.01341   0.00000   0.03407   0.03443  -2.61407
   D16       -0.65887  -0.00333   0.00000  -0.01634  -0.01592  -0.67479
   D17       -2.78448  -0.00413   0.00000  -0.01488  -0.01469  -2.79917
   D18        1.46675  -0.00624   0.00000  -0.01730  -0.01726   1.44948
   D19        1.90159   0.04541   0.00000   0.09294   0.09290   1.99449
   D20       -0.25791   0.01041   0.00000   0.02139   0.02139  -0.23651
   D21       -0.25494   0.01117   0.00000   0.02084   0.02112  -0.23381
   D22       -2.41443  -0.02383   0.00000  -0.05070  -0.05039  -2.46482
   D23        1.90117  -0.05360   0.00000  -0.10623  -0.10688   1.79430
   D24       -2.27221  -0.00026   0.00000  -0.00177  -0.00261  -2.27482
   D25       -2.28590  -0.02860   0.00000  -0.05535  -0.05513  -2.34103
   D26       -0.17609   0.02473   0.00000   0.04911   0.04914  -0.12695
   D27       -0.65818   0.01361   0.00000   0.03172   0.03301  -0.62517
   D28       -2.77892  -0.01510   0.00000  -0.03952  -0.03992  -2.81884
   D29        1.46743   0.01079   0.00000   0.02604   0.02705   1.49448
   D30       -0.65331  -0.01792   0.00000  -0.04520  -0.04588  -0.69918
   D31       -2.78380   0.01415   0.00000   0.03074   0.03198  -2.75182
   D32        1.37865  -0.01456   0.00000  -0.04049  -0.04095   1.33770
   D33       -3.06592  -0.01521   0.00000  -0.03048  -0.03188  -3.09780
   D34       -0.97152   0.02399   0.00000   0.05697   0.05781  -0.91372
   D35       -0.87168   0.01159   0.00000   0.04130   0.04046  -0.83122
   D36        1.22271   0.05079   0.00000   0.12875   0.13015   1.35286
   D37       -1.90117  -0.01056   0.00000  -0.01748  -0.01764  -1.91881
   D38        0.25832   0.01459   0.00000   0.03887   0.03942   0.29774
   D39        0.25533   0.00716   0.00000   0.02442   0.02412   0.27945
   D40        2.41482   0.03231   0.00000   0.08076   0.08119   2.49601
         Item               Value     Threshold  Converged?
 Maximum Force            0.109621     0.000450     NO 
 RMS     Force            0.029011     0.000300     NO 
 Maximum Displacement     0.230534     0.001800     NO 
 RMS     Displacement     0.068402     0.001200     NO 
 Predicted change in Energy=-1.010356D-01
 GradGradGradGradGradGradGradGradGradGradGradGradGradGradGradGradGradGrad

                          Input orientation:                          
 ---------------------------------------------------------------------
 Center     Atomic      Atomic             Coordinates (Angstroms)
 Number     Number       Type             X           Y           Z
 ---------------------------------------------------------------------
      1          6           0        0.836951   -0.548195    1.245318
      2          6           0        2.341859   -0.553988    1.298049
      3          6           0        1.451567    2.850190    1.232012
      4          6           0        3.062400    0.494124    2.062767
      5          6           0        2.969878    2.950761    1.240780
      6          6           0        3.705237    1.607948    1.261087
      7          1           0        0.427062   -1.135566    2.090350
      8          1           0        1.047440    2.808898    2.263898
      9          1           0        3.263374    3.516820    2.102060
     10          1           0        2.664819   -1.552414    1.656076
     11          1           0        3.843676    0.003446    2.679617
     12          6           0        0.170105    0.737010    1.208900
     13          1           0       -0.056189    1.069747    2.240922
     14          6           0        0.879486    1.785433    0.428414
     15          1           0        1.641945    1.357489   -0.247747
     16          6           0        5.108619    1.771182    1.706343
     17          1           0        5.585472    2.584188    1.188476
     18          1           0        5.201027    1.891290    2.769642
     19          1           0        3.285104    3.499318    0.367455
 ---------------------------------------------------------------------
                    Distance matrix (angstroms):
                    1          2          3          4          5
     1  C    0.000000
     2  C    1.505842   0.000000
     3  C    3.453542   3.519291   0.000000
     4  C    2.589840   1.484086   2.972538   0.000000
     5  C    4.097816   3.561033   1.521663   2.592159   0.000000
     6  C    3.588352   2.556196   2.573527   1.515432   1.531115
     7  H    1.107742   2.152306   4.203880   3.098654   4.887305
     8  H    3.514525   3.730601   1.108969   3.075499   2.182353
     9  H    4.811017   4.250542   2.117551   3.029625   1.071619
    10  H    2.125624   1.108756   4.586364   2.124096   4.532562
    11  H    3.376672   2.115400   3.990200   1.109803   3.394177
    12  C    1.448366   2.528071   2.471479   3.025467   3.569375
    13  H    2.099206   3.045679   2.541890   3.176268   3.700754
    14  C    2.472844   2.892696   1.451467   3.017234   2.527384
    15  H    2.551252   2.555995   2.110471   2.846325   2.552966
    16  C    4.882540   3.637044   3.842301   2.438223   2.486437
    17  H    5.688893   4.514552   4.142683   3.390965   2.641674
    18  H    5.226835   4.039779   4.164402   2.650561   2.904810
    19  H    4.811076   4.264388   2.128540   3.457581   1.078414
                    6          7          8          9         10
     6  C    0.000000
     7  H    4.354421   0.000000
     8  H    3.084120   3.996721   0.000000
     9  H    2.132199   5.448808   2.331890   0.000000
    10  H    3.350578   2.317307   4.691098   5.123895   0.000000
    11  H    2.146117   3.649361   3.982752   3.607509   2.204096
    12  C    3.641211   2.085551   2.485046   4.253633   3.415411
    13  H    3.924037   2.262656   2.059895   4.126373   3.823828
    14  C    2.951223   3.391010   2.108244   3.388469   3.979421
    15  H    2.568363   3.627390   2.961146   3.579572   3.624686
    16  C    1.481344   5.523914   4.228581   2.570754   4.125648
    17  H    2.119811   6.423328   4.669128   2.663940   5.085306
    18  H    2.143224   5.693333   4.283697   2.615819   4.419443
    19  H    2.133628   5.711297   3.013356   1.734829   5.250265
                   11         12         13         14         15
    11  H    0.000000
    12  C    4.024457   0.000000
    13  H    4.066743   1.107697   0.000000
    14  C    4.126720   1.487135   2.161684   0.000000
    15  H    3.905191   2.161742   3.026538   1.105293   0.000000
    16  C    2.381645   5.070097   5.239564   4.418018   4.000931
    17  H    3.452185   5.721773   5.935446   4.833427   4.372521
    18  H    2.326899   5.392444   5.347223   4.916124   4.696451
    19  H    4.228382   4.247540   4.536180   2.954339   2.768732
                   16         17         18         19
    16  C    0.000000
    17  H    1.075432   0.000000
    18  H    1.074044   1.768613   0.000000
    19  H    2.846802   2.608300   3.467999   0.000000
 Stoichiometry    C9H10
 Framework group  C1[X(C9H10)]
 Deg. of freedom    51
 Full point group                 C1      NOp   1
 Largest Abelian subgroup         C1      NOp   1
 Largest concise Abelian subgroup C1      NOp   1
                         Standard orientation:                         
 ---------------------------------------------------------------------
 Center     Atomic      Atomic             Coordinates (Angstroms)
 Number     Number       Type             X           Y           Z
 ---------------------------------------------------------------------
      1          6           0       -2.169913   -0.913148   -0.112136
      2          6           0       -0.835988   -1.575502   -0.334600
      3          6           0       -0.076929    1.806683    0.273731
      4          6           0        0.352065   -1.130293    0.435355
      5          6           0        1.313223    1.241345    0.022078
      6          6           0        1.353189   -0.256443   -0.293117
      7          1           0       -2.720640   -1.434568    0.695277
      8          1           0       -0.355751    1.721481    1.343690
      9          1           0        1.912626    1.426214    0.890931
     10          1           0       -0.971864   -2.667022   -0.195090
     11          1           0        0.877844   -2.028964    0.819553
     12          6           0       -2.177063    0.508179    0.166331
     13          1           0       -2.127881    0.674687    1.260336
     14          6           0       -1.144893    1.291536   -0.563427
     15          1           0       -0.729440    0.734689   -1.423074
     16          6           0        2.711522   -0.811580   -0.090302
     17          1           0        3.455382   -0.191519   -0.558007
     18          1           0        2.948652   -0.975100    0.944397
     19          1           0        1.759805    1.775449   -0.801496
 ---------------------------------------------------------------------
 Rotational constants (GHZ):           2.6991291           1.5261310           1.0527912
 Standard basis: 3-21G (6D, 7F)
 There are   101 symmetry adapted cartesian basis functions of A   symmetry.
 There are   101 symmetry adapted basis functions of A   symmetry.
   101 basis functions,   165 primitive gaussians,   101 cartesian basis functions
    32 alpha electrons       32 beta electrons
       nuclear repulsion energy       399.3903213079 Hartrees.
 NAtoms=   19 NActive=   19 NUniq=   19 SFac= 1.00D+00 NAtFMM=   60 NAOKFM=F Big=F
 Integral buffers will be    131072 words long.
 Raffenetti 1 integral format.
 Two-electron integral symmetry is turned on.
 One-electron integrals computed using PRISM.
 NBasis=   101 RedAO= T EigKep=  9.03D-03  NBF=   101
 NBsUse=   101 1.00D-06 EigRej= -1.00D+00 NBFU=   101
 Initial guess from the checkpoint file:  "meth_cyclooctatetraene_isomer.chk"
 B after Tr=     0.000000   -0.000000    0.000000
         Rot=    0.999970   -0.000588    0.003345   -0.006964 Ang=  -0.89 deg.
 ExpMin= 1.83D-01 ExpMax= 1.72D+02 ExpMxC= 1.72D+02 IAcc=3 IRadAn=         5 AccDes= 0.00D+00
 Harris functional with IExCor=  205 and IRadAn=       5 diagonalized for initial guess.
 HarFok:  IExCor=  205 AccDes= 0.00D+00 IRadAn=         5 IDoV= 1 UseB2=F ITyADJ=14
 ICtDFT=  3500011 ScaDFX=  1.000000  1.000000  1.000000  1.000000
 FoFCou: FMM=F IPFlag=           0 FMFlag=      100000 FMFlg1=           0
         NFxFlg=           0 DoJE=T BraDBF=F KetDBF=T FulRan=T
         wScrn=  0.000000 ICntrl=       500 IOpCl=  0 I1Cent=   200000004 NGrid=           0
         NMat0=    1 NMatS0=      1 NMatT0=    0 NMatD0=    1 NMtDS0=    0 NMtDT0=    0
 Petite list used in FoFCou.
 Keep R1 ints in memory in canonical form, NReq=14123988.
 Requested convergence on RMS density matrix=1.00D-08 within 128 cycles.
 Requested convergence on MAX density matrix=1.00D-06.
 Requested convergence on             energy=1.00D-06.
 No special actions if energy rises.
 SCF Done:  E(RHF) =  -344.232640156     A.U. after   17 cycles
            NFock= 17  Conv=0.73D-08     -V/T= 2.0044
 Calling FoFJK, ICntrl=      2127 FMM=F ISym2X=0 I1Cent= 0 IOpClX= 0 NMat=1 NMatS=1 NMatT=0.
 ***** Axes restored to original set *****
 -------------------------------------------------------------------
 Center     Atomic                   Forces (Hartrees/Bohr)
 Number     Number              X              Y              Z
 -------------------------------------------------------------------
      1        6          -0.036582654    0.089827640    0.023157638
      2        6          -0.011498820    0.006939040    0.090745607
      3        6          -0.033768777   -0.120590753   -0.005304307
      4        6           0.020704570   -0.066730733   -0.092940469
      5        6          -0.014323707    0.029088723   -0.069931317
      6        6           0.080573196    0.018849884    0.131790132
      7        1           0.008864755   -0.007847160   -0.025642592
      8        1          -0.004560700    0.026008474   -0.019338627
      9        1           0.001518024   -0.001550348    0.004349306
     10        1          -0.005769036    0.015096679   -0.009841717
     11        1          -0.010442968    0.007586506   -0.011396409
     12        6           0.071131425   -0.032154818   -0.004287199
     13        1          -0.038280426   -0.009893888   -0.024286893
     14        6           0.068630812    0.024204509    0.075142532
     15        1          -0.029472312    0.013158365   -0.012464966
     16        6          -0.099786307    0.036800876   -0.051100352
     17        1           0.008230745    0.001480473   -0.001926770
     18        1           0.019141787   -0.040479399    0.005995999
     19        1           0.005690393    0.010205931   -0.002719596
 -------------------------------------------------------------------
 Cartesian Forces:  Max     0.131790132 RMS     0.045282699

 GradGradGradGradGradGradGradGradGradGradGradGradGradGradGradGradGradGrad
 Berny optimization.
 Using GEDIIS/GDIIS optimizer.
 FormGI is forming the generalized inverse of G from B-inverse, IUseBI=4.
 Internal  Forces:  Max     0.082981337 RMS     0.023201855
 Search for a local minimum.
 Step number   2 out of a maximum of   99
 All quantities printed in internal units (Hartrees-Bohrs-Radians)
 Mixed Optimization -- RFO/linear search
 Update second derivatives using D2CorX and points    1    2
 DE= -1.03D-01 DEPred=-1.01D-01 R= 1.02D+00
 TightC=F SS=  1.41D+00  RLast= 4.40D-01 DXNew= 5.0454D-01 1.3190D+00
 Trust test= 1.02D+00 RLast= 4.40D-01 DXMaxT set to 5.05D-01
 ITU=  1  0
 Use linear search instead of GDIIS.
 Linear search step of   0.593 exceeds DXMaxT=   0.505 but not scaled.
 Quartic linear search produced a step of  2.00000.
 Iteration  1 RMS(Cart)=  0.12409226 RMS(Int)=  0.01806838
 Iteration  2 RMS(Cart)=  0.02327513 RMS(Int)=  0.00551982
 Iteration  3 RMS(Cart)=  0.00039012 RMS(Int)=  0.00551049
 Iteration  4 RMS(Cart)=  0.00000576 RMS(Int)=  0.00551048
 Iteration  5 RMS(Cart)=  0.00000011 RMS(Int)=  0.00551048
 Variable       Old X    -DE/DX   Delta X   Delta X   Delta X     New X
                                 (Linear)    (Quad)   (Total)
    R1        2.84563  -0.01173  -0.03128   0.00000  -0.03323   2.81240
    R2        2.09333  -0.01868  -0.06235   0.00000  -0.06235   2.03098
    R3        2.73702  -0.07874  -0.24852   0.00000  -0.24719   2.48982
    R4        2.80452  -0.05908  -0.12633   0.00000  -0.12905   2.67547
    R5        2.09525  -0.01845  -0.05961   0.00000  -0.05961   2.03563
    R6        2.87553   0.00813   0.02853   0.00000   0.03099   2.90652
    R7        2.09565  -0.01730  -0.05458   0.00000  -0.05458   2.04106
    R8        2.74288  -0.08258  -0.24960   0.00000  -0.24723   2.49565
    R9        2.86375  -0.00290  -0.00780   0.00000  -0.01077   2.85298
   R10        2.09722  -0.01704  -0.05187   0.00000  -0.05187   2.04535
   R11        2.89339   0.01298   0.06421   0.00000   0.06309   2.95648
   R12        2.02507   0.00309   0.00612   0.00000   0.00612   2.03118
   R13        2.03791   0.00906   0.03180   0.00000   0.03180   2.06971
   R14        2.79933  -0.08298  -0.22169   0.00000  -0.22169   2.57765
   R15        2.09324  -0.01778  -0.05937   0.00000  -0.05937   2.03387
   R16        2.81028  -0.02596  -0.11476   0.00000  -0.11172   2.69856
   R17        2.08870  -0.01780  -0.05809   0.00000  -0.05809   2.03062
   R18        2.03227   0.00570   0.02053   0.00000   0.02053   2.05280
   R19        2.02965   0.00306   0.01528   0.00000   0.01528   2.04493
    A1        1.91882   0.00692   0.04233   0.00000   0.04260   1.96142
    A2        2.05378   0.00337   0.01776   0.00000   0.00975   2.06353
    A3        1.89581   0.00705   0.03664   0.00000   0.03380   1.92962
    A4        2.09502   0.02999   0.15672   0.00000   0.13986   2.23488
    A5        1.88165  -0.00022   0.01080   0.00000   0.00097   1.88262
    A6        1.90514   0.00276   0.01719   0.00000   0.00845   1.91359
    A7        1.93983   0.01294   0.08390   0.00000   0.07949   2.01932
    A8        2.03191   0.01002   0.03043   0.00000   0.03045   2.06236
    A9        1.92220  -0.00108   0.00505   0.00000  -0.00500   1.91720
   A10        2.04029   0.03069   0.13708   0.00000   0.11702   2.15731
   A11        1.89225  -0.00056   0.00164   0.00000  -0.00063   1.89162
   A12        1.89692  -0.00035   0.01095   0.00000   0.00879   1.90571
   A13        2.00571  -0.02027  -0.07837   0.00000  -0.08017   1.92554
   A14        1.88896   0.00538   0.01368   0.00000   0.01297   1.90193
   A15        1.89717   0.00852   0.03012   0.00000   0.03269   1.92987
   A16        1.89765   0.00694   0.03107   0.00000   0.03319   1.93084
   A17        1.89280   0.00380   0.02136   0.00000   0.02061   1.91341
   A18        1.87771  -0.00365  -0.01530   0.00000  -0.01637   1.86134
   A19        2.03519   0.00208   0.03693   0.00000   0.02201   2.05720
   A20        1.90059   0.00178   0.00814   0.00000  -0.00201   1.89858
   A21        1.94158   0.02734   0.13065   0.00000   0.12690   2.06848
   A22        1.91472   0.00584   0.03373   0.00000   0.03084   1.94556
   A23        2.00330  -0.00072  -0.02685   0.00000  -0.02494   1.97837
   A24        1.95482   0.01023   0.07032   0.00000   0.06717   2.02199
   A25        1.99831   0.01222   0.05312   0.00000   0.04247   2.04078
   A26        1.92925   0.00123   0.01217   0.00000   0.00607   1.93532
   A27        1.95752   0.01154   0.06870   0.00000   0.06598   2.02350
   A28        1.93760   0.01338   0.05393   0.00000   0.04121   1.97881
   A29        1.97295   0.03321   0.12463   0.00000   0.11245   2.08540
   A30        1.93268   0.00296   0.04409   0.00000   0.02728   1.95996
    D1       -1.55893  -0.03462  -0.17162   0.00000  -0.17647  -1.73541
    D2        0.63537  -0.00659  -0.02447   0.00000  -0.02354   0.61182
    D3        0.62302  -0.01589  -0.07188   0.00000  -0.07723   0.54579
    D4        2.81732   0.01213   0.07528   0.00000   0.07570   2.89302
    D5       -1.59011  -0.03133  -0.16065   0.00000  -0.16170  -1.75181
    D6        0.62877  -0.01302  -0.05870   0.00000  -0.06175   0.56702
    D7        0.60319  -0.01286  -0.05899   0.00000  -0.05947   0.54372
    D8        2.82207   0.00545   0.04296   0.00000   0.04047   2.86255
    D9       -1.80094   0.03738   0.20139   0.00000   0.20658  -1.59436
   D10        2.33198   0.01589   0.09311   0.00000   0.09586   2.42783
   D11        2.29899   0.01016   0.05444   0.00000   0.05343   2.35242
   D12        0.14872  -0.01132  -0.05385   0.00000  -0.05729   0.09143
   D13        1.54484   0.01594   0.07155   0.00000   0.07560   1.62044
   D14       -0.57954   0.01660   0.07402   0.00000   0.07690  -0.50264
   D15       -2.61407   0.01342   0.06887   0.00000   0.07095  -2.54312
   D16       -0.67479  -0.00304  -0.03185   0.00000  -0.03023  -0.70502
   D17       -2.79917  -0.00238  -0.02938   0.00000  -0.02892  -2.82810
   D18        1.44948  -0.00556  -0.03453   0.00000  -0.03488   1.41461
   D19        1.99449   0.03484   0.18580   0.00000   0.18460   2.17909
   D20       -0.23651   0.00778   0.04279   0.00000   0.04257  -0.19394
   D21       -0.23381   0.00921   0.04224   0.00000   0.04377  -0.19004
   D22       -2.46482  -0.01785  -0.10077   0.00000  -0.09825  -2.56307
   D23        1.79430  -0.04200  -0.21375   0.00000  -0.21535   1.57894
   D24       -2.27482  -0.00111  -0.00522   0.00000  -0.01025  -2.28507
   D25       -2.34103  -0.02050  -0.11025   0.00000  -0.10807  -2.44909
   D26       -0.12695   0.02038   0.09828   0.00000   0.09703  -0.02992
   D27       -0.62517   0.01480   0.06602   0.00000   0.07317  -0.55200
   D28       -2.81884  -0.01393  -0.07983   0.00000  -0.08181  -2.90065
   D29        1.49448   0.01318   0.05410   0.00000   0.05938   1.55386
   D30       -0.69918  -0.01554  -0.09175   0.00000  -0.09561  -0.79479
   D31       -2.75182   0.01470   0.06396   0.00000   0.07045  -2.68137
   D32        1.33770  -0.01402  -0.08190   0.00000  -0.08453   1.25316
   D33       -3.09780  -0.01426  -0.06376   0.00000  -0.07008   3.11531
   D34       -0.91372   0.02580   0.11562   0.00000   0.11938  -0.79434
   D35       -0.83122   0.01096   0.08092   0.00000   0.07716  -0.75406
   D36        1.35286   0.05102   0.26029   0.00000   0.26662   1.61948
   D37       -1.91881  -0.00670  -0.03529   0.00000  -0.03632  -1.95514
   D38        0.29774   0.01556   0.07884   0.00000   0.08176   0.37951
   D39        0.27945   0.00960   0.04824   0.00000   0.04674   0.32620
   D40        2.49601   0.03186   0.16237   0.00000   0.16483   2.66084
         Item               Value     Threshold  Converged?
 Maximum Force            0.082981     0.000450     NO 
 RMS     Force            0.023202     0.000300     NO 
 Maximum Displacement     0.476026     0.001800     NO 
 RMS     Displacement     0.129685     0.001200     NO 
 Predicted change in Energy=-1.416324D-01
 GradGradGradGradGradGradGradGradGradGradGradGradGradGradGradGradGradGrad

                          Input orientation:                          
 ---------------------------------------------------------------------
 Center     Atomic      Atomic             Coordinates (Angstroms)
 Number     Number       Type             X           Y           Z
 ---------------------------------------------------------------------
      1          6           0        0.834896   -0.452599    1.281505
      2          6           0        2.316056   -0.456935    1.426592
      3          6           0        1.424702    2.719526    1.243175
      4          6           0        3.134188    0.513152    2.054345
      5          6           0        2.933494    3.017385    1.264588
      6          6           0        3.749774    1.684170    1.326978
      7          1           0        0.350205   -1.072698    2.013379
      8          1           0        0.935626    2.709196    2.206129
      9          1           0        3.155281    3.637315    2.114183
     10          1           0        2.614138   -1.442197    1.744065
     11          1           0        3.903373   -0.000926    2.616100
     12          6           0        0.221949    0.709326    1.180596
     13          1           0       -0.215862    1.006508    2.117816
     14          6           0        1.000138    1.703778    0.513729
     15          1           0        1.782470    1.337808   -0.125561
     16          6           0        5.076209    1.746744    1.638803
     17          1           0        5.600547    2.552044    1.132249
     18          1           0        5.386590    1.639388    2.669893
     19          1           0        3.226056    3.586696    0.375854
 ---------------------------------------------------------------------
                    Distance matrix (angstroms):
                    1          2          3          4          5
     1  C    0.000000
     2  C    1.488256   0.000000
     3  C    3.226719   3.304248   0.000000
     4  C    2.610881   1.415797   2.906618   0.000000
     5  C    4.055267   3.532474   1.538062   2.633472   0.000000
     6  C    3.614466   2.578720   2.546555   1.509733   1.564502
     7  H    1.074750   2.141975   4.016059   3.204242   4.895187
     8  H    3.295758   3.540854   1.080084   3.111162   2.230013
     9  H    4.775452   4.235559   2.143805   3.124807   1.074856
    10  H    2.087815   1.077212   4.357246   2.046977   4.496638
    11  H    3.376493   2.035301   3.928053   1.082354   3.446368
    12  C    1.317556   2.409556   2.343381   3.046811   3.561835
    13  H    1.983053   3.005006   2.528018   3.386778   3.832762
    14  C    2.294940   2.689542   1.320639   2.888816   2.455039
    15  H    2.466432   2.432075   1.977519   2.694288   2.465431
    16  C    4.790982   3.538316   3.799518   2.337920   2.519086
    17  H    5.635743   4.464132   4.180675   3.330206   2.710577
    18  H    5.198265   3.920274   4.347273   2.592416   3.145065
    19  H    4.780561   4.275874   2.179245   3.503205   1.095243
                    6          7          8          9         10
     6  C    0.000000
     7  H    4.430411   0.000000
     8  H    3.121380   3.831787   0.000000
     9  H    2.188124   5.482959   2.407640   0.000000
    10  H    3.352283   2.309644   4.501663   5.121647   0.000000
    11  H    2.127200   3.759917   4.039847   3.748114   2.121281
    12  C    3.662962   1.971189   2.358078   4.248428   3.266361
    13  H    4.100112   2.157415   2.057393   4.276186   3.760951
    14  C    2.867447   3.221830   1.969579   3.308271   3.743779
    15  H    2.469842   3.526611   2.834542   3.491246   3.451898
    16  C    1.364031   5.515857   4.288660   2.736824   4.030163
    17  H    2.053409   6.440594   4.789510   2.849795   5.024631
    18  H    2.117687   5.757743   4.601158   3.046189   4.247330
    19  H    2.190553   5.715065   3.060390   1.740506   5.247496
                   11         12         13         14         15
    11  H    0.000000
    12  C    4.014724   0.000000
    13  H    4.269814   1.076280   0.000000
    14  C    3.969226   1.428014   2.130243   0.000000
    15  H    3.715797   2.129849   3.022553   1.074555   0.000000
    16  C    2.320561   4.984980   5.365018   4.228711   3.758847
    17  H    3.405858   5.685707   6.098413   4.718675   4.199307
    18  H    2.212116   5.454955   5.665050   4.888165   4.571127
    19  H    4.283515   4.236925   4.640970   2.918750   2.718981
                   16         17         18         19
    16  C    0.000000
    17  H    1.086295   0.000000
    18  H    1.082131   1.800852   0.000000
    19  H    2.898885   2.698305   3.704394   0.000000
 Stoichiometry    C9H10
 Framework group  C1[X(C9H10)]
 Deg. of freedom    51
 Full point group                 C1      NOp   1
 Largest Abelian subgroup         C1      NOp   1
 Largest concise Abelian subgroup C1      NOp   1
                         Standard orientation:                         
 ---------------------------------------------------------------------
 Center     Atomic      Atomic             Coordinates (Angstroms)
 Number     Number       Type             X           Y           Z
 ---------------------------------------------------------------------
      1          6           0       -2.126094   -0.865671   -0.120907
      2          6           0       -0.791389   -1.514638   -0.231853
      3          6           0       -0.206833    1.699881    0.261315
      4          6           0        0.418384   -1.135391    0.398306
      5          6           0        1.275331    1.333675    0.074988
      6          6           0        1.424246   -0.195303   -0.221185
      7          1           0       -2.772259   -1.374435    0.570989
      8          1           0       -0.569834    1.680317    1.278384
      9          1           0        1.815962    1.601502    0.964539
     10          1           0       -0.932014   -2.578254   -0.135252
     11          1           0        0.926329   -2.031913    0.729563
     12          6           0       -2.171634    0.436399    0.075290
     13          1           0       -2.355671    0.672860    1.109018
     14          6           0       -1.093025    1.139890   -0.541904
     15          1           0       -0.606676    0.634223   -1.355805
     16          6           0        2.663663   -0.758002   -0.132891
     17          1           0        3.445202   -0.151914   -0.582213
     18          1           0        2.978599   -1.209211    0.798900
     19          1           0        1.714464    1.911789   -0.745075
 ---------------------------------------------------------------------
 Rotational constants (GHZ):           2.9141195           1.5632842           1.0876520
 Standard basis: 3-21G (6D, 7F)
 There are   101 symmetry adapted cartesian basis functions of A   symmetry.
 There are   101 symmetry adapted basis functions of A   symmetry.
   101 basis functions,   165 primitive gaussians,   101 cartesian basis functions
    32 alpha electrons       32 beta electrons
       nuclear repulsion energy       409.4103790932 Hartrees.
 NAtoms=   19 NActive=   19 NUniq=   19 SFac= 1.00D+00 NAtFMM=   60 NAOKFM=F Big=F
 Integral buffers will be    131072 words long.
 Raffenetti 1 integral format.
 Two-electron integral symmetry is turned on.
 One-electron integrals computed using PRISM.
 NBasis=   101 RedAO= T EigKep=  6.94D-03  NBF=   101
 NBsUse=   101 1.00D-06 EigRej= -1.00D+00 NBFU=   101
 Initial guess from the checkpoint file:  "meth_cyclooctatetraene_isomer.chk"
 B after Tr=     0.000000    0.000000    0.000000
         Rot=    0.999916   -0.000355    0.006109   -0.011394 Ang=  -1.48 deg.
 ExpMin= 1.83D-01 ExpMax= 1.72D+02 ExpMxC= 1.72D+02 IAcc=3 IRadAn=         5 AccDes= 0.00D+00
 Harris functional with IExCor=  205 and IRadAn=       5 diagonalized for initial guess.
 HarFok:  IExCor=  205 AccDes= 0.00D+00 IRadAn=         5 IDoV= 1 UseB2=F ITyADJ=14
 ICtDFT=  3500011 ScaDFX=  1.000000  1.000000  1.000000  1.000000
 FoFCou: FMM=F IPFlag=           0 FMFlag=      100000 FMFlg1=           0
         NFxFlg=           0 DoJE=T BraDBF=F KetDBF=T FulRan=T
         wScrn=  0.000000 ICntrl=       500 IOpCl=  0 I1Cent=   200000004 NGrid=           0
         NMat0=    1 NMatS0=      1 NMatT0=    0 NMatD0=    1 NMtDS0=    0 NMtDT0=    0
 Petite list used in FoFCou.
 Keep R1 ints in memory in canonical form, NReq=14124270.
 Requested convergence on RMS density matrix=1.00D-08 within 128 cycles.
 Requested convergence on MAX density matrix=1.00D-06.
 Requested convergence on             energy=1.00D-06.
 No special actions if energy rises.
 SCF Done:  E(RHF) =  -344.358303311     A.U. after   17 cycles
            NFock= 17  Conv=0.31D-08     -V/T= 2.0009
 Calling FoFJK, ICntrl=      2127 FMM=F ISym2X=0 I1Cent= 0 IOpClX= 0 NMat=1 NMatS=1 NMatT=0.
 ***** Axes restored to original set *****
 -------------------------------------------------------------------
 Center     Atomic                   Forces (Hartrees/Bohr)
 Number     Number              X              Y              Z
 -------------------------------------------------------------------
      1        6           0.006842773    0.000229509    0.019757514
      2        6           0.002469568   -0.005807332    0.057701596
      3        6           0.018084676   -0.026050201    0.033253734
      4        6          -0.007629586   -0.046865015   -0.078065128
      5        6          -0.013671733    0.009914087   -0.063155072
      6        6           0.014409642    0.013574741    0.099025428
      7        1           0.008097951   -0.021465796   -0.006419887
      8        1          -0.002469210    0.031749496    0.001295611
      9        1           0.006084909   -0.006577279    0.005843466
     10        1          -0.000199892   -0.002718484    0.000779712
     11        1           0.000668291    0.003320900   -0.000419192
     12        6           0.004959289    0.018535595   -0.005142822
     13        1          -0.041798603    0.001958094   -0.015854300
     14        6           0.031432105    0.009084340    0.001863243
     15        1          -0.018408469   -0.002982248   -0.026134446
     16        6          -0.025430950    0.064845966   -0.020705638
     17        1           0.005081846   -0.002691716    0.005204686
     18        1           0.012992544   -0.038381355   -0.013784680
     19        1          -0.001515149    0.000326699    0.004956177
 -------------------------------------------------------------------
 Cartesian Forces:  Max     0.099025428 RMS     0.027195569

 GradGradGradGradGradGradGradGradGradGradGradGradGradGradGradGradGradGrad
 Berny optimization.
 Using GEDIIS/GDIIS optimizer.
 FormGI is forming the generalized inverse of G from B-inverse, IUseBI=4.
 Internal  Forces:  Max     0.050741886 RMS     0.014246820
 Search for a local minimum.
 Step number   3 out of a maximum of   99
 All quantities printed in internal units (Hartrees-Bohrs-Radians)
 Mixed Optimization -- RFO/linear search
 Update second derivatives using D2CorX and points    2    3
 ITU=  0  1  0
 Use linear search instead of GDIIS.
     Eigenvalues ---    0.00236   0.00568   0.00579   0.00866   0.00942
     Eigenvalues ---    0.01183   0.01483   0.01632   0.01984   0.02220
     Eigenvalues ---    0.02518   0.02727   0.03537   0.04079   0.04532
     Eigenvalues ---    0.06769   0.09205   0.09626   0.09925   0.11252
     Eigenvalues ---    0.13202   0.13402   0.13641   0.14097   0.14617
     Eigenvalues ---    0.15801   0.16009   0.17804   0.20665   0.21679
     Eigenvalues ---    0.22631   0.22849   0.26740   0.29115   0.29388
     Eigenvalues ---    0.30183   0.30423   0.30734   0.30849   0.30939
     Eigenvalues ---    0.31064   0.31125   0.31179   0.31213   0.31221
     Eigenvalues ---    0.31479   0.37163   0.37212   0.37230   0.37230
     Eigenvalues ---    0.43802
 RFO step:  Lambda=-1.04305714D-01 EMin= 2.35984001D-03
 Quartic linear search produced a step of  0.31867.
 Iteration  1 RMS(Cart)=  0.10783075 RMS(Int)=  0.02626385
 Iteration  2 RMS(Cart)=  0.03019457 RMS(Int)=  0.00584249
 Iteration  3 RMS(Cart)=  0.00183572 RMS(Int)=  0.00555034
 Iteration  4 RMS(Cart)=  0.00001948 RMS(Int)=  0.00555031
 Iteration  5 RMS(Cart)=  0.00000045 RMS(Int)=  0.00555031
 Variable       Old X    -DE/DX   Delta X   Delta X   Delta X     New X
                                 (Linear)    (Quad)   (Total)
    R1        2.81240   0.00455  -0.01059   0.02464   0.01305   2.82545
    R2        2.03098   0.00436  -0.01987   0.02448   0.00461   2.03559
    R3        2.48982   0.04428  -0.07877   0.16285   0.08504   2.57486
    R4        2.67547  -0.02785  -0.04112  -0.03710  -0.08000   2.59547
    R5        2.03563   0.00266  -0.01900   0.01964   0.00065   2.03628
    R6        2.90652  -0.00928   0.00987  -0.03699  -0.02577   2.88074
    R7        2.04106   0.00197  -0.01739   0.01680  -0.00060   2.04047
    R8        2.49565   0.02446  -0.07878   0.11122   0.03401   2.52966
    R9        2.85298   0.01732  -0.00343   0.05339   0.04819   2.90117
   R10        2.04535  -0.00132  -0.01653   0.00805  -0.00848   2.03688
   R11        2.95648  -0.00126   0.02011  -0.01671   0.00253   2.95901
   R12        2.03118   0.00208   0.00195   0.00320   0.00515   2.03634
   R13        2.06971  -0.00426   0.01013  -0.01618  -0.00605   2.06366
   R14        2.57765  -0.01276  -0.07064   0.01406  -0.05659   2.52106
   R15        2.03387   0.00374  -0.01892   0.02226   0.00334   2.03722
   R16        2.69856   0.02222  -0.03560   0.07246   0.03863   2.73719
   R17        2.03062   0.00316  -0.01851   0.02049   0.00198   2.03259
   R18        2.05280  -0.00197   0.00654  -0.00878  -0.00223   2.05056
   R19        2.04493  -0.00560   0.00487  -0.01550  -0.01063   2.03430
    A1        1.96142  -0.00118   0.01357  -0.00520   0.00419   1.96561
    A2        2.06353   0.00064   0.00311   0.03272   0.02738   2.09091
    A3        1.92962   0.01372   0.01077   0.07357   0.08132   2.01093
    A4        2.23488   0.00819   0.04457   0.02140   0.05447   2.28935
    A5        1.88262   0.00187   0.00031   0.02071   0.01674   1.89936
    A6        1.91359   0.00339   0.00269   0.02226   0.02046   1.93405
    A7        2.01932  -0.00086   0.02533  -0.00773   0.01394   2.03326
    A8        2.06236  -0.00849   0.00970  -0.04249  -0.03405   2.02831
    A9        1.91720   0.01647  -0.00159   0.10413   0.09944   2.01664
   A10        2.15731   0.02745   0.03729   0.11664   0.14139   2.29870
   A11        1.89162  -0.00464  -0.00020  -0.00788  -0.01249   1.87913
   A12        1.90571  -0.00478   0.00280  -0.01308  -0.01447   1.89124
   A13        1.92554   0.00376  -0.02555   0.02346  -0.00531   1.92023
   A14        1.90193   0.00040   0.00413   0.01387   0.01836   1.92029
   A15        1.92987   0.00168   0.01042  -0.00539   0.00655   1.93642
   A16        1.93084  -0.00395   0.01058  -0.03592  -0.02421   1.90663
   A17        1.91341  -0.00365   0.00657  -0.00776  -0.00034   1.91306
   A18        1.86134   0.00166  -0.00522   0.01094   0.00498   1.86632
   A19        2.05720   0.01182   0.00701   0.06782   0.05991   2.11711
   A20        1.89858   0.01169  -0.00064   0.06267   0.05433   1.95291
   A21        2.06848  -0.00524   0.04044  -0.01871   0.01367   2.08215
   A22        1.94556   0.00892   0.00983   0.05207   0.06031   2.00587
   A23        1.97837  -0.00646  -0.00795  -0.01465  -0.02507   1.95330
   A24        2.02199   0.00532   0.02141   0.02863   0.04782   2.06981
   A25        2.04078   0.00138   0.01353   0.02883   0.03880   2.07957
   A26        1.93532   0.00779   0.00193   0.04216   0.04062   1.97594
   A27        2.02350  -0.00055   0.02103  -0.01670   0.00001   2.02351
   A28        1.97881   0.01263   0.01313   0.07306   0.06330   2.04211
   A29        2.08540   0.02217   0.03583   0.09300   0.10634   2.19175
   A30        1.95996  -0.00338   0.00869   0.02446   0.00832   1.96829
    D1       -1.73541  -0.02894  -0.05624  -0.17324  -0.23040  -1.96580
    D2        0.61182  -0.01033  -0.00750  -0.07864  -0.08478   0.52704
    D3        0.54579  -0.00874  -0.02461  -0.03434  -0.06109   0.48470
    D4        2.89302   0.00986   0.02412   0.06027   0.08452   2.97754
    D5       -1.75181  -0.02441  -0.05153  -0.17900  -0.23329  -1.98509
    D6        0.56702  -0.01432  -0.01968  -0.10190  -0.12441   0.44261
    D7        0.54372  -0.01116  -0.01895  -0.07764  -0.09523   0.44849
    D8        2.86255  -0.00106   0.01290  -0.00054   0.01365   2.87619
    D9       -1.59436   0.02639   0.06583   0.15615   0.22580  -1.36856
   D10        2.42783   0.01219   0.03055   0.07112   0.10260   2.53043
   D11        2.35242   0.00801   0.01703   0.06080   0.07894   2.43136
   D12        0.09143  -0.00620  -0.01826  -0.02423  -0.04426   0.04717
   D13        1.62044   0.01465   0.02409   0.08473   0.10892   1.72936
   D14       -0.50264   0.01690   0.02451   0.10545   0.13053  -0.37211
   D15       -2.54312   0.01368   0.02261   0.08703   0.10928  -2.43384
   D16       -0.70502  -0.00122  -0.00963  -0.02588  -0.03511  -0.74013
   D17       -2.82810   0.00104  -0.00922  -0.00515  -0.01351  -2.84161
   D18        1.41461  -0.00218  -0.01111  -0.02357  -0.03476   1.37985
   D19        2.17909   0.01132   0.05882   0.05448   0.11389   2.29298
   D20       -0.19394   0.00194   0.01357   0.00199   0.01478  -0.17916
   D21       -0.19004   0.00299   0.01395  -0.00662   0.00712  -0.18293
   D22       -2.56307  -0.00640  -0.03131  -0.05910  -0.09199  -2.65506
   D23        1.57894  -0.01876  -0.06863  -0.10662  -0.17942   1.39953
   D24       -2.28507  -0.00005  -0.00327   0.01353   0.01060  -2.27446
   D25       -2.44909  -0.00424  -0.03444  -0.01820  -0.05411  -2.50320
   D26       -0.02992   0.01448   0.03092   0.10196   0.13591   0.10599
   D27       -0.55200   0.01778   0.02332   0.08908   0.11473  -0.43727
   D28       -2.90065  -0.01070  -0.02607  -0.08127  -0.10768  -3.00833
   D29        1.55386   0.01817   0.01892   0.09840   0.11857   1.67243
   D30       -0.79479  -0.01031  -0.03047  -0.07196  -0.10384  -0.89864
   D31       -2.68137   0.01563   0.02245   0.08564   0.11023  -2.57114
   D32        1.25316  -0.01285  -0.02694  -0.08471  -0.11218   1.14099
   D33        3.11531  -0.01335  -0.02233  -0.04778  -0.07332   3.04198
   D34       -0.79434   0.02372   0.03804   0.19745   0.24084  -0.55351
   D35       -0.75406   0.01368   0.02459   0.11468   0.13393  -0.62013
   D36        1.61948   0.05074   0.08496   0.35991   0.44809   2.06756
   D37       -1.95514   0.00568  -0.01158   0.05831   0.04622  -1.90892
   D38        0.37951   0.01919   0.02606   0.14026   0.16618   0.54569
   D39        0.32620   0.01764   0.01490   0.14913   0.16383   0.49002
[...]
 0.18176866,-0.24711106,0.02745295,-0.00015720,-0.00375209,0.00103979,0
 .17430077,0.55118552,-0.01008419,-0.00688623,0.00658839,-0.03105761,0.
 01435949,-0.09431248,-0.00148951,0.00426377,0.00036638,0.12289343,-0.1
 7119646,0.34178706,0.00374942,-0.00190557,0.00343689,-0.00489339,-0.00
 217184,-0.00064212,-0.20073289,-0.07341201,0.00128187,0.01000702,-0.00
 229576,-0.00563846,0.48933132,0.00079328,0.00330865,-0.00182199,0.0012
 6851,0.00110189,0.00218941,-0.05462378,-0.09777369,0.00497628,0.014723
 72,-0.01812728,0.00189049,0.10283507,0.53330013,-0.00035373,-0.0001414
 6,0.00151985,-0.00172757,-0.00095663,-0.00098396,-0.00750291,-0.001907
 51,-0.11100156,-0.00515980,0.01399185,0.00133837,-0.02184422,0.0004004
 2,0.67587266,0.00010661,0.00025723,0.00405758,-0.00310118,-0.02316786,
 0.01409040,-0.04994938,0.02693160,-0.00712712,-0.11632586,-0.02401137,
 0.02088930,-0.10654780,0.03727889,0.00173943,0.82279404,0.00612355,-0.
 00672235,0.00290458,-0.01362495,-0.00493206,0.00326686,0.00801972,0.00
 902881,0.00185743,-0.00839784,-0.16814728,0.04548069,0.01760628,-0.133
 22932,0.00877193,-0.03204691,0.47000967,-0.00068344,-0.00289188,-0.007
 49810,0.00915276,0.00105092,0.00532285,-0.00726214,0.00148439,-0.00229
 535,0.00335798,0.04590656,-0.10855848,0.01053042,-0.00572605,-0.082616
 90,-0.23115510,-0.08839778,0.34122719,-0.13626043,-0.12846731,0.020316
 21,-0.01878575,-0.02940194,0.00236579,0.00006851,-0.00101803,0.0006732
 8,-0.00155102,0.00199869,-0.00341654,-0.00031592,0.00048429,0.00000342
 ,0.00002379,-0.00004447,-0.00025273,0.14489014,-0.12694767,-0.27902222
 ,0.04725286,0.00330910,0.00046923,0.00459586,0.00063641,0.00097490,0.0
 0057228,-0.00001736,0.00147923,-0.00036861,0.00001546,-0.00021974,0.00
 016658,0.00029566,-0.00001260,0.00000324,0.13820785,0.29596753,0.01821
 568,0.04669849,-0.06914877,-0.01425067,-0.01477951,0.00468131,-0.00014
 584,0.00191631,-0.00122399,-0.00246134,0.00155556,-0.00071156,0.000381
 99,-0.00166002,0.00044516,0.00049323,0.00110822,-0.00002727,-0.0091967
 1,-0.06096855,0.06099785,0.00067046,0.00075584,0.00089108,0.00039768,0
 .00118025,-0.00018107,-0.11381576,-0.02882122,0.11538206,-0.00088261,0
 .00028219,-0.00017923,-0.01192241,-0.01203894,0.02725011,0.00094152,-0
 .00084278,-0.00000829,-0.00005853,-0.00015794,-0.00029177,0.11856215,-
 0.00023804,-0.00218875,-0.00073906,0.00065175,-0.00260130,-0.00055574,
 -0.03875359,-0.06807768,0.05824418,0.00044746,-0.00001752,-0.00013007,
 -0.00693976,0.00095027,0.01595391,-0.00107953,-0.00089789,0.00029259,-
 0.00007867,0.00024811,0.00055024,0.04558951,0.06014024,-0.00018725,-0.
 00017846,0.00067615,-0.00018770,0.00059759,0.00045526,0.11224292,0.047
 68059,-0.30492009,0.00032427,0.00090206,-0.00004403,-0.00481556,-0.002
 17162,0.00414199,0.00038810,0.00018857,-0.00042517,0.00008433,0.000002
 59,0.00008000,-0.11941379,-0.05306399,0.32896090,-0.00027497,-0.000005
 43,-0.00003124,0.00036295,0.00040642,-0.00029919,-0.00581320,-0.020879
 10,-0.03781260,-0.00069481,-0.00089370,0.00051853,-0.06367298,-0.02363
 589,-0.03199144,0.00084019,0.01513796,0.02045614,0.00002255,-0.0000591
 0,0.00004704,0.00117769,0.00125932,0.00056380,0.07403916,0.00007123,-0
 .00005955,0.00022211,-0.00064317,-0.00011758,0.00012964,-0.00144270,-0
 .00522836,-0.00907981,0.00136121,0.00072417,-0.00012731,-0.02681277,-0
 .13977803,-0.12553801,-0.00189359,-0.01903548,-0.02530896,-0.00001747,
 -0.00002617,0.00003090,-0.00021162,0.00024841,0.00020320,0.02663488,0.
 15067688,-0.00000684,-0.00002549,0.00003697,-0.00007726,-0.00005963,0.
 00000212,0.00095887,0.00298669,0.00000121,-0.00015216,-0.00039959,-0.0
 0026530,-0.03829618,-0.12426650,-0.25600386,0.00200118,0.00075043,0.00
 366521,0.00000875,-0.00004282,0.00001766,-0.00024747,-0.00009558,0.001
 18918,0.04090295,0.13935463,0.27407641,-0.00776471,0.02731874,-0.02562
 210,-0.06167085,0.01827619,-0.01878268,-0.00023638,0.00036143,0.000152
 00,-0.00437696,-0.03453441,0.01692883,-0.00089651,-0.00043227,0.000665
 24,-0.00019273,-0.00404355,-0.00505954,-0.00005573,0.00057199,-0.00010
 768,0.00003876,0.00007423,-0.00020208,0.00004868,-0.00002013,-0.000033
 44,0.08182790,-0.00459284,0.00042781,0.00112326,0.01478127,-0.25168044
 ,0.14354286,0.00027206,-0.00032933,0.00017973,-0.00187060,-0.01987621,
 0.01769647,0.00035253,0.00061203,-0.00047269,-0.00475282,0.00606803,0.
 00402079,0.00037315,0.00174913,-0.00124815,-0.00004212,-0.00004070,0.0
 0029138,0.00000718,-0.00008715,0.00000238,-0.00527425,0.26621579,-0.00
 463027,0.01790398,-0.00722162,-0.01628827,0.14341473,-0.15602669,-0.00
 002885,-0.00015830,-0.00039984,-0.00350601,0.00208048,0.00560301,0.000
 88268,0.00059852,-0.00098700,-0.00440981,0.00580135,0.00935695,0.00001
 146,-0.00080289,-0.00009549,0.00007580,-0.00020337,0.00015748,0.000051
 31,-0.00002351,0.00007194,0.02924268,-0.16015186,0.15584232,0.00178341
 ,-0.00478105,-0.00172291,-0.02715769,0.00924995,-0.02301914,-0.0007629
 2,0.00070686,-0.00049384,-0.21209934,0.07900872,-0.12357998,-0.0008339
 6,-0.00118222,0.00065647,0.00762151,-0.00818570,0.00611131,-0.00124916
 ,-0.00023692,-0.00063126,0.00009682,-0.00011827,-0.00014733,-0.0000304
 6,0.00009764,0.00003519,-0.00187251,0.00180131,0.00325380,0.23422659,-
 0.00413505,0.00310921,0.00537659,-0.02511065,0.00591229,-0.00890650,-0
 .00057357,-0.00072297,0.00033742,0.08741239,-0.10017990,0.07655694,-0.
 00041878,-0.00226925,0.00244931,0.01720881,-0.01634439,0.02237529,-0.0
 0020127,-0.00030046,-0.00023095,0.00002540,0.00006991,0.00003714,0.000
 03573,-0.00022775,-0.00010316,-0.00046149,-0.00203716,-0.00656370,-0.0
 7436143,0.11460357,-0.00366932,0.00492117,0.00950545,-0.00459566,0.004
 63381,0.00543607,0.00124565,-0.00105083,0.00043126,-0.12544905,0.07532
 701,-0.15351972,0.00242054,0.00027495,-0.00136404,-0.01550342,0.011314
 23,-0.00244988,0.00017788,-0.00005894,-0.00010331,-0.00006177,-0.00000
 326,0.00009979,0.00007236,0.00003949,-0.00002498,0.00529656,-0.0057650
 8,-0.00595809,0.13798728,-0.08919718,0.14889272,-0.19324825,0.11488779
 ,-0.14021833,-0.01148020,0.01871107,-0.02162812,-0.01420387,-0.0245937
 1,-0.00809150,0.00031475,0.00383644,-0.00287587,0.00405952,-0.01490425
 ,-0.00086150,0.00340031,0.00459852,0.00108329,0.01202885,-0.01732337,0
 .01017274,-0.00439349,0.00717336,-0.00119495,-0.00124193,-0.00027115,-
 0.00006455,-0.00452743,-0.00012733,-0.00326062,-0.00041656,-0.00048767
 ,0.00028141,0.62176325,0.10270485,-0.32399578,0.19222551,0.01229026,0.
 01004964,0.00804688,-0.03472137,-0.02764768,-0.00622055,-0.00833272,-0
 .00461960,-0.00196087,0.00453045,0.00350238,-0.00146746,-0.00016787,0.
 00677578,-0.00271838,0.01681582,-0.01986551,0.02428097,0.00339393,-0.0
 0390326,0.00264605,0.00004598,0.00017073,0.00007262,-0.00180505,0.0015
 6131,-0.00055241,-0.00042072,-0.00049646,0.00028231,0.05083847,0.64220
 438,-0.13504314,0.20862470,-0.27095514,-0.01691965,0.01044870,-0.00949
 024,-0.02331887,-0.02702590,0.00790177,0.00569724,0.00349413,0.0001726
 9,-0.00199699,-0.00324323,-0.00453157,-0.00042103,-0.00352043,0.002008
 40,-0.00692364,0.00494145,0.00237203,-0.00285440,-0.00104352,0.0000591
 6,-0.00148191,-0.00044897,-0.00017274,-0.00237654,0.00018900,-0.000158
 05,0.00027577,-0.00045813,-0.00083418,0.28152804,-0.21906653,0.5179170
 5,-0.00831390,-0.00733012,-0.00986663,0.00482847,-0.00140335,-0.005657
 90,-0.00205155,-0.00178633,0.00063620,-0.00078770,-0.00021375,0.000526
 32,0.00084604,-0.00038244,-0.00059615,0.00038080,0.00039333,-0.0008171
 8,-0.00130992,0.00291783,0.00401617,0.00010269,0.00027006,0.00005746,-
 0.00030568,-0.00000384,0.00002754,-0.00069987,0.00014474,-0.00015394,-
 0.00036384,0.00046729,0.00074937,-0.28194252,-0.06078885,-0.12914049,0
 .29296628,0.02449665,0.00849634,0.01768216,-0.00252834,-0.00018811,0.0
 0552850,-0.00286415,-0.00267538,0.00320646,0.00065307,-0.00029063,0.00
 018971,-0.00016559,-0.00184143,-0.00104311,0.00022415,-0.00084921,0.00
 049424,0.00220253,-0.00072757,-0.00312724,-0.00075843,0.00111128,-0.00
 037614,-0.00055541,-0.00023553,-0.00011345,0.00093470,-0.00028984,0.00
 040546,0.00038756,-0.00017113,-0.00060325,-0.06533723,-0.07728055,-0.0
 2716394,0.06754089,0.07755963,-0.02285647,-0.00607349,-0.00062573,-0.0
 0379939,0.00579970,0.00630479,0.00145177,0.00218527,0.00129701,0.00089
 256,0.00039135,-0.00095761,-0.00106949,0.00025783,0.00038230,-0.000398
 89,-0.00073172,0.00106371,0.00357340,-0.00286116,-0.00465613,-0.000541
 25,0.00002843,-0.00002504,0.00018180,-0.00006668,-0.00005142,-0.000646
 17,0.00000303,-0.00068707,0.00022238,-0.00077141,-0.00099622,-0.127139
 64,-0.01658449,-0.13230724,0.14826720,0.02136355,0.12294634,0.01116093
 ,0.00299992,0.00588860,-0.00325848,0.00396916,0.00007436,-0.15371271,-
 0.09834845,-0.12711056,0.00267916,-0.00008533,0.00033976,-0.02050058,-
 0.01750446,-0.03096523,-0.00443333,-0.00923223,-0.00230024,0.00189574,
 -0.00040983,-0.00619963,0.00886623,0.00417975,0.01442445,-0.00539333,-
 0.00245616,0.00008001,0.00001963,0.00002891,-0.00040918,0.00024783,-0.
 00029891,-0.00064756,-0.13039672,-0.08686684,0.01510088,-0.00316136,-0
 .02357197,0.00331774,0.39981072,-0.01838796,-0.03873501,0.02652687,-0.
 00095130,-0.00252001,-0.00540233,-0.12299293,-0.20584186,-0.20550489,0
 .00355612,0.00209537,-0.00128828,-0.01158874,-0.00769521,-0.02138094,0
 .00299025,-0.00364117,0.00394212,-0.00200570,0.00095876,0.00784229,-0.
 00231310,0.00982124,0.00760624,-0.00495122,-0.00023209,-0.00110655,-0.
 00097992,-0.00017433,-0.00024134,0.00028989,-0.00021745,-0.00032450,-0
 .06290308,-0.19899417,0.02583168,0.00053133,-0.00260486,-0.00257784,0.
 25189657,0.50860812,0.01183366,0.02959968,0.00263991,0.00208525,-0.002
 22662,-0.00731730,-0.13015984,-0.19049529,-0.46196661,0.00059097,0.001
 05575,0.00087639,-0.00209325,-0.00406729,0.00914896,0.00009319,-0.0034
 6592,0.00113224,-0.00760273,0.00752822,0.00748251,-0.01761449,-0.01617
 576,-0.02912181,0.00249995,0.00116318,0.00112316,0.00022741,-0.0001613
 5,0.00040294,0.00006407,0.00044301,0.00061549,0.01128222,0.01791190,-0
 .11214170,-0.00891475,-0.01717296,0.00897982,0.03392792,0.12961522,0.8
 9099145,-0.00019115,-0.00214046,0.00173282,-0.00049507,0.00040809,0.00
 010764,0.01330853,0.00162993,-0.00779967,0.00121338,0.00018217,0.00018
 401,-0.00176487,0.00647102,-0.00058442,-0.00110695,-0.00190045,0.00072
 731,0.00076150,-0.00071023,-0.00015665,0.00516992,-0.00865872,-0.00097
 034,0.00040566,0.00009615,0.00011220,0.00000875,-0.00006723,0.00002227
 ,0.00020043,-0.00012342,-0.00026681,-0.00034118,0.00361621,0.01754215,
 0.00000134,-0.00040719,-0.00139915,-0.10374600,-0.03670273,0.10320916,
 0.08567164,-0.00407190,-0.00225325,-0.00209277,-0.00031348,0.00125184,
 0.00068466,0.00563833,0.00668996,-0.02477688,-0.00045473,-0.00036970,0
 .00058669,0.00333823,-0.00388084,0.00031282,0.00084273,0.00090784,-0.0
 0062140,0.00137641,-0.00164635,-0.00141027,-0.00600501,0.00512090,-0.0
 0371800,-0.00014846,-0.00005988,0.00011336,0.00005797,0.00004024,0.000
 01300,0.00002822,0.00008348,0.00004556,-0.01155984,-0.00650714,0.02839
 226,-0.00039654,-0.00038952,-0.00026353,-0.02536840,-0.06129097,0.0466
 3122,0.03789721,0.06261834,0.00174500,-0.00081489,0.00102555,-0.000559
 58,-0.00029583,-0.00003041,0.01624920,0.00745498,-0.02386498,0.0004367
 2,0.00033308,-0.00023815,0.00002461,0.00152597,0.00130473,-0.00005504,
 -0.00021777,0.00004662,-0.00003936,0.00008146,-0.00010796,-0.00106461,
 -0.00335487,-0.00228731,0.00022517,-0.00017364,0.00036094,-0.00005987,
 0.00000715,-0.00001921,-0.00000726,-0.00008674,-0.00005268,0.00053513,
 0.00181782,0.00028184,0.00069002,0.00081761,-0.00056227,0.09493700,0.0
 3796624,-0.31207828,-0.11201898,-0.04452893,0.33578100,-0.00229280,0.0
 0039491,-0.00130607,0.00586773,0.00254968,-0.00074251,-0.00175709,0.00
 196633,-0.00112165,-0.01851929,-0.01238384,0.01473824,-0.02047819,0.00
 625676,0.01189210,-0.53195503,0.00975944,0.19516067,-0.00008670,-0.000
 04296,0.00008159,-0.00011091,-0.00038986,0.00011390,-0.00070900,0.0002
 3662,0.00025705,0.00031723,-0.00030166,-0.00027775,0.00011413,0.001334
 43,0.00141933,0.00069735,-0.00126510,0.00061775,-0.00014771,-0.0000511
 3,0.00006748,-0.00057241,0.00148185,0.00077548,0.00009869,-0.00012754,
 -0.00002821,0.84059084,0.00029860,0.00243430,-0.00000925,0.00285149,-0
 .00461472,0.00447815,0.00118217,-0.00471985,0.00119274,-0.04153891,-0.
 00494200,0.01988537,0.03634592,-0.00387080,-0.01307802,0.00662645,-0.1
 2229593,0.01754040,-0.00011991,-0.00002553,-0.00052117,0.00028349,0.00
 030448,-0.00029730,0.00194836,-0.00084867,-0.00002934,-0.00002679,-0.0
 0222454,-0.00156714,-0.00201927,-0.00065806,0.00037300,-0.00243471,-0.
 00073949,0.00040453,0.00006543,0.00030022,-0.00007923,0.00175604,0.000
 22144,0.00038019,0.00058395,-0.00009459,0.00011602,-0.06199350,0.68277
 106,0.00051481,-0.00061458,0.00042698,-0.00158213,0.00144135,-0.000676
 86,0.00088713,-0.00013953,0.00103416,0.02483424,0.00841371,-0.00205263
 ,0.00180838,0.00338446,0.00865894,0.19894695,0.01407176,-0.16904187,0.
 00017942,-0.00001959,0.00004154,-0.00002928,0.00001137,0.00008773,-0.0
 0170853,0.00177748,0.00077096,0.00006973,0.00065936,0.00035712,0.00131
 270,-0.00130290,0.00075240,0.00051243,0.00106974,-0.00015234,0.0000938
 9,-0.00013419,-0.00004814,-0.00038656,-0.00046431,-0.00098022,-0.00015
 191,-0.00023255,0.00039061,-0.28695920,-0.14804919,0.31881219,-0.00009
 063,0.00060311,-0.00005895,0.00085843,-0.00104829,0.00103746,-0.000458
 64,0.00005971,-0.00049104,-0.00381773,0.00340221,0.00461917,0.00056438
 ,-0.00350685,-0.00198399,-0.01052266,-0.03006628,0.01894461,-0.0000348
 8,-0.00001292,-0.00004988,0.00013852,0.00007139,-0.00005235,0.00029090
 ,-0.00029994,-0.00006906,0.00004708,-0.00063111,-0.00063119,0.00049435
 ,-0.00054197,0.00020311,-0.00030503,-0.00038868,0.00007100,-0.00001005
 ,0.00006269,-0.00001753,0.00005540,0.00015872,0.00028746,0.00003941,0.
 00001649,-0.00005339,-0.10698262,-0.08441082,0.05447045,0.10985012,-0.
 00006409,0.00025941,-0.00015730,0.00033540,0.00027516,0.00023708,-0.00
 030554,0.00011717,-0.00057735,0.00085617,0.00184316,0.00271902,0.00052
 827,-0.00048479,-0.00230667,0.00373541,0.00385813,0.00039096,-0.000018
 51,-0.00001804,-0.00001754,0.00007388,0.00005356,0.00001567,0.00012636
 ,-0.00014262,-0.00021056,0.00017366,-0.00011537,-0.00028437,0.00031860
 ,-0.00014846,-0.00042079,-0.00014937,-0.00031016,0.00008404,-0.0000477
 0,0.00004823,0.00003875,-0.00007529,0.00012538,0.00016279,0.00005583,0
 .00001264,-0.00003503,-0.09263570,-0.27157618,0.11448090,0.09847672,0.
 28283233,-0.00051578,0.00040555,-0.00025035,0.00041161,0.00093111,-0.0
 0074059,-0.00107197,0.00018920,-0.00015995,0.00633664,0.00292432,0.008
 87422,-0.00274772,-0.00392709,-0.00608495,0.00261559,0.01762609,0.0021
 1970,0.00005587,-0.00001221,0.00003902,-0.00020204,0.00005136,0.000001
 82,0.00129811,-0.00125450,-0.00034326,0.00058300,-0.00007407,-0.000614
 52,0.00035589,-0.00095642,0.00020033,-0.00005424,-0.00057768,0.0001113
 5,-0.00003819,0.00001374,0.00006602,-0.00014202,0.00035876,0.00043539,
 0.00007060,-0.00001326,-0.00002603,0.05872250,0.11032192,-0.10725802,-
 0.06747603,-0.12595497,0.09945622,0.00008876,-0.00041820,0.00043541,-0
 .00044428,-0.00040357,-0.00003678,0.00097685,0.00049324,0.00019537,-0.
 00031263,-0.00007220,-0.00396742,-0.00186401,0.00055576,0.00617602,-0.
 01583745,0.03170097,0.00051322,-0.00000305,0.00000050,0.00011160,-0.00
 002681,-0.00008383,0.00004268,-0.00098601,0.00116505,0.00014232,-0.000
 20196,0.00000881,0.00020573,-0.00027000,-0.00021817,0.00081578,0.00053
 497,0.00044445,-0.00025235,0.00000393,-0.00011058,-0.00004898,-0.00033
 909,-0.00033279,-0.00028092,-0.00017215,0.00007999,-0.00002105,-0.1648
 2719,0.13920690,0.00725371,0.01037554,-0.01147947,0.00131789,0.1730885
 3,-0.00001222,-0.00000307,-0.00005281,-0.00023811,0.00039015,-0.000114
 06,0.00054067,-0.00039574,-0.00015085,-0.00215934,-0.00061750,-0.00123
 765,0.00093920,0.00276214,0.00325339,-0.00292430,0.00291680,0.00303122
 ,0.00001055,0.00001491,-0.00005437,0.00020836,0.00006291,0.00002790,-0
 .00055161,0.00054781,-0.00005994,0.00005092,0.00010227,0.00009255,-0.0
 0025558,0.00093292,-0.00042098,-0.00013872,-0.00005325,0.00004305,0.00
 001798,0.00002971,0.00000662,0.00027468,-0.00007731,-0.00015027,-0.000
 01005,-0.00001808,0.00000447,0.14773674,-0.27064987,0.00629708,0.01677
 720,-0.01782417,-0.00055816,-0.15988996,0.28176842,0.00086300,-0.00021
 150,0.00052416,-0.00114740,-0.00061594,0.00006327,0.00233039,-0.001033
 05,0.00124621,-0.00168556,-0.00328590,-0.00546849,0.00448962,0.0063422
 5,0.00796094,0.01172606,-0.01536172,0.00710154,-0.00004367,0.00002256,
 -0.00007281,0.00009300,-0.00006011,-0.00008518,-0.00151421,0.00155944,
 -0.00009386,-0.00030949,0.00016765,0.00040634,-0.00061787,0.00106336,-
 0.00062472,-0.00032946,0.00076522,-0.00032688,0.00008087,-0.00000600,-
 0.00010652,0.00053343,-0.00098900,-0.00057323,-0.00013641,0.00015085,-
 0.00003870,0.00627344,0.01007013,-0.05234240,-0.00801746,0.01226620,0.
 00424277,-0.01254930,-0.00985055,0.03760412,-0.00030327,0.00018208,-0.
 00008882,-0.00000533,0.00020403,-0.00017874,-0.00956884,-0.02007746,0.
 03529824,-0.00243350,0.00192349,0.00065121,-0.07413421,-0.04245620,0.0
 5518817,0.00386361,0.01504539,-0.01849907,0.00002002,-0.00003652,-0.00
 002861,-0.00495191,-0.00337655,-0.00107054,0.00193460,0.00440974,-0.00
 557910,0.00018763,-0.00011000,-0.00014983,0.00027137,0.00044836,-0.000
 47567,-0.00030181,0.00007678,-0.00010381,-0.00003544,-0.00015221,-0.00
 005738,0.00077837,0.00320474,-0.00021076,0.00093811,-0.00082968,-0.000
 93549,0.00075296,0.00139514,-0.00006623,-0.00049189,0.00009536,0.00048
 029,0.00021606,-0.00037642,-0.00003897,0.08326346,0.00033574,-0.000127
 80,-0.00000072,-0.00028391,-0.00006143,0.00014475,0.00061252,-0.004114
 35,0.00806068,0.00403492,-0.00161679,-0.00043316,-0.04078058,-0.136367
 14,0.12299229,-0.00634691,-0.02345738,0.02513174,-0.00009600,0.0000023
 8,0.00003478,-0.00060168,-0.00040421,-0.00039347,0.00607772,0.01371086
 ,-0.01676750,-0.00024196,0.00007845,0.00023881,-0.00032760,-0.00093792
 ,0.00063329,0.00018478,0.00014882,-0.00048289,0.00000405,-0.00000167,-
 0.00006497,-0.00088713,0.00019413,-0.00057568,-0.00022010,-0.00021493,
 -0.00061711,-0.00252548,0.00122873,-0.00065037,0.00127863,0.00119462,0
 .00050631,-0.00064692,0.00011095,-0.00099388,0.04042993,0.15063470,-0.
 00010812,-0.00011025,0.00009714,-0.00008877,0.00003269,-0.00002390,0.0
 0200336,-0.00254542,0.00278338,0.00018098,-0.00065763,0.00052195,0.053
 88698,0.12504323,-0.24720007,0.00202939,-0.00144680,-0.00013137,0.0000
 2557,-0.00003231,-0.00000978,-0.00100261,0.00029324,0.00099917,0.00802
 197,0.01754131,-0.02436033,0.00003415,-0.00000983,-0.00003051,-0.00005
 526,-0.00006199,-0.00000569,0.00032353,0.00002935,0.00024581,0.0000401
 9,0.00003884,-0.00001660,-0.00046318,-0.00040941,0.00035090,-0.0002238
 2,0.00072717,0.00011469,0.00031588,-0.00113181,0.00121984,-0.00073241,
 -0.00043083,-0.00006918,-0.00005294,-0.00010664,0.00058346,-0.06413488
 ,-0.13676290,0.26493107\\0.00000146,-0.00000431,-0.00000001,0.00000268
 ,0.00000638,0.00000246,-0.00000947,0.00000176,-0.00001604,-0.00000274,
 -0.00000764,-0.00000469,-0.00000271,0.00000042,-0.00000380,0.00000212,
 -0.00000166,0.00001003,0.00000002,-0.00000033,0.00000092,0.00000022,-0
 .00000208,-0.00000117,-0.00000075,-0.00000211,-0.00000075,0.00000140,-
 0.00000046,-0.00000091,-0.00000133,0.00000035,0.00000052,0.00000195,0.
 00000285,0.00000025,-0.00000038,0.00000007,0.00000044,0.00000621,0.000
 00559,0.00001598,0.00000032,0.00000161,-0.00000038,0.00000202,0.000001
 65,-0.00000204,-0.00000020,-0.00000022,0.00000049,-0.00000065,-0.00000
 152,-0.00000119,-0.00000018,-0.00000038,-0.00000009\\\@


 Change starts when someone sees the next step.
                            -- William Drayton
 Job cpu time:       0 days  0 hours  0 minutes  7.7 seconds.
 Elapsed time:       0 days  0 hours  0 minutes  7.6 seconds.
 File lengths (MBytes):  RWF=     33 Int=      0 D2E=      0 Chk=      2 Scr=      1
 Normal termination of Gaussian 16 at Mon Jun  9 21:15:34 2025.
