 Entering Gaussian System, Link 0=g16
 Input=/home/gaussian/Documents/jeeva/Aromaticity/napthalene/Napthal_opt.gjf
 Output=/home/gaussian/Documents/jeeva/Aromaticity/napthalene/Napthal_opt.log
 Initial command:
 /usr/local/g16/l1.exe "/home/gaussian/tmp/Gau-92896.inp" -scrdir="/home/gaussian/tmp/"
 Entering Link 1 = /usr/local/g16/l1.exe PID=     92899.
  
 Copyright (c) 1988-2017, Gaussian, Inc.  All Rights Reserved.
  
 This is part of the Gaussian(R) 16 program.  It is based on
 the Gaussian(R) 09 system (copyright 2009, Gaussian, Inc.),
 the Gaussian(R) 03 system (copyright 2003, Gaussian, Inc.),
 the Gaussian(R) 98 system (copyright 1998, Gaussian, Inc.),
 the Gaussian(R) 94 system (copyright 1995, Gaussian, Inc.),
 the Gaussian 92(TM) system (copyright 1992, Gaussian, Inc.),
 the Gaussian 90(TM) system (copyright 1990, Gaussian, Inc.),
 the Gaussian 88(TM) system (copyright 1988, Gaussian, Inc.),
 the Gaussian 86(TM) system (copyright 1986, Carnegie Mellon
 University), and the Gaussian 82(TM) system (copyright 1983,
 Carnegie Mellon University). Gaussian is a federally registered
 trademark of Gaussian, Inc.
  
 This software contains proprietary and confidential information,
 including trade secrets, belonging to Gaussian, Inc.
  
 This software is provided under written license and may be
 used, copied, transmitted, or stored only in accord with that
 written license.
  
 The following legend is applicable only to US Government
 contracts under FAR:
  
                    RESTRICTED RIGHTS LEGEND
  
 Use, reproduction and disclosure by the US Government is
 subject to restrictions as set forth in subparagraphs (a)
 and (c) of the Commercial Computer Software - Restricted
 Rights clause in FAR 52.227-19.
  
 Gaussian, Inc.
 340 Quinnipiac St., Bldg. 40, Wallingford CT 06492
  
  
 ---------------------------------------------------------------
 Warning -- This program may not be used in any manner that
 competes with the business of Gaussian, Inc. or will provide
 assistance to any competitor of Gaussian, Inc.  The licensee
 of this program is prohibited from giving any competitor of
 Gaussian, Inc. access to this program.  By using this program,
 the user acknowledges that Gaussian, Inc. is engaged in the
 business of creating and licensing software in the field of
 computational chemistry and represents and warrants to the
 licensee that it is not a competitor of Gaussian, Inc. and that
 it will not use this program in any manner prohibited above.
 ---------------------------------------------------------------
  

 Cite this work as:
 Gaussian 16, Revision B.01,
 M. J. Frisch, G. W. Trucks, H. B. Schlegel, G. E. Scuseria, 
 M. A. Robb, J. R. Cheeseman, G. Scalmani, V. Barone, 
 G. A. Petersson, H. Nakatsuji, X. Li, M. Caricato, A. V. Marenich, 
 J. Bloino, B. G. Janesko, R. Gomperts, B. Mennucci, H. P. Hratchian, 
 J. V. Ortiz, A. F. Izmaylov, J. L. Sonnenberg, D. Williams-Young, 
 F. Ding, F. Lipparini, F. Egidi, J. Goings, B. Peng, A. Petrone, 
 T. Henderson, D. Ranasinghe, V. G. Zakrzewski, J. Gao, N. Rega, 
 G. Zheng, W. Liang, M. Hada, M. Ehara, K. Toyota, R. Fukuda, 
 J. Hasegawa, M. Ishida, T. Nakajima, Y. Honda, O. Kitao, H. Nakai, 
 T. Vreven, K. Throssell, J. A. Montgomery, Jr., J. E. Peralta, 
 F. Ogliaro, M. J. Bearpark, J. J. Heyd, E. N. Brothers, K. N. Kudin, 
 V. N. Staroverov, T. A. Keith, R. Kobayashi, J. Normand, 
 K. Raghavachari, A. P. Rendell, J. C. Burant, S. S. Iyengar, 
 J. Tomasi, M. Cossi, J. M. Millam, M. Klene, C. Adamo, R. Cammi, 
 J. W. Ochterski, R. L. Martin, K. Morokuma, O. Farkas, 
 J. B. Foresman, and D. J. Fox, Gaussian, Inc., Wallingford CT, 2016.
 
 ******************************************
 Gaussian 16:  EM64L-G16RevB.01 20-Dec-2017
                 9-Jun-2025 
 ******************************************
 %chk=Napthal_opt.chk
 ---------------------------------
 # opt hf/3-21+g geom=connectivity
 ---------------------------------
 1/18=20,19=15,38=1,57=2/1,3;
 2/9=110,12=2,17=6,18=5,40=1/2;
 3/5=5,7=10,11=9,25=1,30=1,71=1/1,2,3;
 4//1;
 5/5=2,38=5/2;
 6/7=2,8=2,9=2,10=2,28=1/1;
 7//1,2,3,16;
 1/18=20,19=15/3(2);
 2/9=110/2;
 99//99;
 2/9=110/2;
 3/5=5,7=10,11=9,25=1,30=1,71=1/1,2,3;
 4/5=5,16=3,69=1/1;
 5/5=2,38=5/2;
 7//1,2,3,16;
 1/18=20,19=15/3(-5);
 2/9=110/2;
 6/7=2,8=2,9=2,10=2,19=2,28=1/1;
 99/9=1/99;
 ------------------------------
 Methyl_Napthalene Optimisation
 ------------------------------
 Symbolic Z-matrix:
 Charge =  0 Multiplicity = 1
 C                    -4.91224  -0.06468   0.02432 
 C                    -3.51089  -0.05328   0.02906 
 C                    -2.82002   1.16586   0.01097 
 C                    -3.53049   2.3736   -0.01185 
 C                    -4.93184   2.3622   -0.01659 
 C                    -5.62271   1.14306   0.00149 
 H                    -0.87621   0.25512   0.03314 
 H                    -5.43973  -0.99551   0.03812 
 H                    -2.96843  -0.97541   0.04648 
 C                    -1.41867   1.17726   0.01571 
 C                    -2.83962   3.59273  -0.02993 
 H                    -5.4743    3.28433  -0.03402 
 H                    -6.69267   1.13436  -0.00213 
 C                    -1.43828   3.60413  -0.02519 
 C                    -0.7278    2.39639  -0.00237 
 H                    -3.38208   4.51487  -0.04736 
 H                    -0.91078   4.53497  -0.039 
 C                     0.81214   2.40892   0.00284 
 H                     1.16351   3.27683  -0.51501 
 H                     1.16524   2.4288    1.0127 
 H                     1.17762   1.52984  -0.48556 
 

 GradGradGradGradGradGradGradGradGradGradGradGradGradGradGradGradGradGrad
 Berny optimization.
 Initialization pass.
                           ----------------------------
                           !    Initial Parameters    !
                           ! (Angstroms and Degrees)  !
 --------------------------                            --------------------------
 ! Name  Definition              Value          Derivative Info.                !
 --------------------------------------------------------------------------------
 ! R1    R(1,2)                  1.4014         estimate D2E/DX2                !
 ! R2    R(1,6)                  1.4014         estimate D2E/DX2                !
 ! R3    R(1,8)                  1.07           estimate D2E/DX2                !
 ! R4    R(2,3)                  1.4014         estimate D2E/DX2                !
 ! R5    R(2,9)                  1.07           estimate D2E/DX2                !
 ! R6    R(3,4)                  1.4014         estimate D2E/DX2                !
 ! R7    R(3,10)                 1.4014         estimate D2E/DX2                !
 ! R8    R(4,5)                  1.4014         estimate D2E/DX2                !
 ! R9    R(4,11)                 1.4014         estimate D2E/DX2                !
 ! R10   R(5,6)                  1.4014         estimate D2E/DX2                !
 ! R11   R(5,12)                 1.07           estimate D2E/DX2                !
 ! R12   R(6,13)                 1.07           estimate D2E/DX2                !
 ! R13   R(7,10)                 1.07           estimate D2E/DX2                !
 ! R14   R(10,15)                1.4014         estimate D2E/DX2                !
 ! R15   R(11,14)                1.4014         estimate D2E/DX2                !
 ! R16   R(11,16)                1.07           estimate D2E/DX2                !
 ! R17   R(14,15)                1.4014         estimate D2E/DX2                !
 ! R18   R(14,17)                1.07           estimate D2E/DX2                !
 ! R19   R(15,18)                1.54           estimate D2E/DX2                !
 ! R20   R(18,19)                1.07           estimate D2E/DX2                !
 ! R21   R(18,20)                1.07           estimate D2E/DX2                !
 ! R22   R(18,21)                1.07           estimate D2E/DX2                !
 ! A1    A(2,1,6)              120.0            estimate D2E/DX2                !
 ! A2    A(2,1,8)              120.0            estimate D2E/DX2                !
 ! A3    A(6,1,8)              120.0            estimate D2E/DX2                !
 ! A4    A(1,2,3)              120.0            estimate D2E/DX2                !
 ! A5    A(1,2,9)              120.0            estimate D2E/DX2                !
 ! A6    A(3,2,9)              120.0            estimate D2E/DX2                !
 ! A7    A(2,3,4)              120.0            estimate D2E/DX2                !
 ! A8    A(2,3,10)             120.0            estimate D2E/DX2                !
 ! A9    A(4,3,10)             120.0            estimate D2E/DX2                !
 ! A10   A(3,4,5)              120.0            estimate D2E/DX2                !
 ! A11   A(3,4,11)             120.0            estimate D2E/DX2                !
 ! A12   A(5,4,11)             120.0            estimate D2E/DX2                !
 ! A13   A(4,5,6)              120.0            estimate D2E/DX2                !
 ! A14   A(4,5,12)             120.0            estimate D2E/DX2                !
 ! A15   A(6,5,12)             120.0            estimate D2E/DX2                !
 ! A16   A(1,6,5)              120.0            estimate D2E/DX2                !
 ! A17   A(1,6,13)             120.0            estimate D2E/DX2                !
 ! A18   A(5,6,13)             120.0            estimate D2E/DX2                !
 ! A19   A(3,10,7)             120.0            estimate D2E/DX2                !
 ! A20   A(3,10,15)            120.0            estimate D2E/DX2                !
 ! A21   A(7,10,15)            120.0            estimate D2E/DX2                !
 ! A22   A(4,11,14)            120.0            estimate D2E/DX2                !
 ! A23   A(4,11,16)            120.0            estimate D2E/DX2                !
 ! A24   A(14,11,16)           120.0            estimate D2E/DX2                !
 ! A25   A(11,14,15)           120.0            estimate D2E/DX2                !
 ! A26   A(11,14,17)           120.0            estimate D2E/DX2                !
 ! A27   A(15,14,17)           120.0            estimate D2E/DX2                !
 ! A28   A(10,15,14)           120.0            estimate D2E/DX2                !
 ! A29   A(10,15,18)           120.0            estimate D2E/DX2                !
 ! A30   A(14,15,18)           120.0            estimate D2E/DX2                !
 ! A31   A(15,18,19)           109.4712         estimate D2E/DX2                !
 ! A32   A(15,18,20)           109.4712         estimate D2E/DX2                !
 ! A33   A(15,18,21)           109.4712         estimate D2E/DX2                !
 ! A34   A(19,18,20)           109.4712         estimate D2E/DX2                !
 ! A35   A(19,18,21)           109.4712         estimate D2E/DX2                !
 ! A36   A(20,18,21)           109.4712         estimate D2E/DX2                !
 ! D1    D(6,1,2,3)              0.0            estimate D2E/DX2                !
 ! D2    D(6,1,2,9)           -179.9999         estimate D2E/DX2                !
 ! D3    D(8,1,2,3)            179.9998         estimate D2E/DX2                !
 ! D4    D(8,1,2,9)              0.0            estimate D2E/DX2                !
 ! D5    D(2,1,6,5)              0.0            estimate D2E/DX2                !
 ! D6    D(2,1,6,13)           180.0            estimate D2E/DX2                !
 ! D7    D(8,1,6,5)           -179.9998         estimate D2E/DX2                !
 ! D8    D(8,1,6,13)             0.0001         estimate D2E/DX2                !
 ! D9    D(1,2,3,4)              0.0            estimate D2E/DX2                !
 ! D10   D(1,2,3,10)          -179.9999         estimate D2E/DX2                !
 ! D11   D(9,2,3,4)            179.9999         estimate D2E/DX2                !
 ! D12   D(9,2,3,10)            -0.0001         estimate D2E/DX2                !
 ! D13   D(2,3,4,5)              0.0            estimate D2E/DX2                !
 ! D14   D(2,3,4,11)          -180.0            estimate D2E/DX2                !
 ! D15   D(10,3,4,5)           179.9999         estimate D2E/DX2                !
 ! D16   D(10,3,4,11)            0.0            estimate D2E/DX2                !
 ! D17   D(2,3,10,7)             0.0            estimate D2E/DX2                !
 ! D18   D(2,3,10,15)          180.0            estimate D2E/DX2                !
 ! D19   D(4,3,10,7)          -180.0            estimate D2E/DX2                !
 ! D20   D(4,3,10,15)            0.0            estimate D2E/DX2                !
 ! D21   D(3,4,5,6)              0.0            estimate D2E/DX2                !
 ! D22   D(3,4,5,12)           180.0            estimate D2E/DX2                !
 ! D23   D(11,4,5,6)           180.0            estimate D2E/DX2                !
 ! D24   D(11,4,5,12)           -0.0001         estimate D2E/DX2                !
 ! D25   D(3,4,11,14)            0.0            estimate D2E/DX2                !
 ! D26   D(3,4,11,16)          179.9999         estimate D2E/DX2                !
 ! D27   D(5,4,11,14)         -179.9999         estimate D2E/DX2                !
 ! D28   D(5,4,11,16)            0.0            estimate D2E/DX2                !
 ! D29   D(4,5,6,1)             -0.0001         estimate D2E/DX2                !
 ! D30   D(4,5,6,13)          -180.0            estimate D2E/DX2                !
 ! D31   D(12,5,6,1)           180.0            estimate D2E/DX2                !
 ! D32   D(12,5,6,13)            0.0001         estimate D2E/DX2                !
 ! D33   D(3,10,15,14)           0.0            estimate D2E/DX2                !
 ! D34   D(3,10,15,18)         180.0            estimate D2E/DX2                !
 ! D35   D(7,10,15,14)         180.0            estimate D2E/DX2                !
 ! D36   D(7,10,15,18)           0.0            estimate D2E/DX2                !
 ! D37   D(4,11,14,15)           0.0            estimate D2E/DX2                !
 ! D38   D(4,11,14,17)         180.0            estimate D2E/DX2                !
 ! D39   D(16,11,14,15)       -180.0            estimate D2E/DX2                !
 ! D40   D(16,11,14,17)          0.0001         estimate D2E/DX2                !
 ! D41   D(11,14,15,10)          0.0            estimate D2E/DX2                !
 ! D42   D(11,14,15,18)       -180.0            estimate D2E/DX2                !
 ! D43   D(17,14,15,10)        180.0            estimate D2E/DX2                !
 ! D44   D(17,14,15,18)          0.0            estimate D2E/DX2                !
 ! D45   D(10,15,18,19)        150.0            estimate D2E/DX2                !
 ! D46   D(10,15,18,20)        -90.0            estimate D2E/DX2                !
 ! D47   D(10,15,18,21)         30.0            estimate D2E/DX2                !
 ! D48   D(14,15,18,19)        -30.0            estimate D2E/DX2                !
 ! D49   D(14,15,18,20)         90.0            estimate D2E/DX2                !
 ! D50   D(14,15,18,21)       -150.0            estimate D2E/DX2                !
 --------------------------------------------------------------------------------
 Trust Radius=3.00D-01 FncErr=1.00D-07 GrdErr=1.00D-07 EigMax=2.50D+02 EigMin=1.00D-04
 Number of steps in this run=    118 maximum allowed number of steps=    126.
 GradGradGradGradGradGradGradGradGradGradGradGradGradGradGradGradGradGrad

                          Input orientation:                          
 ---------------------------------------------------------------------
 Center     Atomic      Atomic             Coordinates (Angstroms)
 Number     Number       Type             X           Y           Z
 ---------------------------------------------------------------------
      1          6           0       -4.912236   -0.064675    0.024316
      2          6           0       -3.510890   -0.053276    0.029057
      3          6           0       -2.820019    1.165859    0.010974
      4          6           0       -3.530493    2.373596   -0.011850
      5          6           0       -4.931838    2.362197   -0.016592
      6          6           0       -5.622710    1.143061    0.001491
      7          1           0       -0.876210    0.255125    0.033141
      8          1           0       -5.439731   -0.995512    0.038120
      9          1           0       -2.968427   -0.975410    0.046483
     10          6           0       -1.418673    1.177258    0.015715
     11          6           0       -2.839621    3.592731   -0.029934
     12          1           0       -5.474301    3.284330   -0.034019
     13          1           0       -6.692668    1.134358   -0.002130
     14          6           0       -1.438276    3.604131   -0.025194
     15          6           0       -0.727801    2.396394   -0.002369
     16          1           0       -3.382084    4.514865   -0.047362
     17          1           0       -0.910780    4.534968   -0.039001
     18          6           0        0.812139    2.408921    0.002840
     19          1           0        1.163511    3.276834   -0.515006
     20          1           0        1.165241    2.428796    1.012703
     21          1           0        1.177622    1.529836   -0.485558
 ---------------------------------------------------------------------
                    Distance matrix (angstroms):
                    1          2          3          4          5
     1  C    0.000000
     2  C    1.401400   0.000000
     3  C    2.427296   1.401400   0.000000
     4  C    2.802800   2.427296   1.401400   0.000000
     5  C    2.427296   2.802800   2.427296   1.401400   0.000000
     6  C    1.401400   2.427296   2.802800   2.427296   1.401400
     7  H    4.048685   2.652671   2.146700   3.396345   4.570596
     8  H    1.070000   2.146700   3.396345   3.872800   3.396345
     9  H    2.146700   1.070000   2.146700   3.396345   3.872800
    10  C    3.707756   2.427296   1.401400   2.427296   3.707756
    11  C    4.204200   3.707756   2.427296   1.401400   2.427296
    12  H    3.396345   3.872800   3.396345   2.146700   1.070000
    13  H    2.146700   3.396345   3.872800   3.396345   2.146700
    14  C    5.052820   4.204200   2.802800   2.427296   3.707756
    15  C    4.854592   3.707756   2.427296   2.802800   4.204200
    16  H    4.828943   4.570596   3.396345   2.146700   2.652671
    17  H    6.096915   5.274200   3.872800   3.396345   4.570596
    18  C    6.235992   4.975106   3.838989   4.342800   5.744200
    19  H    6.954944   5.765038   4.538874   4.806524   6.183709
    20  H    6.643044   5.384649   4.298926   4.806524   6.183710
    21  H    6.315759   4.975261   4.044769   4.806524   6.183709
                    6          7          8          9         10
     6  C    0.000000
     7  H    4.828943   0.000000
     8  H    2.146700   4.731791   0.000000
     9  H    3.396345   2.427296   2.471400   0.000000
    10  C    4.204200   1.070000   4.570596   2.652671   0.000000
    11  C    3.707756   3.872800   5.274200   4.570596   2.802800
    12  H    2.146700   5.506636   4.280590   4.942800   4.570596
    13  H    1.070000   5.882642   2.471400   4.280590   5.274200
    14  C    4.854592   3.396345   6.096915   4.828943   2.427296
    15  C    5.052820   2.146700   5.805941   4.048685   1.401400
    16  H    4.048685   4.942800   5.882642   5.506636   3.872800
    17  H    5.805941   4.280590   7.148675   5.882642   3.396345
    18  C    6.558176   2.736837   7.118798   5.074276   2.548270
    19  H    7.132499   3.686686   7.884269   5.955649   3.370097
    20  H    6.982259   3.138775   7.503423   5.441453   3.039234
    21  H    6.828713   2.472279   7.102182   4.873300   2.667646
                   11         12         13         14         15
    11  C    0.000000
    12  H    2.652671   0.000000
    13  H    4.570596   2.471400   0.000000
    14  C    1.401400   4.048685   5.805941   0.000000
    15  C    2.427296   4.828943   6.096915   1.401400   0.000000
    16  H    1.070000   2.427296   4.731791   2.146700   3.396345
    17  H    2.146700   4.731791   6.707886   1.070000   2.146700
    18  C    3.838989   6.347206   7.612271   2.548270   1.540000
    19  H    4.044769   6.655220   8.159216   2.667646   2.148263
    20  H    4.298926   6.775772   8.028213   3.039234   2.148263
    21  H    4.538874   6.894217   7.895035   3.370097   2.148263
                   16         17         18         19         20
    16  H    0.000000
    17  H    2.471400   0.000000
    18  C    4.693509   2.736837   0.000000
    19  H    4.734327   2.472279   1.070000   0.000000
    20  H    5.114058   3.138775   1.070000   1.747303   0.000000
    21  H    5.467480   3.686686   1.070000   1.747303   1.747303
                   21
    21  H    0.000000
 Stoichiometry    C11H10
 Framework group  C1[X(C11H10)]
 Deg. of freedom    57
 Full point group                 C1      NOp   1
 Largest Abelian subgroup         C1      NOp   1
 Largest concise Abelian subgroup C1      NOp   1
                         Standard orientation:                         
 ---------------------------------------------------------------------
 Center     Atomic      Atomic             Coordinates (Angstroms)
 Number     Number       Type             X           Y           Z
 ---------------------------------------------------------------------
      1          6           0       -2.694391   -1.047414   -0.000000
      2          6           0       -1.372863   -1.513767    0.000001
      3          6           0       -0.308225   -0.602467    0.000001
      4          6           0       -0.565115    0.775186    0.000001
      5          6           0       -1.886643    1.241540   -0.000000
      6          6           0       -2.951281    0.330240   -0.000000
      7          1           0        1.209444   -2.120690    0.000000
      8          1           0       -3.507266   -1.743212   -0.000003
      9          1           0       -1.176722   -2.565636   -0.000001
     10          6           0        1.013303   -1.068821    0.000000
     11          6           0        0.499523    1.686486    0.000000
     12          1           0       -2.082785    2.293409   -0.000000
     13          1           0       -3.960297    0.686311   -0.000002
     14          6           0        1.821051    1.220133   -0.000000
     15          6           0        2.077941   -0.157521   -0.000000
     16          1           0        0.303381    2.738356   -0.000001
     17          1           0        2.633925    1.915931   -0.000001
     18          6           0        3.530169   -0.669997   -0.000001
     19          1           0        4.157239    0.035171   -0.504404
     20          1           0        3.866508   -0.788687    1.008805
     21          1           0        3.575777   -1.612546   -0.504403
 ---------------------------------------------------------------------
 Rotational constants (GHZ):           2.8165711           0.8316160           0.6445661
 Standard basis: 3-21+G (6D, 7F)
 There are   163 symmetry adapted cartesian basis functions of A   symmetry.
 There are   163 symmetry adapted basis functions of A   symmetry.
   163 basis functions,   239 primitive gaussians,   163 cartesian basis functions
    38 alpha electrons       38 beta electrons
       nuclear repulsion energy       543.2671276915 Hartrees.
 NAtoms=   21 NActive=   21 NUniq=   21 SFac= 1.00D+00 NAtFMM=   60 NAOKFM=F Big=F
 Integral buffers will be    131072 words long.
 Raffenetti 1 integral format.
 Two-electron integral symmetry is turned on.
 One-electron integrals computed using PRISM.
 NBasis=   163 RedAO= T EigKep=  1.10D-06  NBF=   163
 NBsUse=   162 1.00D-06 EigRej=  6.62D-07 NBFU=   162
 ExpMin= 4.38D-02 ExpMax= 1.72D+02 ExpMxC= 1.72D+02 IAcc=3 IRadAn=         5 AccDes= 0.00D+00
 Harris functional with IExCor=  205 and IRadAn=       5 diagonalized for initial guess.
 HarFok:  IExCor=  205 AccDes= 0.00D+00 IRadAn=         5 IDoV= 1 UseB2=F ITyADJ=14
 ICtDFT=  3500011 ScaDFX=  1.000000  1.000000  1.000000  1.000000
 FoFCou: FMM=F IPFlag=           0 FMFlag=      100000 FMFlg1=           0
         NFxFlg=           0 DoJE=T BraDBF=F KetDBF=T FulRan=T
         wScrn=  0.000000 ICntrl=       500 IOpCl=  0 I1Cent=   200000004 NGrid=           0
         NMat0=    1 NMatS0=      1 NMatT0=    0 NMatD0=    1 NMtDS0=    0 NMtDT0=    0
 Petite list used in FoFCou.
 Keep R1 ints in memory in canonical form, NReq=91538312.
 Requested convergence on RMS density matrix=1.00D-08 within 128 cycles.
 Requested convergence on MAX density matrix=1.00D-06.
 Requested convergence on             energy=1.00D-06.
 No special actions if energy rises.
 SCF Done:  E(RHF) =  -420.066175307     A.U. after   25 cycles
            NFock= 25  Conv=0.81D-08     -V/T= 2.0020

 **********************************************************************

            Population analysis using the SCF Density.

 **********************************************************************

 Orbital symmetries:
       Occupied  (A) (A) (A) (A) (A) (A) (A) (A) (A) (A) (A) (A)
                 (A) (A) (A) (A) (A) (A) (A) (A) (A) (A) (A) (A)
                 (A) (A) (A) (A) (A) (A) (A) (A) (A) (A) (A) (A)
                 (A) (A)
       Virtual   (A) (A) (A) (A) (A) (A) (A) (A) (A) (A) (A) (A)
                 (A) (A) (A) (A) (A) (A) (A) (A) (A) (A) (A) (A)
                 (A) (A) (A) (A) (A) (A) (A) (A) (A) (A) (A) (A)
                 (A) (A) (A) (A) (A) (A) (A) (A) (A) (A) (A) (A)
                 (A) (A) (A) (A) (A) (A) (A) (A) (A) (A) (A) (A)
                 (A) (A) (A) (A) (A) (A) (A) (A) (A) (A) (A) (A)
                 (A) (A) (A) (A) (A) (A) (A) (A) (A) (A) (A) (A)
                 (A) (A) (A) (A) (A) (A) (A) (A) (A) (A) (A) (A)
                 (A) (A) (A) (A) (A) (A) (A) (A) (A) (A) (A) (A)
                 (A) (A) (A) (A) (A) (A) (A) (A) (A) (A) (A) (A)
                 (A) (A) (A) (A)
 The electronic state is 1-A.
 Alpha  occ. eigenvalues --  -11.20003 -11.19344 -11.19170 -11.19164 -11.19024
 Alpha  occ. eigenvalues --  -11.18917 -11.18815 -11.18734 -11.18675 -11.18344
 Alpha  occ. eigenvalues --  -11.16685  -1.19234  -1.12293  -1.06399  -1.03814
 Alpha  occ. eigenvalues --   -0.99070  -0.94432  -0.86272  -0.83076  -0.82454
 Alpha  occ. eigenvalues --   -0.71442  -0.70537  -0.67576  -0.63656  -0.62556
 Alpha  occ. eigenvalues --   -0.59846  -0.59157  -0.58847  -0.56040  -0.54643
 Alpha  occ. eigenvalues --   -0.53873  -0.52466  -0.48952  -0.47907  -0.44271
 Alpha  occ. eigenvalues --   -0.39109  -0.32568  -0.28158
 Alpha virt. eigenvalues --    0.07221   0.07311   0.07392   0.07852   0.08956
 Alpha virt. eigenvalues --    0.09599   0.10136   0.10884   0.11025   0.11538
 Alpha virt. eigenvalues --    0.12397   0.14134   0.14327   0.14660   0.15369
 Alpha virt. eigenvalues --    0.15803   0.17529   0.18121   0.18968   0.19355
 Alpha virt. eigenvalues --    0.19793   0.21063   0.22100   0.22785   0.23834
 Alpha virt. eigenvalues --    0.23985   0.24285   0.24742   0.25144   0.25465
 Alpha virt. eigenvalues --    0.26423   0.26895   0.28717   0.29106   0.29679
 Alpha virt. eigenvalues --    0.30680   0.31180   0.31365   0.32032   0.32689
 Alpha virt. eigenvalues --    0.33599   0.35014   0.35561   0.36904   0.37444
 Alpha virt. eigenvalues --    0.38354   0.38981   0.40809   0.41048   0.42256
 Alpha virt. eigenvalues --    0.42502   0.43841   0.44265   0.45769   0.47481
 Alpha virt. eigenvalues --    0.48389   0.49535   0.50804   0.51592   0.51998
 Alpha virt. eigenvalues --    0.54285   0.56034   0.57788   0.60492   0.65009
 Alpha virt. eigenvalues --    0.66899   0.77017   0.79395   0.87243   0.93107
 Alpha virt. eigenvalues --    1.05397   1.06950   1.07370   1.08837   1.09419
 Alpha virt. eigenvalues --    1.11378   1.11694   1.13351   1.14680   1.15373
 Alpha virt. eigenvalues --    1.15904   1.16876   1.17099   1.17990   1.18452
 Alpha virt. eigenvalues --    1.19614   1.20777   1.22597   1.24889   1.26370
 Alpha virt. eigenvalues --    1.27095   1.29818   1.32268   1.35222   1.37293
 Alpha virt. eigenvalues --    1.42238   1.42841   1.46366   1.48403   1.49294
 Alpha virt. eigenvalues --    1.51076   1.54227   1.55111   1.59082   1.62047
 Alpha virt. eigenvalues --    1.65761   1.67767   1.73194   1.79273   1.80305
 Alpha virt. eigenvalues --    1.87196   1.90785   1.92950   1.98419   2.00997
 Alpha virt. eigenvalues --    2.08127   2.12783   2.18345   2.29278   2.31530
 Alpha virt. eigenvalues --    2.32875   2.35264   2.76329   2.82450
          Condensed to atoms (all electrons):
               1          2          3          4          5          6
     1  C   20.716574  -5.586177  -4.532415   3.335742   4.859573  -5.707989
     2  C   -5.586177 107.717026 -52.897465 -49.954721 -22.008395   5.852106
     3  C   -4.532415 -52.897465 187.486546 -55.980864 -18.513116  -0.801066
     4  C    3.335742 -49.954721 -55.980864 179.571532 -13.136811  -4.255864
     5  C    4.859573 -22.008395 -18.513116 -13.136811  61.573915  -3.327244
     6  C   -5.707989   5.852106  -0.801066  -4.255864  -3.327244  17.881310
     7  H    0.018860   0.014301   0.057889  -0.081755   0.022261  -0.001901
     8  H    0.190522   0.011107   0.040281  -0.015110  -0.065282   0.149753
     9  H    0.042416   0.500721  -0.215551  -0.136990  -0.005665  -0.025533
    10  C   -7.703534  42.501853 -13.309253 -43.923238 -16.929607   4.969981
    11  C    3.703674   4.034932 -46.508010 -16.838616  11.377707  -6.699297
    12  H   -0.036515   0.035998  -0.168965  -0.196531   0.325717   0.122753
    13  H    0.139417  -0.054877  -0.042214   0.064590  -0.012102   0.217408
    14  C    0.954374  11.011973  16.266949 -14.131588  -6.503077  -2.240996
    15  C   -3.198309 -33.410869  -0.409596  20.233276   9.473676   0.748846
    16  H    0.004902  -0.007000  -0.071179   0.158610   0.071282   0.001054
    17  H   -0.000557  -0.001884  -0.117239  -0.044859   0.047088   0.001567
    18  C   -0.048557  -2.063851  -3.202210   1.432533  -2.038470   0.042830
    19  H    0.000441  -0.009419  -0.026552   0.049367   0.000247  -0.000073
    20  H    0.000307  -0.016785  -0.013593   0.025886   0.004604  -0.000551
    21  H    0.000490   0.015094   0.053180  -0.019177  -0.000714   0.000057
               7          8          9         10         11         12
     1  C    0.018860   0.190522   0.042416  -7.703534   3.703674  -0.036515
     2  C    0.014301   0.011107   0.500721  42.501853   4.034932   0.035998
     3  C    0.057889   0.040281  -0.215551 -13.309253 -46.508010  -0.168965
     4  C   -0.081755  -0.015110  -0.136990 -43.923238 -16.838616  -0.196531
     5  C    0.022261  -0.065282  -0.005665 -16.929607  11.377707   0.325717
     6  C   -0.001901   0.149753  -0.025533   4.969981  -6.699297   0.122753
     7  H    0.380745  -0.000001   0.000767   0.156549  -0.064090   0.000000
     8  H   -0.000001   0.384494  -0.000669   0.025529   0.001320  -0.000021
     9  H    0.000767  -0.000669   0.379133   0.151152   0.023078   0.000001
    10  C    0.156549   0.025529   0.151152  59.752485   5.827752   0.028076
    11  C   -0.064090   0.001320   0.023078   5.827752  61.222019   0.227183
    12  H    0.000000  -0.000021   0.000001   0.028076   0.227183   0.379599
    13  H   -0.000000  -0.000875  -0.000022  -0.005733   0.033188  -0.000628
    14  C    0.049721  -0.002423   0.003068  -7.747077 -14.738188   0.004925
    15  C    0.186543   0.002769   0.002980 -21.671929   1.684226  -0.004973
    16  H    0.000002  -0.000000   0.000000  -0.069341   0.131550   0.000561
    17  H   -0.000028   0.000000  -0.000000   0.065500   0.205122  -0.000001
    18  C   -0.018491   0.000386  -0.003347   3.259367   1.544060  -0.000705
    19  H    0.000034   0.000000   0.000000  -0.223002  -0.005036  -0.000000
    20  H    0.000013   0.000000  -0.000000  -0.076886  -0.005921  -0.000000
    21  H   -0.000342   0.000000   0.000001   0.405911   0.032179   0.000000
              13         14         15         16         17         18
     1  C    0.139417   0.954374  -3.198309   0.004902  -0.000557  -0.048557
     2  C   -0.054877  11.011973 -33.410869  -0.007000  -0.001884  -2.063851
     3  C   -0.042214  16.266949  -0.409596  -0.071179  -0.117239  -3.202210
     4  C    0.064590 -14.131588  20.233276   0.158610  -0.044859   1.432533
     5  C   -0.012102  -6.503077   9.473676   0.071282   0.047088  -2.038470
     6  C    0.217408  -2.240996   0.748846   0.001054   0.001567   0.042830
     7  H   -0.000000   0.049721   0.186543   0.000002  -0.000028  -0.018491
     8  H   -0.000875  -0.002423   0.002769  -0.000000   0.000000   0.000386
     9  H   -0.000022   0.003068   0.002980   0.000000  -0.000000  -0.003347
    10  C   -0.005733  -7.747077 -21.671929  -0.069341   0.065500   3.259367
    11  C    0.033188 -14.738188   1.684226   0.131550   0.205122   1.544060
    12  H   -0.000628   0.004925  -0.004973   0.000561  -0.000001  -0.000705
    13  H    0.384116  -0.004471   0.004439  -0.000001  -0.000000   0.000147
    14  C   -0.004471  50.158376 -19.038043   0.156428  -0.064699  -5.660644
    15  C    0.004439 -19.038043  63.049926  -0.045740   0.264193 -12.765896
    16  H   -0.000001   0.156428  -0.045740   0.381547  -0.000710   0.005683
    17  H   -0.000000  -0.064699   0.264193  -0.000710   0.384221  -0.020323
    18  C    0.000147  -5.660644 -12.765896   0.005683  -0.020323  25.027388
    19  H    0.000000   0.364717  -0.304988   0.000002  -0.000357   0.481352
    20  H    0.000000  -0.125420   0.199409   0.000001   0.000100   0.335934
    21  H    0.000000  -0.288494  -0.264565   0.000000   0.000042   0.394699
              19         20         21
     1  C    0.000441   0.000307   0.000490
     2  C   -0.009419  -0.016785   0.015094
     3  C   -0.026552  -0.013593   0.053180
     4  C    0.049367   0.025886  -0.019177
     5  C    0.000247   0.004604  -0.000714
     6  C   -0.000073  -0.000551   0.000057
     7  H    0.000034   0.000013  -0.000342
     8  H    0.000000   0.000000   0.000000
     9  H    0.000000  -0.000000   0.000001
    10  C   -0.223002  -0.076886   0.405911
    11  C   -0.005036  -0.005921   0.032179
    12  H   -0.000000  -0.000000   0.000000
    13  H    0.000000   0.000000   0.000000
    14  C    0.364717  -0.125420  -0.288494
    15  C   -0.304988   0.199409  -0.264565
    16  H    0.000002   0.000001   0.000000
    17  H   -0.000357   0.000100   0.000042
    18  C    0.481352   0.335934   0.394699
    19  H    0.465522  -0.025340  -0.024807
    20  H   -0.025340   0.442635  -0.024405
    21  H   -0.024807  -0.024405   0.460005
 Mulliken charges:
               1
     1  C   -1.153240
     2  C    0.316334
     3  C   -1.095558
     4  C   -0.155412
     5  C    0.784413
     6  C   -0.927152
     7  H    0.278921
     8  H    0.278221
     9  H    0.284462
    10  C    0.515444
    11  C    0.811170
    12  H    0.283525
    13  H    0.277618
    14  C   -2.425409
    15  C    1.264626
    16  H    0.282349
    17  H    0.282822
    18  C   -0.701885
    19  H    0.257892
    20  H    0.280012
    21  H    0.260847
 Sum of Mulliken charges =  -0.00000
 Mulliken charges with hydrogens summed into heavy atoms:
               1
     1  C   -0.875019
     2  C    0.600796
     3  C   -1.095558
     4  C   -0.155412
     5  C    1.067938
     6  C   -0.649534
    10  C    0.794366
    11  C    1.093520
    14  C   -2.142587
    15  C    1.264626
    18  C    0.096865
 Electronic spatial extent (au):  <R**2>=           1764.1055
 Charge=             -0.0000 electrons
 Dipole moment (field-independent basis, Debye):
    X=              0.5157    Y=             -0.0293    Z=              0.0323  Tot=              0.5175
 Quadrupole moment (field-independent basis, Debye-Ang):
   XX=            -58.6741   YY=            -59.1059   ZZ=            -74.8080
   XY=             -0.3130   XZ=              0.0849   YZ=             -0.0100
 Traceless Quadrupole moment (field-independent basis, Debye-Ang):
   XX=              5.5219   YY=              5.0902   ZZ=            -10.6120
   XY=             -0.3130   XZ=              0.0849   YZ=             -0.0100
 Octapole moment (field-independent basis, Debye-Ang**2):
  XXX=             -2.0367  YYY=              1.1608  ZZZ=              0.6802  XYY=             -1.6373
  XXY=              0.1734  XXZ=              0.1463  XZZ=              7.0126  YZZ=             -1.3454
  YYZ=             -0.5504  XYZ=             -0.2159
 Hexadecapole moment (field-independent basis, Debye-Ang**3):
 XXXX=          -1701.6882 YYYY=           -538.9548 ZZZZ=            -98.2601 XXXY=             11.7842
 XXXZ=             -0.2114 YYYX=             -1.1571 YYYZ=              1.4309 ZZZX=              2.5982
 ZZZY=             -0.5265 XXYY=           -376.9802 XXZZ=           -352.6129 YYZZ=           -131.9345
 XXYZ=             -1.5516 YYXZ=             -1.8987 ZZXY=             -5.3519
 N-N= 5.432671276915D+02 E-N=-2.062570858967D+03  KE= 4.192147034753D+02
 Calling FoFJK, ICntrl=      2127 FMM=F ISym2X=0 I1Cent= 0 IOpClX= 0 NMat=1 NMatS=1 NMatT=0.
 ***** Axes restored to original set *****
 -------------------------------------------------------------------
 Center     Atomic                   Forces (Hartrees/Bohr)
 Number     Number              X              Y              Z
 -------------------------------------------------------------------
      1        6           0.036633383   -0.002718835    0.000214200
      2        6          -0.047862558   -0.005500475   -0.000186333
      3        6           0.007027412   -0.011263397    0.000565371
      4        6          -0.007763553    0.011215962   -0.000029876
      5        6          -0.027666104   -0.038858591    0.000421997
      6        6           0.014636816    0.033199770   -0.000518791
      7        1           0.001077148   -0.002374134   -0.000343447
      8        1          -0.000792540   -0.002002714    0.000044081
      9        1           0.001618193   -0.001648477    0.000039880
     10        6           0.023027218    0.042322131   -0.000448091
     11        6           0.047710565    0.005180373    0.000487370
     12        1          -0.000748955    0.002251241   -0.000045259
     13        1          -0.002102567    0.000309193    0.000000180
     14        6          -0.041334371    0.000532129    0.000295413
     15        6           0.005273006   -0.035377023   -0.000765165
     16        1          -0.001714053    0.001812463   -0.000142871
     17        1           0.001193188    0.002161247   -0.000242523
     18        6          -0.026980846   -0.000087058   -0.001342889
     19        1           0.006273809    0.006940445   -0.004047659
     20        1           0.006369796    0.000636917    0.009482477
     21        1           0.006125015   -0.006731163   -0.003438065
 -------------------------------------------------------------------
 Cartesian Forces:  Max     0.047862558 RMS     0.016103826

 GradGradGradGradGradGradGradGradGradGradGradGradGradGradGradGradGradGrad
 Berny optimization.
 FormGI is forming the generalized inverse of G from B-inverse, IUseBI=4.
 Internal  Forces:  Max     0.032148190 RMS     0.007467887
 Search for a local minimum.
 Step number   1 out of a maximum of  118
 All quantities printed in internal units (Hartrees-Bohrs-Radians)
 Mixed Optimization -- RFO/linear search
 Second derivative matrix not updated -- first step.
 ITU=  0
     Eigenvalues ---    0.00237   0.01341   0.02070   0.02070   0.02070
     Eigenvalues ---    0.02070   0.02070   0.02070   0.02070   0.02070
     Eigenvalues ---    0.02070   0.02070   0.02070   0.02070   0.02070
     Eigenvalues ---    0.02070   0.07243   0.07243   0.16000   0.16000
     Eigenvalues ---    0.16000   0.16000   0.16000   0.16000   0.16000
     Eigenvalues ---    0.16000   0.16000   0.16000   0.22000   0.22301
     Eigenvalues ---    0.22718   0.23522   0.24381   0.24757   0.25000
     Eigenvalues ---    0.28519   0.37230   0.37230   0.37230   0.37230
     Eigenvalues ---    0.37230   0.37230   0.37230   0.37230   0.37230
     Eigenvalues ---    0.37230   0.39186   0.41052   0.41682   0.43123
     Eigenvalues ---    0.45389   0.45389   0.45389   0.45389   0.45389
     Eigenvalues ---    0.45389   0.45389
 RFO step:  Lambda=-1.44249926D-02 EMin= 2.36824237D-03
 Linear search not attempted -- first point.
 Iteration  1 RMS(Cart)=  0.02015927 RMS(Int)=  0.00023578
 Iteration  2 RMS(Cart)=  0.00024646 RMS(Int)=  0.00005785
 Iteration  3 RMS(Cart)=  0.00000007 RMS(Int)=  0.00005785
 Variable       Old X    -DE/DX   Delta X   Delta X   Delta X     New X
                                 (Linear)    (Quad)   (Total)
    R1        2.64826  -0.03194   0.00000  -0.06995  -0.06997   2.57829
    R2        2.64826   0.00705   0.00000   0.01155   0.01150   2.65976
    R3        2.02201   0.00213   0.00000   0.00552   0.00552   2.02752
    R4        2.64826   0.01227   0.00000   0.02795   0.02798   2.67625
    R5        2.02201   0.00224   0.00000   0.00580   0.00580   2.02780
    R6        2.64826   0.00856   0.00000   0.02525   0.02538   2.67365
    R7        2.64826   0.01291   0.00000   0.02940   0.02946   2.67773
    R8        2.64826   0.01204   0.00000   0.02747   0.02748   2.67575
    R9        2.64826   0.01086   0.00000   0.02481   0.02483   2.67309
   R10        2.64826  -0.03215   0.00000  -0.07040  -0.07043   2.57783
   R11        2.02201   0.00232   0.00000   0.00600   0.00600   2.02801
   R12        2.02201   0.00210   0.00000   0.00543   0.00543   2.02744
   R13        2.02201   0.00259   0.00000   0.00669   0.00669   2.02870
   R14        2.64826  -0.03111   0.00000  -0.06806  -0.06808   2.58018
   R15        2.64826  -0.03182   0.00000  -0.06979  -0.06985   2.57841
   R16        2.02201   0.00243   0.00000   0.00629   0.00629   2.02830
   R17        2.64826   0.00875   0.00000   0.01521   0.01513   2.66339
   R18        2.02201   0.00247   0.00000   0.00639   0.00639   2.02840
   R19        2.91018  -0.00820   0.00000  -0.02738  -0.02738   2.88280
   R20        2.02201   0.00965   0.00000   0.02495   0.02495   2.04696
   R21        2.02201   0.01106   0.00000   0.02861   0.02861   2.05061
   R22        2.02201   0.00919   0.00000   0.02377   0.02377   2.04577
    A1        2.09440   0.00393   0.00000   0.00715   0.00710   2.10150
    A2        2.09440  -0.00227   0.00000  -0.00530  -0.00528   2.08912
    A3        2.09440  -0.00167   0.00000  -0.00185  -0.00183   2.09257
    A4        2.09440   0.00292   0.00000   0.01357   0.01360   2.10800
    A5        2.09440  -0.00090   0.00000  -0.00355  -0.00356   2.09083
    A6        2.09440  -0.00203   0.00000  -0.01002  -0.01004   2.08435
    A7        2.09440  -0.00716   0.00000  -0.02172  -0.02169   2.07271
    A8        2.09440   0.01306   0.00000   0.03902   0.03889   2.13328
    A9        2.09440  -0.00589   0.00000  -0.01731  -0.01720   2.07720
   A10        2.09440  -0.00557   0.00000  -0.01550  -0.01546   2.07894
   A11        2.09440  -0.00797   0.00000  -0.02556  -0.02549   2.06891
   A12        2.09440   0.01354   0.00000   0.04105   0.04095   2.13534
   A13        2.09440   0.00261   0.00000   0.01220   0.01221   2.10661
   A14        2.09440  -0.00180   0.00000  -0.00898  -0.00898   2.08541
   A15        2.09440  -0.00080   0.00000  -0.00322  -0.00323   2.09117
   A16        2.09440   0.00326   0.00000   0.00429   0.00423   2.09862
   A17        2.09440  -0.00130   0.00000  -0.00025  -0.00022   2.09417
   A18        2.09440  -0.00196   0.00000  -0.00404  -0.00401   2.09039
   A19        2.09440  -0.00312   0.00000  -0.01430  -0.01433   2.08007
   A20        2.09440   0.00569   0.00000   0.02543   0.02549   2.11988
   A21        2.09440  -0.00257   0.00000  -0.01113  -0.01116   2.08323
   A22        2.09440   0.00323   0.00000   0.01405   0.01403   2.10842
   A23        2.09440  -0.00218   0.00000  -0.01026  -0.01025   2.08415
   A24        2.09440  -0.00105   0.00000  -0.00379  -0.00378   2.09061
   A25        2.09440   0.00688   0.00000   0.01926   0.01914   2.11354
   A26        2.09440  -0.00347   0.00000  -0.00980  -0.00974   2.08465
   A27        2.09440  -0.00341   0.00000  -0.00946  -0.00940   2.08500
   A28        2.09440  -0.00193   0.00000  -0.01587  -0.01597   2.07842
   A29        2.09440   0.00216   0.00000   0.01245   0.01246   2.10685
   A30        2.09440  -0.00023   0.00000   0.00342   0.00343   2.09782
   A31        1.91063   0.00343   0.00000   0.01970   0.01952   1.93015
   A32        1.91063   0.00268   0.00000   0.01479   0.01464   1.92528
   A33        1.91063   0.00334   0.00000   0.01970   0.01951   1.93014
   A34        1.91063  -0.00329   0.00000  -0.01995  -0.02007   1.89056
   A35        1.91063  -0.00314   0.00000  -0.01689  -0.01711   1.89352
   A36        1.91063  -0.00302   0.00000  -0.01735  -0.01749   1.89314
    D1       -0.00000   0.00004   0.00000   0.00118   0.00119   0.00119
    D2       -3.14159   0.00002   0.00000   0.00056   0.00057  -3.14103
    D3        3.14159   0.00003   0.00000   0.00069   0.00070  -3.14090
    D4       -0.00000   0.00000   0.00000   0.00007   0.00007   0.00007
    D5        0.00000  -0.00001   0.00000  -0.00043  -0.00043  -0.00043
    D6        3.14159  -0.00002   0.00000  -0.00044  -0.00045   3.14114
    D7       -3.14159   0.00000   0.00000   0.00006   0.00007  -3.14152
    D8        0.00000   0.00000   0.00000   0.00005   0.00004   0.00005
    D9        0.00000  -0.00003   0.00000  -0.00068  -0.00068  -0.00068
   D10       -3.14159   0.00001   0.00000   0.00039   0.00039  -3.14120
   D11        3.14159  -0.00000   0.00000  -0.00006  -0.00006   3.14153
   D12       -0.00000   0.00004   0.00000   0.00101   0.00101   0.00101
   D13       -0.00000  -0.00002   0.00000  -0.00058  -0.00057  -0.00057
   D14       -3.14159   0.00005   0.00000   0.00110   0.00107  -3.14052
   D15        3.14159  -0.00006   0.00000  -0.00164  -0.00160   3.13999
   D16       -0.00000   0.00001   0.00000   0.00003   0.00004   0.00004
   D17       -0.00000   0.00001   0.00000   0.00010   0.00010   0.00010
   D18        3.14159  -0.00000   0.00000  -0.00052  -0.00050   3.14109
   D19       -3.14159   0.00005   0.00000   0.00117   0.00117  -3.14042
   D20        0.00000   0.00004   0.00000   0.00055   0.00057   0.00057
   D21        0.00000   0.00005   0.00000   0.00133   0.00133   0.00133
   D22        3.14159   0.00003   0.00000   0.00073   0.00073  -3.14086
   D23        3.14159  -0.00002   0.00000  -0.00034  -0.00038   3.14122
   D24       -0.00000  -0.00004   0.00000  -0.00094  -0.00097  -0.00097
   D25        0.00000  -0.00001   0.00000   0.00006   0.00006   0.00006
   D26        3.14159  -0.00007   0.00000  -0.00169  -0.00170   3.13989
   D27       -3.14159   0.00006   0.00000   0.00173   0.00175  -3.13984
   D28        0.00000  -0.00001   0.00000  -0.00001  -0.00001  -0.00001
   D29       -0.00000  -0.00003   0.00000  -0.00083  -0.00084  -0.00085
   D30       -3.14159  -0.00003   0.00000  -0.00082  -0.00082   3.14077
   D31        3.14159  -0.00001   0.00000  -0.00023  -0.00025   3.14134
   D32        0.00000  -0.00001   0.00000  -0.00022  -0.00022  -0.00022
   D33       -0.00000  -0.00009   0.00000  -0.00121  -0.00124  -0.00124
   D34        3.14159  -0.00049   0.00000  -0.01559  -0.01558   3.12601
   D35        3.14159  -0.00011   0.00000  -0.00183  -0.00184   3.13975
   D36       -0.00000  -0.00051   0.00000  -0.01620  -0.01618  -0.01618
   D37       -0.00000  -0.00005   0.00000  -0.00072  -0.00074  -0.00074
   D38        3.14159   0.00001   0.00000   0.00082   0.00080  -3.14079
   D39       -3.14159   0.00002   0.00000   0.00103   0.00102  -3.14057
   D40        0.00000   0.00008   0.00000   0.00257   0.00256   0.00257
   D41        0.00000   0.00009   0.00000   0.00130   0.00134   0.00134
   D42       -3.14159   0.00049   0.00000   0.01567   0.01560  -3.12600
   D43        3.14159   0.00003   0.00000  -0.00025  -0.00021   3.14139
   D44       -0.00000   0.00043   0.00000   0.01413   0.01405   0.01405
   D45        2.61799   0.00019   0.00000  -0.00261  -0.00252   2.61548
   D46       -1.57080  -0.00009   0.00000  -0.00593  -0.00588  -1.57667
   D47        0.52360  -0.00011   0.00000  -0.00605  -0.00602   0.51758
   D48       -0.52360  -0.00021   0.00000  -0.01699  -0.01701  -0.54061
   D49        1.57080  -0.00049   0.00000  -0.02030  -0.02037   1.55043
   D50       -2.61799  -0.00051   0.00000  -0.02043  -0.02051  -2.63851
         Item               Value     Threshold  Converged?
 Maximum Force            0.032148     0.000450     NO 
 RMS     Force            0.007468     0.000300     NO 
 Maximum Displacement     0.067807     0.001800     NO 
 RMS     Displacement     0.020111     0.001200     NO 
 Predicted change in Energy=-7.486152D-03
 GradGradGradGradGradGradGradGradGradGradGradGradGradGradGradGradGradGrad

                          Input orientation:                          
 ---------------------------------------------------------------------
 Center     Atomic      Atomic             Coordinates (Angstroms)
 Number     Number       Type             X           Y           Z
 ---------------------------------------------------------------------
      1          6           0       -4.904467   -0.060766    0.025537
      2          6           0       -3.540099   -0.056999    0.025340
      3          6           0       -2.818740    1.161589    0.007182
      4          6           0       -3.539406    2.378978   -0.011655
      5          6           0       -4.954860    2.341714   -0.012474
      6          6           0       -5.620203    1.150993    0.006180
      7          1           0       -0.852835    0.279142    0.019147
      8          1           0       -5.433437   -0.994112    0.040090
      9          1           0       -3.004309   -0.986621    0.039663
     10          6           0       -1.402306    1.201311    0.005980
     11          6           0       -2.814281    3.593364   -0.031081
     12          1           0       -5.507470    3.261554   -0.027401
     13          1           0       -6.693021    1.140164    0.006040
     14          6           0       -1.449844    3.592518   -0.031736
     15          6           0       -0.722645    2.385360   -0.012235
     16          1           0       -3.346857    4.525105   -0.047101
     17          1           0       -0.921663    4.526848   -0.045922
     18          6           0        0.802565    2.408637    0.007200
     19          1           0        1.176965    3.279342   -0.517229
     20          1           0        1.165737    2.443656    1.029162
     21          1           0        1.202930    1.522610   -0.468866
 ---------------------------------------------------------------------
                    Distance matrix (angstroms):
                    1          2          3          4          5
     1  C    0.000000
     2  C    1.364374   0.000000
     3  C    2.417591   1.416208   0.000000
     4  C    2.795912   2.436258   1.414832   0.000000
     5  C    2.403310   2.785104   2.440510   1.415944   0.000000
     6  C    1.407485   2.405503   2.801483   2.416191   1.364128
     7  H    4.065870   2.708213   2.154910   3.409974   4.591493
     8  H    1.072919   2.112612   3.388919   3.868820   3.370391
     9  H    2.113766   1.073067   2.156455   3.408258   3.858132
    10  C    3.722681   2.480701   1.416991   2.440165   3.731152
    11  C    4.210078   3.722250   2.432080   1.414538   2.479728
    12  H    3.377014   3.858254   3.411791   2.156957   1.073175
    13  H    2.154423   3.372609   3.874341   3.388254   2.113119
    14  C    5.028339   4.206114   2.790126   2.416476   3.721561
    15  C    4.844853   3.728884   2.427263   2.816769   4.232440
    16  H    4.843722   4.586750   3.405157   2.155040   2.711839
    17  H    6.075692   5.279482   3.863507   3.386311   4.587222
    18  C    6.218401   4.993838   3.830010   4.342113   5.757847
    19  H    6.959507   5.803123   4.552531   4.828086   6.223600
    20  H    6.642798   5.422713   4.308618   4.819321   6.209436
    21  H    6.328650   5.023517   4.065806   4.840677   6.228771
                    6          7          8          9         10
     6  C    0.000000
     7  H    4.846451   0.000000
     8  H    2.153488   4.754317   0.000000
     9  H    3.378375   2.496281   2.429140   0.000000
    10  C    4.218197   1.073539   4.590323   2.711936   0.000000
    11  C    3.720183   3.851475   5.282990   4.584472   2.777943
    12  H    2.113836   5.528343   4.256845   4.931258   4.593265
    13  H    1.072874   5.903330   2.478477   4.258045   5.291069
    14  C    4.832636   3.367115   6.075471   4.836318   2.391977
    15  C    5.050750   2.110471   5.797856   4.071725   1.365373
    16  H    4.068854   4.924707   5.901117   5.523043   3.851196
    17  H    5.785791   4.248761   7.130533   5.894326   3.360492
    18  C    6.544739   2.697265   7.104049   5.101090   2.513781
    19  H    7.141800   3.661828   7.891162   5.999302   3.353297
    20  H    6.983297   3.127280   7.506371   5.489553   3.030704
    21  H    6.849737   2.451640   7.115778   4.925008   2.667577
                   11         12         13         14         15
    11  C    0.000000
    12  H    2.713555   0.000000
    13  H    4.589575   2.430421   0.000000
    14  C    1.364438   4.071104   5.788470   0.000000
    15  C    2.415485   4.864411   6.098873   1.409407   0.000000
    16  H    1.073330   2.503038   4.759986   2.113910   3.386180
    17  H    2.110359   4.757198   6.691854   1.073382   2.150979
    18  C    3.806129   6.367511   7.602160   2.544884   1.525511
    19  H    4.032988   6.702381   8.172306   2.689592   2.159338
    20  H    4.276270   6.805657   8.031560   3.047400   2.157288
    21  H    4.540667   6.946098   7.919460   3.393052   2.158862
                   16         17         18         19         20
    16  H    0.000000
    17  H    2.425195   0.000000
    18  C    4.658335   2.731776   0.000000
    19  H    4.715709   2.486492   1.083203   0.000000
    20  H    5.084710   3.138906   1.085139   1.757789   0.000000
    21  H    5.467488   3.703811   1.082577   1.757589   1.758919
                   21
    21  H    0.000000
 Stoichiometry    C11H10
 Framework group  C1[X(C11H10)]
 Deg. of freedom    57
 Full point group                 C1      NOp   1
 Largest Abelian subgroup         C1      NOp   1
 Largest concise Abelian subgroup C1      NOp   1
                         Standard orientation:                         
 ---------------------------------------------------------------------
 Center     Atomic      Atomic             Coordinates (Angstroms)
 Number     Number       Type             X           Y           Z
 ---------------------------------------------------------------------
      1          6           0       -2.683228   -1.048540    0.001636
      2          6           0       -1.398680   -1.508364   -0.001883
      3          6           0       -0.306289   -0.607072   -0.002157
      4          6           0       -0.570613    0.782847    0.000448
      5          6           0       -1.914583    1.228537    0.002538
      6          6           0       -2.944824    0.334420    0.003618
      7          1           0        1.243028   -2.104805   -0.009314
      8          1           0       -3.497782   -1.746865    0.002433
      9          1           0       -1.210499   -2.564801   -0.003898
     10          6           0        1.039444   -1.050751   -0.006230
     11          6           0        0.523898    1.678929   -0.001170
     12          1           0       -2.121904    2.281495    0.003833
     13          1           0       -3.957551    0.688591    0.005964
     14          6           0        1.806945    1.214750   -0.005222
     15          6           0        2.080886   -0.167777   -0.007014
     16          1           0        0.339464    2.736294   -0.000825
     17          1           0        2.621089    1.914263   -0.005633
     18          6           0        3.523279   -0.664194    0.009011
     19          1           0        4.172782    0.035888   -0.502222
     20          1           0        3.873537   -0.770980    1.030501
     21          1           0        3.600435   -1.625780   -0.482288
 ---------------------------------------------------------------------
 Rotational constants (GHZ):           2.8383084           0.8295826           0.6445096
 Standard basis: 3-21+G (6D, 7F)
 There are   163 symmetry adapted cartesian basis functions of A   symmetry.
 There are   163 symmetry adapted basis functions of A   symmetry.
   163 basis functions,   239 primitive gaussians,   163 cartesian basis functions
    38 alpha electrons       38 beta electrons
       nuclear repulsion energy       543.9159113907 Hartrees.
 NAtoms=   21 NActive=   21 NUniq=   21 SFac= 1.00D+00 NAtFMM=   60 NAOKFM=F Big=F
 Integral buffers will be    131072 words long.
 Raffenetti 1 integral format.
 Two-electron integral symmetry is turned on.
 One-electron integrals computed using PRISM.
 NBasis=   163 RedAO= T EigKep=  1.18D-06  NBF=   163
 NBsUse=   162 1.00D-06 EigRej=  5.86D-07 NBFU=   162
 Initial guess from the checkpoint file:  "Napthal_opt.chk"
 B after Tr=    -0.000000   -0.000000    0.000000
         Rot=    1.000000    0.000226    0.000039   -0.000266 Ang=   0.04 deg.
 ExpMin= 4.38D-02 ExpMax= 1.72D+02 ExpMxC= 1.72D+02 IAcc=3 IRadAn=         5 AccDes= 0.00D+00
 Harris functional with IExCor=  205 and IRadAn=       5 diagonalized for initial guess.
 HarFok:  IExCor=  205 AccDes= 0.00D+00 IRadAn=         5 IDoV= 1 UseB2=F ITyADJ=14
 ICtDFT=  3500011 ScaDFX=  1.000000  1.000000  1.000000  1.000000
 FoFCou: FMM=F IPFlag=           0 FMFlag=      100000 FMFlg1=           0
         NFxFlg=           0 DoJE=T BraDBF=F KetDBF=T FulRan=T
         wScrn=  0.000000 ICntrl=       500 IOpCl=  0 I1Cent=   200000004 NGrid=           0
         NMat0=    1 NMatS0=      1 NMatT0=    0 NMatD0=    1 NMtDS0=    0 NMtDT0=    0
 Petite list used in FoFCou.
 Keep R1 ints in memory in canonical form, NReq=91538312.
 Requested convergence on RMS density matrix=1.00D-08 within 128 cycles.
 Requested convergence on MAX density matrix=1.00D-06.
 Requested convergence on             energy=1.00D-06.
 No special actions if energy rises.
 SCF Done:  E(RHF) =  -420.074152730     A.U. after   26 cycles
            NFock= 26  Conv=0.85D-08     -V/T= 2.0018
 Calling FoFJK, ICntrl=      2127 FMM=F ISym2X=0 I1Cent= 0 IOpClX= 0 NMat=1 NMatS=1 NMatT=0.
 ***** Axes restored to original set *****
 -------------------------------------------------------------------
 Center     Atomic                   Forces (Hartrees/Bohr)
 Number     Number              X              Y              Z
 -------------------------------------------------------------------
      1        6           0.005636471   -0.005092627    0.000093474
      2        6          -0.004915579   -0.001819706    0.000099962
      3        6          -0.000916946    0.002893150   -0.000224139
      4        6           0.001123066   -0.002622756   -0.000191668
      5        6          -0.003696003   -0.003630408    0.000185749
      6        6          -0.001637735    0.007225114   -0.000126399
      7        1          -0.001037355   -0.001925815   -0.000147495
      8        1          -0.000875001    0.000256496    0.000001900
      9        1           0.001663330    0.000083139   -0.000005907
     10        6           0.002319826    0.004060735   -0.000285717
     11        6           0.006134782    0.001698172    0.000115713
     12        1           0.001020296    0.001448723   -0.000026429
     13        1          -0.000160052   -0.000987267    0.000011462
     14        6          -0.007413843    0.005709300    0.000261792
     15        6           0.006882580   -0.008672471    0.000689634
     16        1          -0.001370220    0.000008445   -0.000018820
     17        1           0.001002944    0.000087954   -0.000191777
     18        6          -0.006763542    0.001036173   -0.000810796
     19        1           0.001053800    0.000005937   -0.000010958
     20        1           0.000968057    0.000387979    0.000229226
     21        1           0.000981124   -0.000150266    0.000351192
 -------------------------------------------------------------------
 Cartesian Forces:  Max     0.008672471 RMS     0.002883727

 GradGradGradGradGradGradGradGradGradGradGradGradGradGradGradGradGradGrad
 Berny optimization.
 Using GEDIIS/GDIIS optimizer.
 FormGI is forming the generalized inverse of G from B-inverse, IUseBI=4.
 Internal  Forces:  Max     0.006523459 RMS     0.001253888
 Search for a local minimum.
 Step number   2 out of a maximum of  118
 All quantities printed in internal units (Hartrees-Bohrs-Radians)
 Mixed Optimization -- RFO/linear search
 Update second derivatives using D2CorX and points    1    2
 DE= -7.98D-03 DEPred=-7.49D-03 R= 1.07D+00
 TightC=F SS=  1.41D+00  RLast= 1.96D-01 DXNew= 5.0454D-01 5.8739D-01
 Trust test= 1.07D+00 RLast= 1.96D-01 DXMaxT set to 5.05D-01
 ITU=  1  0
 Use linear search instead of GDIIS.
     Eigenvalues ---    0.00237   0.01334   0.02070   0.02070   0.02070
     Eigenvalues ---    0.02070   0.02070   0.02070   0.02070   0.02070
     Eigenvalues ---    0.02070   0.02070   0.02070   0.02070   0.02070
     Eigenvalues ---    0.02072   0.07013   0.07055   0.15490   0.16000
     Eigenvalues ---    0.16000   0.16000   0.16000   0.16000   0.16000
     Eigenvalues ---    0.16000   0.16000   0.16132   0.22000   0.22283
     Eigenvalues ---    0.22717   0.23537   0.24381   0.24706   0.24962
     Eigenvalues ---    0.28056   0.36801   0.37230   0.37230   0.37230
     Eigenvalues ---    0.37230   0.37230   0.37230   0.37230   0.37230
     Eigenvalues ---    0.37296   0.40760   0.40995   0.41610   0.41728
     Eigenvalues ---    0.43163   0.45389   0.45389   0.45389   0.45389
     Eigenvalues ---    0.45389   0.47455
 RFO step:  Lambda=-6.14189291D-04 EMin= 2.36636090D-03
 Quartic linear search produced a step of  0.08411.
 Iteration  1 RMS(Cart)=  0.02408035 RMS(Int)=  0.00079468
 Iteration  2 RMS(Cart)=  0.00082597 RMS(Int)=  0.00001222
 Iteration  3 RMS(Cart)=  0.00000077 RMS(Int)=  0.00001221
 Variable       Old X    -DE/DX   Delta X   Delta X   Delta X     New X
                                 (Linear)    (Quad)   (Total)
    R1        2.57829  -0.00215  -0.00589  -0.00121  -0.00710   2.57120
    R2        2.65976   0.00540   0.00097   0.01264   0.01360   2.67336
    R3        2.02752   0.00021   0.00046   0.00030   0.00077   2.02829
    R4        2.67625   0.00215   0.00235   0.00345   0.00581   2.68206
    R5        2.02780   0.00076   0.00049   0.00189   0.00237   2.03018
    R6        2.67365  -0.00169   0.00213  -0.00615  -0.00400   2.66964
    R7        2.67773   0.00111   0.00248   0.00089   0.00338   2.68110
    R8        2.67575   0.00188   0.00231   0.00284   0.00516   2.68090
    R9        2.67309   0.00246   0.00209   0.00436   0.00645   2.67954
   R10        2.57783  -0.00171  -0.00592  -0.00014  -0.00607   2.57176
   R11        2.02801   0.00072   0.00050   0.00175   0.00226   2.03027
   R12        2.02744   0.00017   0.00046   0.00020   0.00065   2.02809
   R13        2.02870   0.00112   0.00056   0.00289   0.00345   2.03215
   R14        2.58018  -0.00162  -0.00573  -0.00006  -0.00579   2.57440
   R15        2.57841  -0.00311  -0.00588  -0.00348  -0.00936   2.56905
   R16        2.02830   0.00069   0.00053   0.00165   0.00218   2.03048
   R17        2.66339   0.00652   0.00127   0.01515   0.01641   2.67980
   R18        2.02840   0.00057   0.00054   0.00131   0.00185   2.03025
   R19        2.88280  -0.00374  -0.00230  -0.01261  -0.01491   2.86789
   R20        2.04696   0.00037   0.00210  -0.00029   0.00181   2.04877
   R21        2.05061   0.00055   0.00241   0.00003   0.00244   2.05305
   R22        2.04577   0.00033   0.00200  -0.00034   0.00165   2.04743
    A1        2.10150  -0.00052   0.00060  -0.00207  -0.00148   2.10002
    A2        2.08912   0.00116  -0.00044   0.00722   0.00678   2.09590
    A3        2.09257  -0.00064  -0.00015  -0.00516  -0.00531   2.08726
    A4        2.10800   0.00007   0.00114  -0.00067   0.00048   2.10848
    A5        2.09083   0.00147  -0.00030   0.01026   0.00996   2.10079
    A6        2.08435  -0.00154  -0.00084  -0.00959  -0.01044   2.07391
    A7        2.07271   0.00055  -0.00182   0.00313   0.00131   2.07402
    A8        2.13328  -0.00103   0.00327  -0.00549  -0.00224   2.13105
    A9        2.07720   0.00048  -0.00145   0.00236   0.00092   2.07812
   A10        2.07894   0.00004  -0.00130   0.00054  -0.00076   2.07818
   A11        2.06891   0.00014  -0.00214   0.00139  -0.00075   2.06816
   A12        2.13534  -0.00017   0.00344  -0.00192   0.00151   2.13685
   A13        2.10661   0.00017   0.00103  -0.00011   0.00092   2.10753
   A14        2.08541  -0.00173  -0.00076  -0.01084  -0.01160   2.07382
   A15        2.09117   0.00156  -0.00027   0.01095   0.01068   2.10184
   A16        2.09862  -0.00030   0.00036  -0.00083  -0.00048   2.09814
   A17        2.09417  -0.00085  -0.00002  -0.00645  -0.00647   2.08770
   A18        2.09039   0.00115  -0.00034   0.00729   0.00695   2.09734
   A19        2.08007  -0.00208  -0.00121  -0.01266  -0.01388   2.06619
   A20        2.11988   0.00035   0.00214  -0.00014   0.00202   2.12190
   A21        2.08323   0.00173  -0.00094   0.01280   0.01185   2.09509
   A22        2.10842   0.00022   0.00118   0.00006   0.00123   2.10966
   A23        2.08415  -0.00131  -0.00086  -0.00792  -0.00878   2.07536
   A24        2.09061   0.00109  -0.00032   0.00786   0.00755   2.09816
   A25        2.11354  -0.00030   0.00161  -0.00167  -0.00007   2.11346
   A26        2.08465   0.00099  -0.00082   0.00652   0.00570   2.09036
   A27        2.08500  -0.00069  -0.00079  -0.00484  -0.00563   2.07937
   A28        2.07842  -0.00089  -0.00134  -0.00200  -0.00336   2.07506
   A29        2.10685   0.00239   0.00105   0.00919   0.01022   2.11707
   A30        2.09782  -0.00150   0.00029  -0.00706  -0.00678   2.09104
   A31        1.93015   0.00103   0.00164   0.00576   0.00736   1.93751
   A32        1.92528   0.00070   0.00123   0.00314   0.00435   1.92963
   A33        1.93014   0.00098   0.00164   0.00580   0.00739   1.93753
   A34        1.89056  -0.00105  -0.00169  -0.00668  -0.00839   1.88217
   A35        1.89352  -0.00086  -0.00144  -0.00342  -0.00491   1.88861
   A36        1.89314  -0.00091  -0.00147  -0.00516  -0.00666   1.88648
    D1        0.00119  -0.00001   0.00010  -0.00052  -0.00042   0.00077
    D2       -3.14103  -0.00002   0.00005  -0.00088  -0.00084   3.14132
    D3       -3.14090   0.00000   0.00006   0.00002   0.00008  -3.14081
    D4        0.00007  -0.00001   0.00001  -0.00034  -0.00034  -0.00027
    D5       -0.00043  -0.00000  -0.00004   0.00006   0.00002  -0.00041
    D6        3.14114   0.00001  -0.00004   0.00032   0.00028   3.14142
    D7       -3.14152  -0.00001   0.00001  -0.00049  -0.00048   3.14118
    D8        0.00005  -0.00000   0.00000  -0.00023  -0.00023  -0.00018
    D9       -0.00068  -0.00000  -0.00006   0.00001  -0.00004  -0.00072
   D10       -3.14120  -0.00005   0.00003  -0.00247  -0.00243   3.13955
   D11        3.14153   0.00001  -0.00000   0.00037   0.00036  -3.14129
   D12        0.00101  -0.00004   0.00009  -0.00211  -0.00203  -0.00101
   D13       -0.00057   0.00001  -0.00005   0.00092   0.00087   0.00031
   D14       -3.14052  -0.00002   0.00009  -0.00084  -0.00075  -3.14127
   D15        3.13999   0.00006  -0.00013   0.00332   0.00319  -3.14001
   D16        0.00004   0.00003   0.00000   0.00156   0.00156   0.00160
   D17        0.00010   0.00010   0.00001   0.00562   0.00562   0.00572
   D18        3.14109   0.00005  -0.00004   0.00299   0.00296  -3.13913
   D19       -3.14042   0.00005   0.00010   0.00313   0.00322  -3.13719
   D20        0.00057  -0.00000   0.00005   0.00050   0.00056   0.00114
   D21        0.00133  -0.00002   0.00011  -0.00139  -0.00128   0.00005
   D22       -3.14086  -0.00001   0.00006  -0.00068  -0.00062  -3.14148
   D23        3.14122   0.00001  -0.00003   0.00044   0.00041  -3.14156
   D24       -0.00097   0.00002  -0.00008   0.00115   0.00107   0.00010
   D25        0.00006   0.00000   0.00000  -0.00031  -0.00030  -0.00025
   D26        3.13989  -0.00004  -0.00014  -0.00196  -0.00209   3.13779
   D27       -3.13984  -0.00003   0.00015  -0.00213  -0.00198   3.14136
   D28       -0.00001  -0.00007  -0.00000  -0.00378  -0.00378  -0.00378
   D29       -0.00085   0.00002  -0.00007   0.00091   0.00084  -0.00001
   D30        3.14077   0.00001  -0.00007   0.00065   0.00058   3.14135
   D31        3.14134   0.00001  -0.00002   0.00020   0.00017   3.14152
   D32       -0.00022  -0.00000  -0.00002  -0.00006  -0.00008  -0.00031
   D33       -0.00124  -0.00005  -0.00010  -0.00373  -0.00383  -0.00508
   D34        3.12601   0.00001  -0.00131   0.00597   0.00469   3.13071
   D35        3.13975  -0.00011  -0.00016  -0.00637  -0.00655   3.13320
   D36       -0.01618  -0.00005  -0.00136   0.00333   0.00198  -0.01420
   D37       -0.00074  -0.00005  -0.00006  -0.00300  -0.00305  -0.00380
   D38       -3.14079  -0.00010   0.00007  -0.00557  -0.00551   3.13688
   D39       -3.14057  -0.00001   0.00009  -0.00132  -0.00122   3.14140
   D40        0.00257  -0.00006   0.00022  -0.00390  -0.00367  -0.00111
   D41        0.00134   0.00008   0.00011   0.00502   0.00512   0.00646
   D42       -3.12600  -0.00001   0.00131  -0.00476  -0.00342  -3.12941
   D43        3.14139   0.00013  -0.00002   0.00761   0.00757  -3.13423
   D44        0.01405   0.00004   0.00118  -0.00218  -0.00097   0.01308
   D45        2.61548  -0.00013  -0.00021  -0.07750  -0.07770   2.53778
   D46       -1.57667  -0.00033  -0.00049  -0.08010  -0.08059  -1.65727
   D47        0.51758  -0.00037  -0.00051  -0.08077  -0.08129   0.43629
   D48       -0.54061  -0.00007  -0.00143  -0.06765  -0.06906  -0.60967
   D49        1.55043  -0.00026  -0.00171  -0.07025  -0.07196   1.47847
   D50       -2.63851  -0.00031  -0.00173  -0.07092  -0.07265  -2.71116
         Item               Value     Threshold  Converged?
 Maximum Force            0.006523     0.000450     NO 
 RMS     Force            0.001254     0.000300     NO 
 Maximum Displacement     0.147058     0.001800     NO 
 RMS     Displacement     0.024099     0.001200     NO 
 Predicted change in Energy=-3.880129D-04
 GradGradGradGradGradGradGradGradGradGradGradGradGradGradGradGradGradGrad

                          Input orientation:                          
 ---------------------------------------------------------------------
 Center     Atomic      Atomic             Coordinates (Angstroms)
 Number     Number       Type             X           Y           Z
 ---------------------------------------------------------------------
      1          6           0       -4.903294   -0.064441    0.018485
      2          6           0       -3.542686   -0.059410    0.016346
      3          6           0       -2.820333    1.162225    0.002933
      4          6           0       -3.538894    2.378483   -0.009111
      5          6           0       -4.957078    2.341307   -0.007048
      6          6           0       -5.622050    1.153988    0.006371
      7          1           0       -0.866155    0.267190    0.007902
      8          1           0       -5.437899   -0.995088    0.029402
      9          1           0       -2.996149   -0.984276    0.025791
     10          6           0       -1.402045    1.199505    0.002835
     11          6           0       -2.810077    3.594713   -0.022876
     12          1           0       -5.499504    3.268646   -0.016343
     13          1           0       -6.695130    1.136795    0.008037
     14          6           0       -1.450596    3.593374   -0.024193
     15          6           0       -0.719442    2.378421   -0.007259
     16          1           0       -3.349917    4.523651   -0.035659
     17          1           0       -0.916274    4.525323   -0.039109
     18          6           0        0.797760    2.411134    0.006813
     19          1           0        1.174040    3.244247   -0.576064
     20          1           0        1.167597    2.521476    1.022378
     21          1           0        1.209880    1.497121   -0.403805
 ---------------------------------------------------------------------
                    Distance matrix (angstroms):
                    1          2          3          4          5
     1  C    0.000000
     2  C    1.360619   0.000000
     3  C    2.417370   1.419283   0.000000
     4  C    2.798254   2.438029   1.412713   0.000000
     5  C    2.406484   2.786484   2.440495   1.418673   0.000000
     6  C    1.414682   2.407528   2.801732   2.416437   1.360917
     7  H    4.050750   2.696397   2.149400   3.406079   4.586701
     8  H    1.073325   2.113646   3.392102   3.871522   3.371060
     9  H    2.117393   1.074323   2.153811   3.406456   3.860806
    10  C    3.722438   2.483424   1.418778   2.440544   3.733908
    11  C    4.215765   3.727046   2.432647   1.417949   2.486139
    12  H    3.386171   3.860850   3.408129   2.153238   1.074370
    13  H    2.157256   3.371777   3.874884   3.391741   2.114687
    14  C    5.030164   4.209669   2.790592   2.416025   3.723356
    15  C    4.844879   3.730186   2.427546   2.819452   4.237798
    16  H    4.844224   4.587408   3.403107   2.153640   2.710427
    17  H    6.079932   5.284022   3.864924   3.389389   4.593370
    18  C    6.215354   4.994312   3.827582   4.336806   5.755278
    19  H    6.945134   5.789007   4.541483   4.825218   6.223318
    20  H    6.674614   5.464415   4.334791   4.820318   6.213197
    21  H    6.323582   5.018585   4.064505   4.845971   6.237101
                    6          7          8          9         10
     6  C    0.000000
     7  H    4.837866   0.000000
     8  H    2.157074   4.742853   0.000000
     9  H    3.386430   2.470498   2.441777   0.000000
    10  C    4.220252   1.075367   4.594025   2.703812   0.000000
    11  C    3.723599   3.853854   5.289088   4.583027   2.778532
    12  H    2.118328   5.520620   4.264424   4.935171   4.590303
    13  H    1.073219   5.893484   2.475078   4.264003   5.293459
    14  C    4.832449   3.377292   6.079099   4.831782   2.394514
    15  C    5.053216   2.116377   5.800496   4.061062   1.362311
    16  H    4.064356   4.928329   5.900880   5.519619   3.853003
    17  H    5.788980   4.258687   7.136156   5.889463   3.361368
    18  C    6.541741   2.713874   7.105372   5.091455   2.511414
    19  H    7.134091   3.655992   7.877581   5.969348   3.339507
    20  H    7.000114   3.201111   7.548828   5.533558   3.064332
    21  H    6.852828   2.447887   7.112787   4.902302   2.660091
                   11         12         13         14         15
    11  C    0.000000
    12  H    2.709128   0.000000
    13  H    4.597385   2.444362   0.000000
    14  C    1.359483   4.061916   5.791455   0.000000
    15  C    2.418753   4.862260   6.103336   1.418091   0.000000
    16  H    1.074484   2.489204   4.760583   2.114939   3.394439
    17  H    2.110163   4.752446   6.699217   1.074361   2.156141
    18  C    3.797135   6.355422   7.600483   2.540425   1.517620
    19  H    4.037578   6.697019   8.167396   2.704656   2.158348
    20  H    4.250445   6.788772   8.047900   3.016490   2.154421
    21  H    4.550281   6.950126   7.923927   3.408301   2.157828
                   16         17         18         19         20
    16  H    0.000000
    17  H    2.433645   0.000000
    18  C    4.654863   2.722098   0.000000
    19  H    4.732346   2.509759   1.084162   0.000000
    20  H    5.053323   3.079720   1.086429   1.754268   0.000000
    21  H    5.485176   3.718003   1.083453   1.755963   1.756443
                   21
    21  H    0.000000
 Stoichiometry    C11H10
 Framework group  C1[X(C11H10)]
 Deg. of freedom    57
 Full point group                 C1      NOp   1
 Largest Abelian subgroup         C1      NOp   1
 Largest concise Abelian subgroup C1      NOp   1
                         Standard orientation:                         
 ---------------------------------------------------------------------
 Center     Atomic      Atomic             Coordinates (Angstroms)
 Number     Number       Type             X           Y           Z
 ---------------------------------------------------------------------
      1          6           0       -2.683474   -1.050489    0.001550
      2          6           0       -1.402277   -1.508528   -0.002779
      3          6           0       -0.307445   -0.605362   -0.003543
      4          6           0       -0.569445    0.782841   -0.000618
      5          6           0       -1.915718    1.230237    0.003365
      6          6           0       -2.944919    0.339822    0.004428
      7          1           0        1.225771   -2.111714   -0.011941
      8          1           0       -3.502773   -1.743868    0.002804
      9          1           0       -1.202927   -2.564191   -0.004717
     10          6           0        1.038957   -1.052717   -0.005560
     11          6           0        0.529627    1.678731   -0.001806
     12          1           0       -2.110362    2.286827    0.005473
     13          1           0       -3.959867    0.688630    0.007671
     14          6           0        1.807597    1.215077   -0.005383
     15          6           0        2.081871   -0.176237   -0.003423
     16          1           0        0.337968    2.735982   -0.003171
     17          1           0        2.627080    1.909822   -0.010620
     18          6           0        3.519703   -0.661691    0.008514
     19          1           0        4.158258    0.000244   -0.565506
     20          1           0        3.902682   -0.695121    1.024652
     21          1           0        3.597309   -1.656717   -0.413114
 ---------------------------------------------------------------------
 Rotational constants (GHZ):           2.8355272           0.8294826           0.6442949
 Standard basis: 3-21+G (6D, 7F)
 There are   163 symmetry adapted cartesian basis functions of A   symmetry.
 There are   163 symmetry adapted basis functions of A   symmetry.
   163 basis functions,   239 primitive gaussians,   163 cartesian basis functions
    38 alpha electrons       38 beta electrons
       nuclear repulsion energy       543.7676231314 Hartrees.
 NAtoms=   21 NActive=   21 NUniq=   21 SFac= 1.00D+00 NAtFMM=   60 NAOKFM=F Big=F
 Integral buffers will be    131072 words long.
 Raffenetti 1 integral format.
 Two-electron integral symmetry is turned on.
 One-electron integrals computed using PRISM.
 NBasis=   163 RedAO= T EigKep=  1.19D-06  NBF=   163
 NBsUse=   162 1.00D-06 EigRej=  5.94D-07 NBFU=   162
 Initial guess from the checkpoint file:  "Napthal_opt.chk"
 B after Tr=     0.000000    0.000000    0.000000
         Rot=    0.999999    0.001045   -0.000112    0.000343 Ang=   0.13 deg.
 ExpMin= 4.38D-02 ExpMax= 1.72D+02 ExpMxC= 1.72D+02 IAcc=3 IRadAn=         5 AccDes= 0.00D+00
 Harris functional with IExCor=  205 and IRadAn=       5 diagonalized for initial guess.
 HarFok:  IExCor=  205 AccDes= 0.00D+00 IRadAn=         5 IDoV= 1 UseB2=F ITyADJ=14
 ICtDFT=  3500011 ScaDFX=  1.000000  1.000000  1.000000  1.000000
 FoFCou: FMM=F IPFlag=           0 FMFlag=      100000 FMFlg1=           0
         NFxFlg=           0 DoJE=T BraDBF=F KetDBF=T FulRan=T
         wScrn=  0.000000 ICntrl=       500 IOpCl=  0 I1Cent=   200000004 NGrid=           0
         NMat0=    1 NMatS0=      1 NMatT0=    0 NMatD0=    1 NMtDS0=    0 NMtDT0=    0
 Petite list used in FoFCou.
 Keep R1 ints in memory in canonical form, NReq=91538312.
 Requested convergence on RMS density matrix=1.00D-08 within 128 cycles.
 Requested convergence on MAX density matrix=1.00D-06.
[...]
     17          1           0       -0.906355    4.515246    0.036554
     18          6           0        0.796852    2.418098   -0.002399
     19          1           0        1.160560    2.956714   -0.871969
     20          1           0        1.166649    2.929202    0.881075
     21          1           0        1.222135    1.422147   -0.019526
 ---------------------------------------------------------------------
                    Distance matrix (angstroms):
                    1          2          3          4          5
     1  C    0.000000
     2  C    1.361389   0.000000
     3  C    2.417270   1.419241   0.000000
     4  C    2.796781   2.435185   1.408307   0.000000
     5  C    2.407020   2.786310   2.438109   1.418556   0.000000
     6  C    1.415215   2.408251   2.800739   2.415950   1.361464
     7  H    4.050161   2.694892   2.151579   3.404898   4.586616
     8  H    1.073072   2.116070   3.393134   3.869774   3.370409
     9  H    2.118988   1.074107   2.153126   3.402524   3.860412
    10  C    3.724441   2.484100   1.422280   2.441243   3.735757
    11  C    4.217615   3.727887   2.432346   1.421224   2.486837
    12  H    3.387186   3.860483   3.404737   2.152827   1.074184
    13  H    2.156071   3.371459   3.873657   3.392380   2.116797
    14  C    5.030565   4.209347   2.790277   2.416448   3.722174
    15  C    4.844938   3.728606   2.427736   2.820337   4.238608
    16  H    4.843501   4.586375   3.401155   2.155331   2.708355
    17  H    6.081550   5.283672   3.864555   3.392534   4.595584
    18  C    6.221115   5.000924   3.832469   4.334384   5.752862
    19  H    6.831577   5.654731   4.454458   4.815682   6.210685
    20  H    6.831677   5.654801   4.454533   4.815746   6.210762
    21  H    6.307277   4.993664   4.053826   4.853675   6.245800
                    6          7          8          9         10
     6  C    0.000000
     7  H    4.838038   0.000000
     8  H    2.155711   4.743829   0.000000
     9  H    3.387709   2.465673   2.447014   0.000000
    10  C    4.222811   1.074902   4.597103   2.701228   0.000000
    11  C    3.725224   3.855925   5.290678   4.582284   2.781084
    12  H    2.119555   5.519615   4.264219   4.934579   4.590837
    13  H    1.073005   5.892943   2.470617   4.264299   5.295789
    14  C    4.832396   3.380205   6.079863   4.829694   2.396411
    15  C    5.054240   2.115546   5.801245   4.056331   1.360173
    16  H    4.062966   4.930265   5.899387   5.517507   3.855423
    17  H    5.791536   4.258468   7.137863   5.886266   3.360460
    18  C    6.543646   2.729090   7.114020   5.098953   2.517072
    19  H    7.073319   3.481020   7.742533   5.791006   3.227039
    20  H    7.073401   3.481062   7.742632   5.791061   3.227085
    21  H    6.851245   2.394607   7.092146   4.860024   2.633505
                   11         12         13         14         15
    11  C    0.000000
    12  H    2.707309   0.000000
    13  H    4.600144   2.448883   0.000000
    14  C    1.357768   4.058352   5.792176   0.000000
    15  C    2.421403   4.861831   6.104767   1.422609   0.000000
    16  H    1.074341   2.484407   4.760702   2.115213   3.398572
    17  H    2.111888   4.753248   6.703265   1.074343   2.156650
    18  C    3.789045   6.348447   7.602118   2.531227   1.514681
    19  H    4.116446   6.723028   8.112332   2.829219   2.153268
    20  H    4.116485   6.723103   8.112426   2.829156   2.153256
    21  H    4.575285   6.966138   7.924016   3.437978   2.157247
                   16         17         18         19         20
    16  H    0.000000
    17  H    2.439954   0.000000
    18  C    4.646119   2.701937   0.000000
    19  H    4.857637   2.743460   1.085608   0.000000
    20  H    4.857661   2.743373   1.085589   1.753271   0.000000
    21  H    5.520162   3.755113   1.083086   1.756515   1.756524
                   21
    21  H    0.000000
 Stoichiometry    C11H10
 Framework group  C1[X(C11H10)]
 Deg. of freedom    57
 Full point group                 C1      NOp   1
 Largest Abelian subgroup         C1      NOp   1
 Largest concise Abelian subgroup C1      NOp   1
                         Standard orientation:                         
 ---------------------------------------------------------------------
 Center     Atomic      Atomic             Coordinates (Angstroms)
 Number     Number       Type             X           Y           Z
 ---------------------------------------------------------------------
      1          6           0       -2.687173   -1.046376   -0.000039
      2          6           0       -1.406109   -1.507087    0.000053
      3          6           0       -0.310569   -0.604848   -0.000008
      4          6           0       -0.568728    0.779596   -0.000010
      5          6           0       -1.912962    1.232734   -0.000026
      6          6           0       -2.945286    0.345102    0.000004
      7          1           0        1.218501   -2.118532    0.000031
      8          1           0       -3.509829   -1.735375   -0.000016
      9          1           0       -1.206863   -2.562553    0.000108
     10          6           0        1.037247   -1.059022    0.000018
     11          6           0        0.534023    1.676155   -0.000022
     12          1           0       -2.102774    2.290015   -0.000056
     13          1           0       -3.960024    0.693879   -0.000041
     14          6           0        1.809141    1.209671    0.000099
     15          6           0        2.080894   -0.186742    0.000027
     16          1           0        0.341792    2.733158   -0.000008
     17          1           0        2.634257    1.897708    0.000063
     18          6           0        3.521580   -0.654374   -0.000061
     19          1           0        4.045080   -0.285719   -0.876751
     20          1           0        4.045197   -0.285677    0.876519
     21          1           0        3.582317   -1.735756   -0.000059
 ---------------------------------------------------------------------
 Rotational constants (GHZ):           2.8416274           0.8286534           0.6440983

 **********************************************************************

            Population analysis using the SCF Density.

 **********************************************************************

 Orbital symmetries:
       Occupied  (A) (A) (A) (A) (A) (A) (A) (A) (A) (A) (A) (A)
                 (A) (A) (A) (A) (A) (A) (A) (A) (A) (A) (A) (A)
                 (A) (A) (A) (A) (A) (A) (A) (A) (A) (A) (A) (A)
                 (A) (A)
       Virtual   (A) (A) (A) (A) (A) (A) (A) (A) (A) (A) (A) (A)
                 (A) (A) (A) (A) (A) (A) (A) (A) (A) (A) (A) (A)
                 (A) (A) (A) (A) (A) (A) (A) (A) (A) (A) (A) (A)
                 (A) (A) (A) (A) (A) (A) (A) (A) (A) (A) (A) (A)
                 (A) (A) (A) (A) (A) (A) (A) (A) (A) (A) (A) (A)
                 (A) (A) (A) (A) (A) (A) (A) (A) (A) (A) (A) (A)
                 (A) (A) (A) (A) (A) (A) (A) (A) (A) (A) (A) (A)
                 (A) (A) (A) (A) (A) (A) (A) (A) (A) (A) (A) (A)
                 (A) (A) (A) (A) (A) (A) (A) (A) (A) (A) (A) (A)
                 (A) (A) (A) (A) (A) (A) (A) (A) (A) (A) (A) (A)
                 (A) (A) (A) (A)
 The electronic state is 1-A.
 Alpha  occ. eigenvalues --  -11.19660 -11.19621 -11.19442 -11.18833 -11.18736
 Alpha  occ. eigenvalues --  -11.18607 -11.18589 -11.18465 -11.18373 -11.18161
 Alpha  occ. eigenvalues --  -11.17065  -1.19141  -1.13044  -1.06263  -1.03697
 Alpha  occ. eigenvalues --   -0.99992  -0.94584  -0.85747  -0.82965  -0.82423
 Alpha  occ. eigenvalues --   -0.71546  -0.70568  -0.67884  -0.63060  -0.62415
 Alpha  occ. eigenvalues --   -0.60162  -0.59235  -0.58556  -0.56274  -0.54683
 Alpha  occ. eigenvalues --   -0.53651  -0.51916  -0.48858  -0.47781  -0.44789
 Alpha  occ. eigenvalues --   -0.39078  -0.32249  -0.29510
 Alpha virt. eigenvalues --    0.07254   0.07415   0.07820   0.08405   0.08947
 Alpha virt. eigenvalues --    0.09599   0.10086   0.10877   0.10974   0.11532
 Alpha virt. eigenvalues --    0.12559   0.14085   0.14288   0.14754   0.15325
 Alpha virt. eigenvalues --    0.15783   0.17447   0.18105   0.18979   0.19377
 Alpha virt. eigenvalues --    0.19765   0.21099   0.22028   0.22804   0.23676
 Alpha virt. eigenvalues --    0.23974   0.24381   0.25063   0.25067   0.25244
 Alpha virt. eigenvalues --    0.26615   0.26761   0.28639   0.29214   0.29837
 Alpha virt. eigenvalues --    0.30710   0.31292   0.31296   0.31845   0.32583
 Alpha virt. eigenvalues --    0.33764   0.34968   0.35472   0.36552   0.37613
 Alpha virt. eigenvalues --    0.38458   0.40566   0.40592   0.41182   0.41728
 Alpha virt. eigenvalues --    0.42658   0.44154   0.44724   0.44886   0.47033
 Alpha virt. eigenvalues --    0.48174   0.49511   0.51053   0.52008   0.52829
 Alpha virt. eigenvalues --    0.54571   0.55715   0.58499   0.60408   0.65909
 Alpha virt. eigenvalues --    0.68420   0.78407   0.79199   0.88546   0.93578
 Alpha virt. eigenvalues --    1.05344   1.07011   1.08393   1.09153   1.09776
 Alpha virt. eigenvalues --    1.11168   1.11601   1.12957   1.15025   1.15354
 Alpha virt. eigenvalues --    1.15880   1.16314   1.17255   1.18572   1.18978
 Alpha virt. eigenvalues --    1.19676   1.20759   1.22356   1.24934   1.25229
 Alpha virt. eigenvalues --    1.29665   1.29920   1.34949   1.35723   1.37979
 Alpha virt. eigenvalues --    1.42221   1.42762   1.43019   1.45962   1.49817
 Alpha virt. eigenvalues --    1.52082   1.54186   1.54852   1.60805   1.62783
 Alpha virt. eigenvalues --    1.65287   1.67619   1.74660   1.79555   1.80684
 Alpha virt. eigenvalues --    1.87647   1.91404   1.93121   1.98891   2.01022
 Alpha virt. eigenvalues --    2.07100   2.13865   2.16583   2.29860   2.32094
 Alpha virt. eigenvalues --    2.33616   2.36991   2.78400   2.82556
          Condensed to atoms (all electrons):
               1          2          3          4          5          6
     1  C   21.843447  -3.674572  -4.138813   2.305646   2.603717  -5.365141
     2  C   -3.674572  96.023538 -48.171093 -42.720350 -16.438548   4.082683
     3  C   -4.138813 -48.171093 178.466270 -61.229088 -12.525722  -2.601280
     4  C    2.305646 -42.720350 -61.229088 172.089590 -13.123635  -4.229680
     5  C    2.603717 -16.438548 -12.525722 -13.123635  52.717401  -1.584348
     6  C   -5.365141   4.082683  -2.601280  -4.229680  -1.584348  19.258466
     7  H    0.027953   0.003003   0.091260  -0.067584   0.022143  -0.004210
     8  H    0.202738  -0.008896   0.061850  -0.026907  -0.056635   0.139098
     9  H    0.046097   0.456247  -0.181160  -0.128504  -0.002594  -0.028345
    10  C   -8.364080  37.354865 -13.028371 -42.234906 -12.805349   5.362598
    11  C    3.679974   4.883698 -39.662391 -12.160959   5.617220  -6.086961
    12  H   -0.039936   0.036336  -0.152722  -0.164873   0.282936   0.140355
    13  H    0.127553  -0.046699  -0.042156   0.069557  -0.028328   0.236112
    14  C    1.492190  10.605065  13.939382 -15.728681  -6.433282  -3.339696
    15  C   -3.610621 -33.634162  -0.788340  20.633223   8.949781   0.908252
    16  H    0.002461  -0.004903  -0.042520   0.240057   0.025348   0.002216
    17  H   -0.000850  -0.001816  -0.124109  -0.040791   0.048267   0.002295
    18  C   -0.045683  -2.898065  -2.781599   2.425132  -1.930478   0.012985
    19  H    0.000464  -0.012027  -0.018496   0.033337   0.002569  -0.000362
    20  H    0.000463  -0.012035  -0.018637   0.033380   0.002564  -0.000361
    21  H   -0.000125   0.016967   0.055274  -0.021577  -0.001338   0.000366
               7          8          9         10         11         12
     1  C    0.027953   0.202738   0.046097  -8.364080   3.679974  -0.039936
     2  C    0.003003  -0.008896   0.456247  37.354865   4.883698   0.036336
     3  C    0.091260   0.061850  -0.181160 -13.028371 -39.662391  -0.152722
     4  C   -0.067584  -0.026907  -0.128504 -42.234906 -12.160959  -0.164873
     5  C    0.022143  -0.056635  -0.002594 -12.805349   5.617220   0.282936
     6  C   -0.004210   0.139098  -0.028345   5.362598  -6.086961   0.140355
     7  H    0.384624  -0.000001   0.000739   0.105789  -0.060584   0.000000
     8  H   -0.000001   0.383501  -0.000935   0.026858  -0.000253  -0.000023
     9  H    0.000739  -0.000935   0.380838   0.145922   0.022604   0.000001
    10  C    0.105789   0.026858   0.145922  64.279472   5.025603   0.030207
    11  C   -0.060584  -0.000253   0.022604   5.025603  55.229925   0.198737
    12  H    0.000000  -0.000023   0.000001   0.030207   0.198737   0.381175
    13  H   -0.000000  -0.000872  -0.000024  -0.005480   0.029595  -0.000898
    14  C    0.042859  -0.002456   0.000761  -8.170573 -12.086579   0.010330
    15  C    0.189431   0.003231   0.006949 -24.488790  -1.238035  -0.005477
    16  H    0.000002  -0.000000   0.000000  -0.074539   0.068860   0.000553
    17  H   -0.000031   0.000000  -0.000000   0.082970   0.200341  -0.000000
    18  C   -0.012547   0.000412  -0.003297   2.851486   1.434035  -0.000636
    19  H    0.000038   0.000000   0.000000  -0.165358  -0.016371  -0.000000
    20  H    0.000038   0.000000   0.000000  -0.165674  -0.016233  -0.000000
    21  H   -0.000241   0.000000   0.000001   0.481749   0.035140   0.000000
              13         14         15         16         17         18
     1  C    0.127553   1.492190  -3.610621   0.002461  -0.000850  -0.045683
     2  C   -0.046699  10.605065 -33.634162  -0.004903  -0.001816  -2.898065
     3  C   -0.042156  13.939382  -0.788340  -0.042520  -0.124109  -2.781599
     4  C    0.069557 -15.728681  20.633223   0.240057  -0.040791   2.425132
     5  C   -0.028328  -6.433282   8.949781   0.025348   0.048267  -1.930478
     6  C    0.236112  -3.339696   0.908252   0.002216   0.002295   0.012985
     7  H   -0.000000   0.042859   0.189431   0.000002  -0.000031  -0.012547
     8  H   -0.000872  -0.002456   0.003231  -0.000000   0.000000   0.000412
     9  H   -0.000024   0.000761   0.006949   0.000000  -0.000000  -0.003297
    10  C   -0.005480  -8.170573 -24.488790  -0.074539   0.082970   2.851486
    11  C    0.029595 -12.086579  -1.238035   0.068860   0.200341   1.434035
    12  H   -0.000898   0.010330  -0.005477   0.000553  -0.000000  -0.000636
    13  H    0.382765  -0.004413   0.004399  -0.000000  -0.000000   0.000159
    14  C   -0.004413  48.045229 -13.334246   0.163937  -0.072180  -7.318909
    15  C    0.004399 -13.334246  65.256559  -0.054852   0.262459 -13.861225
    16  H   -0.000000   0.163937  -0.054852   0.383493  -0.001052   0.008747
    17  H   -0.000000  -0.072180   0.262459  -0.001052   0.385222  -0.024092
    18  C    0.000159  -7.318909 -13.861225   0.008747  -0.024092  27.561974
    19  H    0.000000   0.067035   0.034483   0.000001  -0.000087   0.397585
    20  H    0.000000   0.067559   0.033964   0.000001  -0.000087   0.397862
    21  H    0.000000  -0.267190  -0.383227   0.000000   0.000046   0.414880
              19         20         21
     1  C    0.000464   0.000463  -0.000125
     2  C   -0.012027  -0.012035   0.016967
     3  C   -0.018496  -0.018637   0.055274
     4  C    0.033337   0.033380  -0.021577
     5  C    0.002569   0.002564  -0.001338
     6  C   -0.000362  -0.000361   0.000366
     7  H    0.000038   0.000038  -0.000241
     8  H    0.000000   0.000000   0.000000
     9  H    0.000000   0.000000   0.000001
    10  C   -0.165358  -0.165674   0.481749
    11  C   -0.016371  -0.016233   0.035140
    12  H   -0.000000  -0.000000   0.000000
    13  H    0.000000   0.000000   0.000000
    14  C    0.067035   0.067559  -0.267190
    15  C    0.034483   0.033964  -0.383227
    16  H    0.000001   0.000001   0.000000
    17  H   -0.000087  -0.000087   0.000046
    18  C    0.397585   0.397862   0.414880
    19  H    0.459684  -0.029619  -0.023664
    20  H   -0.029619   0.459700  -0.023662
    21  H   -0.023664  -0.023662   0.458650
 Mulliken charges:
               1
     1  C   -1.092883
     2  C    0.160763
     3  C   -1.107541
     4  C    0.047615
     5  C    0.658312
     6  C   -0.905042
     7  H    0.277318
     8  H    0.279289
     9  H    0.284699
    10  C   -0.244400
    11  C    0.902632
    12  H    0.283935
    13  H    0.278733
    14  C   -1.676142
    15  C    1.116242
    16  H    0.282189
    17  H    0.283496
    18  C   -0.628727
    19  H    0.270787
    20  H    0.270775
    21  H    0.257951
 Sum of Mulliken charges =   0.00000
 Mulliken charges with hydrogens summed into heavy atoms:
               1
     1  C   -0.813594
     2  C    0.445462
     3  C   -1.107541
     4  C    0.047615
     5  C    0.942247
     6  C   -0.626309
    10  C    0.032918
    11  C    1.184821
    14  C   -1.392647
    15  C    1.116242
    18  C    0.170786
 Electronic spatial extent (au):  <R**2>=           1765.9370
 Charge=             -0.0000 electrons
 Dipole moment (field-independent basis, Debye):
    X=              0.5116    Y=              0.0049    Z=             -0.0001  Tot=              0.5116
 Quadrupole moment (field-independent basis, Debye-Ang):
   XX=            -58.2036   YY=            -59.4643   ZZ=            -74.6273
   XY=             -0.1251   XZ=             -0.0001   YZ=             -0.0004
 Traceless Quadrupole moment (field-independent basis, Debye-Ang):
   XX=              5.8948   YY=              4.6341   ZZ=            -10.5289
   XY=             -0.1251   XZ=             -0.0001   YZ=             -0.0004
 Octapole moment (field-independent basis, Debye-Ang**2):
  XXX=             -1.4423  YYY=              0.7161  ZZZ=             -0.0006  XYY=             -2.1526
  XXY=              0.2425  XXZ=             -0.0014  XZZ=              6.7808  YZZ=             -0.5637
  YYZ=              0.0003  XYZ=              0.0007
 Hexadecapole moment (field-independent basis, Debye-Ang**3):
 XXXX=          -1700.4117 YYYY=           -536.1744 ZZZZ=            -97.4968 XXXY=             10.5063
 XXXZ=              0.0018 YYYX=             -1.7208 YYYZ=             -0.0029 ZZZX=             -0.0017
 ZZZY=             -0.0004 XXYY=           -379.3947 XXZZ=           -351.5908 YYZZ=           -131.6770
 XXYZ=             -0.0006 YYXZ=             -0.0004 ZZXY=             -2.3874
 N-N= 5.437465185834D+02 E-N=-2.063633149287D+03  KE= 4.193022115828D+02
 1\1\GINC-IISERK51\FOpt\RHF\3-21+G\C11H10\GAUSSIAN\09-Jun-2025\0\\# opt
  hf/3-21+g geom=connectivity\\Methyl_Napthalene Optimisation\\0,1\C,-4
 .9074628767,-0.0643784401,-0.0219467904\C,-3.5460852521,-0.0613296241,
 -0.0264608621\C,-2.8231874325,1.1598930963,-0.0097728319\C,-3.53728011
 7,2.3735395184,0.0117680082\C,-4.9554757006,2.341862202,0.01610216\C,-
 5.6239076264,1.1558962412,-0.0002482877\H,-0.8701189868,0.2574621244,-
 0.030613078\H,-5.4463836999,-0.9922171071,-0.034684031\H,-2.999391517,
 -0.9857562193,-0.0428240553\C,-1.4012719758,1.191816412,-0.0141048749\
 C,-2.805669032,3.5918763756,0.0284303343\H,-5.4939165055,3.2712072678,
 0.032540008\H,-6.6967629975,1.1382930444,0.0030972631\C,-1.4479161601,
 3.5874730727,0.0238402991\C,-0.7169669846,2.367203997,0.0020636352\H,-
 3.3462895699,4.5201361278,0.0449019008\H,-0.9063548827,4.515245872,0.0
 365539431\C,0.7968518187,2.4180975496,-0.0023987964\H,1.1605602919,2.9
 567142723,-0.8719691974\H,1.1666492508,2.9292022963,0.8810748865\H,1.2
 221352658,1.4221473906,-0.0195259432\\Version=EM64L-G16RevB.01\State=1
 -A\HF=-420.0751988\RMSD=6.570e-09\RMSF=2.173e-05\Dipole=0.1886045,0.07
 03366,0.0004254\Quadrupole=4.3333585,3.4916783,-7.8250368,0.2292584,-0
 .0379568,0.1770854\PG=C01 [X(C11H10)]\\@


 GROWING OLD ISN'T SO BAD -- WHEN YOU CONSIDER THE ALTERNATIVE.

                     -- MAURICE CHEVALIER
 Job cpu time:       0 days  0 hours  1 minutes  5.6 seconds.
 Elapsed time:       0 days  0 hours  1 minutes  5.4 seconds.
 File lengths (MBytes):  RWF=     18 Int=      0 D2E=      0 Chk=      3 Scr=      1
 Normal termination of Gaussian 16 at Mon Jun  9 19:28:34 2025.
