 Entering Gaussian System, Link 0=g16
 Input=/home/gaussian/Documents/jeeva/Aromaticity/meth_cyclobutadiene_isomer.gjf
 Output=/home/gaussian/Documents/jeeva/Aromaticity/meth_cyclobutadiene_isomer.log
 Initial command:
 /usr/local/g16/l1.exe "/home/gaussian/tmp/Gau-95537.inp" -scrdir="/home/gaussian/tmp/"
 Entering Link 1 = /usr/local/g16/l1.exe PID=     95540.
  
 Copyright (c) 1988-2017, Gaussian, Inc.  All Rights Reserved.
  
 This is part of the Gaussian(R) 16 program.  It is based on
 the Gaussian(R) 09 system (copyright 2009, Gaussian, Inc.),
 the Gaussian(R) 03 system (copyright 2003, Gaussian, Inc.),
 the Gaussian(R) 98 system (copyright 1998, Gaussian, Inc.),
 the Gaussian(R) 94 system (copyright 1995, Gaussian, Inc.),
 the Gaussian 92(TM) system (copyright 1992, Gaussian, Inc.),
 the Gaussian 90(TM) system (copyright 1990, Gaussian, Inc.),
 the Gaussian 88(TM) system (copyright 1988, Gaussian, Inc.),
 the Gaussian 86(TM) system (copyright 1986, Carnegie Mellon
 University), and the Gaussian 82(TM) system (copyright 1983,
 Carnegie Mellon University). Gaussian is a federally registered
 trademark of Gaussian, Inc.
  
 This software contains proprietary and confidential information,
 including trade secrets, belonging to Gaussian, Inc.
  
 This software is provided under written license and may be
 used, copied, transmitted, or stored only in accord with that
 written license.
  
 The following legend is applicable only to US Government
 contracts under FAR:
  
                    RESTRICTED RIGHTS LEGEND
  
 Use, reproduction and disclosure by the US Government is
 subject to restrictions as set forth in subparagraphs (a)
 and (c) of the Commercial Computer Software - Restricted
 Rights clause in FAR 52.227-19.
  
 Gaussian, Inc.
 340 Quinnipiac St., Bldg. 40, Wallingford CT 06492
  
  
 ---------------------------------------------------------------
 Warning -- This program may not be used in any manner that
 competes with the business of Gaussian, Inc. or will provide
 assistance to any competitor of Gaussian, Inc.  The licensee
 of this program is prohibited from giving any competitor of
 Gaussian, Inc. access to this program.  By using this program,
 the user acknowledges that Gaussian, Inc. is engaged in the
 business of creating and licensing software in the field of
 computational chemistry and represents and warrants to the
 licensee that it is not a competitor of Gaussian, Inc. and that
 it will not use this program in any manner prohibited above.
 ---------------------------------------------------------------
  

 Cite this work as:
 Gaussian 16, Revision B.01,
 M. J. Frisch, G. W. Trucks, H. B. Schlegel, G. E. Scuseria, 
 M. A. Robb, J. R. Cheeseman, G. Scalmani, V. Barone, 
 G. A. Petersson, H. Nakatsuji, X. Li, M. Caricato, A. V. Marenich, 
 J. Bloino, B. G. Janesko, R. Gomperts, B. Mennucci, H. P. Hratchian, 
 J. V. Ortiz, A. F. Izmaylov, J. L. Sonnenberg, D. Williams-Young, 
 F. Ding, F. Lipparini, F. Egidi, J. Goings, B. Peng, A. Petrone, 
 T. Henderson, D. Ranasinghe, V. G. Zakrzewski, J. Gao, N. Rega, 
 G. Zheng, W. Liang, M. Hada, M. Ehara, K. Toyota, R. Fukuda, 
 J. Hasegawa, M. Ishida, T. Nakajima, Y. Honda, O. Kitao, H. Nakai, 
 T. Vreven, K. Throssell, J. A. Montgomery, Jr., J. E. Peralta, 
 F. Ogliaro, M. J. Bearpark, J. J. Heyd, E. N. Brothers, K. N. Kudin, 
 V. N. Staroverov, T. A. Keith, R. Kobayashi, J. Normand, 
 K. Raghavachari, A. P. Rendell, J. C. Burant, S. S. Iyengar, 
 J. Tomasi, M. Cossi, J. M. Millam, M. Klene, C. Adamo, R. Cammi, 
 J. W. Ochterski, R. L. Martin, K. Morokuma, O. Farkas, 
 J. B. Foresman, and D. J. Fox, Gaussian, Inc., Wallingford CT, 2016.
 
 ******************************************
 Gaussian 16:  EM64L-G16RevB.01 20-Dec-2017
                 9-Jun-2025 
 ******************************************
 %chk=meth_cyclobutadiene_isomer.chk
 -------------------------------------
 # opt freq hf/3-21g geom=connectivity
 -------------------------------------
 1/18=20,19=15,38=1,57=2/1,3;
 2/9=110,12=2,17=6,18=5,40=1/2;
 3/5=5,11=9,25=1,30=1,71=1/1,2,3;
 4//1;
 5/5=2,38=5/2;
 6/7=2,8=2,9=2,10=2,28=1/1;
 7//1,2,3,16;
 1/18=20,19=15/3(2);
 2/9=110/2;
 99//99;
 2/9=110/2;
 3/5=5,11=9,25=1,30=1,71=1/1,2,3;
 4/5=5,16=3,69=1/1;
 5/5=2,38=5/2;
 7//1,2,3,16;
 1/18=20,19=15/3(-5);
 2/9=110/2;
 6/7=2,8=2,9=2,10=2,19=2,28=1/1;
 99/9=1/99;
 ------------
 Optimisation
 ------------
 Symbolic Z-matrix:
 Charge =  0 Multiplicity = 1
 C                     0.84534  -0.59355   1.22944 
 C                     2.35945  -0.59355   1.22944 
 C                     1.47337   2.91289   1.22944 
 C                     3.01386   0.48917   2.06748 
 C                     2.98749   2.9129    1.22952 
 C                     3.67874   1.56578   1.22984 
 H                     0.48438  -1.16003   2.13095 
 H                     1.11238   2.84748   2.29126 
 H                     3.32683   3.49294   2.13081 
 H                     2.69763  -1.59645   1.60942 
 H                     3.79701   0.01056   2.71549 
 C                     0.15409   0.75357   1.22909 
 H                     0.04703   1.10456   2.29087 
 C                     0.81897   1.83016   0.39142 
 H                     1.56979   1.37155  -0.30273 
 C                     5.11187   1.78075   1.75094 
 H                     5.68341   0.88867   1.60116 
 H                     5.56728   2.58966   1.21881 
 H                     5.08066   2.01328   2.7949 
 

 GradGradGradGradGradGradGradGradGradGradGradGradGradGradGradGradGradGrad
 Berny optimization.
 Initialization pass.
                           ----------------------------
                           !    Initial Parameters    !
                           ! (Angstroms and Degrees)  !
 --------------------------                            --------------------------
 ! Name  Definition              Value          Derivative Info.                !
 --------------------------------------------------------------------------------
 ! R1    R(1,2)                  1.5141         estimate D2E/DX2                !
 ! R2    R(1,7)                  1.1242         estimate D2E/DX2                !
 ! R3    R(1,12)                 1.5141         estimate D2E/DX2                !
 ! R4    R(2,4)                  1.5175         estimate D2E/DX2                !
 ! R5    R(2,10)                 1.1245         estimate D2E/DX2                !
 ! R6    R(3,5)                  1.5141         estimate D2E/DX2                !
 ! R7    R(3,8)                  1.1234         estimate D2E/DX2                !
 ! R8    R(3,14)                 1.5175         estimate D2E/DX2                !
 ! R9    R(4,6)                  1.5175         estimate D2E/DX2                !
 ! R10   R(4,11)                 1.1235         estimate D2E/DX2                !
 ! R11   R(5,6)                  1.5141         estimate D2E/DX2                !
 ! R12   R(5,9)                  1.1242         estimate D2E/DX2                !
 ! R13   R(6,16)                 1.54           estimate D2E/DX2                !
 ! R14   R(12,13)                1.1234         estimate D2E/DX2                !
 ! R15   R(12,14)                1.5175         estimate D2E/DX2                !
 ! R16   R(14,15)                1.1207         estimate D2E/DX2                !
 ! R17   R(16,17)                1.07           estimate D2E/DX2                !
 ! R18   R(16,18)                1.07           estimate D2E/DX2                !
 ! R19   R(16,19)                1.07           estimate D2E/DX2                !
 ! A1    A(2,1,7)              108.7276         estimate D2E/DX2                !
 ! A2    A(2,1,12)             117.1639         estimate D2E/DX2                !
 ! A3    A(7,1,12)             107.5725         estimate D2E/DX2                !
 ! A4    A(1,2,4)              115.5459         estimate D2E/DX2                !
 ! A5    A(1,2,10)             107.5013         estimate D2E/DX2                !
 ! A6    A(4,2,10)             108.6641         estimate D2E/DX2                !
 ! A7    A(5,3,8)              108.7405         estimate D2E/DX2                !
 ! A8    A(5,3,14)             115.5481         estimate D2E/DX2                !
 ! A9    A(8,3,14)             109.9892         estimate D2E/DX2                !
 ! A10   A(2,4,6)              112.973          estimate D2E/DX2                !
 ! A11   A(2,4,11)             108.3709         estimate D2E/DX2                !
 ! A12   A(6,4,11)             108.3717         estimate D2E/DX2                !
 ! A13   A(3,5,6)              117.1638         estimate D2E/DX2                !
 ! A14   A(3,5,9)              107.5707         estimate D2E/DX2                !
 ! A15   A(6,5,9)              108.7274         estimate D2E/DX2                !
 ! A16   A(4,6,5)              115.5498         estimate D2E/DX2                !
 ! A17   A(4,6,16)             108.6629         estimate D2E/DX2                !
 ! A18   A(5,6,16)             107.5014         estimate D2E/DX2                !
 ! A19   A(1,12,13)            108.739          estimate D2E/DX2                !
 ! A20   A(1,12,14)            115.55           estimate D2E/DX2                !
 ! A21   A(13,12,14)           109.9882         estimate D2E/DX2                !
 ! A22   A(3,14,12)            112.9727         estimate D2E/DX2                !
 ! A23   A(3,14,15)            110.1893         estimate D2E/DX2                !
 ! A24   A(12,14,15)           110.1897         estimate D2E/DX2                !
 ! A25   A(6,16,17)            109.4712         estimate D2E/DX2                !
 ! A26   A(6,16,18)            109.4712         estimate D2E/DX2                !
 ! A27   A(6,16,19)            109.4712         estimate D2E/DX2                !
 ! A28   A(17,16,18)           109.4713         estimate D2E/DX2                !
 ! A29   A(17,16,19)           109.4712         estimate D2E/DX2                !
 ! A30   A(18,16,19)           109.4712         estimate D2E/DX2                !
 ! D1    D(7,1,2,4)            -84.4036         estimate D2E/DX2                !
 ! D2    D(7,1,2,10)            37.1047         estimate D2E/DX2                !
 ! D3    D(12,1,2,4)            37.7555         estimate D2E/DX2                !
 ! D4    D(12,1,2,10)          159.2639         estimate D2E/DX2                !
 ! D5    D(2,1,12,13)          -86.5044         estimate D2E/DX2                !
 ! D6    D(2,1,12,14)           37.7077         estimate D2E/DX2                !
 ! D7    D(7,1,12,13)           36.2501         estimate D2E/DX2                !
 ! D8    D(7,1,12,14)          160.4623         estimate D2E/DX2                !
 ! D9    D(1,2,4,6)           -108.9559         estimate D2E/DX2                !
 ! D10   D(1,2,4,11)           130.9452         estimate D2E/DX2                !
 ! D11   D(10,2,4,6)           130.1628         estimate D2E/DX2                !
 ! D12   D(10,2,4,11)           10.0639         estimate D2E/DX2                !
 ! D13   D(8,3,5,6)             86.4629         estimate D2E/DX2                !
 ! D14   D(8,3,5,9)            -36.2898         estimate D2E/DX2                !
 ! D15   D(14,3,5,6)           -37.7504         estimate D2E/DX2                !
 ! D16   D(14,3,5,9)          -160.503          estimate D2E/DX2                !
 ! D17   D(5,3,14,12)          108.953          estimate D2E/DX2                !
 ! D18   D(5,3,14,15)          -14.777          estimate D2E/DX2                !
 ! D19   D(8,3,14,12)          -14.6068         estimate D2E/DX2                !
 ! D20   D(8,3,14,15)         -138.3368         estimate D2E/DX2                !
 ! D21   D(2,4,6,5)            108.9291         estimate D2E/DX2                !
 ! D22   D(2,4,6,16)          -130.1878         estimate D2E/DX2                !
 ! D23   D(11,4,6,5)          -130.9724         estimate D2E/DX2                !
 ! D24   D(11,4,6,16)          -10.0893         estimate D2E/DX2                !
 ! D25   D(3,5,6,4)            -37.7111         estimate D2E/DX2                !
 ! D26   D(3,5,6,16)          -159.2205         estimate D2E/DX2                !
 ! D27   D(9,5,6,4)             84.4454         estimate D2E/DX2                !
 ! D28   D(9,5,6,16)           -37.064          estimate D2E/DX2                !
 ! D29   D(4,6,16,17)           64.3357         estimate D2E/DX2                !
 ! D30   D(4,6,16,18)         -175.6643         estimate D2E/DX2                !
 ! D31   D(4,6,16,19)          -55.6643         estimate D2E/DX2                !
 ! D32   D(5,6,16,17)         -169.9437         estimate D2E/DX2                !
 ! D33   D(5,6,16,18)          -49.9437         estimate D2E/DX2                !
 ! D34   D(5,6,16,19)           70.0563         estimate D2E/DX2                !
 ! D35   D(1,12,14,3)         -108.929          estimate D2E/DX2                !
 ! D36   D(1,12,14,15)          14.8008         estimate D2E/DX2                !
 ! D37   D(13,12,14,3)          14.6294         estimate D2E/DX2                !
 ! D38   D(13,12,14,15)        138.3592         estimate D2E/DX2                !
 --------------------------------------------------------------------------------
 Trust Radius=3.00D-01 FncErr=1.00D-07 GrdErr=1.00D-07 EigMax=2.50D+02 EigMin=1.00D-04
 Number of steps in this run=     97 maximum allowed number of steps=    114.
 GradGradGradGradGradGradGradGradGradGradGradGradGradGradGradGradGradGrad

                          Input orientation:                          
 ---------------------------------------------------------------------
 Center     Atomic      Atomic             Coordinates (Angstroms)
 Number     Number       Type             X           Y           Z
 ---------------------------------------------------------------------
      1          6           0        0.845338   -0.593547    1.229438
      2          6           0        2.359455   -0.593547    1.229438
      3          6           0        1.473374    2.912893    1.229438
      4          6           0        3.013857    0.489171    2.067483
      5          6           0        2.987489    2.912898    1.229522
      6          6           0        3.678745    1.565775    1.229843
      7          1           0        0.484379   -1.160031    2.130946
      8          1           0        1.112382    2.847480    2.291257
      9          1           0        3.326827    3.492942    2.130810
     10          1           0        2.697632   -1.596448    1.609425
     11          1           0        3.797010    0.010556    2.715489
     12          6           0        0.154086    0.753573    1.229086
     13          1           0        0.047032    1.104560    2.290871
     14          6           0        0.818970    1.830162    0.391416
     15          1           0        1.569787    1.371549   -0.302725
     16          6           0        5.111870    1.780750    1.750937
     17          1           0        5.683410    0.888669    1.601162
     18          1           0        5.567279    2.589665    1.218809
     19          1           0        5.080663    2.013283    2.794898
 ---------------------------------------------------------------------
                    Distance matrix (angstroms):
                    1          2          3          4          5
     1  C    0.000000
     2  C    1.514117   0.000000
     3  C    3.562240   3.616664   0.000000
     4  C    2.564580   1.517511   2.991628   0.000000
     5  C    4.109011   3.562244   1.514115   2.564630   0.000000
     6  C    3.562424   2.530454   2.584258   1.517496   1.514125
     7  H    1.124238   2.156277   4.287136   3.020290   4.864861
     8  H    3.611016   3.810947   1.123412   3.037648   2.155826
     9  H    4.865147   4.295075   2.141078   3.020695   1.124243
    10  H    2.140372   1.124528   4.688001   2.158616   4.534594
    11  H    3.359413   2.154032   4.003897   1.123527   3.359615
    12  C    1.514121   2.584257   2.530451   2.991840   3.562423
    13  H    2.155806   3.059004   2.535973   3.038200   3.611487
    14  C    2.564633   2.991612   1.517508   3.070014   2.564608
    15  H    2.594986   2.613944   2.175445   2.912356   2.594883
    16  C    4.910452   3.672198   3.846084   2.483956   2.463052
    17  H    5.073666   3.658390   4.686157   2.739264   3.391697
    18  H    5.694706   4.519191   4.106659   3.413544   2.599983
    19  H    5.213847   4.080588   4.033918   2.669033   2.764251
                    6          7          8          9         10
     6  C    0.000000
     7  H    4.294878   0.000000
     8  H    3.058690   4.059585   0.000000
     9  H    2.156284   5.452492   2.312170   0.000000
    10  H    3.332615   2.315369   4.767222   5.154573   0.000000
    11  H    2.154028   3.561669   3.928783   3.562293   2.239302
    12  C    3.617028   2.141104   2.535939   4.287602   3.483803
    13  H    3.811540   2.311973   2.042729   4.060424   3.845191
    14  C    2.991851   3.475510   2.174953   3.475583   4.093235
    15  H    2.614229   3.675563   3.019327   3.675539   3.706394
    16  C    1.540000   5.496023   4.174418   2.502455   4.153798
    17  H    2.148263   5.613178   5.020704   3.551936   3.884681
    18  H    2.148263   6.381856   4.589414   2.582108   5.090284
    19  H    2.148263   5.624641   4.086171   2.388795   4.484901
                   11         12         13         14         15
    11  H    0.000000
    12  C    4.004043   0.000000
    13  H    3.929310   1.123405   0.000000
    14  C    4.192971   1.517500   2.174929   0.000000
    15  H    3.990293   2.175442   3.019405   1.120662   0.000000
    16  C    2.406825   5.089896   5.138224   4.503302   4.114769
    17  H    2.360363   5.543475   5.682523   5.100262   4.558492
    18  H    3.467810   5.716117   5.816182   4.879330   4.447338
    19  H    2.380123   5.320695   5.139773   4.896150   4.725816
                   16         17         18         19
    16  C    0.000000
    17  H    1.070000   0.000000
    18  H    1.070000   1.747303   0.000000
    19  H    1.070000   1.747303   1.747303   0.000000
 Stoichiometry    C9H10
 Framework group  C1[X(C9H10)]
 Deg. of freedom    51
 Full point group                 C1      NOp   1
 Largest Abelian subgroup         C1      NOp   1
 Largest concise Abelian subgroup C1      NOp   1
                         Standard orientation:                         
 ---------------------------------------------------------------------
 Center     Atomic      Atomic             Coordinates (Angstroms)
 Number     Number       Type             X           Y           Z
 ---------------------------------------------------------------------
      1          6           0       -2.109938   -1.087935   -0.078843
      2          6           0       -0.722284   -1.630129   -0.349015
      3          6           0       -0.198551    1.903690    0.214979
      4          6           0        0.392365   -1.017141    0.478415
      5          6           0        1.189113    1.361486   -0.055110
      6          6           0        1.309475   -0.121843   -0.334077
      7          1           0       -2.546363   -1.635243    0.800872
      8          1           0       -0.424524    1.788131    1.309344
      9          1           0        1.831247    1.615176    0.832148
     10          1           0       -0.747970   -2.737348   -0.154156
     11          1           0        1.006982   -1.849418    0.916450
     12          6           0       -2.230302    0.395396    0.200092
     13          1           0       -2.064920    0.570880    1.297313
     14          6           0       -1.313205    1.290687   -0.612430
     15          1           0       -0.884656    0.721955   -1.477748
     16          6           0        2.768492   -0.528537   -0.055742
     17          1           0        2.934143   -1.525453   -0.407335
     18          1           0        3.428984    0.143040   -0.563320
     19          1           0        2.956082   -0.485770    0.996817
 ---------------------------------------------------------------------
 Rotational constants (GHZ):           2.6187477           1.4942623           1.0307357
 Standard basis: 3-21G (6D, 7F)
 There are   101 symmetry adapted cartesian basis functions of A   symmetry.
 There are   101 symmetry adapted basis functions of A   symmetry.
   101 basis functions,   165 primitive gaussians,   101 cartesian basis functions
    32 alpha electrons       32 beta electrons
       nuclear repulsion energy       394.0419571787 Hartrees.
 NAtoms=   19 NActive=   19 NUniq=   19 SFac= 1.00D+00 NAtFMM=   60 NAOKFM=F Big=F
 Integral buffers will be    131072 words long.
 Raffenetti 1 integral format.
 Two-electron integral symmetry is turned on.
 One-electron integrals computed using PRISM.
 NBasis=   101 RedAO= T EigKep=  9.32D-03  NBF=   101
 NBsUse=   101 1.00D-06 EigRej= -1.00D+00 NBFU=   101
 ExpMin= 1.83D-01 ExpMax= 1.72D+02 ExpMxC= 1.72D+02 IAcc=3 IRadAn=         5 AccDes= 0.00D+00
 Harris functional with IExCor=  205 and IRadAn=       5 diagonalized for initial guess.
 HarFok:  IExCor=  205 AccDes= 0.00D+00 IRadAn=         5 IDoV= 1 UseB2=F ITyADJ=14
 ICtDFT=  3500011 ScaDFX=  1.000000  1.000000  1.000000  1.000000
 FoFCou: FMM=F IPFlag=           0 FMFlag=      100000 FMFlg1=           0
         NFxFlg=           0 DoJE=T BraDBF=F KetDBF=T FulRan=T
         wScrn=  0.000000 ICntrl=       500 IOpCl=  0 I1Cent=   200000004 NGrid=           0
         NMat0=    1 NMatS0=      1 NMatT0=    0 NMatD0=    1 NMtDS0=    0 NMtDT0=    0
 Petite list used in FoFCou.
 Keep R1 ints in memory in canonical form, NReq=14123825.
 Requested convergence on RMS density matrix=1.00D-08 within 128 cycles.
 Requested convergence on MAX density matrix=1.00D-06.
 Requested convergence on             energy=1.00D-06.
 No special actions if energy rises.
 SCF Done:  E(RHF) =  -344.159850361     A.U. after   25 cycles
            NFock= 25  Conv=0.42D-08     -V/T= 2.0057

 **********************************************************************

            Population analysis using the SCF Density.

 **********************************************************************

 Orbital symmetries:
       Occupied  (A) (A) (A) (A) (A) (A) (A) (A) (A) (A) (A) (A)
                 (A) (A) (A) (A) (A) (A) (A) (A) (A) (A) (A) (A)
                 (A) (A) (A) (A) (A) (A) (A) (A)
       Virtual   (A) (A) (A) (A) (A) (A) (A) (A) (A) (A) (A) (A)
                 (A) (A) (A) (A) (A) (A) (A) (A) (A) (A) (A) (A)
                 (A) (A) (A) (A) (A) (A) (A) (A) (A) (A) (A) (A)
                 (A) (A) (A) (A) (A) (A) (A) (A) (A) (A) (A) (A)
                 (A) (A) (A) (A) (A) (A) (A) (A) (A) (A) (A) (A)
                 (A) (A) (A) (A) (A) (A) (A) (A) (A)
 The electronic state is 1-A.
 Alpha  occ. eigenvalues --  -11.26933 -11.25987 -11.25103 -11.25045 -11.20087
 Alpha  occ. eigenvalues --  -11.18525 -11.18158 -11.17262 -11.17173  -1.12487
 Alpha  occ. eigenvalues --   -1.07060  -1.03940  -0.96606  -0.89430  -0.86345
 Alpha  occ. eigenvalues --   -0.77106  -0.72276  -0.68100  -0.62864  -0.61552
 Alpha  occ. eigenvalues --   -0.60140  -0.58851  -0.54421  -0.53212  -0.51809
 Alpha  occ. eigenvalues --   -0.50524  -0.49378  -0.46589  -0.41811  -0.34933
 Alpha  occ. eigenvalues --   -0.32169  -0.22567
 Alpha virt. eigenvalues --   -0.00076   0.07866   0.08225   0.11229   0.24694
 Alpha virt. eigenvalues --    0.25976   0.28136   0.30252   0.32148   0.33890
 Alpha virt. eigenvalues --    0.34423   0.35617   0.36485   0.39399   0.40818
 Alpha virt. eigenvalues --    0.44289   0.46014   0.47108   0.49487   0.52023
 Alpha virt. eigenvalues --    0.53454   0.55653   0.56920   0.92172   0.92619
 Alpha virt. eigenvalues --    0.94152   0.95827   0.96677   0.97676   0.99465
 Alpha virt. eigenvalues --    1.00104   1.01054   1.01797   1.02496   1.03537
 Alpha virt. eigenvalues --    1.05376   1.06297   1.07696   1.09042   1.09854
 Alpha virt. eigenvalues --    1.11456   1.14375   1.18488   1.20770   1.22117
 Alpha virt. eigenvalues --    1.24089   1.27752   1.29342   1.29751   1.33071
 Alpha virt. eigenvalues --    1.33758   1.34970   1.35487   1.36182   1.37672
 Alpha virt. eigenvalues --    1.40404   1.45141   1.46618   1.48188   1.51489
 Alpha virt. eigenvalues --    1.72957   1.90301   1.95433   2.14782   2.23468
 Alpha virt. eigenvalues --    2.26943   2.35256   2.43427   2.63454
          Condensed to atoms (all electrons):
               1          2          3          4          5          6
     1  C    5.599491   0.335120  -0.000986  -0.171135   0.003040   0.007781
     2  C    0.335120   5.450635   0.003281   0.292150   0.007592  -0.078970
     3  C   -0.000986   0.003281   5.323129  -0.015316   0.384083  -0.076417
     4  C   -0.171135   0.292150  -0.015316   5.779185  -0.162466   0.284456
     5  C    0.003040   0.007592   0.384083  -0.162466   5.615673   0.306122
     6  C    0.007781  -0.078970  -0.076417   0.284456   0.306122   5.613037
     7  H    0.378193  -0.045304   0.000023   0.004975  -0.000012  -0.000076
     8  H   -0.001389  -0.000192   0.347863   0.007310  -0.064879   0.004549
     9  H   -0.000000  -0.000087  -0.059307   0.004688   0.388430  -0.049486
    10  H   -0.054369   0.365512  -0.000024  -0.053371  -0.000210   0.003673
    11  H    0.006204  -0.056434   0.000072   0.378139   0.006140  -0.061584
    12  C    0.361315  -0.081237  -0.067182  -0.013283  -0.002443   0.003784
    13  H   -0.063918   0.004139  -0.000696   0.007399  -0.001283  -0.000219
    14  C   -0.088010  -0.010260   0.351265   0.009623  -0.086463  -0.011366
    15  H   -0.002871   0.003347  -0.054847   0.001881  -0.002040   0.003451
    16  C   -0.000202   0.004267   0.004884  -0.096398  -0.101631   0.228373
    17  H    0.000003   0.000160  -0.000067  -0.001847   0.004372  -0.044459
    18  H    0.000002  -0.000144  -0.000015   0.004200  -0.000343  -0.043589
    19  H    0.000001   0.000076  -0.000211   0.001894  -0.002597  -0.038171
               7          8          9         10         11         12
     1  C    0.378193  -0.001389  -0.000000  -0.054369   0.006204   0.361315
     2  C   -0.045304  -0.000192  -0.000087   0.365512  -0.056434  -0.081237
     3  C    0.000023   0.347863  -0.059307  -0.000024   0.000072  -0.067182
     4  C    0.004975   0.007310   0.004688  -0.053371   0.378139  -0.013283
     5  C   -0.000012  -0.064879   0.388430  -0.000210   0.006140  -0.002443
     6  C   -0.000076   0.004549  -0.049486   0.003673  -0.061584   0.003784
     7  H    0.487597   0.000026   0.000000  -0.002173  -0.000254  -0.058344
     8  H    0.000026   0.489812   0.001916   0.000009  -0.000032  -0.000145
     9  H    0.000000   0.001916   0.488867   0.000001  -0.000240   0.000047
    10  H   -0.002173   0.000009   0.000001   0.509151  -0.006356   0.004296
    11  H   -0.000254  -0.000032  -0.000240  -0.006356   0.567255   0.000025
    12  C   -0.058344  -0.000145   0.000047   0.004296   0.000025   5.337140
    13  H    0.002083   0.009186   0.000014  -0.000107  -0.000042   0.349004
    14  C    0.003889  -0.045233   0.003713   0.000396  -0.000065   0.365017
    15  H    0.000173   0.003810   0.000149   0.000077   0.000014  -0.053759
    16  C    0.000002  -0.000150  -0.005549  -0.000082  -0.010003  -0.000006
    17  H   -0.000000   0.000001   0.000277  -0.000019   0.001506  -0.000001
    18  H   -0.000000  -0.000002   0.000948   0.000002   0.000452   0.000001
    19  H    0.000000   0.000053  -0.000937   0.000001  -0.000231   0.000004
              13         14         15         16         17         18
     1  C   -0.063918  -0.088010  -0.002871  -0.000202   0.000003   0.000002
     2  C    0.004139  -0.010260   0.003347   0.004267   0.000160  -0.000144
     3  C   -0.000696   0.351265  -0.054847   0.004884  -0.000067  -0.000015
     4  C    0.007399   0.009623   0.001881  -0.096398  -0.001847   0.004200
     5  C   -0.001283  -0.086463  -0.002040  -0.101631   0.004372  -0.000343
     6  C   -0.000219  -0.011366   0.003451   0.228373  -0.044459  -0.043589
     7  H    0.002083   0.003889   0.000173   0.000002  -0.000000  -0.000000
     8  H    0.009186  -0.045233   0.003810  -0.000150   0.000001  -0.000002
     9  H    0.000014   0.003713   0.000149  -0.005549   0.000277   0.000948
    10  H   -0.000107   0.000396   0.000077  -0.000082  -0.000019   0.000002
    11  H   -0.000042  -0.000065   0.000014  -0.010003   0.001506   0.000452
    12  C    0.349004   0.365017  -0.053759  -0.000006  -0.000001   0.000001
    13  H    0.487724  -0.044692   0.003744   0.000007  -0.000000  -0.000000
    14  C   -0.044692   5.458458   0.380347   0.000407  -0.000004  -0.000002
    15  H    0.003744   0.380347   0.491907   0.000050  -0.000002  -0.000001
    16  C    0.000007   0.000407   0.000050   5.483645   0.373425   0.372197
    17  H   -0.000000  -0.000004  -0.000002   0.373425   0.481384  -0.022432
    18  H   -0.000000  -0.000002  -0.000001   0.372197  -0.022432   0.469549
    19  H   -0.000000   0.000008   0.000003   0.368839  -0.020009  -0.019084
              19
     1  C    0.000001
     2  C    0.000076
     3  C   -0.000211
     4  C    0.001894
     5  C   -0.002597
     6  C   -0.038171
     7  H    0.000000
     8  H    0.000053
     9  H   -0.000937
    10  H    0.000001
    11  H   -0.000231
    12  C    0.000004
    13  H   -0.000000
    14  C    0.000008
    15  H    0.000003
    16  C    0.368839
    17  H   -0.020009
    18  H   -0.019084
    19  H    0.461977
 Mulliken charges:
               1
     1  C   -0.308270
     2  C   -0.193651
     3  C   -0.139532
     4  C   -0.262084
     5  C   -0.291085
     6  C   -0.050888
     7  H    0.229202
     8  H    0.247486
     9  H    0.226554
    10  H    0.233592
    11  H    0.175433
    12  C   -0.144233
    13  H    0.247659
    14  C   -0.287029
    15  H    0.224565
    16  C   -0.622074
    17  H    0.227712
    18  H    0.238261
    19  H    0.248383
 Sum of Mulliken charges =  -0.00000
 Mulliken charges with hydrogens summed into heavy atoms:
               1
     1  C   -0.079068
     2  C    0.039941
     3  C    0.107954
     4  C   -0.086651
     5  C   -0.064531
     6  C   -0.050888
    12  C    0.103426
    14  C   -0.062464
    16  C    0.092282
 Electronic spatial extent (au):  <R**2>=           1179.9633
 Charge=             -0.0000 electrons
 Dipole moment (field-independent basis, Debye):
    X=              1.9009    Y=             -1.8190    Z=              2.2691  Tot=              3.4744
 Quadrupole moment (field-independent basis, Debye-Ang):
   XX=            -58.8813   YY=            -58.2070   ZZ=            -56.8525
   XY=             -2.1471   XZ=             -3.1459   YZ=              3.2762
 Traceless Quadrupole moment (field-independent basis, Debye-Ang):
   XX=             -0.9010   YY=             -0.2267   ZZ=              1.1278
   XY=             -2.1471   XZ=             -3.1459   YZ=              3.2762
 Octapole moment (field-independent basis, Debye-Ang**2):
  XXX=             31.6722  YYY=            -23.0189  ZZZ=              6.8894  XYY=              3.7316
  XXY=             -3.7530  XXZ=             16.2587  XZZ=              3.3346  YZZ=             -0.2915
  YYZ=             10.7377  XYZ=              3.3356
 Hexadecapole moment (field-independent basis, Debye-Ang**3):
 XXXX=          -1035.7666 YYYY=           -577.7429 ZZZZ=           -128.4655 XXXY=            -18.2084
 XXXZ=            -25.5775 YYYX=             -1.0494 YYYZ=             11.1375 ZZZX=             -6.0195
 ZZZY=              7.4697 XXYY=           -285.4394 XXZZ=           -186.0995 YYZZ=           -120.4031
 XXYZ=             -1.3452 YYXZ=             -6.5237 ZZXY=             -0.4626
 N-N= 3.940419571787D+02 E-N=-1.586834327990D+03  KE= 3.421996050282D+02
 Calling FoFJK, ICntrl=      2127 FMM=F ISym2X=0 I1Cent= 0 IOpClX= 0 NMat=1 NMatS=1 NMatT=0.
 ***** Axes restored to original set *****
 -------------------------------------------------------------------
 Center     Atomic                   Forces (Hartrees/Bohr)
 Number     Number              X              Y              Z
 -------------------------------------------------------------------
      1        6          -0.003455982    0.053000653    0.002780979
      2        6          -0.099279762   -0.011671679    0.108712928
      3        6           0.051140109   -0.125472301    0.001846973
      4        6           0.053384039   -0.036105023   -0.086430535
      5        6          -0.070904379   -0.013138545   -0.002501368
      6        6          -0.036312578    0.083782797    0.115058922
      7        1           0.008820880   -0.013070918   -0.039699611
      8        1          -0.008085876    0.041133881   -0.025037846
      9        1           0.011449048   -0.005099928   -0.038763803
     10        1          -0.005597340    0.017687164   -0.022421164
     11        1          -0.008479910    0.004114056   -0.022441638
     12        6           0.137641257    0.024464188   -0.002166607
     13        1          -0.038564580   -0.011532223   -0.024971143
     14        6           0.028190338   -0.024898402    0.063151237
     15        1          -0.032378814    0.019328987   -0.004995011
     16        6          -0.000349352   -0.001919510   -0.030592889
     17        1           0.007434911   -0.006790317    0.000698311
     18        1           0.007490191    0.006318596   -0.001565002
     19        1          -0.002142199   -0.000131475    0.009337264
 -------------------------------------------------------------------
 Cartesian Forces:  Max     0.137641257 RMS     0.045612847

 GradGradGradGradGradGradGradGradGradGradGradGradGradGradGradGradGradGrad
 Berny optimization.
 FormGI is forming the generalized inverse of G from B-inverse, IUseBI=4.
 Internal  Forces:  Max     0.073597640 RMS     0.026364310
 Search for a local minimum.
 Step number   1 out of a maximum of   97
 All quantities printed in internal units (Hartrees-Bohrs-Radians)
 Mixed Optimization -- RFO/linear search
 Second derivative matrix not updated -- first step.
 ITU=  0
     Eigenvalues ---    0.00237   0.00567   0.00579   0.01039   0.01159
     Eigenvalues ---    0.01595   0.02380   0.02487   0.03074   0.03108
     Eigenvalues ---    0.03145   0.03672   0.05115   0.05608   0.07243
     Eigenvalues ---    0.07243   0.09132   0.09218   0.09295   0.12393
     Eigenvalues ---    0.12518   0.12730   0.12815   0.14362   0.15972
     Eigenvalues ---    0.16000   0.16000   0.16000   0.19362   0.20738
     Eigenvalues ---    0.23243   0.23433   0.28519   0.29122   0.29467
     Eigenvalues ---    0.30378   0.30608   0.30609   0.30858   0.30940
     Eigenvalues ---    0.30940   0.31109   0.31137   0.31138   0.31209
     Eigenvalues ---    0.31220   0.31221   0.31497   0.37230   0.37230
     Eigenvalues ---    0.37230
 RFO step:  Lambda=-1.80046969D-01 EMin= 2.36824221D-03
 Linear search not attempted -- first point.
 Maximum step size (   0.300) exceeded in Quadratic search.
    -- Step size scaled by   0.597
 Iteration  1 RMS(Cart)=  0.06318588 RMS(Int)=  0.00333086
 Iteration  2 RMS(Cart)=  0.00437957 RMS(Int)=  0.00131650
 Iteration  3 RMS(Cart)=  0.00000963 RMS(Int)=  0.00131648
 Iteration  4 RMS(Cart)=  0.00000002 RMS(Int)=  0.00131648
 Variable       Old X    -DE/DX   Delta X   Delta X   Delta X     New X
                                 (Linear)    (Quad)   (Total)
    R1        2.86127  -0.06979   0.00000  -0.08048  -0.08108   2.78018
    R2        2.12450  -0.02808   0.00000  -0.03413  -0.03413   2.09037
    R3        2.86127  -0.06931   0.00000  -0.08871  -0.08824   2.77304
    R4        2.86768  -0.01536   0.00000  -0.01149  -0.01228   2.85540
    R5        2.12505  -0.02503   0.00000  -0.03045  -0.03045   2.09460
    R6        2.86126  -0.07352   0.00000  -0.09441  -0.09378   2.76749
    R7        2.12294  -0.02346   0.00000  -0.02847  -0.02847   2.09447
    R8        2.86768  -0.06507   0.00000  -0.08734  -0.08659   2.78109
    R9        2.86765  -0.01278   0.00000  -0.00891  -0.00982   2.85783
   R10        2.12316  -0.02061   0.00000  -0.02501  -0.02501   2.09815
   R11        2.86128  -0.05122   0.00000  -0.05840  -0.05882   2.80246
   R12        2.12451  -0.03025   0.00000  -0.03677  -0.03677   2.08774
   R13        2.91018   0.00373   0.00000   0.00479   0.00479   2.91497
   R14        2.12293  -0.02353   0.00000  -0.02855  -0.02855   2.09438
   R15        2.86766  -0.07360   0.00000  -0.09723  -0.09631   2.77134
   R16        2.11774  -0.02651   0.00000  -0.03199  -0.03199   2.08576
   R17        2.02201   0.00953   0.00000   0.01031   0.01031   2.03232
   R18        2.02201   0.00874   0.00000   0.00945   0.00945   2.03146
   R19        2.02201   0.00914   0.00000   0.00989   0.00989   2.03190
    A1        1.89766   0.01172   0.00000   0.01925   0.02061   1.91826
    A2        2.04490  -0.03854   0.00000  -0.04950  -0.05032   1.99458
    A3        1.87749   0.02551   0.00000   0.05258   0.05290   1.93039
    A4        2.01666   0.05292   0.00000   0.10115   0.09689   2.11355
    A5        1.87625  -0.00225   0.00000   0.01064   0.00678   1.88303
    A6        1.89655   0.00753   0.00000   0.02674   0.02319   1.91973
    A7        1.89788   0.01208   0.00000   0.03701   0.03452   1.93240
    A8        2.01669   0.01333   0.00000   0.01061   0.01115   2.02784
    A9        1.91967   0.01328   0.00000   0.04765   0.04483   1.96451
   A10        1.97175   0.03163   0.00000   0.07054   0.06609   2.03784
   A11        1.89143  -0.00019   0.00000  -0.00220  -0.00187   1.88956
   A12        1.89144  -0.00287   0.00000  -0.00327  -0.00253   1.88891
   A13        2.04489  -0.02108   0.00000  -0.02745  -0.02804   2.01685
   A14        1.87746   0.02120   0.00000   0.04527   0.04483   1.92230
   A15        1.89765   0.00905   0.00000   0.01729   0.01804   1.91569
   A16        2.01672   0.01318   0.00000   0.04447   0.04112   2.05784
   A17        1.89653   0.01264   0.00000   0.03208   0.03073   1.92726
   A18        1.87625   0.01389   0.00000   0.03034   0.02841   1.90466
   A19        1.89785   0.00664   0.00000   0.03086   0.02883   1.92668
   A20        2.01673   0.01749   0.00000   0.01177   0.01156   2.02829
   A21        1.91966   0.01382   0.00000   0.04891   0.04654   1.96619
   A22        1.97175   0.01981   0.00000   0.02880   0.02695   1.99869
   A23        1.92317   0.00330   0.00000   0.01571   0.01532   1.93849
   A24        1.92317   0.00625   0.00000   0.01825   0.01777   1.94094
   A25        1.91063   0.00396   0.00000   0.00692   0.00688   1.91751
   A26        1.91063   0.00735   0.00000   0.01351   0.01349   1.92412
   A27        1.91063  -0.00537   0.00000  -0.01000  -0.00998   1.90065
   A28        1.91063  -0.00335   0.00000  -0.00475  -0.00483   1.90581
   A29        1.91063  -0.00174   0.00000  -0.00424  -0.00423   1.90640
   A30        1.91063  -0.00086   0.00000  -0.00144  -0.00141   1.90922
    D1       -1.47312  -0.04279   0.00000  -0.11365  -0.11491  -1.58803
    D2        0.64760   0.00031   0.00000  -0.00404  -0.00337   0.64423
    D3        0.65896  -0.02696   0.00000  -0.06341  -0.06486   0.59410
    D4        2.77968   0.01614   0.00000   0.04620   0.04668   2.82636
    D5       -1.50979  -0.02476   0.00000  -0.06752  -0.06809  -1.57788
    D6        0.65812   0.01185   0.00000   0.03115   0.03063   0.68875
    D7        0.63268  -0.01568   0.00000  -0.03415  -0.03486   0.59782
    D8        2.80059   0.02094   0.00000   0.06452   0.06386   2.86445
    D9       -1.90164   0.04044   0.00000   0.10885   0.11147  -1.79017
   D10        2.28542   0.02425   0.00000   0.07004   0.07195   2.35737
   D11        2.27177   0.00171   0.00000   0.00600   0.00545   2.27722
   D12        0.17565  -0.01449   0.00000  -0.03281  -0.03407   0.14158
   D13        1.50906   0.03067   0.00000   0.07961   0.08033   1.58939
   D14       -0.63338   0.01629   0.00000   0.03920   0.03993  -0.59345
   D15       -0.65887  -0.00657   0.00000  -0.02150  -0.02102  -0.67988
   D16       -2.80131  -0.02094   0.00000  -0.06192  -0.06142  -2.86273
   D17        1.90159   0.03122   0.00000   0.06667   0.06740   1.96899
   D18       -0.25791   0.00619   0.00000   0.01008   0.01039  -0.24752
   D19       -0.25494  -0.00585   0.00000  -0.02977  -0.02994  -0.28488
   D20       -2.41443  -0.03087   0.00000  -0.08636  -0.08695  -2.50138
   D21        1.90117  -0.04518   0.00000  -0.11296  -0.11415   1.78702
   D22       -2.27221  -0.00858   0.00000  -0.01896  -0.01851  -2.29072
   D23       -2.28590  -0.02745   0.00000  -0.07354  -0.07429  -2.36019
   D24       -0.17609   0.00915   0.00000   0.02046   0.02135  -0.15474
   D25       -0.65818   0.01536   0.00000   0.04239   0.04446  -0.61372
   D26       -2.77892  -0.02017   0.00000  -0.05140  -0.05116  -2.83008
   D27        1.47385   0.03587   0.00000   0.09721   0.09867   1.57252
   D28       -0.64689   0.00034   0.00000   0.00343   0.00306  -0.64383
   D29        1.12287  -0.01798   0.00000  -0.05010  -0.05011   1.07276
   D30       -3.06592  -0.01515   0.00000  -0.04341  -0.04334  -3.10926
   D31       -0.97152  -0.01498   0.00000  -0.04302  -0.04300  -1.01453
   D32       -2.96608   0.01514   0.00000   0.04434   0.04428  -2.92180
   D33       -0.87168   0.01797   0.00000   0.05103   0.05105  -0.82063
   D34        1.22271   0.01813   0.00000   0.05142   0.05139   1.27410
   D35       -1.90117  -0.02422   0.00000  -0.05516  -0.05618  -1.95735
   D36        0.25832  -0.00081   0.00000   0.00003  -0.00043   0.25790
   D37        0.25533   0.00913   0.00000   0.03493   0.03493   0.29026
   D38        2.41482   0.03253   0.00000   0.09012   0.09068   2.50550
         Item               Value     Threshold  Converged?
 Maximum Force            0.073598     0.000450     NO 
 RMS     Force            0.026364     0.000300     NO 
 Maximum Displacement     0.168202     0.001800     NO 
 RMS     Displacement     0.062169     0.001200     NO 
 Predicted change in Energy=-9.548494D-02
 GradGradGradGradGradGradGradGradGradGradGradGradGradGradGradGradGradGrad

                          Input orientation:                          
 ---------------------------------------------------------------------
 Center     Atomic      Atomic             Coordinates (Angstroms)
 Number     Number       Type             X           Y           Z
 ---------------------------------------------------------------------
      1          6           0        0.818380   -0.584497    1.223759
      2          6           0        2.287784   -0.577230    1.296293
      3          6           0        1.507017    2.851780    1.252116
      4          6           0        3.025126    0.481687    2.082540
      5          6           0        2.970341    2.910177    1.254865
      6          6           0        3.662881    1.599231    1.287927
      7          1           0        0.403915   -1.202907    2.041937
      8          1           0        1.111533    2.879987    2.287117
      9          1           0        3.324295    3.540777    2.090094
     10          1           0        2.617870   -1.585698    1.616643
     11          1           0        3.818032   -0.016712    2.678900
     12          6           0        0.207571    0.749766    1.224673
     13          1           0       -0.010928    1.073719    2.261801
     14          6           0        0.901321    1.780306    0.445304
     15          1           0        1.642062    1.332115   -0.239282
     16          6           0        5.124337    1.810703    1.733848
     17          1           0        5.694472    0.916845    1.553374
     18          1           0        5.564809    2.626701    1.190006
     19          1           0        5.138762    2.033606    2.785623
 ---------------------------------------------------------------------
                    Distance matrix (angstroms):
                    1          2          3          4          5
     1  C    0.000000
     2  C    1.471210   0.000000
     3  C    3.504715   3.517053   0.000000
     4  C    2.596917   1.511014   2.934553   0.000000
     5  C    4.104223   3.553816   1.464491   2.566245   0.000000
     6  C    3.586638   2.574480   2.493574   1.512299   1.482998
     7  H    1.106177   2.120475   4.275644   3.116127   4.911566
     8  H    3.635839   3.783867   1.108346   3.074986   2.126411
     9  H    4.903879   4.320007   2.116465   3.073694   1.104784
    10  H    2.096408   1.108417   4.588909   2.158008   4.524158
    11  H    3.381971   2.137157   3.950285   1.110291   3.363501
    12  C    1.467429   2.468467   2.471391   2.957434   3.507304
    13  H    2.124844   2.990303   2.546590   3.098428   3.643413
    14  C    2.491017   2.864339   1.471689   2.979514   2.492557
    15  H    2.548007   2.533880   2.133515   2.833187   2.546974
    16  C    4.953628   3.733592   3.794853   2.508896   2.465353
    17  H    5.112625   3.728790   4.622717   2.755864   3.388712
    18  H    5.730752   4.584252   4.064505   3.442048   2.610715
    19  H    5.287682   4.142782   4.026242   2.714818   2.795290
                    6          7          8          9         10
     6  C    0.000000
     7  H    4.363642   0.000000
     8  H    3.024582   4.151007   0.000000
     9  H    2.127842   5.570769   2.317710   0.000000
    10  H    3.368067   2.286701   4.760350   5.196532   0.000000
    11  H    2.137792   3.670010   3.983654   3.639533   2.242877
    12  C    3.558758   2.125889   2.546326   4.272313   3.378990
    13  H    3.836856   2.324534   2.126773   4.152056   3.794642
    14  C    2.892926   3.419972   2.155404   3.416928   3.955826
    15  H    2.547042   3.628127   3.009993   3.624098   3.593089
    16  C    1.542536   5.608845   4.189519   2.521947   4.222754
    17  H    2.159508   5.720317   5.039408   3.576426   3.966384
    18  H    2.163935   6.482785   4.593417   2.581782   5.158563
    19  H    2.147091   5.783326   4.145292   2.459190   4.562979
                   11         12         13         14         15
    11  H    0.000000
    12  C    3.967076   0.000000
    13  H    4.002992   1.108297   0.000000
    14  C    4.089674   1.466532   2.152004   0.000000
    15  H    3.882005   2.130741   3.009079   1.103735   0.000000
    16  C    2.437007   5.055633   5.214674   4.415329   4.030945
    17  H    2.378942   5.499276   5.751353   4.994765   4.450627
    18  H    3.500810   5.676626   5.886369   4.797822   4.371128
    19  H    2.441214   5.329301   5.264511   4.847388   4.676435
                   16         17         18         19
    16  C    0.000000
    17  H    1.075456   0.000000
    18  H    1.075003   1.752842   0.000000
    19  H    1.075233   1.753398   1.754785   0.000000
 Stoichiometry    C9H10
 Framework group  C1[X(C9H10)]
 Deg. of freedom    51
 Full point group                 C1      NOp   1
 Largest Abelian subgroup         C1      NOp   1
 Largest concise Abelian subgroup C1      NOp   1
                         Standard orientation:                         
 ---------------------------------------------------------------------
 Center     Atomic      Atomic             Coordinates (Angstroms)
 Number     Number       Type             X           Y           Z
 ---------------------------------------------------------------------
      1          6           0       -2.171638   -0.989170   -0.097833
      2          6           0       -0.831637   -1.566874   -0.285224
      3          6           0       -0.131966    1.844451    0.207707
      4          6           0        0.360587   -1.035975    0.476293
      5          6           0        1.215600    1.327728   -0.040883
      6          6           0        1.306276   -0.132556   -0.283019
      7          1           0       -2.707373   -1.532378    0.703130
      8          1           0       -0.359740    1.839900    1.292386
      9          1           0        1.890524    1.611807    0.786357
     10          1           0       -0.911451   -2.663800   -0.147488
     11          1           0        0.940665   -1.900789    0.861461
     12          6           0       -2.174933    0.454378    0.165808
     13          1           0       -2.120750    0.647984    1.255717
     14          6           0       -1.212664    1.254662   -0.598587
     15          1           0       -0.805440    0.683044   -1.450440
     16          6           0        2.765760   -0.588888   -0.080317
     17          1           0        2.892949   -1.586593   -0.461124
     18          1           0        3.437643    0.074101   -0.594759
     19          1           0        2.990668   -0.579807    0.971091
 ---------------------------------------------------------------------
 Rotational constants (GHZ):           2.7557753           1.4997645           1.0464979
 Standard basis: 3-21G (6D, 7F)
 There are   101 symmetry adapted cartesian basis functions of A   symmetry.
 There are   101 symmetry adapted basis functions of A   symmetry.
   101 basis functions,   165 primitive gaussians,   101 cartesian basis functions
    32 alpha electrons       32 beta electrons
       nuclear repulsion energy       399.1745052288 Hartrees.
 NAtoms=   19 NActive=   19 NUniq=   19 SFac= 1.00D+00 NAtFMM=   60 NAOKFM=F Big=F
 Integral buffers will be    131072 words long.
 Raffenetti 1 integral format.
 Two-electron integral symmetry is turned on.
 One-electron integrals computed using PRISM.
 NBasis=   101 RedAO= T EigKep=  8.79D-03  NBF=   101
 NBsUse=   101 1.00D-06 EigRej= -1.00D+00 NBFU=   101
 Initial guess from the checkpoint file:  "meth_cyclobutadiene_isomer.chk"
 B after Tr=     0.000000   -0.000000    0.000000
         Rot=    0.999860    0.001481    0.001194    0.016618 Ang=   1.92 deg.
 ExpMin= 1.83D-01 ExpMax= 1.72D+02 ExpMxC= 1.72D+02 IAcc=3 IRadAn=         5 AccDes= 0.00D+00
 Harris functional with IExCor=  205 and IRadAn=       5 diagonalized for initial guess.
 HarFok:  IExCor=  205 AccDes= 0.00D+00 IRadAn=         5 IDoV= 1 UseB2=F ITyADJ=14
 ICtDFT=  3500011 ScaDFX=  1.000000  1.000000  1.000000  1.000000
 FoFCou: FMM=F IPFlag=           0 FMFlag=      100000 FMFlg1=           0
         NFxFlg=           0 DoJE=T BraDBF=F KetDBF=T FulRan=T
         wScrn=  0.000000 ICntrl=       500 IOpCl=  0 I1Cent=   200000004 NGrid=           0
         NMat0=    1 NMatS0=      1 NMatT0=    0 NMatD0=    1 NMtDS0=    0 NMtDT0=    0
 Petite list used in FoFCou.
 Keep R1 ints in memory in canonical form, NReq=14123937.
 Requested convergence on RMS density matrix=1.00D-08 within 128 cycles.
 Requested convergence on MAX density matrix=1.00D-06.
 Requested convergence on             energy=1.00D-06.
 No special actions if energy rises.
 SCF Done:  E(RHF) =  -344.254734870     A.U. after   22 cycles
            NFock= 22  Conv=0.49D-08     -V/T= 2.0043
 Calling FoFJK, ICntrl=      2127 FMM=F ISym2X=0 I1Cent= 0 IOpClX= 0 NMat=1 NMatS=1 NMatT=0.
 ***** Axes restored to original set *****
 -------------------------------------------------------------------
 Center     Atomic                   Forces (Hartrees/Bohr)
 Number     Number              X              Y              Z
 -------------------------------------------------------------------
      1        6           0.023953893    0.033574656    0.005548402
      2        6          -0.091577819   -0.017851813    0.086381393
      3        6           0.051171206   -0.083874535    0.011674577
      4        6           0.051004864   -0.016839787   -0.088457913
      5        6          -0.072059679   -0.008023618   -0.007919662
      6        6          -0.018263319    0.044634341    0.102310937
      7        1           0.003691570   -0.016579467   -0.034853827
      8        1          -0.010686823    0.037573107   -0.021915081
      9        1           0.010675696   -0.003350506   -0.026860845
     10        1           0.000055681    0.012774189   -0.014978137
     11        1          -0.006612902    0.001819639   -0.017217349
     12        6           0.106350892    0.041596481    0.005674231
     13        1          -0.033408344   -0.004987023   -0.021623180
     14        6           0.007871299   -0.032689292    0.047378444
     15        1          -0.026008695    0.015008120   -0.010540901
     16        6          -0.003526066   -0.003054132   -0.020940624
     17        1           0.003997348   -0.003585474    0.000709800
     18        1           0.003601299    0.003928532   -0.000710253
     19        1          -0.000230099   -0.000073420    0.006339988
 -------------------------------------------------------------------
 Cartesian Forces:  Max     0.106350892 RMS     0.037749625

 GradGradGradGradGradGradGradGradGradGradGradGradGradGradGradGradGradGrad
 Berny optimization.
 Using GEDIIS/GDIIS optimizer.
 FormGI is forming the generalized inverse of G from B-inverse, IUseBI=4.
 Internal  Forces:  Max     0.063340291 RMS     0.019840413
 Search for a local minimum.
 Step number   2 out of a maximum of   97
 All quantities printed in internal units (Hartrees-Bohrs-Radians)
 Mixed Optimization -- RFO/linear search
 Update second derivatives using D2CorX and points    1    2
 DE= -9.49D-02 DEPred=-9.55D-02 R= 9.94D-01
 TightC=F SS=  1.41D+00  RLast= 4.69D-01 DXNew= 5.0454D-01 1.4065D+00
 Trust test= 9.94D-01 RLast= 4.69D-01 DXMaxT set to 5.05D-01
 ITU=  1  0
 Use linear search instead of GDIIS.
 Linear search step of   0.589 exceeds DXMaxT=   0.505 but not scaled.
 Quartic linear search produced a step of  2.00000.
 Iteration  1 RMS(Cart)=  0.11360863 RMS(Int)=  0.01270215
 Iteration  2 RMS(Cart)=  0.01378372 RMS(Int)=  0.00744700
 Iteration  3 RMS(Cart)=  0.00010175 RMS(Int)=  0.00744660
 Iteration  4 RMS(Cart)=  0.00000040 RMS(Int)=  0.00744660
 Variable       Old X    -DE/DX   Delta X   Delta X   Delta X     New X
                                 (Linear)    (Quad)   (Total)
    R1        2.78018  -0.06196  -0.16216   0.00000  -0.16602   2.61417
    R2        2.09037  -0.01789  -0.06826   0.00000  -0.06826   2.02211
    R3        2.77304  -0.02509  -0.17647   0.00000  -0.17324   2.59980
    R4        2.85540  -0.01183  -0.02456   0.00000  -0.02982   2.82558
    R5        2.09460  -0.01593  -0.06089   0.00000  -0.06089   2.03371
    R6        2.76749  -0.05912  -0.18755   0.00000  -0.18313   2.58436
    R7        2.09447  -0.01570  -0.05694   0.00000  -0.05694   2.03753
    R8        2.78109  -0.03788  -0.17317   0.00000  -0.16833   2.61276
    R9        2.85783  -0.02607  -0.01964   0.00000  -0.02519   2.83264
   R10        2.09815  -0.01479  -0.05002   0.00000  -0.05002   2.04812
   R11        2.80246  -0.02280  -0.11764   0.00000  -0.11998   2.68248
   R12        2.08774  -0.01880  -0.07354   0.00000  -0.07354   2.01420
   R13        2.91497  -0.00096   0.00959   0.00000   0.00959   2.92456
   R14        2.09438  -0.01511  -0.05710   0.00000  -0.05710   2.03727
   R15        2.77134  -0.06334  -0.19263   0.00000  -0.18703   2.58432
   R16        2.08576  -0.01701  -0.06398   0.00000  -0.06398   2.02178
   R17        2.03232   0.00498   0.02062   0.00000   0.02062   2.05294
   R18        2.03146   0.00482   0.01891   0.00000   0.01891   2.05037
   R19        2.03190   0.00618   0.01978   0.00000   0.01978   2.05167
    A1        1.91826   0.01119   0.04122   0.00000   0.04849   1.96675
    A2        1.99458  -0.02328  -0.10063   0.00000  -0.10369   1.89089
    A3        1.93039   0.02082   0.10580   0.00000   0.10739   2.03778
    A4        2.11355   0.03226   0.19379   0.00000   0.16710   2.28065
    A5        1.88303   0.00134   0.01356   0.00000  -0.00716   1.87588
    A6        1.91973   0.00315   0.04637   0.00000   0.02683   1.94656
    A7        1.93240   0.01018   0.06903   0.00000   0.05263   1.98502
    A8        2.02784   0.00301   0.02229   0.00000   0.02502   2.05286
    A9        1.96451   0.01117   0.08966   0.00000   0.07280   2.03730
   A10        2.03784   0.02428   0.13218   0.00000   0.10508   2.14292
   A11        1.88956  -0.00062  -0.00374   0.00000  -0.00159   1.88796
   A12        1.88891  -0.00156  -0.00507   0.00000  -0.00058   1.88833
   A13        2.01685  -0.00743  -0.05609   0.00000  -0.05792   1.95892
   A14        1.92230   0.01245   0.08967   0.00000   0.08678   2.00908
   A15        1.91569   0.00636   0.03609   0.00000   0.03890   1.95459
   A16        2.05784   0.01021   0.08224   0.00000   0.06200   2.11985
   A17        1.92726   0.00737   0.06146   0.00000   0.05405   1.98131
   A18        1.90466   0.00931   0.05682   0.00000   0.04609   1.95075
   A19        1.92668   0.00841   0.05765   0.00000   0.04536   1.97204
   A20        2.02829   0.00966   0.02312   0.00000   0.02061   2.04890
   A21        1.96619   0.01040   0.09307   0.00000   0.07902   2.04521
   A22        1.99869   0.01084   0.05389   0.00000   0.04327   2.04196
   A23        1.93849   0.00567   0.03064   0.00000   0.02881   1.96730
   A24        1.94094   0.00311   0.03554   0.00000   0.03261   1.97355
   A25        1.91751   0.00239   0.01376   0.00000   0.01354   1.93105
   A26        1.92412   0.00339   0.02698   0.00000   0.02683   1.95095
   A27        1.90065  -0.00204  -0.01996   0.00000  -0.01984   1.88081
   A28        1.90581  -0.00143  -0.00965   0.00000  -0.01010   1.89570
   A29        1.90640  -0.00160  -0.00847   0.00000  -0.00841   1.89799
   A30        1.90922  -0.00077  -0.00282   0.00000  -0.00264   1.90658
    D1       -1.58803  -0.03905  -0.22982   0.00000  -0.23475  -1.82278
    D2        0.64423  -0.00474  -0.00675   0.00000  -0.00493   0.63930
    D3        0.59410  -0.01993  -0.12971   0.00000  -0.13502   0.45908
    D4        2.82636   0.01437   0.09336   0.00000   0.09480   2.92116
    D5       -1.57788  -0.02338  -0.13619   0.00000  -0.13956  -1.71744
    D6        0.68875   0.00815   0.06126   0.00000   0.05728   0.74603
    D7        0.59782  -0.00947  -0.06973   0.00000  -0.07293   0.52489
    D8        2.86445   0.02206   0.12772   0.00000   0.12390   2.98836
    D9       -1.79017   0.03518   0.22294   0.00000   0.23414  -1.55603
   D10        2.35737   0.02050   0.14390   0.00000   0.15268   2.51005
   D11        2.27722   0.00063   0.01089   0.00000   0.00853   2.28574
   D12        0.14158  -0.01405  -0.06815   0.00000  -0.07293   0.06864
   D13        1.58939   0.02808   0.16066   0.00000   0.16336   1.75275
   D14       -0.59345   0.01478   0.07985   0.00000   0.08301  -0.51044
   D15       -0.67988  -0.00048  -0.04203   0.00000  -0.04015  -0.72003
   D16       -2.86273  -0.01377  -0.12284   0.00000  -0.12050  -2.98323
   D17        1.96899   0.01870   0.13479   0.00000   0.13790   2.10689
   D18       -0.24752   0.00059   0.02078   0.00000   0.02189  -0.22563
   D19       -0.28488  -0.00979  -0.05989   0.00000  -0.06114  -0.34602
   D20       -2.50138  -0.02790  -0.17390   0.00000  -0.17716  -2.67854
   D21        1.78702  -0.03802  -0.22831   0.00000  -0.23276   1.55426
   D22       -2.29072  -0.00926  -0.03703   0.00000  -0.03366  -2.32438
   D23       -2.36019  -0.02286  -0.14858   0.00000  -0.15180  -2.51199
   D24       -0.15474   0.00589   0.04270   0.00000   0.04731  -0.10743
   D25       -0.61372   0.01482   0.08892   0.00000   0.09958  -0.51414
   D26       -2.83008  -0.01265  -0.10231   0.00000  -0.10005  -2.93013
   D27        1.57252   0.03124   0.19734   0.00000   0.20437   1.77690
   D28       -0.64383   0.00378   0.00611   0.00000   0.00474  -0.63910
   D29        1.07276  -0.01416  -0.10022   0.00000  -0.09983   0.97293
   D30       -3.10926  -0.01225  -0.08668   0.00000  -0.08584   3.08808
   D31       -1.01453  -0.01240  -0.08601   0.00000  -0.08547  -1.10000
   D32       -2.92180   0.01257   0.08856   0.00000   0.08777  -2.83403
   D33       -0.82063   0.01448   0.10210   0.00000   0.10176  -0.71887
   D34        1.27410   0.01433   0.10278   0.00000   0.10213   1.37623
   D35       -1.95735  -0.02170  -0.11235   0.00000  -0.11814  -2.07549
   D36        0.25790  -0.00225  -0.00086   0.00000  -0.00364   0.25425
   D37        0.29026   0.00956   0.06986   0.00000   0.06931   0.35957
   D38        2.50550   0.02901   0.18136   0.00000   0.18380   2.68931
         Item               Value     Threshold  Converged?
 Maximum Force            0.063340     0.000450     NO 
 RMS     Force            0.019840     0.000300     NO 
 Maximum Displacement     0.330519     0.001800     NO 
 RMS     Displacement     0.113921     0.001200     NO 
 Predicted change in Energy=-1.113523D-01
 GradGradGradGradGradGradGradGradGradGradGradGradGradGradGradGradGradGrad

                          Input orientation:                          
 ---------------------------------------------------------------------
 Center     Atomic      Atomic             Coordinates (Angstroms)
 Number     Number       Type             X           Y           Z
 ---------------------------------------------------------------------
      1          6           0        0.790035   -0.552606    1.221901
      2          6           0        2.159766   -0.527496    1.413951
      3          6           0        1.577050    2.725473    1.305554
      4          6           0        3.028740    0.474315    2.104586
      5          6           0        2.934640    2.890502    1.307098
      6          6           0        3.626005    1.654132    1.398741
      7          1           0        0.295524   -1.248506    1.867034
      8          1           0        1.115570    2.916617    2.261089
      9          1           0        3.302506    3.606235    2.006008
     10          1           0        2.475384   -1.534894    1.623066
     11          1           0        3.827328   -0.059746    2.606287
     12          6           0        0.326977    0.742788    1.236976
     13          1           0       -0.084841    1.031662    2.190503
     14          6           0        1.059196    1.680617    0.562770
     15          1           0        1.777639    1.251819   -0.104024
     16          6           0        5.129912    1.858536    1.701351
     17          1           0        5.693455    0.960050    1.466105
     18          1           0        5.545522    2.686048    1.135897
     19          1           0        5.229171    2.064809    2.762643
 ---------------------------------------------------------------------
                    Distance matrix (angstroms):
                    1          2          3          4          5
     1  C    0.000000
     2  C    1.383357   0.000000
     3  C    3.372268   3.306526   0.000000
     4  C    2.616391   1.495232   2.795276   0.000000
     5  C    4.057287   3.506360   1.367584   2.546135   0.000000
     6  C    3.597734   2.628610   2.314016   1.498970   1.419505
     7  H    1.070054   2.049522   4.213085   3.239601   4.940633
     8  H    3.636124   3.697284   1.078215   3.106373   2.054214
     9  H    4.921716   4.329448   2.059994   3.145407   1.065867
    10  H    1.991538   1.076194   4.365609   2.138921   4.460368
    11  H    3.374105   2.102670   3.809606   1.083821   3.344958
    12  C    1.375753   2.236975   2.344872   2.850325   3.378979
    13  H    2.052682   2.841173   2.532590   3.164239   3.654169
    14  C    2.343968   2.609890   1.382616   2.776953   2.352687
    15  H    2.447323   2.369859   2.049099   2.654755   2.452591
    16  C    4.987786   3.820670   3.678460   2.548253   2.457562
    17  H    5.137245   3.834380   4.481884   2.782858   3.370903
    18  H    5.754211   4.676273   3.972293   3.487738   2.624466
    19  H    5.378725   4.237955   3.987176   2.793673   2.839939
                    6          7          8          9         10
     6  C    0.000000
     7  H    4.442602   0.000000
     8  H    2.939353   4.263333   0.000000
     9  H    2.069814   5.712247   2.307234   0.000000
    10  H    3.397666   2.212087   4.698098   5.221300   0.000000
    11  H    2.106199   3.799117   4.041229   3.751691   2.229470
    12  C    3.426412   2.088831   2.529075   4.200537   3.154767
    13  H    3.845092   2.334197   2.235850   4.258707   3.669325
    14  C    2.699640   3.296068   2.101229   3.289890   3.670058
    15  H    2.415908   3.511889   2.967095   3.510090   3.351933
    16  C    1.547609   5.749128   4.189008   2.546896   4.309062
    17  H    2.181889   5.846035   5.041546   3.606997   4.074968
    18  H    2.195105   6.601346   4.576428   2.575841   5.242083
    19  H    2.144534   6.010079   4.230703   2.580800   4.673311
                   11         12         13         14         15
    11  H    0.000000
    12  C    3.843375   0.000000
    13  H    4.082783   1.078079   0.000000
    14  C    3.855824   1.367561   2.092720   0.000000
    15  H    3.642418   2.040053   2.963470   1.069880   0.000000
    16  C    2.489064   4.952649   5.302513   4.230692   3.855544
    17  H    2.412970   5.375759   5.823966   4.776148   4.228953
    18  H    3.557193   5.569533   5.962397   4.633195   4.217981
    19  H    2.550165   5.301595   5.443663   4.730300   4.559803
                   16         17         18         19
    16  C    0.000000
    17  H    1.086369   0.000000
    18  H    1.085010   1.763517   0.000000
    19  H    1.085698   1.765520   1.769835   0.000000
 Stoichiometry    C9H10
 Framework group  C1[X(C9H10)]
 Deg. of freedom    51
 Full point group                 C1      NOp   1
 Largest Abelian subgroup         C1      NOp   1
 Largest concise Abelian subgroup C1      NOp   1
                         Standard orientation:                         
 ---------------------------------------------------------------------
 Center     Atomic      Atomic             Coordinates (Angstroms)
 Number     Number       Type             X           Y           Z
 ---------------------------------------------------------------------
      1          6           0       -2.237490   -0.825260   -0.130532
      2          6           0       -0.994641   -1.431366   -0.170994
      3          6           0       -0.042060    1.714265    0.190546
      4          6           0        0.298973   -1.045802    0.472140
      5          6           0        1.234624    1.270797   -0.018502
      6          6           0        1.293475   -0.137576   -0.185889
      7          1           0       -2.927084   -1.339820    0.505631
      8          1           0       -0.268054    1.913951    1.225727
      9          1           0        1.955496    1.619579    0.684895
     10          1           0       -1.152477   -2.495277   -0.133912
     11          1           0        0.813047   -1.952972    0.767841
     12          6           0       -2.056781    0.517288    0.109480
     13          1           0       -2.194586    0.782117    1.145399
     14          6           0       -1.049712    1.147589   -0.567834
     15          1           0       -0.675501    0.575301   -1.390693
     16          6           0        2.747649   -0.663106   -0.120415
     17          1           0        2.814337   -1.659600   -0.547908
     18          1           0        3.435223   -0.012175   -0.650300
     19          1           0        3.035369   -0.712073    0.925319
 ---------------------------------------------------------------------
 Rotational constants (GHZ):           3.0934649           1.5279408           1.0930995
 Standard basis: 3-21G (6D, 7F)
 There are   101 symmetry adapted cartesian basis functions of A   symmetry.
 There are   101 symmetry adapted basis functions of A   symmetry.
   101 basis functions,   165 primitive gaussians,   101 cartesian basis functions
    32 alpha electrons       32 beta electrons
       nuclear repulsion energy       412.0865737095 Hartrees.
 NAtoms=   19 NActive=   19 NUniq=   19 SFac= 1.00D+00 NAtFMM=   60 NAOKFM=F Big=F
 Integral buffers will be    131072 words long.
 Raffenetti 1 integral format.
 Two-electron integral symmetry is turned on.
 One-electron integrals computed using PRISM.
 NBasis=   101 RedAO= T EigKep=  6.47D-03  NBF=   101
 NBsUse=   101 1.00D-06 EigRej= -1.00D+00 NBFU=   101
 Initial guess from the checkpoint file:  "meth_cyclobutadiene_isomer.chk"
 B after Tr=     0.000000   -0.000000   -0.000000
         Rot=    0.999700    0.004292    0.002451    0.023999 Ang=   2.81 deg.
 ExpMin= 1.83D-01 ExpMax= 1.72D+02 ExpMxC= 1.72D+02 IAcc=3 IRadAn=         5 AccDes= 0.00D+00
 Harris functional with IExCor=  205 and IRadAn=       5 diagonalized for initial guess.
 HarFok:  IExCor=  205 AccDes= 0.00D+00 IRadAn=         5 IDoV= 1 UseB2=F ITyADJ=14
 ICtDFT=  3500011 ScaDFX=  1.000000  1.000000  1.000000  1.000000
 FoFCou: FMM=F IPFlag=           0 FMFlag=      100000 FMFlg1=           0
         NFxFlg=           0 DoJE=T BraDBF=F KetDBF=T FulRan=T
         wScrn=  0.000000 ICntrl=       500 IOpCl=  0 I1Cent=   200000004 NGrid=           0
         NMat0=    1 NMatS0=      1 NMatT0=    0 NMatD0=    1 NMtDS0=    0 NMtDT0=    0
 Petite list used in FoFCou.
 Keep R1 ints in memory in canonical form, NReq=14124182.
 Requested convergence on RMS density matrix=1.00D-08 within 128 cycles.
 Requested convergence on MAX density matrix=1.00D-06.
 Requested convergence on             energy=1.00D-06.
 No special actions if energy rises.
 SCF Done:  E(RHF) =  -344.354673550     A.U. after   18 cycles
            NFock= 18  Conv=0.56D-08     -V/T= 2.0002
 Calling FoFJK, ICntrl=      2127 FMM=F ISym2X=0 I1Cent= 0 IOpClX= 0 NMat=1 NMatS=1 NMatT=0.
 ***** Axes restored to original set *****
 -------------------------------------------------------------------
 Center     Atomic                   Forces (Hartrees/Bohr)
 Number     Number              X              Y              Z
 -------------------------------------------------------------------
      1        6           0.020632430   -0.002227592   -0.004171821
      2        6          -0.011167199   -0.032687165    0.056772431
      3        6           0.001396984   -0.014068992    0.029410282
      4        6           0.033425212   -0.006928127   -0.081852330
      5        6          -0.016687521   -0.002895779   -0.018655008
      6        6           0.013837144    0.003540784    0.073474879
      7        1          -0.005513107   -0.021436873   -0.019738906
      8        1          -0.019021081    0.030042701   -0.010107159
      9        1           0.016038988    0.012354500   -0.008420553
     10        1           0.011536702   -0.003851612    0.002596741
     11        1           0.001756885   -0.003201000   -0.006894425
     12        6           0.010467154    0.046189216    0.029650982
     13        1          -0.030225932    0.006677820   -0.009187712
     14        6          -0.008402287   -0.011598245   -0.007105953
     15        1          -0.010478806    0.006998100   -0.023636029
     16        6          -0.004294940   -0.006913687   -0.005603975
     17        1          -0.001986929    0.001925043    0.001746236
     18        1          -0.003513337   -0.001113700    0.001749728
     19        1           0.002199639   -0.000805393   -0.000027409
 -------------------------------------------------------------------
 Cartesian Forces:  Max     0.081852330 RMS     0.022259398

 GradGradGradGradGradGradGradGradGradGradGradGradGradGradGradGradGradGrad
 Berny optimization.
 Using GEDIIS/GDIIS optimizer.
 FormGI is forming the generalized inverse of G from B-inverse, IUseBI=4.
 Internal  Forces:  Max     0.063508388 RMS     0.013801409
 Search for a local minimum.
 Step number   3 out of a maximum of   97
 All quantities printed in internal units (Hartrees-Bohrs-Radians)
 Mixed Optimization -- RFO/linear search
 Update second derivatives using D2CorX and points    2    3
 ITU=  0  1  0
 Use linear search instead of GDIIS.
     Eigenvalues ---    0.00237   0.00566   0.00576   0.00857   0.00886
     Eigenvalues ---    0.01142   0.01421   0.01504   0.02004   0.02089
     Eigenvalues ---    0.02637   0.02816   0.03513   0.04774   0.06901
     Eigenvalues ---    0.07331   0.09472   0.10252   0.11314   0.13299
     Eigenvalues ---    0.13703   0.13876   0.14348   0.14724   0.15998
     Eigenvalues ---    0.16000   0.16020   0.17713   0.21454   0.21754
     Eigenvalues ---    0.22860   0.23308   0.28161   0.28527   0.29433
     Eigenvalues ---    0.29655   0.30333   0.30639   0.30817   0.30969
     Eigenvalues ---    0.31044   0.31114   0.31137   0.31185   0.31214
     Eigenvalues ---    0.31221   0.31472   0.37182   0.37221   0.37230
     Eigenvalues ---    0.41181
 RFO step:  Lambda=-9.41237187D-02 EMin= 2.36826541D-03
 Quartic linear search produced a step of  0.19257.
 Iteration  1 RMS(Cart)=  0.10977077 RMS(Int)=  0.01259554
 Iteration  2 RMS(Cart)=  0.01064079 RMS(Int)=  0.00373212
 Iteration  3 RMS(Cart)=  0.00017976 RMS(Int)=  0.00372884
 Iteration  4 RMS(Cart)=  0.00000040 RMS(Int)=  0.00372884
 Variable       Old X    -DE/DX   Delta X   Delta X   Delta X     New X
                                 (Linear)    (Quad)   (Total)
    R1        2.61417   0.01680  -0.03197   0.06420   0.03110   2.64527
    R2        2.02211   0.00459  -0.01315   0.02142   0.00828   2.03039
    R3        2.59980   0.06351  -0.03336   0.17343   0.14232   2.74212
    R4        2.82558  -0.00810  -0.00574  -0.00731  -0.01559   2.80999
    R5        2.03371   0.00749  -0.01173   0.02692   0.01519   2.04891
    R6        2.58436   0.02500  -0.03526   0.07799   0.04421   2.62857
    R7        2.03753   0.00451  -0.01096   0.01920   0.00823   2.04577
    R8        2.61276   0.01809  -0.03241   0.06280   0.03285   2.64562
    R9        2.83264  -0.01977  -0.00485  -0.03867  -0.04665   2.78599
   R10        2.04812  -0.00032  -0.00963   0.00678  -0.00285   2.04527
   R11        2.68248   0.02946  -0.02311   0.09485   0.06982   2.75229
   R12        2.01420   0.00831  -0.01416   0.03094   0.01678   2.03097
   R13        2.92456  -0.00871   0.00185  -0.02390  -0.02205   2.90251
   R14        2.03727   0.00521  -0.01100   0.02101   0.01001   2.04729
   R15        2.58432   0.00426  -0.03602   0.02643  -0.00666   2.57766
   R16        2.02178   0.00489  -0.01232   0.02132   0.00900   2.03078
   R17        2.05294  -0.00300   0.00397  -0.00967  -0.00570   2.04724
   R18        2.05037  -0.00311   0.00364  -0.00951  -0.00587   2.04451
   R19        2.05167   0.00002   0.00381  -0.00313   0.00067   2.05235
    A1        1.96675   0.00214   0.00934   0.02636   0.02905   1.99581
    A2        1.89089   0.01617  -0.01997   0.08921   0.06312   1.95401
    A3        2.03778   0.00279   0.02068   0.03769   0.05188   2.08967
    A4        2.28065  -0.00120   0.03218   0.00211   0.02183   2.30248
    A5        1.87588   0.01491  -0.00138   0.07839   0.07094   1.94681
    A6        1.94656  -0.00290   0.00517   0.00155  -0.00047   1.94609
    A7        1.98502   0.01089   0.01013   0.05846   0.06294   2.04797
    A8        2.05286  -0.01512   0.00482  -0.04993  -0.04621   2.00665
    A9        2.03730   0.01006   0.01402   0.06000   0.06753   2.10484
   A10        2.14292   0.01868   0.02023   0.09959   0.10666   2.24957
   A11        1.88796  -0.00370  -0.00031  -0.00799  -0.00931   1.87866
   A12        1.88833  -0.00041  -0.00011   0.00386   0.00317   1.89150
   A13        1.95892   0.01406  -0.01115   0.07860   0.06098   2.01990
   A14        2.00908   0.00034   0.01671   0.02260   0.03548   2.04456
   A15        1.95459   0.00022   0.00749   0.00818   0.01313   1.96772
   A16        2.11985   0.01594   0.01194   0.08908   0.09111   2.21096
   A17        1.98131  -0.00657   0.01041  -0.01667  -0.01178   1.96953
   A18        1.95075   0.00279   0.00888   0.01836   0.02219   1.97294
   A19        1.97204   0.01398   0.00874   0.07563   0.07650   2.04854
   A20        2.04890  -0.01446   0.00397  -0.04283  -0.03963   2.00927
   A21        2.04521   0.00876   0.01522   0.05643   0.06347   2.10868
   A22        2.04196  -0.00522   0.00833   0.00276   0.00940   2.05137
   A23        1.96730   0.00516   0.00555   0.01762   0.02262   1.98992
   A24        1.97355   0.00140   0.00628   0.00044   0.00626   1.97981
   A25        1.93105  -0.00023   0.00261  -0.00260  -0.00003   1.93103
   A26        1.95095  -0.00351   0.00517  -0.01684  -0.01168   1.93927
   A27        1.88081   0.00343  -0.00382   0.01559   0.01180   1.89261
   A28        1.89570   0.00213  -0.00195   0.01004   0.00804   1.90374
   A29        1.89799  -0.00166  -0.00162  -0.00555  -0.00716   1.89082
   A30        1.90658  -0.00017  -0.00051  -0.00056  -0.00101   1.90557
    D1       -1.82278  -0.02970  -0.04521  -0.23115  -0.27990  -2.10267
    D2        0.63930  -0.01131  -0.00095  -0.08692  -0.08650   0.55280
    D3        0.45908  -0.01070  -0.02600  -0.08471  -0.11313   0.34595
    D4        2.92116   0.00769   0.01825   0.05952   0.08027   3.00142
    D5       -1.71744  -0.01945  -0.02687  -0.14122  -0.17094  -1.88838
    D6        0.74603  -0.00442   0.01103   0.00246   0.01220   0.75823
    D7        0.52489   0.00050  -0.01404   0.00745  -0.00616   0.51873
    D8        2.98836   0.01553   0.02386   0.15114   0.17698  -3.11785
    D9       -1.55603   0.02771   0.04509   0.20505   0.25149  -1.30454
   D10        2.51005   0.01546   0.02940   0.11840   0.14800   2.65806
   D11        2.28574   0.00360   0.00164   0.03433   0.03728   2.32302
   D12        0.06864  -0.00864  -0.01404  -0.05232  -0.06621   0.00243
   D13        1.75275   0.01966   0.03146   0.15202   0.18610   1.93886
   D14       -0.51044   0.00571   0.01598   0.04495   0.06113  -0.44931
   D15       -0.72003   0.00728  -0.00773   0.03206   0.02697  -0.69306
   D16       -2.98323  -0.00668  -0.02320  -0.07500  -0.09800  -3.08123
   D17        2.10689  -0.00578   0.02656  -0.05654  -0.02787   2.07902
   D18       -0.22563  -0.00808   0.00422  -0.07959  -0.07467  -0.30030
   D19       -0.34602  -0.01845  -0.01177  -0.17776  -0.18890  -0.53493
   D20       -2.67854  -0.02074  -0.03411  -0.20081  -0.23571  -2.91425
   D21        1.55426  -0.02305  -0.04482  -0.18526  -0.23387   1.32038
   D22       -2.32438  -0.00620  -0.00648  -0.05827  -0.06415  -2.38852
   D23       -2.51199  -0.01224  -0.02923  -0.10374  -0.13473  -2.64672
   D24       -0.10743   0.00462   0.00911   0.02326   0.03499  -0.07244
   D25       -0.51414   0.01172   0.01918   0.08275   0.10722  -0.40692
   D26       -2.93013  -0.00123  -0.01927  -0.02842  -0.05015  -2.98028
   D27        1.77690   0.02498   0.03936   0.19225   0.23681   2.01371
   D28       -0.63910   0.01203   0.00091   0.08108   0.07945  -0.55965
   D29        0.97293  -0.01038  -0.01922  -0.06923  -0.08599   0.88694
   D30        3.08808  -0.01022  -0.01653  -0.06972  -0.08372   3.00436
   D31       -1.10000  -0.01032  -0.01646  -0.07045  -0.08445  -1.18445
   D32       -2.83403   0.01097   0.01690   0.07758   0.09197  -2.74206
   D33       -0.71887   0.01113   0.01960   0.07708   0.09424  -0.62463
   D34        1.37623   0.01103   0.01967   0.07635   0.09351   1.46975
   D35       -2.07549  -0.00168  -0.02275  -0.00718  -0.03183  -2.10731
   D36        0.25425   0.00228  -0.00070   0.02359   0.02198   0.27623
   D37        0.35957   0.01546   0.01335   0.14772   0.16125   0.52082
   D38        2.68931   0.01943   0.03539   0.17848   0.21506   2.90437
         Item               Value     Threshold  Converged?
 Maximum Force            0.063508     0.000450     NO 
 RMS     Force            0.013801     0.000300     NO 
 Maximum Displacement     0.517813     0.001800     NO 
 RMS     Displacement     0.113811     0.001200     NO 
 Predicted change in Energy=-8.212527D-02
 GradGradGradGradGradGradGradGradGradGradGradGradGradGradGradGradGradGrad

                          Input orientation:                          
 ---------------------------------------------------------------------
 Center     Atomic      Atomic             Coordinates (Angstroms)
 Number     Number       Type             X           Y           Z
 ---------------------------------------------------------------------
[...]
 83327678,0.00079531,0.00232551,0.00912081,-0.01077948,-0.01548823,-0.0
 8009407,-0.00179285,-0.00106424,-0.00193042,0.05435135,0.05044389,0.18
 075030,0.00614200,-0.00214098,-0.00094103,-0.00842377,-0.00474090,0.00
 131377,-0.51146296,0.06185638,-0.17738723,0.01690075,0.01160955,0.0035
 0098,0.85677248,-0.00128807,0.00615048,0.00399965,0.00768153,0.0001413
 6,-0.00126426,0.04028727,-0.13888647,0.01684666,0.01116835,-0.02774643
 ,0.00075099,0.03167656,0.60077962,0.00306371,-0.00170129,0.00064377,-0
 .00327630,-0.00251230,-0.00558332,-0.16849989,0.02530078,-0.14465982,0
 .00286896,0.00151316,0.00718098,0.26147423,0.05012930,0.27318834,-0.00
 177883,-0.00228554,-0.00019295,0.00746604,-0.01858693,-0.00132244,-0.0
 1941941,0.02641049,-0.00820145,-0.14117176,-0.08152921,-0.01696727,-0.
 13039977,0.04850683,-0.00952394,0.48740803,0.01579222,-0.00446315,-0.0
 0128466,-0.02413483,-0.01848978,-0.00394635,0.02401019,0.00561429,0.00
 752996,-0.03256593,-0.47854951,-0.03541613,0.00799081,-0.16590729,-0.0
 0202445,0.03961154,0.82355871,0.00101489,-0.00166740,-0.00121049,-0.00
 183205,-0.00275028,0.00265464,-0.00989680,0.01139316,0.00544169,-0.011
 61538,-0.04413832,-0.08012326,-0.01018813,0.00150306,-0.08565858,0.060
 92592,0.04823154,0.22488405,-0.19850957,-0.14540058,0.00276267,-0.0190
 2670,-0.03176976,-0.00030158,-0.00062474,0.00058007,-0.00031950,-0.002
 03407,0.00272228,0.00205333,-0.00005385,0.00012457,-0.00000517,-0.0006
 4788,0.00020900,-0.00018706,0.20877526,-0.15640886,-0.24382280,-0.0043
 9824,0.00960644,0.00852292,-0.00092095,0.00102730,-0.00117678,0.001039
 37,0.00126823,0.00058600,-0.00099664,0.00002947,-0.00032739,-0.0000404
 5,0.00061517,-0.00033081,0.00021144,0.16391028,0.25384621,0.00757167,-
 0.00978963,-0.04895425,-0.00088499,0.00180108,0.01242031,0.00069054,0.
 00059933,0.00077473,-0.00012790,-0.00232898,0.01199153,-0.00043126,0.0
 0057702,-0.00046614,0.00003749,-0.00057563,-0.00069366,-0.00253919,0.0
 0442408,0.02865031,-0.00084217,-0.00081599,0.00003955,-0.00047649,-0.0
 0041874,-0.00000083,-0.10591200,0.10075868,-0.02465247,-0.00077940,0.0
 0057570,0.00039980,-0.00920414,0.03532817,-0.00813557,-0.00084979,-0.0
 0137374,-0.00656442,0.00009339,-0.00034696,-0.00053485,0.10883768,-0.0
 0129983,-0.00061628,0.00055911,-0.00012958,-0.00028359,-0.00007385,0.1
 1040030,-0.32270658,0.04038862,-0.00050356,0.00020909,0.00000522,-0.00
 351333,0.00002771,-0.00167117,-0.00035872,0.00114632,-0.00011410,0.000
 21241,-0.00052594,-0.00006454,-0.11508821,0.33996880,-0.00123622,0.000
 66995,0.00061782,0.00079679,0.00038270,-0.00023733,-0.03114021,0.03347
 730,-0.06202395,-0.00006724,-0.00055567,-0.00098437,-0.00559843,0.0131
 6310,0.01084673,-0.00493232,-0.00239956,0.01044273,0.00021420,-0.00026
 748,0.00100328,0.03263795,-0.04298643,0.04157191,0.00055234,0.00037027
 ,0.00011508,-0.00023114,-0.00056768,0.00014267,-0.01611089,-0.03256332
 ,-0.01151566,-0.00277678,0.00207228,-0.00087066,-0.14620283,-0.1248341
 6,-0.04400138,0.00725986,0.01935597,0.00336398,0.00004238,-0.00011789,
 -0.00009413,-0.00068819,0.00027743,0.00340948,0.16301998,-0.00020689,-
 0.00020628,-0.00018188,0.00002610,0.00031006,-0.00002174,0.00707513,0.
 00653184,0.00263102,0.00448785,-0.00104088,0.00047323,-0.12499242,-0.2
 6248237,-0.06370594,-0.01613410,-0.02702680,-0.00759892,-0.00005599,-0
 .00003161,0.00004019,-0.00042475,0.00145122,0.00044937,0.12971837,0.28
 194374,0.00114784,0.00077180,0.00091743,0.00037142,-0.00073448,-0.0000
 6139,-0.01162203,-0.01318820,0.00442847,-0.00145804,0.00009947,0.00135
 076,-0.04166275,-0.06116098,-0.07379086,0.00046878,0.00414682,0.004769
 48,-0.00004018,0.00000662,0.00004475,0.00379338,0.00030112,-0.00757050
 ,0.05652753,0.06810642,0.05920918,-0.01039309,0.04007128,0.00461419,-0
 .10016380,0.09002299,0.01076084,0.00075194,-0.00079144,-0.00012642,0.0
 0383444,-0.03169116,-0.00418604,-0.00005598,0.00066405,-0.00008093,-0.
 00323974,-0.00116405,-0.00060413,0.00080997,-0.00025815,-0.00051413,0.
 00003468,0.00008601,0.00008026,0.00013656,-0.00009713,0.00014995,0.114
 31513,-0.00219506,-0.00278981,-0.00102225,0.09189633,-0.32621405,-0.03
 383205,-0.00003010,-0.00003966,-0.00009434,0.00899641,-0.02233670,-0.0
 0231277,0.00012374,0.00020817,0.00002950,-0.00349216,0.00095853,-0.000
 83716,0.00055954,0.00127427,0.00102630,0.00000533,-0.00007490,0.000025
 88,-0.00003873,-0.00010613,-0.00002575,-0.09632135,0.34847229,0.002536
 57,-0.00346367,0.00905378,0.00941788,-0.03130912,-0.05843059,-0.001062
 18,0.00097192,0.00047133,-0.00007246,-0.00308998,0.00442508,-0.0004704
 1,-0.00053210,-0.00030452,-0.00013464,-0.00066490,0.00212099,-0.000968
 69,0.00084775,-0.00874272,0.00004562,0.00001662,0.00005775,-0.00003026
 ,-0.00002271,-0.00030103,-0.01140865,0.03830073,0.03850762,-0.00195715
 ,-0.00458552,-0.00097541,-0.03005964,0.01399925,-0.00330831,-0.0000352
 5,0.00021418,0.00004380,-0.27209696,0.13534251,-0.02085949,0.00053415,
 -0.00209394,-0.00156864,0.00135389,-0.00297593,-0.00138033,-0.00116476
 ,0.00020727,0.00055218,-0.00012239,0.00007435,0.00016196,0.00030203,-0
 .00000149,0.00010968,0.00084721,-0.00100825,0.00015676,0.30235826,-0.0
 0256742,-0.00241654,-0.00018393,-0.02714674,0.00673873,-0.00364112,-0.
 00026686,-0.00054427,-0.00008151,0.12978502,-0.14094124,0.00958161,-0.
 00279854,-0.00208309,-0.00221772,0.03314803,-0.03075495,0.00207794,-0.
 00067256,0.00002793,0.00048017,0.00018777,0.00001849,0.00023402,0.0008
 5609,-0.00147983,0.00028528,-0.00172647,0.00134825,-0.00031810,-0.1287
 4578,0.17284568,-0.00112637,-0.00093602,0.00165484,-0.00474622,0.00262
 571,0.00625115,-0.00015439,-0.00060032,-0.00121704,-0.02259436,0.00922
 885,-0.05178331,-0.00217646,-0.00100699,0.01256501,0.00090266,-0.00183
 757,0.00922277,-0.00029372,0.00013147,-0.00010901,0.00078506,0.0000314
 0,-0.00145972,-0.00000742,0.00007006,-0.00021999,-0.00003708,0.0001822
 3,-0.00079648,0.02728305,-0.00666462,0.03411415,-0.09239434,0.02031679
 ,0.00698711,-0.01985124,0.04717189,0.00971333,0.00514630,-0.01543481,0
 .00811231,-0.00267951,0.00449092,0.00006785,-0.00274023,-0.00303458,-0
 .00113141,0.00055437,-0.00262844,0.00014864,0.01281699,-0.01925226,-0.
 00552186,-0.00167803,-0.00078218,0.00071296,-0.00024708,-0.00016243,-0
 .00104861,-0.00586735,0.00103684,0.00133640,0.00008481,0.00052640,0.00
 080350,0.24683660,0.05115098,-0.24290996,-0.02676600,0.03166698,-0.021
 58156,-0.01347046,-0.02414259,-0.04388878,0.02414536,-0.00847753,-0.00
 996137,-0.00076366,0.00835234,-0.00895499,0.00663441,-0.00393173,0.011
 30684,0.00296038,0.00854296,-0.01404911,0.00488054,-0.00114979,-0.0020
 2972,-0.00268006,0.00092431,0.00057776,-0.00189998,0.00081724,-0.00002
 218,-0.00080336,-0.00037736,-0.00058073,-0.00099873,0.02786179,0.73201
 007,0.01051889,-0.02828414,-0.10306463,-0.00204024,-0.01077761,0.01058
 743,-0.00273889,0.00308010,0.00999170,0.00258005,0.00698505,-0.0087349
 4,-0.00747144,0.00093557,-0.00619989,0.00154435,-0.00603549,0.00209814
 ,-0.00024651,0.00293975,0.00589843,-0.00118027,-0.00256631,0.00052558,
 -0.00085452,-0.00056167,-0.00069983,0.00053017,-0.00073684,0.01456427,
 -0.00068459,0.00027922,0.00030376,-0.15377440,-0.12059335,0.80685083,-
 0.00145496,0.01077728,0.00418170,0.00337449,0.00306347,-0.00129176,-0.
 00863172,0.00406752,-0.00021823,0.00032196,-0.00119853,-0.00002229,0.0
 0079129,-0.00316409,0.00209901,-0.00062182,0.00179870,0.00019108,-0.00
 050607,-0.00001942,0.00180404,0.00144263,0.00111473,-0.00088728,0.0000
 3903,0.00015057,-0.00061982,0.00009669,0.00010572,-0.00061248,0.000129
 91,-0.00009347,-0.00018537,-0.05113111,-0.00211239,0.03960051,0.035486
 76,0.00588595,-0.00901380,-0.03242208,-0.00074786,-0.00304902,-0.00014
 866,-0.00018540,0.00117729,0.00208395,-0.00029648,0.00069181,-0.001292
 93,0.00055255,-0.00071926,0.00023828,0.00034138,0.00047615,-0.00003915
 ,0.00018532,-0.00165856,0.00051496,0.00009522,-0.00007149,0.00006720,-
 0.00007655,0.00002128,-0.00006467,0.00077017,-0.00029702,0.00242292,0.
 00000846,0.00002885,0.00004078,0.01458287,-0.09899762,-0.09782777,-0.0
 1627431,0.10386163,-0.00027604,0.00074720,0.00131340,-0.00053258,0.000
 16930,0.00006949,-0.00428257,-0.00036201,0.00120011,-0.00000263,-0.000
 05077,-0.00015589,0.00127263,-0.00128152,0.00143131,0.00009302,0.00058
 589,-0.00040781,0.00034281,-0.00081978,-0.00054759,0.00056594,0.000422
 89,-0.00024749,0.00010287,0.00001275,-0.00014344,0.00019446,0.00001181
 ,-0.00018194,0.00002797,0.00000850,0.00001548,0.04343486,-0.08649149,-
 0.32693360,-0.04795221,0.09510429,0.35147396,0.01060698,-0.00410574,0.
 00038475,-0.00857450,0.00323650,0.00229286,-0.11828606,-0.04929206,-0.
 01622754,0.00398423,0.00502276,0.00072824,-0.03160781,-0.03641458,-0.0
 2492556,-0.00207968,-0.00766709,0.00209905,-0.00062018,0.00110459,-0.0
 0151182,0.01079608,0.00937041,0.00773692,-0.00317871,0.00066852,-0.007
 14937,-0.00072926,0.00086146,0.00060744,-0.00044545,0.00023323,-0.0002
 4036,-0.09463764,-0.08847940,0.09688638,0.01012320,-0.00342936,0.00372
 267,0.27141786,-0.00234014,-0.04951352,0.02904117,-0.01082385,-0.00724
 287,0.00317534,-0.07963642,-0.21156902,-0.04592149,0.00533775,0.007767
 05,0.00417441,-0.01987662,-0.00026477,-0.01586631,0.00588343,-0.010144
 96,0.00105868,0.00163794,-0.00301583,-0.00154501,-0.01718587,-0.014767
 92,-0.00144218,0.00095885,0.00004668,0.00066676,0.00002717,0.00052967,
 -0.00219277,-0.00008189,0.00011280,0.00071145,-0.06978095,-0.31165198,
 0.22813933,0.00549723,0.00967866,-0.01044264,0.16787973,0.68987628,0.0
 0340118,0.00473362,0.00955777,0.00763032,-0.00024394,-0.00349376,-0.01
 778063,-0.03596167,-0.11104722,-0.00265339,-0.00366496,0.00194296,-0.0
 1413142,-0.02187949,0.00328846,0.00133463,0.00512499,-0.00875850,-0.00
 008170,-0.00236062,0.00037506,0.00290522,0.00633984,0.00918027,-0.0063
 3945,0.00003710,0.01211857,0.00062367,-0.00070495,-0.00018425,0.000079
 24,-0.00042224,0.00126174,0.08589766,0.22676707,-0.38347730,0.00151302
 ,0.02822527,-0.02553216,-0.09221523,-0.10634181,0.82576191,-0.00955165
 ,-0.00012154,-0.00275442,0.00271164,0.00260408,-0.00192134,-0.00179141
 ,-0.01156960,-0.01460813,-0.00102504,-0.00124630,-0.00019705,0.0009349
 9,-0.00418292,0.00175213,0.00054586,0.00069146,-0.00030330,0.00071476,
 -0.00144148,0.00125713,-0.00004406,-0.00012459,-0.00144207,-0.00049837
 ,-0.00008840,0.00119810,-0.00012255,-0.00014463,0.00055523,0.00008723,
 -0.00000328,-0.00010908,0.00565355,-0.00124130,0.01831212,0.01038548,-
 0.00159102,0.00315374,-0.04586941,0.01311414,0.02900189,0.03759888,0.0
 0280690,0.00124988,0.00309647,-0.00157243,-0.00136851,0.00061753,0.003
 62984,-0.00564475,-0.02999014,-0.00005188,0.00136609,0.00013158,-0.000
 87074,-0.00143650,-0.00059111,0.00073258,-0.00045962,-0.00124063,-0.00
 035492,0.00042315,-0.00032439,-0.00093947,-0.00161132,0.00088553,-0.00
 138681,0.00002889,0.00180142,0.00013807,0.00002466,-0.00023808,-0.0000
 5577,0.00011083,0.00029881,-0.00542275,0.01107009,0.02509988,-0.003593
 52,-0.00233159,0.00227479,0.00178046,-0.09957537,-0.09953614,0.0051352
 7,0.09797087,0.00010118,-0.00186592,0.00157014,-0.00106759,0.00019633,
 0.00026873,-0.00070662,-0.00307345,-0.00190957,-0.00027050,0.00023080,
 -0.00048792,0.00094767,-0.00128450,0.00096782,0.00010822,0.00004062,-0
 .00024265,-0.00006357,0.00002477,0.00008283,-0.00036594,-0.00066553,-0
 .00128928,-0.00021217,0.00003244,0.00006137,-0.00010352,-0.00003129,0.
 00005172,0.00007597,0.00003333,0.00001612,0.00438086,-0.01186762,-0.02
 262369,0.00212029,0.00282187,-0.00146819,0.02913051,-0.08249351,-0.331
 24639,-0.03419078,0.09777598,0.35611064,-0.00040166,-0.00004328,0.0001
 5684,0.00132230,0.00226044,-0.00284484,0.00075736,0.00157346,0.0006398
 5,-0.01373289,-0.01214304,-0.00509737,-0.03659482,0.00455822,-0.008463
 37,-0.16392255,-0.02097075,-0.01509326,0.00006723,-0.00004133,0.000359
 13,-0.00025029,0.00002349,-0.00022356,-0.00113673,-0.00160706,-0.00047
 549,0.00007049,0.00016098,0.00013697,-0.00051036,0.00249749,0.00243228
 ,-0.00010429,0.00042408,-0.00067851,0.00005205,-0.00006872,0.00003444,
 -0.00017276,-0.00037493,0.00021978,0.00000088,-0.00002706,-0.00001065,
 0.51927469,-0.00087697,-0.00142933,-0.00043663,0.00153199,-0.00028323,
 -0.00103965,0.00303156,-0.00560884,0.00057304,-0.04022450,-0.02286847,
 -0.00955596,0.03395791,0.00359486,0.00629678,-0.01323071,-0.09952202,-
 0.00499414,-0.00027875,0.00022291,0.00021259,0.00092752,-0.00021035,0.
 00106028,0.00404494,0.00009597,0.00048432,-0.00047738,-0.00078907,0.00
 009083,-0.00600765,-0.00296233,-0.00048518,0.00047062,0.00005130,-0.00
 020355,-0.00003847,0.00019248,0.00016214,-0.00107169,-0.00082089,-0.00
 021556,0.00018355,0.00017376,0.00010870,-0.05963753,0.65718602,0.00046
 969,-0.00101864,-0.00123114,-0.00236472,-0.00046804,0.01496907,0.00029
 081,-0.00058086,0.00116762,-0.00605404,-0.00357465,0.00832341,-0.00634
 783,0.00200183,0.00369013,-0.01417075,-0.00689965,-0.08894521,-0.00033
 665,0.00018150,-0.00190999,0.00026328,0.00005007,-0.00027194,0.0000795
 3,-0.00040708,0.00051989,0.00018557,0.00015723,-0.00038843,0.00070706,
 0.00128724,-0.01127520,-0.00015719,0.00098846,0.00106143,0.00029944,0.
 00024253,0.00008734,-0.00142913,-0.00064702,0.00039656,0.00028910,-0.0
 0002558,0.00010610,-0.02040446,-0.00832394,0.60150023,0.00017939,0.000
 16018,-0.00001043,0.00083128,-0.00034198,0.00029786,-0.00027890,0.0013
 4463,-0.00008507,-0.00000962,0.00329880,0.00027001,-0.00661168,-0.0021
 9881,-0.00163596,-0.02019626,0.02923025,-0.00107426,0.00007766,-0.0000
 4300,-0.00007063,-0.00032286,0.00005121,-0.00029674,-0.00002111,-0.000
 19985,0.00005922,-0.00002110,-0.00010240,-0.00003377,0.00057604,-0.002
 34945,-0.00034002,-0.00005962,0.00006278,-0.00008351,0.00004407,0.0000
 2499,-0.00000287,-0.00000700,0.00011544,0.00016853,0.00000171,-0.00004
 044,-0.00000093,-0.15798902,0.13212646,-0.00827481,0.17398324,-0.00006
 221,-0.00005310,-0.00002196,-0.00028812,0.00042192,-0.00005424,-0.0002
 4807,0.00048426,-0.00014360,-0.00297209,0.00014211,-0.00044456,-0.0009
 2627,-0.00063690,-0.00050169,-0.00877692,0.00622431,-0.00100006,-0.000
 00355,0.00002204,0.00001803,-0.00005841,0.00003166,-0.00001863,-0.0001
 6393,0.00079854,0.00012789,0.00003872,0.00004952,0.00000990,-0.0028168
 7,-0.00009773,-0.00060351,0.00004277,0.00007387,0.00001965,-0.00000661
 ,-0.00002614,-0.00000115,0.00005396,-0.00001132,0.00006673,0.00004996,
 0.00004783,0.00001505,0.14024825,-0.24629578,0.01231856,-0.14813359,0.
 27198155,0.00002798,0.00006182,0.00000260,0.00019888,-0.00004022,-0.00
 015989,-0.00002636,0.00030177,0.00022483,-0.00027754,0.00074444,-0.000
 28121,-0.00174658,-0.00061054,0.00167060,-0.00423814,0.00557450,-0.001
 92262,0.00002914,-0.00001334,0.00002470,0.00002932,0.00000545,-0.00019
 977,0.00003529,0.00010790,-0.00010836,-0.00000863,-0.00002695,0.000032
 47,-0.00033709,-0.00059181,0.00088329,-0.00001495,0.00003408,-0.000028
 92,0.00001212,-0.00000645,-0.00000367,0.00002075,-0.00000189,-0.000033
 69,-0.00001091,-0.00003430,0.00000118,-0.00774310,0.01115545,-0.060314
 42,0.01082409,-0.01149307,0.05727276,-0.00026181,-0.00046102,-0.000070
 84,0.00027040,0.00019006,-0.00230891,0.00041970,0.00011354,-0.00031785
 ,-0.00363474,0.00016108,-0.00101726,0.00058763,-0.00158822,-0.00034405
 ,-0.01524138,-0.02418657,0.02537246,-0.00005697,0.00005436,0.00033308,
 -0.00009984,0.00009741,0.00011524,-0.00020844,0.00095325,0.00058516,-0
 .00020910,-0.00024643,0.00005956,-0.00011254,-0.00053977,0.00141287,0.
 00020880,-0.00018898,-0.00031468,-0.00003436,0.00006164,0.00002974,-0.
 00013479,-0.00007941,0.00022561,0.00008232,0.00006540,0.00003304,-0.08
 914826,-0.05256515,0.06753226,0.00873549,0.01357139,-0.01802981,0.0984
 4519,-0.00000617,-0.00016430,0.00007955,-0.00030346,0.00013266,-0.0012
 5431,-0.00066923,0.00026059,-0.00051284,-0.00152351,-0.00054455,-0.000
 34923,0.00224609,-0.00072384,-0.00055939,-0.00485402,-0.00708772,0.005
 65623,-0.00004882,-0.00000070,0.00016621,-0.00005846,0.00003175,0.0000
 0134,0.00053308,0.00030251,-0.00000103,-0.00007233,-0.00011460,0.00003
 634,-0.00072090,0.00018164,0.00122098,0.00001625,-0.00020493,-0.000024
 91,-0.00000828,-0.00000408,-0.00003750,0.00006221,0.00036824,0.0000990
 1,-0.00001320,-0.00001668,-0.00001328,-0.05384497,-0.15914229,0.122515
 44,-0.01118986,-0.01831313,0.02326873,0.06290804,0.17231706,-0.0000340
 6,0.00006564,0.00007604,0.00011654,-0.00012839,-0.00112924,0.00023472,
 -0.00040866,0.00006374,-0.00099428,-0.00023455,-0.00032470,0.00009838,
 0.00036731,0.00058002,-0.00525255,-0.00669608,0.00894507,0.00002308,-0
 .00001981,0.00013894,0.00002684,-0.00000500,0.00009487,0.00026431,-0.0
 0052700,-0.00029213,-0.00001699,-0.00004936,0.00003328,-0.00004292,-0.
 00030694,0.00062930,-0.00000512,0.00000783,-0.00019929,-0.00001898,-0.
 00000235,0.00001049,-0.00000409,-0.00012045,-0.00006709,-0.00004909,-0
 .00003103,-0.00001005,0.06728092,0.12153837,-0.20002027,-0.00057591,0.
 00000027,-0.00042934,-0.07270189,-0.13579847,0.21823772,0.00009191,-0.
 00086272,-0.00042809,-0.00077071,-0.00017474,0.00281707,0.00041913,-0.
 00019316,0.00022827,-0.00346400,0.00042749,-0.00037711,0.00069454,-0.0
 0119617,0.00033413,-0.00501919,-0.02102281,-0.03437691,-0.00015287,0.0
 0010624,-0.00037451,0.00006518,0.00009225,-0.00004169,-0.00005192,0.00
 089073,-0.00033478,-0.00009515,-0.00016724,-0.00005889,0.00023096,-0.0
 0032367,-0.00160858,0.00008901,0.00029758,0.00009510,0.00009249,0.0001
 6116,0.00007377,-0.00058510,-0.00027158,0.00020107,0.00018518,0.000027
 28,0.00009453,-0.05758137,-0.00186574,-0.01057716,0.00108828,0.0104516
 2,0.02125555,0.00039270,0.00754756,0.01165110,0.06437094,-0.00015164,-
 0.00011013,0.00000689,-0.00043127,0.00008751,0.00109685,-0.00056608,0.
 00027668,0.00000647,-0.00139845,-0.00073163,-0.00020209,0.00146440,-0.
 00073288,0.00124962,-0.00206943,-0.00654854,-0.00871227,-0.00009942,0.
 00001412,-0.00011235,-0.00001801,0.00001304,-0.00006667,0.00063751,0.0
 0026540,0.00027716,-0.00003623,-0.00008124,-0.00006222,-0.00037466,0.0
 0044749,-0.00140880,-0.00001873,-0.00025700,0.00013309,-0.00006613,0.0
 0004042,-0.00001269,0.00018609,0.00019904,-0.00006225,-0.00001020,-0.0
 0002169,0.00001521,-0.00298773,-0.12158469,-0.11779739,-0.00181534,-0.
 01484353,-0.02843558,0.00167939,0.01272237,0.02234865,0.00607592,0.130
 84525,-0.00011745,-0.00019731,-0.00006734,0.00002762,0.00021651,0.,-0.
 00003760,0.00059590,0.00010846,-0.00070987,0.00030858,-0.00018574,-0.0
 0005470,-0.00125411,0.00060997,-0.00047861,-0.00345385,-0.00261677,-0.
 00004172,0.00003055,0.00001848,-0.00005761,0.00002659,-0.00005660,-0.0
 0011510,0.00106646,-0.00023236,-0.00005259,-0.00005994,0.00001166,-0.0
 0004090,0.00016065,-0.00005687,0.00005806,-0.00008342,0.00008053,-0.00
 001279,0.00004203,0.00002020,0.00009351,0.00004793,-0.00004293,0.00006
 672,0.00002941,0.00004110,-0.01022558,-0.11642787,-0.26746517,0.000865
 19,0.00170638,0.00336945,-0.00059372,-0.01449287,-0.02633736,0.0114271
 3,0.13173838,0.29280129\\0.00004351,0.00003799,0.00006219,-0.00007782,
 0.00001585,-0.00004838,0.00010551,-0.00005986,0.00003296,0.00000663,-0
 .00001063,0.00006334,-0.00010229,0.00003165,0.00004494,0.00002680,0.00
 003138,-0.00016236,-0.00000234,0.00000883,-0.00003643,-0.00000144,0.00
 000199,0.00000581,0.00000069,-0.00000740,-0.00001920,-0.00000231,0.000
 00340,0.00004044,0.00000995,-0.00000882,-0.00001366,0.00008212,-0.0000
 2502,-0.00004139,-0.00001393,-0.00000700,-0.00000665,-0.00003593,-0.00
 000237,0.00002498,-0.00000155,-0.00000074,0.00000279,-0.00003197,0.000
 00128,0.00006242,0.00000021,-0.00001165,0.00000130,-0.00000917,-0.0000
 0328,-0.00001345,0.00000333,0.00000440,0.00000036\\\@


 FROM AN ANONYMOUS WRITER, ON PERSPECTIVE:

 MAN, DESPITE HIS ARTISTIC PRETENSIONS, HIS SOPHISTICATION AND MANY 
 ACCOMPLISHMENTS, OWES THE FACT OF HIS EXISTENCE TO A SIX-INCH LAYER OF 
 TOPSOIL AND THE FACT THAT IT RAINS.
 Job cpu time:       0 days  0 hours  0 minutes  7.2 seconds.
 Elapsed time:       0 days  0 hours  0 minutes  7.1 seconds.
 File lengths (MBytes):  RWF=     33 Int=      0 D2E=      0 Chk=      2 Scr=      1
 Normal termination of Gaussian 16 at Mon Jun  9 21:09:35 2025.
