 Entering Gaussian System, Link 0=g16
 Input=/home/gaussian/Documents/Summer_Internship/Acid_Base_adduct/Adduct/PH3-BH3/PH3_BH3_adduct_opt.com
 Output=/home/gaussian/Documents/Summer_Internship/Acid_Base_adduct/Adduct/PH3-BH3/PH3_BH3_adduct_opt.log
 Initial command:
 /usr/local/g16/l1.exe "/home/gaussian/tmp/Gau-92533.inp" -scrdir="/home/gaussian/tmp/"
 Entering Link 1 = /usr/local/g16/l1.exe PID=     92536.
  
 Copyright (c) 1988-2017, Gaussian, Inc.  All Rights Reserved.
  
 This is part of the Gaussian(R) 16 program.  It is based on
 the Gaussian(R) 09 system (copyright 2009, Gaussian, Inc.),
 the Gaussian(R) 03 system (copyright 2003, Gaussian, Inc.),
 the Gaussian(R) 98 system (copyright 1998, Gaussian, Inc.),
 the Gaussian(R) 94 system (copyright 1995, Gaussian, Inc.),
 the Gaussian 92(TM) system (copyright 1992, Gaussian, Inc.),
 the Gaussian 90(TM) system (copyright 1990, Gaussian, Inc.),
 the Gaussian 88(TM) system (copyright 1988, Gaussian, Inc.),
 the Gaussian 86(TM) system (copyright 1986, Carnegie Mellon
 University), and the Gaussian 82(TM) system (copyright 1983,
 Carnegie Mellon University). Gaussian is a federally registered
 trademark of Gaussian, Inc.
  
 This software contains proprietary and confidential information,
 including trade secrets, belonging to Gaussian, Inc.
  
 This software is provided under written license and may be
 used, copied, transmitted, or stored only in accord with that
 written license.
  
 The following legend is applicable only to US Government
 contracts under FAR:
  
                    RESTRICTED RIGHTS LEGEND
  
 Use, reproduction and disclosure by the US Government is
 subject to restrictions as set forth in subparagraphs (a)
 and (c) of the Commercial Computer Software - Restricted
 Rights clause in FAR 52.227-19.
  
 Gaussian, Inc.
 340 Quinnipiac St., Bldg. 40, Wallingford CT 06492
  
  
 ---------------------------------------------------------------
 Warning -- This program may not be used in any manner that
 competes with the business of Gaussian, Inc. or will provide
 assistance to any competitor of Gaussian, Inc.  The licensee
 of this program is prohibited from giving any competitor of
 Gaussian, Inc. access to this program.  By using this program,
 the user acknowledges that Gaussian, Inc. is engaged in the
 business of creating and licensing software in the field of
 computational chemistry and represents and warrants to the
 licensee that it is not a competitor of Gaussian, Inc. and that
 it will not use this program in any manner prohibited above.
 ---------------------------------------------------------------
  

 Cite this work as:
 Gaussian 16, Revision B.01,
 M. J. Frisch, G. W. Trucks, H. B. Schlegel, G. E. Scuseria, 
 M. A. Robb, J. R. Cheeseman, G. Scalmani, V. Barone, 
 G. A. Petersson, H. Nakatsuji, X. Li, M. Caricato, A. V. Marenich, 
 J. Bloino, B. G. Janesko, R. Gomperts, B. Mennucci, H. P. Hratchian, 
 J. V. Ortiz, A. F. Izmaylov, J. L. Sonnenberg, D. Williams-Young, 
 F. Ding, F. Lipparini, F. Egidi, J. Goings, B. Peng, A. Petrone, 
 T. Henderson, D. Ranasinghe, V. G. Zakrzewski, J. Gao, N. Rega, 
 G. Zheng, W. Liang, M. Hada, M. Ehara, K. Toyota, R. Fukuda, 
 J. Hasegawa, M. Ishida, T. Nakajima, Y. Honda, O. Kitao, H. Nakai, 
 T. Vreven, K. Throssell, J. A. Montgomery, Jr., J. E. Peralta, 
 F. Ogliaro, M. J. Bearpark, J. J. Heyd, E. N. Brothers, K. N. Kudin, 
 V. N. Staroverov, T. A. Keith, R. Kobayashi, J. Normand, 
 K. Raghavachari, A. P. Rendell, J. C. Burant, S. S. Iyengar, 
 J. Tomasi, M. Cossi, J. M. Millam, M. Klene, C. Adamo, R. Cammi, 
 J. W. Ochterski, R. L. Martin, K. Morokuma, O. Farkas, 
 J. B. Foresman, and D. J. Fox, Gaussian, Inc., Wallingford CT, 2016.
 
 ******************************************
 Gaussian 16:  EM64L-G16RevB.01 20-Dec-2017
                17-Jun-2025 
 ******************************************
 %chk=PH3_BH3_adduct_opt.chk
 ----------------------------------------------
 # opt freq hf/3-21g pop=full geom=connectivity
 ----------------------------------------------
 1/18=20,19=15,38=1,57=2/1,3;
 2/9=110,12=2,17=6,18=5,40=1/2;
 3/5=5,11=9,25=1,30=1,71=1/1,2,3;
 4//1;
 5/5=2,38=5/2;
 6/7=3,28=1/1;
 7//1,2,3,16;
 1/18=20,19=15/3(2);
 2/9=110/2;
 99//99;
 2/9=110/2;
 3/5=5,11=9,25=1,30=1,71=1/1,2,3;
 4/5=5,16=3,69=1/1;
 5/5=2,38=5/2;
 7//1,2,3,16;
 1/18=20,19=15/3(-5);
 2/9=110/2;
 6/7=3,19=2,28=1/1;
 99/9=1/99;
 -------------------
 Title Card Required
 -------------------
 Symbolic Z-matrix:
 Charge =  0 Multiplicity = 1
 P                    -1.41797   1.55885  -0.08731 
 H                    -0.96799   0.28605  -0.08731 
 H                    -0.96797   2.19524   1.01496 
 H                    -0.96797   2.19524  -1.18958 
 B                    -1.75625   1.32373  -2.25858 
 H                    -0.57625   1.32373  -2.25858 
 H                    -2.34625   2.34564  -2.25858 
 H                    -2.34625   0.30182  -2.25858 
 

 GradGradGradGradGradGradGradGradGradGradGradGradGradGradGradGradGradGrad
 Berny optimization.
 Initialization pass.
                           ----------------------------
                           !    Initial Parameters    !
                           ! (Angstroms and Degrees)  !
 --------------------------                            --------------------------
 ! Name  Definition              Value          Derivative Info.                !
 --------------------------------------------------------------------------------
 ! R1    R(1,2)                  1.35           estimate D2E/DX2                !
 ! R2    R(1,3)                  1.35           estimate D2E/DX2                !
 ! R3    R(1,4)                  1.35           estimate D2E/DX2                !
 ! R4    R(1,5)                  2.21           estimate D2E/DX2                !
 ! R5    R(5,6)                  1.18           estimate D2E/DX2                !
 ! R6    R(5,7)                  1.18           estimate D2E/DX2                !
 ! R7    R(5,8)                  1.18           estimate D2E/DX2                !
 ! A1    A(2,1,3)              109.4712         estimate D2E/DX2                !
 ! A2    A(2,1,4)              109.4712         estimate D2E/DX2                !
 ! A3    A(2,1,5)               87.175          estimate D2E/DX2                !
 ! A4    A(3,1,4)              109.4713         estimate D2E/DX2                !
 ! A5    A(3,1,5)              154.6033         estimate D2E/DX2                !
 ! A6    A(4,1,5)               45.4918         estimate D2E/DX2                !
 ! A7    A(1,5,6)               81.1955         estimate D2E/DX2                !
 ! A8    A(1,5,7)               89.1059         estimate D2E/DX2                !
 ! A9    A(1,5,8)               99.7104         estimate D2E/DX2                !
 ! A10   A(6,5,7)              120.0            estimate D2E/DX2                !
 ! A11   A(6,5,8)              120.0            estimate D2E/DX2                !
 ! A12   A(7,5,8)              120.0            estimate D2E/DX2                !
 ! D1    D(2,1,5,6)            -69.7968         estimate D2E/DX2                !
 ! D2    D(2,1,5,7)            169.6431         estimate D2E/DX2                !
 ! D3    D(2,1,5,8)             49.3344         estimate D2E/DX2                !
 ! D4    D(3,1,5,6)             62.5968         estimate D2E/DX2                !
 ! D5    D(3,1,5,7)            -57.9632         estimate D2E/DX2                !
 ! D6    D(3,1,5,8)           -178.2719         estimate D2E/DX2                !
 ! D7    D(4,1,5,6)             51.2998         estimate D2E/DX2                !
 ! D8    D(4,1,5,7)            -69.2602         estimate D2E/DX2                !
 ! D9    D(4,1,5,8)            170.4311         estimate D2E/DX2                !
 --------------------------------------------------------------------------------
 Trust Radius=3.00D-01 FncErr=1.00D-07 GrdErr=1.00D-07 EigMax=2.50D+02 EigMin=1.00D-04
 Number of steps in this run=     38 maximum allowed number of steps=    100.
 GradGradGradGradGradGradGradGradGradGradGradGradGradGradGradGradGradGrad

                          Input orientation:                          
 ---------------------------------------------------------------------
 Center     Atomic      Atomic             Coordinates (Angstroms)
 Number     Number       Type             X           Y           Z
 ---------------------------------------------------------------------
      1         15           0       -1.417975    1.558851   -0.087314
      2          1           0       -0.967990    0.286053   -0.087314
      3          1           0       -0.967967    2.195241    1.014956
      4          1           0       -0.967967    2.195241   -1.189585
      5          5           0       -1.756246    1.323731   -2.258579
      6          1           0       -0.576246    1.323731   -2.258579
      7          1           0       -2.346246    2.345641   -2.258579
      8          1           0       -2.346246    0.301821   -2.258579
 ---------------------------------------------------------------------
                    Distance matrix (angstroms):
                    1          2          3          4          5
     1  P    0.000000
     2  H    1.350000   0.000000
     3  H    1.350000   2.204541   0.000000
     4  H    1.350000   2.204541   2.204541   0.000000
     5  B    2.210000   2.532294   3.478067   1.588604   0.000000
     6  H    2.340551   2.438161   3.410133   1.433779   1.180000
     7  H    2.488999   3.294827   3.555040   1.750721   1.180000
     8  H    2.675108   2.571815   4.025013   2.574382   1.180000
                    6          7          8
     6  H    0.000000
     7  H    2.043820   0.000000
     8  H    2.043820   2.043820   0.000000
 Stoichiometry    BH6P
 Framework group  C1[X(BH6P)]
 Deg. of freedom    18
 Full point group                 C1      NOp   1
 Largest Abelian subgroup         C1      NOp   1
 Largest concise Abelian subgroup C1      NOp   1
                         Standard orientation:                         
 ---------------------------------------------------------------------
 Center     Atomic      Atomic             Coordinates (Angstroms)
 Number     Number       Type             X           Y           Z
 ---------------------------------------------------------------------
      1         15           0        0.669874    0.004176   -0.074425
      2          1           0        0.608369    1.279041    0.365389
      3          1           0        1.902237   -0.494138    0.161083
      4          1           0       -0.248755   -0.741091    0.576112
      5          5           0       -1.538745   -0.013307    0.001724
      6          1           0       -1.318276    0.014023    1.160623
      7          1           0       -1.532096   -1.042174   -0.576021
      8          1           0       -1.765862    0.988230   -0.579431
 ---------------------------------------------------------------------
 Rotational constants (GHZ):          70.3310431           9.3702583           9.0557934
 Standard basis: 3-21G (6D, 7F)
 There are    34 symmetry adapted cartesian basis functions of A   symmetry.
 There are    34 symmetry adapted basis functions of A   symmetry.
    34 basis functions,    60 primitive gaussians,    34 cartesian basis functions
    13 alpha electrons       13 beta electrons
       nuclear repulsion energy        58.7360669643 Hartrees.



 Warning!  P  atom    1 may be hypervalent but has no d functions.



 NAtoms=    8 NActive=    8 NUniq=    8 SFac= 1.00D+00 NAtFMM=   60 NAOKFM=F Big=F
 Integral buffers will be    131072 words long.
 Raffenetti 1 integral format.
 Two-electron integral symmetry is turned on.
 One-electron integrals computed using PRISM.
 NBasis=    34 RedAO= T EigKep=  1.20D-02  NBF=    34
 NBsUse=    34 1.00D-06 EigRej= -1.00D+00 NBFU=    34
 ExpMin= 1.23D-01 ExpMax= 1.05D+03 ExpMxC= 1.05D+03 IAcc=3 IRadAn=         5 AccDes= 0.00D+00
 Harris functional with IExCor=  205 and IRadAn=       5 diagonalized for initial guess.
 HarFok:  IExCor=  205 AccDes= 0.00D+00 IRadAn=         5 IDoV= 1 UseB2=F ITyADJ=14
 ICtDFT=  3500011 ScaDFX=  1.000000  1.000000  1.000000  1.000000
 FoFCou: FMM=F IPFlag=           0 FMFlag=      100000 FMFlg1=           0
         NFxFlg=           0 DoJE=T BraDBF=F KetDBF=T FulRan=T
         wScrn=  0.000000 ICntrl=       500 IOpCl=  0 I1Cent=   200000004 NGrid=           0
         NMat0=    1 NMatS0=      1 NMatT0=    0 NMatD0=    1 NMtDS0=    0 NMtDT0=    0
 Petite list used in FoFCou.
 Keep R1 ints in memory in canonical form, NReq=989101.
 Requested convergence on RMS density matrix=1.00D-08 within 128 cycles.
 Requested convergence on MAX density matrix=1.00D-06.
 Requested convergence on             energy=1.00D-06.
 No special actions if energy rises.
 SCF Done:  E(RHF) =  -366.833716569     A.U. after   12 cycles
            NFock= 12  Conv=0.43D-08     -V/T= 1.9988

 **********************************************************************

            Population analysis using the SCF Density.

 **********************************************************************

 Orbital symmetries:
       Occupied  (A) (A) (A) (A) (A) (A) (A) (A) (A) (A) (A) (A)
                 (A)
       Virtual   (A) (A) (A) (A) (A) (A) (A) (A) (A) (A) (A) (A)
                 (A) (A) (A) (A) (A) (A) (A) (A) (A)
 The electronic state is 1-A.
 Alpha  occ. eigenvalues --  -79.37191  -7.55627  -7.45676  -5.34390  -5.34215
 Alpha  occ. eigenvalues --   -5.33775  -0.94822  -0.74540  -0.60123  -0.56574
 Alpha  occ. eigenvalues --   -0.50662  -0.45772  -0.34496
 Alpha virt. eigenvalues --    0.10134   0.18718   0.20613   0.28226   0.33421
 Alpha virt. eigenvalues --    0.37740   0.39020   0.56157   0.58977   0.60795
 Alpha virt. eigenvalues --    0.62966   0.64336   0.68101   0.76131   1.12312
 Alpha virt. eigenvalues --    1.22820   1.30367   1.35999   1.42767   1.44997
 Alpha virt. eigenvalues --    1.48957
     Molecular Orbital Coefficients:
                           1         2         3         4         5
                           O         O         O         O         O
     Eigenvalues --   -79.37191  -7.55627  -7.45676  -5.34390  -5.34215
   1 1   P  1S          0.98702   0.00012  -0.29560  -0.00042   0.00010
   2        2S          0.04879  -0.00079   0.99664   0.00128  -0.00023
   3        2PX        -0.00004   0.00010   0.00100   0.95739  -0.07365
   4        2PY         0.00001   0.00002  -0.00012   0.07725   0.96904
   5        2PZ         0.00014  -0.00004   0.01026  -0.14640   0.02729
   6        3S         -0.01541  -0.00207   0.12973  -0.00417   0.00196
   7        3PX         0.00034  -0.00086  -0.00276   0.09248  -0.00802
   8        3PY        -0.00007  -0.00034   0.00068   0.00655   0.08995
   9        3PZ        -0.00023   0.00050   0.00345  -0.01363   0.00264
  10        4S          0.00974   0.01537  -0.07918   0.00338  -0.00425
  11        4PX        -0.00074  -0.02166   0.01163  -0.04330   0.00820
  12        4PY         0.00041   0.00458  -0.00484   0.00242  -0.03467
  13        4PZ         0.00091  -0.00383  -0.00868   0.00435  -0.00139
  14 2   H  1S          0.00113  -0.00137  -0.00538   0.00010  -0.00730
  15        2S         -0.00222   0.00155   0.01845  -0.00302   0.01270
  16 3   H  1S          0.00104  -0.00049  -0.00478  -0.00733   0.00370
  17        2S         -0.00135   0.01014   0.00821   0.01660  -0.00785
  18 4   H  1S          0.00096   0.00071  -0.00475   0.00423   0.00383
  19        2S         -0.00183   0.00578   0.01532  -0.00460  -0.00450
  20 5   B  1S         -0.00006   0.98909   0.00035  -0.00059  -0.00001
  21        2S         -0.00053   0.09937   0.00028  -0.00205   0.00019
  22        2PX        -0.00014   0.00445   0.00043   0.00021   0.00051
  23        2PY        -0.00005   0.00017   0.00029  -0.00004  -0.00034
  24        2PZ         0.00001  -0.00019   0.00006   0.00015   0.00008
  25        3S          0.00161  -0.09996   0.00270   0.00262   0.00371
  26        3PX         0.00003  -0.02239   0.00468  -0.00363   0.00170
  27        3PY        -0.00034   0.00181   0.00433  -0.00192   0.00163
  28        3PZ         0.00053   0.00023  -0.00548   0.00148  -0.00177
  29 6   H  1S          0.00009  -0.00389  -0.00095  -0.00017   0.00012
  30        2S         -0.00136   0.02252   0.00763  -0.00720   0.00200
  31 7   H  1S          0.00008  -0.00419  -0.00061   0.00010   0.00024
  32        2S         -0.00093   0.02379   0.00352  -0.00625  -0.00252
  33 8   H  1S          0.00012  -0.00408  -0.00076   0.00080  -0.00041
  34        2S         -0.00062   0.02016  -0.00033  -0.00508   0.00086
                           6         7         8         9        10
                           O         O         O         O         O
     Eigenvalues --    -5.33775  -0.94822  -0.74540  -0.60123  -0.56574
   1 1   P  1S          0.00346   0.05668  -0.02917   0.00061   0.00023
   2        2S         -0.01226  -0.30224   0.16001  -0.00385  -0.00019
   3        2PX         0.14817   0.02622   0.09699   0.00601  -0.11912
   4        2PY        -0.01580   0.00717   0.02696  -0.16150   0.06382
   5        2PZ         0.96197  -0.04037   0.01067   0.01762   0.05238
   6        3S          0.00098   0.35451  -0.16934   0.00005   0.00889
   7        3PX         0.01392  -0.04646  -0.18275  -0.01145   0.23546
   8        3PY        -0.00146  -0.01370  -0.05039   0.31463  -0.12463
   9        3PZ         0.08528   0.07651  -0.02433  -0.03444  -0.10328
  10        4S         -0.00278   0.32261  -0.30026   0.03153  -0.03104
  11        4PX        -0.00934  -0.00709   0.00457  -0.01645   0.13182
  12        4PY         0.00117   0.01227  -0.01062   0.10661  -0.07442
  13        4PZ        -0.02736   0.02800  -0.02171  -0.00961  -0.06337
  14 2   H  1S         -0.00222   0.10861  -0.09332   0.20469  -0.11412
  15        2S          0.00292   0.03558  -0.07387   0.26103  -0.13178
  16 3   H  1S         -0.00252   0.09550  -0.14836  -0.08591   0.18670
  17        2S          0.00626   0.04735  -0.14549  -0.10925   0.23178
  18 4   H  1S         -0.00264   0.16953   0.08103  -0.15715  -0.11289
  19        2S          0.00276   0.10801   0.11930  -0.25343  -0.16807
  20 5   B  1S          0.00004  -0.07562  -0.14795  -0.05458  -0.08918
  21        2S          0.00060   0.07963   0.16555   0.06016   0.08780
  22        2PX         0.00003   0.05398   0.03034  -0.04368  -0.08435
  23        2PY         0.00015  -0.01709  -0.03045   0.15030   0.02665
  24        2PZ        -0.00047   0.02278   0.03177  -0.06892  -0.16773
  25        3S         -0.00440   0.17288   0.38237   0.15954   0.31406
  26        3PX        -0.00230   0.03111   0.06304   0.01301   0.02379
  27        3PY        -0.00138  -0.00053  -0.00125   0.03923  -0.00750
  28        3PZ         0.00178   0.00733   0.00984  -0.00704  -0.05092
  29 6   H  1S         -0.00003   0.06645   0.13190  -0.00242  -0.04595
  30        2S          0.00197   0.00236   0.07550  -0.00725  -0.09995
  31 7   H  1S          0.00020   0.04459   0.11262  -0.01070   0.12028
  32        2S         -0.00175  -0.00142   0.06203  -0.02858   0.10753
  33 8   H  1S          0.00036   0.03386   0.08786   0.14425   0.15051
  34        2S         -0.00002  -0.01148   0.03296   0.16472   0.15813
                          11        12        13        14        15
                           O         O         O         V         V
     Eigenvalues --    -0.50662  -0.45772  -0.34496   0.10134   0.18718
   1 1   P  1S         -0.00863   0.01109  -0.01818  -0.01568  -0.00826
   2        2S          0.04804  -0.06286   0.10069   0.09768   0.05317
   3        2PX        -0.07488   0.09876  -0.02492   0.03404  -0.06492
   4        2PY         0.02617   0.08224   0.00661  -0.04293  -0.08022
   5        2PZ        -0.02791   0.00978  -0.21784  -0.02041   0.02261
   6        3S         -0.05575   0.06502  -0.13097  -0.04168  -0.01697
   7        3PX         0.15121  -0.19854   0.05275  -0.07972   0.10868
   8        3PY        -0.05375  -0.16668  -0.01389   0.08130   0.13618
   9        3PZ         0.05159  -0.01624   0.43586   0.03170  -0.04191
  10        4S         -0.10984   0.17318  -0.22847  -0.66426  -0.49736
  11        4PX         0.08858  -0.16920   0.05702  -0.16379   0.94403
  12        4PY        -0.00706  -0.06795  -0.00915   0.30340   1.07655
  13        4PZ         0.06808  -0.03408   0.51739   0.16954  -0.31775
  14 2   H  1S         -0.05387  -0.09583   0.06383  -0.03813  -0.05358
  15        2S         -0.07634  -0.17097   0.09442  -0.24373  -0.58027
  16 3   H  1S          0.10634  -0.06431   0.03472   0.12486  -0.01415
  17        2S          0.15063  -0.06960   0.02672   0.71144  -0.15750
  18 4   H  1S         -0.02802   0.11464   0.08582  -0.04640   0.15230
  19        2S         -0.04071   0.18898   0.16794  -0.38531   1.37593
  20 5   B  1S         -0.02790   0.04209   0.00210  -0.04076   0.00633
  21        2S          0.03119  -0.04270   0.01822   0.00189   0.00305
  22        2PX        -0.01348   0.02879  -0.07069   0.31536   0.04058
  23        2PY         0.21144   0.27190   0.00975   0.00324  -0.03400
  24        2PZ         0.25669  -0.13922  -0.12760  -0.04282  -0.02682
  25        3S          0.07672  -0.15529  -0.11199   0.56376   0.01637
  26        3PX         0.00152  -0.01681  -0.09416   0.83193   0.19780
  27        3PY         0.10591   0.17254   0.01400   0.03118  -0.43493
  28        3PZ         0.09355  -0.07431  -0.07815  -0.09263  -0.15543
  29 6   H  1S          0.20927  -0.13215  -0.08331   0.01437  -0.01681
  30        2S          0.30411  -0.20405  -0.10912  -0.13072  -0.07827
  31 7   H  1S         -0.17810  -0.16171   0.04407   0.03184  -0.02746
  32        2S         -0.23704  -0.20301   0.09927  -0.08527  -0.40809
  33 8   H  1S          0.06287   0.16069   0.07416  -0.02102   0.06517
  34        2S          0.06185   0.19497   0.14044  -0.21476   0.46931
                          16        17        18        19        20
                           V         V         V         V         V
     Eigenvalues --     0.20613   0.28226   0.33421   0.37740   0.39020
   1 1   P  1S          0.03360   0.00417  -0.01672   0.00626   0.01190
   2        2S         -0.20594  -0.04657   0.09069  -0.02713  -0.08120
   3        2PX         0.02821  -0.10618   0.06111  -0.04870  -0.00278
   4        2PY        -0.05739   0.02544   0.00784   0.04543  -0.03313
   5        2PZ        -0.05186  -0.00945   0.03520  -0.00790   0.00823
   6        3S          0.15661  -0.15618  -0.18917   0.13097  -0.00003
   7        3PX        -0.04097   0.24454  -0.14018   0.09024   0.10912
   8        3PY         0.09846  -0.04727  -0.01912  -0.09047   0.09795
   9        3PZ         0.10637   0.00578  -0.09562   0.00476  -0.02931
  10        4S          1.65451   1.04758  -0.47554   0.05200   0.89617
  11        4PX        -0.54956   0.84179  -0.76008   1.01286  -1.52141
  12        4PY         0.84046  -0.40354   0.05154  -0.85754   0.08895
  13        4PZ         0.66674   0.35017  -0.15242   0.40204   0.23765
  14 2   H  1S         -0.11485  -0.04471   0.04821   0.04732   0.01464
  15        2S         -1.57158  -0.12411   0.48961   0.48274  -0.30464
  16 3   H  1S         -0.01678  -0.08029   0.03452  -0.03226   0.03561
  17        2S         -0.13905  -1.30083   0.89239  -1.07548   0.63045
  18 4   H  1S         -0.06251  -0.07600   0.02266  -0.05325  -0.08129
  19        2S         -0.69146  -0.26534   0.33064  -1.24052  -1.13958
  20 5   B  1S         -0.01901   0.05749   0.04180  -0.14436   0.10901
  21        2S          0.04671  -0.00565  -0.02321   0.10121  -0.09197
  22        2PX        -0.05146   0.05210  -0.04729   0.04340  -0.00315
  23        2PY        -0.00880   0.06566  -0.07624  -0.04157  -0.11276
  24        2PZ        -0.02400  -0.08771  -0.12106  -0.00605   0.07001
  25        3S          0.14344  -1.19357  -0.72930   2.61623  -2.29755
  26        3PX        -0.46517   0.35039  -0.74362   1.10401  -0.04584
  27        3PY        -0.18159   0.34054  -0.55305  -1.65285  -1.76862
  28        3PZ        -0.35065  -0.81655  -1.70934  -0.10494   0.88792
  29 6   H  1S          0.00803   0.08272   0.04637   0.03469   0.00442
  30        2S          0.21443   1.40426   1.72014  -0.62719   0.28135
  31 7   H  1S          0.00353   0.05154  -0.07039  -0.03977  -0.00662
  32        2S         -0.32753   0.60917  -1.07939  -2.11606  -0.00850
  33 8   H  1S         -0.03856   0.03328  -0.03835   0.06238   0.04632
  34        2S         -0.40529   0.06426  -0.19460   0.27835   2.50731
                          21        22        23        24        25
                           V         V         V         V         V
     Eigenvalues --     0.56157   0.58977   0.60795   0.62966   0.64336
   1 1   P  1S         -0.02916  -0.01679  -0.01600  -0.00877   0.00573
   2        2S          0.08116   0.03059   0.04259   0.02067  -0.00975
   3        2PX         0.13356   0.11463   0.09120  -0.03191   0.17555
   4        2PY        -0.17661   0.22176   0.04385  -0.16491  -0.01433
   5        2PZ         0.09543   0.10947  -0.10100   0.02181  -0.23805
   6        3S         -1.02453  -0.73015  -0.57314  -0.34237   0.25196
   7        3PX        -0.49415  -0.42495  -0.36012   0.09941  -0.67644
   8        3PY         0.64372  -0.83071  -0.15935   0.64338   0.06816
   9        3PZ        -0.36449  -0.41900   0.33747  -0.09390   0.89271
  10        4S          1.61394   1.42841   1.02851   0.55513  -0.47538
  11        4PX         0.48415   0.33727   0.38172   0.08452   1.06694
  12        4PY        -0.51990   0.74513   0.12254  -0.72882  -0.32293
  13        4PZ         0.57778   0.63340   0.01793   0.12545  -0.82967
  14 2   H  1S         -0.00765  -0.22690  -0.04835   0.03803   0.04494
  15        2S         -0.40855  -0.25199  -0.16139  -0.14208   0.09716
  16 3   H  1S         -0.19688  -0.08787  -0.09967  -0.09011  -0.08887
  17        2S         -0.21131  -0.27330  -0.23965  -0.23140  -0.16017
  18 4   H  1S         -0.10627  -0.01950  -0.01055  -0.09056   0.07325
  19        2S         -0.48621  -0.60693  -0.26074   0.30801  -0.39174
  20 5   B  1S         -0.00499   0.00978   0.01111  -0.00918  -0.00326
  21        2S         -0.04353  -0.07961  -0.02881   0.08275  -0.00503
  22        2PX        -0.09695   0.00159   0.18329   0.18621  -0.43989
  23        2PY         0.40403  -0.36112   0.04960  -0.84672  -0.22143
  24        2PZ        -0.16367  -0.20270   0.88635   0.07104  -0.24702
  25        3S          0.21612  -0.03081  -0.10690   0.05421   0.25052
  26        3PX         0.16663   0.07807  -0.14693  -0.26941   0.81934
  27        3PY        -0.49260  -0.14857  -0.20217   0.97883   0.00161
  28        3PZ         0.36608   0.47563  -0.59542  -0.11999   0.22512
  29 6   H  1S         -0.06323  -0.08381   0.13615   0.00890  -0.02275
  30        2S         -0.15984  -0.08119  -0.21741  -0.16572   0.44224
  31 7   H  1S         -0.05565   0.06315  -0.09907   0.11359   0.07648
  32        2S          0.01361  -0.05128   0.19239  -0.24030  -0.10272
  33 8   H  1S          0.06849  -0.05343  -0.08269  -0.12857   0.05425
  34        2S          0.08423   0.47160   0.32948  -0.00348   0.20210
                          26        27        28        29        30
                           V         V         V         V         V
     Eigenvalues --     0.68101   0.76131   1.12312   1.22820   1.30367
   1 1   P  1S         -0.02498  -0.03726   0.01255   0.02475   0.00018
   2        2S          0.07182   0.10413  -0.01247  -0.11365  -0.01056
   3        2PX        -0.08236  -0.16186  -0.04351  -0.03097  -0.17327
   4        2PY         0.01943   0.01034  -0.09091   0.01615   0.06522
   5        2PZ        -0.17451  -0.05374  -0.01086  -0.08071   0.01646
   6        3S         -0.84334  -1.34087   0.62106   0.45939  -0.08516
   7        3PX         0.29261   0.75578   0.08973   0.18140   0.55364
   8        3PY        -0.07768  -0.07764   0.30216  -0.05216  -0.21671
   9        3PZ         0.65072   0.19222   0.01562   0.23882  -0.03822
  10        4S          1.59027   1.88695  -1.68735  -1.65711   0.19876
  11        4PX        -0.73170  -1.51629   1.34616  -0.86864  -1.24458
  12        4PY         0.10217   0.51743  -0.88933   0.40073   0.41464
  13        4PZ        -0.51431  -0.00156   0.10222  -0.65810   0.12283
  14 2   H  1S         -0.02990  -0.09820  -0.59644  -0.60408   0.39410
  15        2S         -0.19319  -0.59818   1.06502   0.89417  -0.63329
  16 3   H  1S          0.02627   0.13835  -0.08974  -0.64618  -1.14511
  17        2S         -0.07325   0.21000  -0.52540   1.52379   1.69419
  18 4   H  1S         -0.03906  -0.06137   0.14471  -0.87900   0.57544
  19        2S         -0.37970  -0.23362  -0.67910   1.88051  -1.00431
  20 5   B  1S          0.01455  -0.01600  -0.09939   0.02952   0.00243
  21        2S         -0.19432   0.22164  -1.30407   0.36353   0.00227
  22        2PX         0.71537  -0.72515  -0.24523  -0.01144  -0.02825
  23        2PY         0.11418  -0.01329  -0.04511   0.17245  -0.00002
  24        2PZ        -0.38791   0.07642   0.05482  -0.12725   0.02196
  25        3S         -0.18588  -0.53035   3.51454  -1.10160  -0.32109
  26        3PX        -0.88285   0.15179   1.41710  -0.57974  -0.06124
  27        3PY        -0.40966  -0.22070  -0.22209   0.00583  -0.22487
  28        3PZ         0.55161   0.24214  -0.15697   0.01417   0.13588
  29 6   H  1S         -0.12214  -0.03756  -0.39542   0.31673  -0.08228
  30        2S          0.03509  -0.39594  -0.20279  -0.32045   0.13118
  31 7   H  1S         -0.06595  -0.00035  -0.43405   0.20358   0.00287
  32        2S         -0.16713  -0.21061  -0.53781  -0.12730   0.03377
  33 8   H  1S         -0.06123  -0.04447  -0.37266  -0.16685   0.03723
  34        2S          0.19091   0.03896  -0.20565   0.21447   0.08894
                          31        32        33        34
                           V         V         V         V
     Eigenvalues --     1.35999   1.42767   1.44997   1.48957
   1 1   P  1S          0.00202  -0.00726   0.00280   0.00152
   2        2S         -0.02563   0.02796  -0.02183   0.00834
   3        2PX        -0.02874  -0.01986   0.00181  -0.01411
   4        2PY        -0.11900  -0.00494   0.00348   0.05997
   5        2PZ        -0.00876   0.01139  -0.00651  -0.01701
   6        3S         -0.09857  -0.21983  -0.00622   0.12981
   7        3PX         0.09894   0.10579  -0.01718   0.11040
   8        3PY         0.33865   0.01847  -0.04224  -0.17423
   9        3PZ         0.04953  -0.05977   0.01363   0.04473
  10        4S          0.34149   0.15617   0.24340  -0.94563
  11        4PX        -0.87389   0.44183  -0.49029   0.50821
  12        4PY        -0.57129  -0.08759   0.29059   0.31037
  13        4PZ        -0.08795   0.27342  -0.06631  -0.13826
  14 2   H  1S         -0.90373   0.07423  -0.08616   0.27022
  15        2S          1.20585  -0.25389  -0.08556  -0.31355
  16 3   H  1S          0.00278   0.04493  -0.07600  -0.10389
  17        2S          0.29328  -0.38941   0.36033   0.07437
  18 4   H  1S          0.63924   0.15273  -0.03009  -0.64870
  19        2S         -0.88757  -0.41688   0.29351   1.10069
  20 5   B  1S          0.07484   0.03018  -0.00090  -0.00641
  21        2S          0.43486  -1.16539   0.73923  -0.93045
  22        2PX         0.20568  -0.16963   0.06627  -0.06875
  23        2PY        -0.07738  -0.06647  -0.43555  -0.29371
  24        2PZ         0.15550  -0.32149  -0.25182   0.31408
  25        3S         -1.05427   3.22141  -2.13879   2.49830
  26        3PX        -0.68614   0.66036  -0.50351   0.29493
  27        3PY        -0.07987   0.03081   0.91708   0.79659
  28        3PZ        -0.27888   0.63746   0.44277  -0.66077
  29 6   H  1S          0.01689   1.17555   0.28312  -0.41382
  30        2S          0.53297  -2.21479  -0.07385  -0.01638
  31 7   H  1S          0.31437   0.05844  -1.24706   0.00632
  32        2S         -0.16481  -0.58751   2.22529  -0.45616
  33 8   H  1S          0.71775   0.16421   0.33191   1.03495
  34        2S         -0.52178  -0.67132  -0.20665  -2.13902
     Density Matrix:
                           1         2         3         4         5
   1 1   P  1S          2.13237
   2        2S         -0.54247   2.25837
   3        2PX         0.00119  -0.00861   1.96856
   4        2PY         0.00033  -0.00109   0.00095   1.96736
   5        2PZ         0.00445  -0.02362   0.00542  -0.00187   2.00158
   6        3S         -0.04986  -0.05135   0.00363   0.00622   0.03601
   7        3PX        -0.00112   0.01414   0.02377  -0.00250  -0.01199
   8        3PY        -0.00108   0.00413  -0.00235   0.02453   0.00406
   9        3PZ        -0.00899   0.04577  -0.01038   0.00384  -0.04354
  10        4S          0.13418  -0.52649   0.03461  -0.01361   0.06627
  11        4PX        -0.01676   0.07035  -0.16748   0.00934  -0.02379
  12        4PY         0.00473  -0.01521   0.01576  -0.12285  -0.00266
  13        4PZ        -0.00962   0.07472  -0.03008  -0.00211  -0.29374
  14 2   H  1S          0.01982  -0.08788   0.00378  -0.11595  -0.04699
  15        2S         -0.01257   0.02254  -0.01172  -0.11141  -0.04170
  16 3   H  1S          0.01980  -0.08871  -0.11498   0.04653  -0.01927
  17        2S          0.00122  -0.02971  -0.08509   0.04164  -0.00098
  18 4   H  1S          0.01883  -0.08442   0.07893   0.06984  -0.06911
  19        2S         -0.00896   0.01133   0.09356   0.09004  -0.09319
  20 5   B  1S          0.00120  -0.00960  -0.00059   0.00260  -0.00668
  21        2S         -0.00385   0.01672  -0.00166  -0.00326  -0.00032
  22        2PX         0.00718  -0.04087   0.03985   0.00986   0.01806
  23        2PY         0.00179  -0.01192   0.01023   0.00822  -0.00162
  24        2PZ        -0.00233   0.01359  -0.01296  -0.00807   0.01643
  25        3S         -0.00154   0.02666  -0.02310  -0.00363   0.06524
  26        3PX         0.00019  -0.00604   0.00161   0.00155   0.03923
  27        3PY        -0.00170  -0.00046   0.01519   0.02330  -0.00994
  28        3PZ         0.00409  -0.00952  -0.00684  -0.01521   0.02420
  29 6   H  1S         -0.00297   0.02014  -0.01366  -0.00869   0.01457
  30        2S         -0.01716   0.07070  -0.05539  -0.02269   0.02342
  31 7   H  1S         -0.00306   0.02002  -0.01185  -0.00933  -0.00103
  32        2S         -0.01171   0.05054  -0.03566  -0.02400  -0.02389
  33 8   H  1S         -0.00057   0.00575   0.00502   0.00786  -0.01227
  34        2S         -0.00582   0.02511  -0.01751   0.00663  -0.03535
                           6         7         8         9        10
   6        3S          0.39202
   7        3PX        -0.02486   0.33003
   8        3PY        -0.00639   0.00198   0.31250
   9        3PZ        -0.06019   0.02175  -0.00776   0.43734
  10        4S          0.40353  -0.06062   0.00860  -0.14902   0.59416
  11        4PX        -0.04754   0.15301   0.00279   0.03663  -0.12349
  12        4PY         0.00389  -0.00981   0.10382   0.00385   0.00906
  13        4PZ        -0.12383   0.06454   0.00071   0.47338  -0.22727
  14 2   H  1S          0.08197  -0.00581   0.19833   0.08337   0.09650
  15        2S          0.01440   0.00964   0.26841   0.09904   0.00330
  16 3   H  1S          0.09075   0.19514  -0.07865   0.03227   0.07290
  17        2S          0.05607   0.23975  -0.10810   0.01571   0.02636
  18 4   H  1S          0.08500  -0.13920  -0.12040   0.12376   0.06527
  19        2S          0.02232  -0.19742  -0.19671   0.19964  -0.01213
  20 5   B  1S         -0.00107  -0.00638  -0.00691   0.01640   0.09224
  21        2S         -0.01215  -0.00016   0.00742   0.00260  -0.07668
  22        2PX         0.05035  -0.07777  -0.01709  -0.03672   0.06438
  23        2PY         0.00799  -0.02117  -0.02223   0.00452   0.05831
  24        2PZ        -0.01088   0.02832   0.01699  -0.03898  -0.04463
  25        3S          0.00031   0.06194   0.02626  -0.15356  -0.15043
  26        3PX         0.02478  -0.01858   0.00339  -0.08577   0.01697
  27        3PY         0.00803  -0.03937  -0.04232   0.01621   0.03279
  28        3PZ        -0.00012   0.02184   0.02365  -0.04419  -0.00815
  29 6   H  1S         -0.01730   0.03099   0.01871  -0.03334  -0.08728
  30        2S         -0.05554   0.08538   0.05129  -0.03866  -0.12631
  31 7   H  1S         -0.01725   0.02661   0.02259   0.00255  -0.08406
  32        2S         -0.04520   0.04692   0.03886   0.04510  -0.11010
  33 8   H  1S         -0.00879  -0.00447  -0.01898   0.02583  -0.02319
  34        2S         -0.03490   0.01483  -0.01424   0.07526  -0.03624
                          11        12        13        14        15
  11        4PX         0.12016
  12        4PY        -0.00381   0.04635
  13        4PZ         0.06569   0.00284   0.55942
  14 2   H  1S         -0.00920   0.07844   0.08616   0.18335
  15        2S          0.01138   0.09925   0.11529   0.21109   0.27345
  16 3   H  1S          0.09455  -0.03427   0.04473  -0.02404  -0.05309
  17        2S          0.11406  -0.04605   0.03420  -0.05969  -0.08733
  18 4   H  1S         -0.06062  -0.03122   0.10073  -0.02485  -0.07103
  19        2S         -0.08804  -0.05689   0.18190  -0.07472  -0.12413
  20 5   B  1S         -0.08373   0.00662   0.00246   0.00168   0.00483
  21        2S          0.03948   0.00411   0.01018  -0.00215   0.00310
  22        2PX        -0.04167   0.00150  -0.06375  -0.00568  -0.02231
  23        2PY        -0.05140  -0.01179   0.01443  -0.01623  -0.04869
  24        2PZ         0.03606   0.02778  -0.06509  -0.00817  -0.01053
  25        3S          0.13627   0.00427  -0.14367  -0.03277  -0.02359
  26        3PX         0.00266   0.00225  -0.10016  -0.01408  -0.01869
  27        3PY        -0.04106  -0.01586   0.01733  -0.02487  -0.04971
  28        3PZ         0.01927   0.01645  -0.05647   0.00276   0.00494
  29 6   H  1S          0.06069   0.02164  -0.04480  -0.00852  -0.00645
  30        2S          0.08485   0.03718  -0.04842  -0.00151   0.01477
  31 7   H  1S          0.06081   0.00216   0.01498   0.01265   0.04003
  32        2S          0.06749   0.00599   0.06824   0.02893   0.07200
  33 8   H  1S          0.00055  -0.01676   0.05062  -0.01242  -0.02552
  34        2S         -0.00270  -0.01923   0.11498  -0.00347  -0.01085
                          16        17        18        19        20
  16 3   H  1S          0.18023
  17        2S          0.19995   0.23573
  18 4   H  1S         -0.02153  -0.04535   0.18821
  19        2S         -0.05542  -0.07630   0.24777   0.36855
  20 5   B  1S         -0.00664   0.01237   0.00064   0.03634   2.03877
  21        2S          0.00185   0.00520   0.00681  -0.01468   0.10806
  22        2PX        -0.03417  -0.04503   0.05122   0.05769   0.01436
  23        2PY         0.00056   0.01314  -0.01183  -0.00726   0.00190
  24        2PZ         0.00778   0.02011   0.00421  -0.01257  -0.00235
  25        3S          0.03802   0.05257  -0.05968  -0.16157  -0.42829
  26        3PX        -0.01012  -0.01000  -0.00888  -0.03104  -0.07520
  27        3PY        -0.00796  -0.00310   0.02497   0.04366   0.00977
  28        3PZ         0.00471   0.01013  -0.01786  -0.03749  -0.00552
  29 6   H  1S          0.01255   0.02403  -0.00128  -0.03254  -0.07147
  30        2S          0.02533   0.04804  -0.04477  -0.08218   0.00588
  31 7   H  1S          0.00784   0.00066  -0.00995  -0.03039  -0.07214
  32        2S          0.00900   0.00041  -0.02201  -0.03079   0.00942
  33 8   H  1S          0.00966   0.01637  -0.00755  -0.01498  -0.07145
  34        2S          0.01666   0.02585  -0.02069  -0.01517  -0.00076
                          21        22        23        24        25
  21        2S          0.11617
  22        2PX        -0.00641   0.03777
  23        2PY         0.00032  -0.01274   0.28650
  24        2PZ        -0.00038   0.04181  -0.00201   0.27193
  25        3S          0.22256  -0.02111  -0.01872   0.01607   0.70553
  26        3PX         0.02523   0.01414  -0.01007   0.02515   0.10912
  27        3PY        -0.00434   0.00282   0.15037  -0.00024  -0.03413
  28        3PZ         0.00401   0.01484  -0.00805   0.10767   0.03067
  29 6   H  1S          0.06642   0.02163   0.00152   0.19265   0.18680
  30        2S          0.04388   0.01802   0.00334   0.28021   0.12343
  31 7   H  1S          0.06770  -0.01848  -0.16758  -0.08734   0.18754
  32        2S          0.04668  -0.03115  -0.21528  -0.11876   0.10504
  33 8   H  1S          0.07036  -0.03197   0.16029  -0.09464   0.16341
  34        2S          0.05303  -0.05042   0.19125  -0.13256   0.08655
                          26        27        28        29        30
  26        3PX         0.03075
  27        3PY        -0.00766   0.08562
  28        3PZ         0.01650  -0.00790   0.04642
  29 6   H  1S          0.03945  -0.00353   0.08011   0.18429
  30        2S          0.03217  -0.00814   0.11598   0.22866   0.32481
  31 7   H  1S          0.01920  -0.09528  -0.02540  -0.01448  -0.05882
  32        2S         -0.00147  -0.12135  -0.03908  -0.05585  -0.09351
  33 8   H  1S          0.00509   0.07962  -0.03883  -0.01534  -0.06248
  34        2S         -0.01843   0.09489  -0.05730  -0.05736  -0.10069
                          31        32        33        34
  31 7   H  1S          0.17817
  32        2S          0.19896   0.24822
  33 8   H  1S         -0.01186  -0.04560   0.17524
  34        2S         -0.03196  -0.05087   0.19123   0.23070
    Full Mulliken population analysis:
                           1         2         3         4         5
   1 1   P  1S          2.13237
   2        2S         -0.13627   2.25837
   3        2PX         0.00000   0.00000   1.96856
   4        2PY         0.00000   0.00000  -0.00000   1.96736
   5        2PZ         0.00000   0.00000   0.00000  -0.00000   2.00158
   6        3S         -0.00169  -0.01815   0.00000   0.00000   0.00000
   7        3PX         0.00000   0.00000   0.00719   0.00000  -0.00000
   8        3PY         0.00000   0.00000   0.00000   0.00742   0.00000
   9        3PZ         0.00000   0.00000  -0.00000   0.00000  -0.01317
  10        4S          0.00441  -0.13426   0.00000   0.00000   0.00000
  11        4PX         0.00000   0.00000  -0.01239  -0.00000  -0.00000
  12        4PY         0.00000   0.00000  -0.00000  -0.00909  -0.00000
  13        4PZ         0.00000   0.00000  -0.00000  -0.00000  -0.02173
  14 2   H  1S          0.00001  -0.00098  -0.00000  -0.00162  -0.00023
  15        2S         -0.00017   0.00246   0.00002  -0.00434  -0.00056
  16 3   H  1S          0.00001  -0.00099  -0.00156  -0.00025  -0.00005
  17        2S          0.00002  -0.00324  -0.00320  -0.00063  -0.00001
  18 4   H  1S          0.00001  -0.00094  -0.00080  -0.00057  -0.00049
  19        2S         -0.00012   0.00124  -0.00263  -0.00205  -0.00185
  20 5   B  1S          0.00000  -0.00000   0.00000  -0.00000  -0.00000
  21        2S         -0.00000   0.00001   0.00000   0.00000  -0.00000
  22        2PX         0.00000  -0.00010  -0.00012  -0.00000   0.00000
  23        2PY         0.00000  -0.00000  -0.00000   0.00000  -0.00000
  24        2PZ         0.00000  -0.00000  -0.00000  -0.00000   0.00000
  25        3S         -0.00001   0.00086   0.00032   0.00000   0.00003
  26        3PX         0.00000  -0.00055  -0.00005  -0.00000   0.00005
  27        3PY        -0.00000  -0.00000  -0.00000   0.00022  -0.00000
  28        3PZ        -0.00000   0.00003  -0.00001  -0.00000   0.00022
  29 6   H  1S         -0.00000   0.00000   0.00000  -0.00000   0.00000
  30        2S         -0.00002   0.00082   0.00035  -0.00000   0.00009
  31 7   H  1S         -0.00000   0.00000   0.00000   0.00000   0.00000
  32        2S         -0.00001   0.00038   0.00016   0.00005   0.00002
  33 8   H  1S         -0.00000   0.00000  -0.00000   0.00000   0.00000
  34        2S         -0.00000   0.00010   0.00005   0.00001   0.00002
                           6         7         8         9        10
   6        3S          0.39202
   7        3PX         0.00000   0.33003
   8        3PY         0.00000  -0.00000   0.31250
   9        3PZ         0.00000   0.00000  -0.00000   0.43734
  10        4S          0.33654   0.00000   0.00000   0.00000   0.59416
  11        4PX         0.00000   0.09894  -0.00000   0.00000   0.00000
  12        4PY         0.00000   0.00000   0.06713   0.00000   0.00000
  13        4PZ         0.00000   0.00000   0.00000   0.30610   0.00000
  14 2   H  1S          0.01442   0.00008   0.05868   0.00851   0.02507
  15        2S          0.00622  -0.00017   0.09896   0.01260   0.00199
  16 3   H  1S          0.01596   0.05582   0.00910   0.00176   0.01894
  17        2S          0.02422   0.08545   0.01558   0.00107   0.01586
  18 4   H  1S          0.01495   0.02968   0.02083   0.01869   0.01696
  19        2S          0.00964   0.05245   0.04240   0.03756  -0.00730
  20 5   B  1S         -0.00000   0.00002   0.00000   0.00000   0.00198
  21        2S         -0.00042   0.00001  -0.00000   0.00001  -0.01130
  22        2PX         0.00336   0.01004   0.00002  -0.00019   0.00930
  23        2PY         0.00000   0.00002  -0.00044   0.00000   0.00007
  24        2PZ         0.00003   0.00015   0.00000  -0.00076   0.00022
  25        3S          0.00005  -0.01130  -0.00004  -0.00097  -0.05121
  26        3PX         0.00916   0.00533  -0.00001  -0.00121   0.00845
  27        3PY         0.00002   0.00013  -0.00525   0.00000   0.00013
  28        3PZ         0.00000   0.00031   0.00000  -0.00546   0.00014
  29 6   H  1S         -0.00010  -0.00041   0.00000  -0.00028  -0.00558
  30        2S         -0.00496  -0.00946   0.00003  -0.00266  -0.02910
  31 7   H  1S         -0.00005  -0.00020  -0.00008  -0.00000  -0.00408
  32        2S         -0.00296  -0.00417  -0.00164  -0.00091  -0.02101
  33 8   H  1S         -0.00001   0.00001  -0.00002  -0.00002  -0.00078
  34        2S         -0.00150  -0.00095  -0.00037  -0.00100  -0.00537
                          11        12        13        14        15
  11        4PX         0.12016
  12        4PY         0.00000   0.04635
  13        4PZ         0.00000   0.00000   0.55942
  14 2   H  1S          0.00017   0.03012   0.01141   0.18335
  15        2S         -0.00033   0.06035   0.02418   0.13634   0.27345
  16 3   H  1S          0.03509   0.00514   0.00317  -0.00002  -0.00249
  17        2S          0.06704   0.01094   0.00384  -0.00280  -0.01782
  18 4   H  1S          0.01677   0.00701   0.01973  -0.00002  -0.00334
  19        2S          0.03858   0.02022   0.05644  -0.00351  -0.02532
  20 5   B  1S          0.00512  -0.00000   0.00001   0.00000   0.00002
  21        2S         -0.01321  -0.00001   0.00012  -0.00000   0.00015
  22        2PX         0.00993  -0.00000  -0.00074  -0.00002  -0.00131
  23        2PY         0.00014  -0.00116   0.00000  -0.00003  -0.00172
  24        2PZ         0.00042   0.00000  -0.00640  -0.00000  -0.00010
  25        3S         -0.06826  -0.00002  -0.00248  -0.00144  -0.00421
  26        3PX        -0.00104  -0.00001  -0.00253  -0.00154  -0.00568
  27        3PY         0.00024  -0.00540   0.00000  -0.00164  -0.00910
  28        3PZ         0.00049   0.00000  -0.01918   0.00005   0.00025
  29 6   H  1S         -0.00893   0.00002  -0.00410  -0.00000  -0.00017
  30        2S         -0.03081   0.00007  -0.01092  -0.00004   0.00211
  31 7   H  1S         -0.00753  -0.00013  -0.00042   0.00000   0.00007
  32        2S         -0.02249  -0.00095  -0.00518   0.00005   0.00207
  33 8   H  1S         -0.00005  -0.00064  -0.00099  -0.00000  -0.00047
  34        2S          0.00077  -0.00223  -0.00683  -0.00006  -0.00125
                          16        17        18        19        20
  16 3   H  1S          0.18023
  17        2S          0.12915   0.23573
  18 4   H  1S         -0.00001  -0.00213   0.18821
  19        2S         -0.00260  -0.01556   0.16003   0.36855
  20 5   B  1S         -0.00000   0.00000   0.00000   0.00170   2.03877
  21        2S          0.00000   0.00002   0.00048  -0.00416   0.01976
  22        2PX        -0.00000  -0.00029   0.00576   0.01288   0.00000
  23        2PY        -0.00000  -0.00001   0.00075   0.00091   0.00000
  24        2PZ         0.00000   0.00001   0.00021  -0.00125   0.00000
  25        3S          0.00018   0.00208  -0.01181  -0.08060  -0.07446
  26        3PX        -0.00020  -0.00108  -0.00264  -0.01586   0.00000
  27        3PY         0.00002   0.00005  -0.00419  -0.01258   0.00000
  28        3PZ         0.00000   0.00005  -0.00236  -0.00853   0.00000
  29 6   H  1S          0.00000   0.00003  -0.00005  -0.00693  -0.00121
  30        2S          0.00003   0.00107  -0.00953  -0.04195   0.00056
  31 7   H  1S          0.00000   0.00000  -0.00009  -0.00375  -0.00122
  32        2S          0.00001   0.00001  -0.00272  -0.01130   0.00090
  33 8   H  1S          0.00000   0.00000  -0.00000  -0.00027  -0.00121
  34        2S          0.00000   0.00013  -0.00038  -0.00174  -0.00007
                          21        22        23        24        25
  21        2S          0.11617
  22        2PX         0.00000   0.03777
  23        2PY         0.00000   0.00000   0.28650
  24        2PZ         0.00000   0.00000  -0.00000   0.27193
  25        3S          0.17255   0.00000   0.00000   0.00000   0.70553
  26        3PX         0.00000   0.00780   0.00000   0.00000   0.00000
  27        3PY         0.00000  -0.00000   0.08290  -0.00000   0.00000
  28        3PZ         0.00000   0.00000  -0.00000   0.05935   0.00000
  29 6   H  1S          0.01514   0.00146   0.00001   0.06815   0.05731
  30        2S          0.02075   0.00118   0.00003   0.09632   0.08305
  31 7   H  1S          0.01543  -0.00004   0.05263   0.01540   0.05754
  32        2S          0.02207  -0.00006   0.06570   0.02035   0.07067
  33 8   H  1S          0.01603   0.00222   0.04901   0.01679   0.05013
  34        2S          0.02507   0.00340   0.05681   0.02285   0.05823
                          26        27        28        29        30
  26        3PX         0.03075
  27        3PY         0.00000   0.08562
  28        3PZ         0.00000  -0.00000   0.04642
  29 6   H  1S          0.00311  -0.00003   0.03317   0.18429
  30        2S          0.00379  -0.00012   0.07179   0.14769   0.32481
  31 7   H  1S          0.00005   0.03503   0.00524  -0.00003  -0.00399
  32        2S         -0.00001   0.06669   0.01206  -0.00379  -0.02385
  33 8   H  1S         -0.00041   0.02849   0.00806  -0.00003  -0.00424
  34        2S          0.00224   0.05076   0.01779  -0.00389  -0.02568
                          31        32        33        34
  31 7   H  1S          0.17817
  32        2S          0.12851   0.24822
  33 8   H  1S         -0.00002  -0.00309   0.17524
  34        2S         -0.00217  -0.01297   0.12351   0.23070
     Gross orbital populations:
                           1
   1 1   P  1S          1.99855
   2        2S          1.96880
   3        2PX         1.95590
   4        2PY         1.95649
   5        2PZ         1.96394
   6        3S          0.79676
   7        3PX         0.64899
   8        3PY         0.62480
   9        3PZ         0.79701
  10        4S          0.76423
  11        4PX         0.22879
  12        4PY         0.22771
  13        4PZ         0.90293
  14 2   H  1S          0.45434
  15        2S          0.54270
  16 3   H  1S          0.44645
  17        2S          0.54556
  18 4   H  1S          0.45800
  19        2S          0.55274
  20 5   B  1S          1.99067
  21        2S          0.39467
  22        2PX         0.10223
  23        2PY         0.59212
  24        2PZ         0.56366
  25        3S          0.95176
  26        3PX         0.03789
  27        3PY         0.31198
  28        3PZ         0.21992
  29 6   H  1S          0.47486
  30        2S          0.55720
  31 7   H  1S          0.46427
  32        2S          0.52081
  33 8   H  1S          0.45724
  34        2S          0.52600
          Condensed to atoms (all electrons):
               1          2          3          4          5          6
     1  P   14.082199   0.346858   0.359084   0.386401  -0.142687  -0.105953
     2  H    0.346858   0.729487  -0.023129  -0.032184  -0.026312   0.001904
     3  H    0.359084  -0.023129   0.674255  -0.020312   0.000836   0.001132
     4  H    0.386401  -0.032184  -0.020312   0.876820  -0.121272  -0.058463
     5  B   -0.142687  -0.026312   0.000836  -0.121272   4.155255   0.454454
     6  H   -0.105953   0.001904   0.001132  -0.058463   0.454454   0.804482
     7  H   -0.071192   0.002195   0.000014  -0.017864   0.438436  -0.031656
     8  H   -0.019790  -0.001778   0.000133  -0.002384   0.406193  -0.033840
               7          8
     1  P   -0.071192  -0.019790
     2  H    0.002195  -0.001778
     3  H    0.000014   0.000133
     4  H   -0.017864  -0.002384
     5  B    0.438436   0.406193
     6  H   -0.031656  -0.033840
     7  H    0.683402  -0.018257
     8  H   -0.018257   0.652966
 Mulliken charges:
               1
     1  P    0.165079
     2  H    0.002959
     3  H    0.007988
     4  H   -0.010742
     5  B   -0.164903
     6  H   -0.032059
     7  H    0.014922
     8  H    0.016756
 Sum of Mulliken charges =  -0.00000
 Mulliken charges with hydrogens summed into heavy atoms:
               1
     1  P    0.165283
     5  B   -0.165283
 Electronic spatial extent (au):  <R**2>=            187.5310
 Charge=             -0.0000 electrons
 Dipole moment (field-independent basis, Debye):
    X=              1.3662    Y=             -0.1463    Z=              1.2623  Tot=              1.8658
 Quadrupole moment (field-independent basis, Debye-Ang):
   XX=            -23.7983   YY=            -23.7122   ZZ=            -27.4579
   XY=             -0.2199   XZ=              0.5607   YZ=             -0.1831
 Traceless Quadrupole moment (field-independent basis, Debye-Ang):
   XX=              1.1912   YY=              1.2773   ZZ=             -2.4684
   XY=             -0.2199   XZ=              0.5607   YZ=             -0.1831
 Octapole moment (field-independent basis, Debye-Ang**2):
  XXX=             11.5022  YYY=             -0.0420  ZZZ=              1.6063  XYY=              5.3555
  XXY=              0.3422  XXZ=              0.2452  XZZ=              3.1586  YZZ=             -0.1188
  YYZ=              0.3053  XYZ=              0.1994
 Hexadecapole moment (field-independent basis, Debye-Ang**3):
 XXXX=           -195.4451 YYYY=            -54.1013 ZZZZ=            -54.7800 XXXY=             -1.5546
 XXXZ=             -0.2526 YYYX=             -0.8695 YYYZ=             -0.2494 ZZZX=              2.0627
 ZZZY=             -0.3139 XXYY=            -46.2948 XXZZ=            -47.9316 YYZZ=            -18.0654
 XXYZ=             -0.8084 YYXZ=             -0.4451 ZZXY=              0.0055
 N-N= 5.873606696427D+01 E-N=-9.892701819311D+02  KE= 3.672878831077D+02
 Orbital energies and kinetic energies (alpha):
                                 1                 2
   1         O               -79.371908        105.407164
   2         O                -7.556273         10.805936
   3         O                -7.456759         16.219664
   4         O                -5.343899         14.534147
   5         O                -5.342148         14.548564
   6         O                -5.337749         14.580895
   7         O                -0.948220          1.340830
   8         O                -0.745405          1.091196
   9         O                -0.601234          0.964302
  10         O                -0.565739          0.988211
  11         O                -0.506621          0.818241
  12         O                -0.457717          1.018548
  13         O                -0.344961          1.326244
  14         V                 0.101345          0.800633
  15         V                 0.187180          0.755921
  16         V                 0.206129          1.039732
  17         V                 0.282256          0.840986
  18         V                 0.334214          0.793208
  19         V                 0.377397          0.963129
  20         V                 0.390200          0.839625
  21         V                 0.561566          1.966533
  22         V                 0.589768          2.075197
  23         V                 0.607954          1.705858
  24         V                 0.629663          1.732601
  25         V                 0.643360          2.324390
  26         V                 0.681009          2.040847
  27         V                 0.761309          2.048424
  28         V                 1.123116          1.988016
  29         V                 1.228197          2.479696
  30         V                 1.303675          2.746163
  31         V                 1.359989          2.544064
  32         V                 1.427673          2.586236
  33         V                 1.449970          2.571219
  34         V                 1.489569          2.623009
 Total kinetic energy from orbitals= 3.672878831077D+02
 Calling FoFJK, ICntrl=      2127 FMM=F ISym2X=0 I1Cent= 0 IOpClX= 0 NMat=1 NMatS=1 NMatT=0.
 ***** Axes restored to original set *****
 -------------------------------------------------------------------
 Center     Atomic                   Forces (Hartrees/Bohr)
 Number     Number              X              Y              Z
 -------------------------------------------------------------------
      1       15          -0.052626255   -0.002426057    0.071377001
      2        1           0.028318444   -0.018285462    0.006156843
      3        1           0.012007596    0.011462709    0.019570337
      4        1           0.036894897    0.023383545    0.027789998
      5        5          -0.019419351   -0.001675035   -0.043916955
      6        1           0.000613846   -0.012575010   -0.049795881
      7        1          -0.004622906    0.001526653   -0.032283953
      8        1          -0.001166270   -0.001411344    0.001102611
 -------------------------------------------------------------------
 Cartesian Forces:  Max     0.071377001 RMS     0.027689079

 GradGradGradGradGradGradGradGradGradGradGradGradGradGradGradGradGradGrad
 Berny optimization.
 FormGI is forming the generalized inverse of G from B-inverse, IUseBI=4.
 Internal  Forces:  Max     0.127973474 RMS     0.040514311
 Search for a local minimum.
 Step number   1 out of a maximum of   38
 All quantities printed in internal units (Hartrees-Bohrs-Radians)
 Mixed Optimization -- RFO/linear search
 Second derivative matrix not updated -- first step.
 ITU=  0
     Eigenvalues ---    0.00230   0.00572   0.03462   0.07678   0.07872
     Eigenvalues ---    0.09273   0.16000   0.16000   0.16000   0.16000
     Eigenvalues ---    0.16000   0.16000   0.25638   0.25638   0.25638
     Eigenvalues ---    0.26185   0.26185   0.26185
 RFO step:  Lambda=-1.59818500D-01 EMin= 2.30000000D-03
 Linear search not attempted -- first point.
 Maximum step size (   0.300) exceeded in Quadratic search.
    -- Step size scaled by   0.411
 Iteration  1 RMS(Cart)=  0.12396005 RMS(Int)=  0.00735187
 Iteration  2 RMS(Cart)=  0.00591846 RMS(Int)=  0.00400060
 Iteration  3 RMS(Cart)=  0.00002349 RMS(Int)=  0.00400054
 Iteration  4 RMS(Cart)=  0.00000045 RMS(Int)=  0.00400054
 Variable       Old X    -DE/DX   Delta X   Delta X   Delta X     New X
                                 (Linear)    (Quad)   (Total)
    R1        2.55113   0.02668   0.00000   0.02633   0.02633   2.57746
    R2        2.55113   0.02539   0.00000   0.02505   0.02505   2.57618
    R3        2.55113   0.00063   0.00000   0.00062   0.00062   2.55175
    R4        4.17629   0.12797   0.00000   0.20815   0.20815   4.38445
    R5        2.22988   0.00061   0.00000   0.00060   0.00060   2.23047
    R6        2.22988   0.00363   0.00000   0.00354   0.00354   2.23342
    R7        2.22988   0.00181   0.00000   0.00176   0.00176   2.23164
    A1        1.91063  -0.02022   0.00000  -0.03191  -0.03263   1.87800
    A2        1.91063   0.01202   0.00000   0.00381   0.00035   1.91099
    A3        1.52149  -0.00330   0.00000  -0.00096   0.00070   1.52219
    A4        1.91063  -0.04654   0.00000  -0.06238  -0.06294   1.84770
    A5        2.69834   0.02959   0.00000   0.03687   0.03698   2.73532
    A6        0.79398   0.07693   0.00000   0.10112   0.10177   0.89575
    A7        1.41713   0.11096   0.00000   0.14315   0.14062   1.55775
    A8        1.55519   0.06844   0.00000   0.08927   0.08757   1.64277
    A9        1.74027  -0.00214   0.00000  -0.00263  -0.00416   1.73611
   A10        2.09440   0.01412   0.00000   0.01372  -0.00257   2.09182
   A11        2.09440  -0.00864   0.00000  -0.00963  -0.01680   2.07760
   A12        2.09440  -0.00548   0.00000  -0.00409  -0.00958   2.08481
    D1       -1.21818   0.01185   0.00000   0.02758   0.02973  -1.18846
    D2        2.96083   0.02257   0.00000   0.04618   0.04162   3.00245
    D3        0.86105   0.01539   0.00000   0.03368   0.03333   0.89438
    D4        1.09252  -0.00276   0.00000  -0.00177   0.00138   1.09390
    D5       -1.01165   0.00796   0.00000   0.01683   0.01328  -0.99837
    D6       -3.11143   0.00077   0.00000   0.00433   0.00499  -3.10644
    D7        0.89535  -0.01572   0.00000  -0.03119  -0.02729   0.86806
    D8       -1.20882  -0.00500   0.00000  -0.01259  -0.01540  -1.22422
    D9        2.97458  -0.01219   0.00000  -0.02509  -0.02369   2.95090
         Item               Value     Threshold  Converged?
 Maximum Force            0.127973     0.000450     NO 
 RMS     Force            0.040514     0.000300     NO 
 Maximum Displacement     0.381066     0.001800     NO 
 RMS     Displacement     0.126954     0.001200     NO 
 Predicted change in Energy=-5.922660D-02
 GradGradGradGradGradGradGradGradGradGradGradGradGradGradGradGradGradGrad

                          Input orientation:                          
 ---------------------------------------------------------------------
 Center     Atomic      Atomic             Coordinates (Angstroms)
 Number     Number       Type             X           Y           Z
 ---------------------------------------------------------------------
      1         15           0       -1.419446    1.567760   -0.015164
      2          1           0       -0.928092    0.295409   -0.018104
      3          1           0       -0.980051    2.176728    1.122624
      4          1           0       -0.877552    2.262383   -1.038512
      5          5           0       -1.780660    1.312697   -2.292785
      6          1           0       -0.612438    1.293565   -2.460230
      7          1           0       -2.373648    2.329490   -2.399182
      8          1           0       -2.374997    0.292281   -2.282220
 ---------------------------------------------------------------------
                    Distance matrix (angstroms):
                    1          2          3          4          5
     1  P    0.000000
     2  H    1.363934   0.000000
     3  H    1.363258   2.200755   0.000000
     4  H    1.350330   2.216477   2.165260   0.000000
     5  B    2.320149   2.633614   3.612830   1.814031   0.000000
     6  H    2.589362   2.657053   3.708364   1.740741   1.180316
     7  H    2.678484   3.449152   3.790589   2.023420   1.181873
     8  H    2.771185   2.686962   4.134003   2.769558   1.180931
                    6          7          8
     6  H    0.000000
     7  H    2.044194   0.000000
     8  H    2.034913   2.040565   0.000000
 Stoichiometry    BH6P
 Framework group  C1[X(BH6P)]
 Deg. of freedom    18
 Full point group                 C1      NOp   1
 Largest Abelian subgroup         C1      NOp   1
 Largest concise Abelian subgroup C1      NOp   1
                         Standard orientation:                         
 ---------------------------------------------------------------------
 Center     Atomic      Atomic             Coordinates (Angstroms)
 Number     Number       Type             X           Y           Z
 ---------------------------------------------------------------------
      1         15           0        0.709011    0.003810   -0.076114
      2          1           0        0.651949    1.267958    0.432796
      3          1           0        1.969697   -0.469540    0.136214
      4          1           0       -0.112062   -0.803377    0.629349
      5          5           0       -1.610199   -0.005557   -0.010791
      6          1           0       -1.561584   -0.004406    1.168523
      7          1           0       -1.707530   -1.028563   -0.594580
      8          1           0       -1.824647    1.008559   -0.576634
 ---------------------------------------------------------------------
 Rotational constants (GHZ):          68.3224968           8.4253108           8.1834323
 Standard basis: 3-21G (6D, 7F)
 There are    34 symmetry adapted cartesian basis functions of A   symmetry.
 There are    34 symmetry adapted basis functions of A   symmetry.
    34 basis functions,    60 primitive gaussians,    34 cartesian basis functions
    13 alpha electrons       13 beta electrons
       nuclear repulsion energy        56.6545713982 Hartrees.
 NAtoms=    8 NActive=    8 NUniq=    8 SFac= 1.00D+00 NAtFMM=   60 NAOKFM=F Big=F
 Integral buffers will be    131072 words long.
 Raffenetti 1 integral format.
 Two-electron integral symmetry is turned on.
 One-electron integrals computed using PRISM.
 NBasis=    34 RedAO= T EigKep=  1.38D-02  NBF=    34
 NBsUse=    34 1.00D-06 EigRej= -1.00D+00 NBFU=    34
 Initial guess from the checkpoint file:  "PH3_BH3_adduct_opt.chk"
 B after Tr=     0.000000   -0.000000   -0.000000
         Rot=    0.999936   -0.011037    0.002319    0.001247 Ang=  -1.30 deg.
 ExpMin= 1.23D-01 ExpMax= 1.05D+03 ExpMxC= 1.05D+03 IAcc=3 IRadAn=         5 AccDes= 0.00D+00
 Harris functional with IExCor=  205 and IRadAn=       5 diagonalized for initial guess.
 HarFok:  IExCor=  205 AccDes= 0.00D+00 IRadAn=         5 IDoV= 1 UseB2=F ITyADJ=14
 ICtDFT=  3500011 ScaDFX=  1.000000  1.000000  1.000000  1.000000
 FoFCou: FMM=F IPFlag=           0 FMFlag=      100000 FMFlg1=           0
         NFxFlg=           0 DoJE=T BraDBF=F KetDBF=T FulRan=T
         wScrn=  0.000000 ICntrl=       500 IOpCl=  0 I1Cent=   200000004 NGrid=           0
         NMat0=    1 NMatS0=      1 NMatT0=    0 NMatD0=    1 NMtDS0=    0 NMtDT0=    0
 Petite list used in FoFCou.
 Keep R1 ints in memory in canonical form, NReq=988982.
 Requested convergence on RMS density matrix=1.00D-08 within 128 cycles.
 Requested convergence on MAX density matrix=1.00D-06.
 Requested convergence on             energy=1.00D-06.
 No special actions if energy rises.
 SCF Done:  E(RHF) =  -366.881921566     A.U. after   11 cycles
            NFock= 11  Conv=0.44D-08     -V/T= 1.9994
 Calling FoFJK, ICntrl=      2127 FMM=F ISym2X=0 I1Cent= 0 IOpClX= 0 NMat=1 NMatS=1 NMatT=0.
 ***** Axes restored to original set *****
 -------------------------------------------------------------------
 Center     Atomic                   Forces (Hartrees/Bohr)
 Number     Number              X              Y              Z
 -------------------------------------------------------------------
      1       15          -0.047241669   -0.004026231    0.042646604
      2        1           0.024399977   -0.011783082    0.003668566
      3        1           0.009482389    0.007443685    0.014975052
      4        1           0.034496477    0.015480575    0.006630381
      5        5          -0.018783792   -0.001155730   -0.044439295
      6        1           0.000157814   -0.004216684   -0.015218363
      7        1          -0.001026867    0.000346993   -0.012561239
      8        1          -0.001484329   -0.002089527    0.004298294
 -------------------------------------------------------------------
 Cartesian Forces:  Max     0.047241669 RMS     0.019811609

 GradGradGradGradGradGradGradGradGradGradGradGradGradGradGradGradGradGrad
 Berny optimization.
 Using GEDIIS/GDIIS optimizer.
 FormGI is forming the generalized inverse of G from B-inverse, IUseBI=4.
 Internal  Forces:  Max     0.070748565 RMS     0.021364078
 Search for a local minimum.
 Step number   2 out of a maximum of   38
 All quantities printed in internal units (Hartrees-Bohrs-Radians)
 Mixed Optimization -- RFO/linear search
 Update second derivatives using D2CorX and points    1    2
 DE= -4.82D-02 DEPred=-5.92D-02 R= 8.14D-01
 TightC=F SS=  1.41D+00  RLast= 3.08D-01 DXNew= 5.0454D-01 9.2335D-01
 Trust test= 8.14D-01 RLast= 3.08D-01 DXMaxT set to 5.05D-01
 ITU=  1  0
 Use linear search instead of GDIIS.
     Eigenvalues ---    0.00231   0.00563   0.04021   0.07716   0.08013
     Eigenvalues ---    0.10769   0.14986   0.16000   0.16000   0.16000
     Eigenvalues ---    0.16000   0.24427   0.25337   0.25638   0.26176
     Eigenvalues ---    0.26182   0.26185   0.42478
 RFO step:  Lambda=-5.72489417D-02 EMin= 2.30848672D-03
 Quartic linear search produced a step of  1.64623.
 Iteration  1 RMS(Cart)=  0.18378873 RMS(Int)=  0.07970401
 Iteration  2 RMS(Cart)=  0.09267210 RMS(Int)=  0.03611054
 Iteration  3 RMS(Cart)=  0.03874288 RMS(Int)=  0.02176677
 Iteration  4 RMS(Cart)=  0.00022706 RMS(Int)=  0.02176611
 Iteration  5 RMS(Cart)=  0.00001070 RMS(Int)=  0.02176611
 Iteration  6 RMS(Cart)=  0.00000054 RMS(Int)=  0.02176611
 Variable       Old X    -DE/DX   Delta X   Delta X   Delta X     New X
                                 (Linear)    (Quad)   (Total)
    R1        2.57746   0.01977   0.04335   0.05265   0.09600   2.67346
    R2        2.57618   0.01888   0.04124   0.05062   0.09187   2.66805
    R3        2.55175   0.01678   0.00103   0.13364   0.13467   2.68642
    R4        4.38445   0.07075   0.34266   0.20463   0.54729   4.93174
    R5        2.23047   0.00238   0.00098   0.01657   0.01755   2.24803
    R6        2.23342   0.00194   0.00583   0.00105   0.00688   2.24030
    R7        2.23164   0.00259   0.00290   0.01348   0.01638   2.24801
    A1        1.87800  -0.01652  -0.05372  -0.12601  -0.18480   1.69320
    A2        1.91099   0.00047   0.00058  -0.16489  -0.24897   1.66201
    A3        1.52219   0.00223   0.00116   0.07200   0.09737   1.61957
    A4        1.84770  -0.03022  -0.10361  -0.11021  -0.21225   1.63544
    A5        2.73532   0.01740   0.06088   0.02686   0.08369   2.81900
    A6        0.89575   0.04842   0.16754   0.15410   0.32163   1.21738
    A7        1.55775   0.03314   0.23150  -0.21355   0.01241   1.57016
    A8        1.64277   0.02660   0.14417  -0.05713   0.08381   1.72657
    A9        1.73611  -0.01057  -0.00685  -0.09886  -0.10730   1.62881
   A10        2.09182  -0.00336  -0.00424   0.01294  -0.01836   2.07346
   A11        2.07760  -0.00542  -0.02765   0.04607   0.00693   2.08453
   A12        2.08481  -0.00384  -0.01577   0.03552   0.01403   2.09885
    D1       -1.18846   0.01344   0.04893   0.17077   0.19784  -0.99062
    D2        3.00245   0.01361   0.06852   0.17546   0.21002  -3.07071
    D3        0.89438   0.01319   0.05487   0.17053   0.20044   1.09482
    D4        1.09390   0.00128   0.00228   0.03907   0.04679   1.14069
    D5       -0.99837   0.00145   0.02186   0.04375   0.05897  -0.93940
    D6       -3.10644   0.00104   0.00822   0.03882   0.04938  -3.05706
    D7        0.86806  -0.01113  -0.04493  -0.19527  -0.20860   0.65946
    D8       -1.22422  -0.01096  -0.02535  -0.19059  -0.19642  -1.42064
    D9        2.95090  -0.01137  -0.03899  -0.19552  -0.20600   2.74490
         Item               Value     Threshold  Converged?
 Maximum Force            0.070749     0.000450     NO 
 RMS     Force            0.021364     0.000300     NO 
 Maximum Displacement     0.710982     0.001800     NO 
 RMS     Displacement     0.286610     0.001200     NO 
 Predicted change in Energy=-3.632685D-02
 GradGradGradGradGradGradGradGradGradGradGradGradGradGradGradGradGradGrad

                          Input orientation:                          
 ---------------------------------------------------------------------
 Center     Atomic      Atomic             Coordinates (Angstroms)
 Number     Number       Type             X           Y           Z
 ---------------------------------------------------------------------
      1         15           0       -1.467413    1.579392    0.066891
      2          1           0       -0.704890    0.390059    0.141153
      3          1           0       -1.055954    2.125386    1.302193
      4          1           0       -0.501317    2.306120   -0.681073
      5          5           0       -1.902184    1.292314   -2.490338
      6          1           0       -0.729145    1.257417   -2.685080
      7          1           0       -2.484847    2.304748   -2.692640
      8          1           0       -2.501134    0.274874   -2.344679
 ---------------------------------------------------------------------
                    Distance matrix (angstroms):
                    1          2          3          4          5
     1  P    0.000000
     2  H    1.414733   0.000000
     3  H    1.411872   2.117220   0.000000
     4  H    1.421592   2.094943   2.067276   0.000000
     5  B    2.609762   3.028585   3.974092   2.502733   0.000000
     6  H    2.867412   2.956433   4.093718   2.273264   1.189605
     7  H    3.029244   3.855472   4.246480   2.825030   1.185515
     8  H    2.930190   3.069059   4.337352   3.300427   1.189598
                    6          7          8
     6  H    0.000000
     7  H    2.044370   0.000000
     8  H    2.054558   2.059547   0.000000
 Stoichiometry    BH6P
 Framework group  C1[X(BH6P)]
 Deg. of freedom    18
 Full point group                 C1      NOp   1
 Largest Abelian subgroup         C1      NOp   1
 Largest concise Abelian subgroup C1      NOp   1
                         Standard orientation:                         
 ---------------------------------------------------------------------
 Center     Atomic      Atomic             Coordinates (Angstroms)
 Number     Number       Type             X           Y           Z
 ---------------------------------------------------------------------
      1         15           0        0.774000    0.007029   -0.107472
      2          1           0        0.871767    1.145156    0.727141
      3          1           0        2.119053   -0.406658    0.006883
      4          1           0        0.321526   -0.867188    0.918168
      5          5           0       -1.833955    0.001798   -0.010507
      6          1           0       -1.788932   -0.062843    1.176488
      7          1           0       -2.039022   -0.988555   -0.629048
      8          1           0       -1.924613    1.065661   -0.535025
 ---------------------------------------------------------------------
 Rotational constants (GHZ):          62.2385461           6.6628105           6.6069169
 Standard basis: 3-21G (6D, 7F)
 There are    34 symmetry adapted cartesian basis functions of A   symmetry.
 There are    34 symmetry adapted basis functions of A   symmetry.
    34 basis functions,    60 primitive gaussians,    34 cartesian basis functions
    13 alpha electrons       13 beta electrons
       nuclear repulsion energy        52.3752288913 Hartrees.
 NAtoms=    8 NActive=    8 NUniq=    8 SFac= 1.00D+00 NAtFMM=   60 NAOKFM=F Big=F
 Integral buffers will be    131072 words long.
 Raffenetti 1 integral format.
 Two-electron integral symmetry is turned on.
 One-electron integrals computed using PRISM.
 NBasis=    34 RedAO= T EigKep=  1.66D-02  NBF=    34
 NBsUse=    34 1.00D-06 EigRej= -1.00D+00 NBFU=    34
 Initial guess from the checkpoint file:  "PH3_BH3_adduct_opt.chk"
 B after Tr=     0.000000   -0.000000   -0.000000
         Rot=    0.999417   -0.032713   -0.009575    0.002035 Ang=  -3.91 deg.
 ExpMin= 1.23D-01 ExpMax= 1.05D+03 ExpMxC= 1.05D+03 IAcc=3 IRadAn=         5 AccDes= 0.00D+00
 Harris functional with IExCor=  205 and IRadAn=       5 diagonalized for initial guess.
 HarFok:  IExCor=  205 AccDes= 0.00D+00 IRadAn=         5 IDoV= 1 UseB2=F ITyADJ=14
 ICtDFT=  3500011 ScaDFX=  1.000000  1.000000  1.000000  1.000000
 FoFCou: FMM=F IPFlag=           0 FMFlag=      100000 FMFlg1=           0
         NFxFlg=           0 DoJE=T BraDBF=F KetDBF=T FulRan=T
         wScrn=  0.000000 ICntrl=       500 IOpCl=  0 I1Cent=   200000004 NGrid=           0
         NMat0=    1 NMatS0=      1 NMatT0=    0 NMatD0=    1 NMtDS0=    0 NMtDT0=    0
 Petite list used in FoFCou.
 Keep R1 ints in memory in canonical form, NReq=988825.
 Requested convergence on RMS density matrix=1.00D-08 within 128 cycles.
 Requested convergence on MAX density matrix=1.00D-06.
 Requested convergence on             energy=1.00D-06.
 No special actions if energy rises.
 SCF Done:  E(RHF) =  -366.933500481     A.U. after   12 cycles
            NFock= 12  Conv=0.36D-08     -V/T= 2.0006
 Calling FoFJK, ICntrl=      2127 FMM=F ISym2X=0 I1Cent= 0 IOpClX= 0 NMat=1 NMatS=1 NMatT=0.
 ***** Axes restored to original set *****
 -------------------------------------------------------------------
 Center     Atomic                   Forces (Hartrees/Bohr)
 Number     Number              X              Y              Z
 -------------------------------------------------------------------
      1       15           0.012307943    0.003649022    0.004052024
      2        1           0.000737672   -0.001757618    0.002402156
      3        1          -0.005724103    0.000181767    0.005320346
      4        1           0.002530199    0.001455332    0.004205934
      5        5          -0.009118022   -0.004990932   -0.019308580
      6        1          -0.000441671   -0.000710825    0.001985249
      7        1          -0.000703380    0.000608559    0.000992844
      8        1           0.000411361    0.001564695    0.000350029
 -------------------------------------------------------------------
 Cartesian Forces:  Max     0.019308580 RMS     0.005656998

 GradGradGradGradGradGradGradGradGradGradGradGradGradGradGradGradGradGrad
 Berny optimization.
 Using GEDIIS/GDIIS optimizer.
 FormGI is forming the generalized inverse of G from B-inverse, IUseBI=4.
 Internal  Forces:  Max     0.017688154 RMS     0.004832833
 Search for a local minimum.
 Step number   3 out of a maximum of   38
 All quantities printed in internal units (Hartrees-Bohrs-Radians)
 Mixed Optimization -- RFO/linear search
 Update second derivatives using D2CorX and points    2    3
 DE= -5.16D-02 DEPred=-3.63D-02 R= 1.42D+00
 TightC=F SS=  1.41D+00  RLast= 9.34D-01 DXNew= 8.4853D-01 2.8021D+00
 Trust test= 1.42D+00 RLast= 9.34D-01 DXMaxT set to 8.49D-01
 ITU=  1  1  0
 Use linear search instead of GDIIS.
     Eigenvalues ---    0.00231   0.00582   0.06324   0.07734   0.07915
     Eigenvalues ---    0.08560   0.13353   0.15999   0.16000   0.16000
     Eigenvalues ---    0.16238   0.23907   0.25355   0.25641   0.26181
     Eigenvalues ---    0.26183   0.26196   0.34950
 RFO step:  Lambda=-5.58760624D-03 EMin= 2.30745506D-03
 Quartic linear search produced a step of  0.25503.
 Iteration  1 RMS(Cart)=  0.09541198 RMS(Int)=  0.01921284
 Iteration  2 RMS(Cart)=  0.02378083 RMS(Int)=  0.00682374
 Iteration  3 RMS(Cart)=  0.00023009 RMS(Int)=  0.00681163
 Iteration  4 RMS(Cart)=  0.00000389 RMS(Int)=  0.00681163
 Iteration  5 RMS(Cart)=  0.00000005 RMS(Int)=  0.00681163
 Variable       Old X    -DE/DX   Delta X   Delta X   Delta X     New X
                                 (Linear)    (Quad)   (Total)
    R1        2.67346   0.00200   0.02448  -0.00364   0.02085   2.69430
    R2        2.66805   0.00306   0.02343   0.00204   0.02547   2.69352
    R3        2.68642   0.00025   0.03434  -0.00976   0.02458   2.71100
    R4        4.93174   0.01769   0.13958   0.10340   0.24297   5.17471
[...]
      6        1           0.000005864    0.000010380   -0.000003510
      7        1           0.000015954    0.000010337   -0.000002884
      8        1           0.000010808   -0.000001757    0.000000682
 -------------------------------------------------------------------
 Cartesian Forces:  Max     0.000028149 RMS     0.000011512
 FormGI is forming the generalized inverse of G from B-inverse, IUseBI=4.

 GradGradGradGradGradGradGradGradGradGradGradGradGradGradGradGradGradGrad
 Berny optimization.
 Internal  Forces:  Max     0.000019898 RMS     0.000007225
 Search for a local minimum.
 Step number   1 out of a maximum of    2
 All quantities printed in internal units (Hartrees-Bohrs-Radians)
 Second derivative matrix not updated -- analytic derivatives used.
 ITU=  0
     Eigenvalues ---    0.00078   0.01632   0.01816   0.01818   0.04294
     Eigenvalues ---    0.04295   0.08816   0.08817   0.10615   0.14847
     Eigenvalues ---    0.14848   0.19281   0.23011   0.23013   0.23678
     Eigenvalues ---    0.24933   0.24936   0.25963
 Angle between quadratic step and forces=  66.48 degrees.
 Linear search not attempted -- first point.
 Iteration  1 RMS(Cart)=  0.00046199 RMS(Int)=  0.00000009
 Iteration  2 RMS(Cart)=  0.00000009 RMS(Int)=  0.00000001
 Variable       Old X    -DE/DX   Delta X   Delta X   Delta X     New X
                                 (Linear)    (Quad)   (Total)
    R1        2.65888  -0.00000   0.00000  -0.00002  -0.00002   2.65887
    R2        2.65892  -0.00001   0.00000  -0.00005  -0.00005   2.65887
    R3        2.65886   0.00001   0.00000   0.00000   0.00000   2.65887
    R4        4.18064  -0.00002   0.00000  -0.00093  -0.00093   4.17971
    R5        2.26417   0.00000   0.00000   0.00005   0.00005   2.26422
    R6        2.26418   0.00000   0.00000   0.00004   0.00004   2.26422
    R7        2.26424  -0.00001   0.00000  -0.00002  -0.00002   2.26422
    A1        1.75452   0.00000   0.00000  -0.00001  -0.00001   1.75452
    A2        1.75449  -0.00000   0.00000   0.00003   0.00003   1.75452
    A3        2.04881  -0.00000   0.00000  -0.00009  -0.00009   2.04872
    A4        1.75440   0.00001   0.00000   0.00012   0.00012   1.75452
    A5        2.04894  -0.00001   0.00000  -0.00022  -0.00022   2.04872
    A6        2.04853   0.00001   0.00000   0.00019   0.00019   2.04872
    A7        1.75275  -0.00000   0.00000   0.00014   0.00014   1.75289
    A8        1.75282  -0.00001   0.00000   0.00007   0.00007   1.75289
    A9        1.75281  -0.00000   0.00000   0.00009   0.00009   1.75289
   A10        2.03877  -0.00001   0.00000  -0.00030  -0.00030   2.03847
   A11        2.03850   0.00000   0.00000  -0.00003  -0.00003   2.03847
   A12        2.03831   0.00001   0.00000   0.00015   0.00015   2.03847
    D1       -1.04625  -0.00001   0.00000  -0.00095  -0.00095  -1.04720
    D2       -3.14089   0.00000   0.00000  -0.00070  -0.00070   3.14159
    D3        1.04811  -0.00001   0.00000  -0.00091  -0.00091   1.04720
    D4       -3.14092  -0.00000   0.00000  -0.00067  -0.00067   3.14159
    D5        1.04761   0.00001   0.00000  -0.00042  -0.00042   1.04720
    D6       -1.04657   0.00000   0.00000  -0.00063  -0.00063  -1.04720
    D7        1.04802  -0.00001   0.00000  -0.00082  -0.00082   1.04720
    D8       -1.04663   0.00001   0.00000  -0.00057  -0.00057  -1.04720
    D9       -3.14081  -0.00000   0.00000  -0.00078  -0.00078   3.14159
         Item               Value     Threshold  Converged?
 Maximum Force            0.000020     0.000450     YES
 RMS     Force            0.000007     0.000300     YES
 Maximum Displacement     0.000954     0.001800     YES
 RMS     Displacement     0.000462     0.001200     YES
 Predicted change in Energy=-1.865755D-08
 Optimization completed.
    -- Stationary point found.
                           ----------------------------
                           !   Optimized Parameters   !
                           ! (Angstroms and Degrees)  !
 --------------------------                            --------------------------
 ! Name  Definition              Value          Derivative Info.                !
 --------------------------------------------------------------------------------
 ! R1    R(1,2)                  1.407          -DE/DX =    0.0                 !
 ! R2    R(1,3)                  1.407          -DE/DX =    0.0                 !
 ! R3    R(1,4)                  1.407          -DE/DX =    0.0                 !
 ! R4    R(1,5)                  2.2123         -DE/DX =    0.0                 !
 ! R5    R(5,6)                  1.1981         -DE/DX =    0.0                 !
 ! R6    R(5,7)                  1.1982         -DE/DX =    0.0                 !
 ! R7    R(5,8)                  1.1982         -DE/DX =    0.0                 !
 ! A1    A(2,1,3)              100.5268         -DE/DX =    0.0                 !
 ! A2    A(2,1,4)              100.5247         -DE/DX =    0.0                 !
 ! A3    A(2,1,5)              117.3879         -DE/DX =    0.0                 !
 ! A4    A(3,1,4)              100.5195         -DE/DX =    0.0                 !
 ! A5    A(3,1,5)              117.3953         -DE/DX =    0.0                 !
 ! A6    A(4,1,5)              117.3722         -DE/DX =    0.0                 !
 ! A7    A(1,5,6)              100.4254         -DE/DX =    0.0                 !
 ! A8    A(1,5,7)              100.4294         -DE/DX =    0.0                 !
 ! A9    A(1,5,8)              100.4284         -DE/DX =    0.0                 !
 ! A10   A(6,5,7)              116.8128         -DE/DX =    0.0                 !
 ! A11   A(6,5,8)              116.7973         -DE/DX =    0.0                 !
 ! A12   A(7,5,8)              116.7868         -DE/DX =    0.0                 !
 ! D1    D(2,1,5,6)            -59.9454         -DE/DX =    0.0                 !
 ! D2    D(2,1,5,7)            180.04           -DE/DX =    0.0                 !
 ! D3    D(2,1,5,8)             60.0523         -DE/DX =    0.0                 !
 ! D4    D(3,1,5,6)            180.0384         -DE/DX =    0.0                 !
 ! D5    D(3,1,5,7)             60.0239         -DE/DX =    0.0                 !
 ! D6    D(3,1,5,8)            -59.9639         -DE/DX =    0.0                 !
 ! D7    D(4,1,5,6)             60.0469         -DE/DX =    0.0                 !
 ! D8    D(4,1,5,7)            -59.9677         -DE/DX =    0.0                 !
 ! D9    D(4,1,5,8)            180.0446         -DE/DX =    0.0                 !
 --------------------------------------------------------------------------------
 GradGradGradGradGradGradGradGradGradGradGradGradGradGradGradGradGradGrad


 ----------------------------------------------------------------------

 Electric dipole moment (input orientation):
 (Debye = 10**-18 statcoulomb cm , SI units = C m)
                  (au)            (Debye)         (10**-30 SI)
   Tot        0.162670D+01      0.413466D+01      0.137917D+02
   x          0.676602D+00      0.171975D+01      0.573647D+01
   y          0.170410D+00      0.433139D+00      0.144480D+01
   z          0.146946D+01      0.373500D+01      0.124586D+02

 Dipole polarizability, Alpha (input orientation).
 (esu units = cm**3 , SI units = C**2 m**2 J**-1)
 Alpha(0;0):
               (au)            (10**-24 esu)      (10**-40 SI)
   iso        0.371361D+02      0.550300D+01      0.612291D+01
   aniso      0.959370D+01      0.142164D+01      0.158179D+01
   xx         0.355971D+02      0.527494D+01      0.586916D+01
   yx         0.416637D+00      0.617393D-01      0.686942D-01
   yy         0.340433D+02      0.504469D+01      0.561298D+01
   zx         0.360385D+01      0.534035D+00      0.594194D+00
   zy         0.908059D+00      0.134560D+00      0.149719D+00
   zz         0.417679D+02      0.618936D+01      0.688659D+01

 First dipole hyperpolarizability, Beta (input orientation).
 ||, _|_  parallel and perpendicular components, (z) with respect to z axis,
 vector components x,y,z.  Values do not include the 1/n! factor of 1/2.
 (esu units = statvolt**-1 cm**4 , SI units = C**3 m**3 J**-2)
 Beta(0;0,0):
               (au)            (10**-30 esu)      (10**-50 SI)
   || (z)    -0.318045D+02     -0.274766D+00     -0.101977D+00
   _|_(z)    -0.106015D+02     -0.915887D-01     -0.339922D-01
   x         -0.732410D+02     -0.632746D+00     -0.234837D+00
   y         -0.184505D+02     -0.159398D+00     -0.591590D-01
   z         -0.159023D+03     -0.137383D+01     -0.509884D+00
   ||         0.352096D+02      0.304183D+00      0.112895D+00
   xxx        0.117956D+02      0.101905D+00      0.378211D-01
   xxy       -0.446197D+00     -0.385479D-02     -0.143067D-02
   yxy        0.777090D+01      0.671345D-01      0.249163D-01
   yyy        0.520654D+01      0.449804D-01      0.166940D-01
   xxz       -0.665423D+01     -0.574873D-01     -0.213359D-01
   yxz       -0.624322D+01     -0.539365D-01     -0.200180D-01
   yyz        0.151390D+02      0.130790D+00      0.485413D-01
   zxz       -0.439802D+02     -0.379955D+00     -0.141017D+00
   zyz       -0.109105D+02     -0.942583D-01     -0.349831D-01
   zzz       -0.614923D+02     -0.531246D+00     -0.197167D+00

 ----------------------------------------------------------------------

 Dipole orientation:
    15         -1.57723258          3.00140862         -1.04644050
     1         -0.80640116          0.76993501          0.17667064
     1         -3.89499250          3.45010582          0.17687261
     1         -0.02982281          4.78475551          0.17615791
     5         -1.57698303          3.00151095         -5.22707896
     1          0.60895496          2.57678498         -5.63667304
     1         -2.30261063          5.10674431         -5.63694139
     1         -3.03770679          1.32074277         -5.63704774

 Electric dipole moment (dipole orientation):
 (Debye = 10**-18 statcoulomb cm , SI units = C m)
                  (au)            (Debye)         (10**-30 SI)
   Tot        0.162670D+01      0.413466D+01      0.137917D+02
   x          0.000000D+00      0.000000D+00      0.000000D+00
   y          0.000000D+00      0.000000D+00      0.000000D+00
   z          0.162670D+01      0.413466D+01      0.137917D+02

 Dipole polarizability, Alpha (dipole orientation).
 (esu units = cm**3 , SI units = C**2 m**2 J**-1)
 Alpha(0;0):
               (au)            (10**-24 esu)      (10**-40 SI)
   iso        0.371361D+02      0.550300D+01      0.612291D+01
   aniso      0.959370D+01      0.142164D+01      0.158179D+01
   xx         0.339383D+02      0.502914D+01      0.559568D+01
   yx        -0.119325D-02     -0.176821D-03     -0.196740D-03
   yy         0.339380D+02      0.502909D+01      0.559562D+01
   zx        -0.135565D-02     -0.200887D-03     -0.223517D-03
   zy        -0.463662D-03     -0.687077D-04     -0.764476D-04
   zz         0.435319D+02      0.645076D+01      0.717744D+01

 First dipole hyperpolarizability, Beta (dipole orientation).
 ||, _|_  parallel and perpendicular components, (z) with respect to z axis,
 vector components x,y,z.  Values do not include the 1/n! factor of 1/2.
 (esu units = statvolt**-1 cm**4 , SI units = C**3 m**3 J**-2)
 Beta(0;0,0):
               (au)            (10**-30 esu)      (10**-50 SI)
   || (z)    -0.352096D+02     -0.304183D+00     -0.112895D+00
   _|_(z)    -0.117365D+02     -0.101394D+00     -0.376315D-01
   x         -0.183956D-01     -0.158923D-03     -0.589829D-04
   y         -0.853467D-02     -0.737329D-04     -0.273652D-04
   z         -0.176048D+03     -0.152092D+01     -0.564473D+00
   ||         0.352096D+02      0.304183D+00      0.112895D+00
   xxx       -0.769542D+00     -0.664824D-02     -0.246743D-02
   xxy        0.456713D+00      0.394565D-02      0.146439D-02
   yxy        0.769724D+00      0.664982D-02      0.246801D-02
   yyy       -0.456021D+00     -0.393967D-02     -0.146217D-02
   xxz        0.187198D+02      0.161725D+00      0.600225D-01
   yxz       -0.629585D-02     -0.543912D-04     -0.201868D-04
   yyz        0.187139D+02      0.161674D+00      0.600036D-01
   zxz       -0.631413D-02     -0.545491D-04     -0.202454D-04
   zyz       -0.353724D-02     -0.305590D-04     -0.113417D-04
   zzz       -0.961163D+02     -0.830370D+00     -0.308184D+00

 ----------------------------------------------------------------------
 1\1\GINC-IISERK51\Freq\RHF\3-21G\B1H6P1\GAUSSIAN\17-Jun-2025\0\\#N Geo
 m=AllCheck Guess=TCheck SCRF=Check GenChk RHF/3-21G Freq\\Title Card R
 equired\\0,1\P,-1.0254573961,1.540216318,-0.3194574564\H,-0.3583833878
 ,0.4246457338,0.2192632273\H,-1.8766612087,1.8721808425,0.7505925937\H
 ,-0.0335381374,2.5275113715,-0.174473725\B,-1.9455118573,1.3085106834,
 -2.3179762597\H,-0.978912664,1.0358640264,-2.9713610029\H,-2.410311068
 ,2.4021983421,-2.4708933847\H,-2.7181083907,0.4191834823,-2.0992674722
 \\Version=EM64L-G16RevB.01\State=1-A\HF=-366.955197\RMSD=2.414e-10\RMS
 F=1.151e-05\ZeroPoint=0.0583605\Thermal=0.0632937\Dipole=0.6766019,0.1
 704101,1.469463\DipoleDeriv=0.5241542,-0.0138496,-0.1194672,-0.0138544
 ,0.5755976,-0.0300689,-0.1194779,-0.030069,0.3194629,-0.1124512,0.0497
 125,-0.0454673,-0.0001842,-0.0776304,-0.0043669,-0.0807822,0.0949979,-
 0.1657189,-0.0587564,-0.0117316,-0.0517623,0.0095044,-0.0771272,-0.019
 7037,0.0616418,-0.0372002,-0.2199386,-0.1315153,-0.0523988,-0.0272899,
 -0.0237763,-0.0942379,-0.0072964,-0.1053095,-0.0891433,-0.1300538,0.42
 72337,0.0389121,0.3358715,0.0390069,0.2824644,0.0845779,0.3357661,0.08
 45396,1.0021512,-0.2485399,0.0323557,0.0521716,0.0278331,-0.1167919,-0
 .0492114,0.0281328,-0.0454516,-0.3225555,-0.1703375,0.0681531,-0.08558
 93,0.0787031,-0.2707764,0.0384605,-0.0781282,0.017349,-0.246755,-0.229
 7877,-0.1111533,-0.0584669,-0.1172327,-0.2214982,-0.0123911,-0.0418429
 ,0.0049776,-0.2365923\Polar=35.5970693,0.4166374,34.043259,3.6038453,0
 .908059,41.7678867\PolarDeriv=-2.425254,-1.3633514,-3.4720293,-3.14653
 83,0.7973852,-0.6606077,-1.4382535,-3.1722562,0.4111971,0.79711,-2.138
 4809,-0.6261185,-3.7997714,0.7965705,-2.7911199,-0.3629503,-0.5530298,
 -7.6497822,4.7785174,-3.7834208,1.5432392,2.1149945,-1.2255073,0.27307
 18,-1.2339681,3.1157137,-7.7623969,-1.1892588,2.8290403,-1.8317599,1.1
 211445,-1.1064112,1.5314453,1.7035428,-4.4928791,2.8162532,-5.2513442,
 1.1488673,-0.0483929,3.3478695,-0.5902001,-2.8780683,0.3470893,-2.1122
 912,2.0126328,-0.574174,3.3636121,0.8973092,0.7812191,-0.5150789,1.168
 7211,-4.8693454,1.6136889,8.6888238,7.7554721,4.2507033,2.0856709,1.20
 7756,0.6844518,-0.0858251,2.066845,4.3076033,6.9194548,0.6326423,1.329
 8193,0.6450146,1.011245,0.4906459,1.0650793,2.2066571,3.0275306,-0.438
 0611,-2.0397828,1.5153348,2.8021674,0.9763412,-1.0021452,-0.1580221,1.
 5494988,2.6634916,-2.0020741,-1.0026314,-0.8577436,0.6052673,1.2793906
 ,-1.0017248,-0.5552085,-0.2957361,0.5707649,0.5824479,4.9904582,-1.019
 4549,0.5624913,-2.2000269,0.795183,4.1496734,-0.578406,0.9124041,-1.13
 92918,0.5028675,-1.9142377,-0.9376091,-0.210737,0.3319711,-0.9543042,3
 .0264788,-0.9294736,-4.9588671,-2.834683,2.0255246,-1.3376782,-1.33817
 26,0.9762373,-0.2683093,1.7673293,-2.5148175,6.336762,1.3460405,-1.785
 6921,2.7396815,-0.4871851,0.5102403,0.0823894,-0.5240763,2.6796905,-0.
 7742546,-4.9733837,-2.7742028,-2.1354685,-0.9622235,-0.4354048,-0.3719
 127,-2.4801347,-3.1998477,-4.7762839,-0.5125959,-0.8263174,-1.491785,0
 .3046943,0.4937871,0.4529976,-0.8845706,-1.9162923,1.7334401\HyperPola
 r=11.7956498,-0.4461965,7.7708971,5.2065383,-6.654227,-6.2432152,15.13
 90474,-43.9802257,-10.910514,-61.4923207\Quadrupole=0.4205042,0.845804
 4,-1.2663086,-0.1146647,-0.9860881,-0.2484706\PG=C01 [X(B1H6P1)]\NImag
 =0\\0.32149967,-0.00333421,0.33391762,-0.02872959,-0.00723727,0.272321
 26,-0.07589641,0.07464711,-0.03263405,0.07486834,0.06561560,-0.1419021
 5,0.05356300,-0.07607217,0.15897582,-0.03902774,0.07155353,-0.06004510
 ,0.03257781,-0.06123356,0.05299651,-0.09004572,0.02324649,0.07702220,-
 0.00794872,0.00318739,0.00792243,0.10490392,0.02709022,-0.04330382,-0.
 03278477,0.01244770,-0.00475196,-0.01584614,-0.02933887,0.04256936,0.0
 9754991,-0.03595475,-0.14447638,-0.00676958,0.00140043,0.00572207,-0.0
 9607101,0.03505017,0.13935105,-0.12628618,-0.09397372,-0.01064578,0.00
 884090,0.00794026,0.00043503,-0.01170586,-0.01098816,-0.00217759,0.129
 71718,-0.08879038,-0.12160664,-0.01227535,-0.01430133,-0.01469845,-0.0
 0208795,0.00379831,0.00476146,0.00092349,0.09924850,0.13087919,-0.0247
 7096,-0.02709182,-0.02995368,0.00593076,0.00652855,-0.00112233,0.01263
 806,0.01361209,-0.00003893,0.01037716,0.01279782,0.02625954,-0.0227174
 0,0.00077433,0.00675149,0.00031540,-0.00065124,-0.00107357,0.00610494,
 0.00136073,0.01179059,-0.00073520,0.00006722,-0.00405660,0.36530291,0.
 00078579,-0.02562217,0.00169809,0.00476672,0.00220669,0.01062381,-0.00
 094853,0.00047277,-0.00157440,-0.00304855,0.00013021,-0.00737209,-0.01
 404564,0.41726552,0.00673626,0.00169319,-0.01115498,0.00276954,-0.0001
 7749,0.00601043,-0.00052808,0.00033197,0.00195864,0.00443211,0.0015275
 1,0.00912618,-0.12066113,-0.03036485,0.15870430,0.00597029,-0.00259186
 ,-0.00776744,0.00046795,0.00008986,0.00148232,-0.00129824,-0.00037827,
 -0.00332520,0.00054175,0.00028840,0.00151284,-0.16578219,0.03640254,0.
 08776030,0.17534794,0.00113813,-0.00181473,-0.00148870,-0.00031567,-0.
 00005872,-0.00035905,-0.00023054,0.00025553,-0.00034327,-0.00003355,-0
 .00010324,0.00009996,0.03640802,-0.04738406,-0.02337209,-0.03980000,0.
 04619417,0.01215161,-0.00457777,-0.01573491,-0.00039592,0.00031426,0.0
 0048194,-0.00254183,-0.00046654,-0.00430428,-0.00049531,0.00002915,0.0
 0044822,0.08777525,-0.02337498,-0.08930403,-0.09598846,0.02699547,0.09
 943181,-0.00541642,0.00695199,-0.00317330,-0.00058829,-0.00042635,-0.0
 0204088,-0.00000722,-0.00034503,-0.00029532,0.00001439,-0.00027946,0.0
 0020186,-0.06534936,0.06929150,-0.00680868,-0.00548756,0.01554160,-0.0
 0299042,0.06764353,-0.00181019,0.00226153,-0.00104337,-0.00077153,0.00
 017122,-0.00161796,0.00039718,0.00010729,0.00124333,0.00068833,0.00023
 249,0.00127744,0.06928441,-0.20166840,0.02188486,0.00191225,-0.0030546
 0,0.00081107,-0.07699126,0.21534227,-0.00936597,0.01642303,-0.00842008
 ,-0.00228550,-0.00092965,-0.00492947,0.00066554,-0.00039028,0.00078431
 ,0.00045086,-0.00049572,0.00064544,-0.00681564,0.02189708,-0.03544704,
 0.00635272,-0.01287374,0.00686788,0.01071016,-0.02590334,0.03798328,-0
 .00710784,-0.00572014,-0.00082353,-0.00005918,0.00031665,-0.00027540,-
 0.00000311,0.00015167,-0.00070179,-0.00038699,-0.00003126,-0.00183312,
 -0.11713912,-0.09320382,0.02629968,-0.00975995,-0.01270799,0.00248507,
 0.00919092,0.00729079,0.00028784,0.12526526,-0.00069497,-0.00192963,-0
 .00043162,-0.00040084,0.00005756,-0.00103267,-0.00011143,-0.00011063,-
 0.00074501,0.00016689,0.00040498,0.00014806,-0.09319783,-0.14540056,0.
 02847690,0.00407708,0.00596567,0.00026934,-0.01374300,-0.01339180,0.00
 227263,0.10390409,0.15440441,-0.01454351,-0.01480813,-0.00253613,0.000
 80695,0.00053446,0.00088595,0.00089269,0.00049350,0.00100353,-0.002376
 49,-0.00041895,-0.00536444,0.02628962,0.02846734,-0.03989350,0.0099729
 2,0.01134143,0.00211338,0.00439658,0.00334797,0.00251568,-0.02543875,-
 0.02895761,0.04127554\\0.00000935,-0.00001039,0.00001311,0.00000347,-0
 .00000077,-0.00000095,-0.00000055,0.00000821,0.00000853,-0.00000780,-0
 .00000008,-0.00000037,0.00002815,0.00002199,-0.00002603,-0.00000586,-0
 .00001038,0.00000351,-0.00001595,-0.00001034,0.00000288,-0.00001081,0.
 00000176,-0.00000068\\\@


 The theorems and results in mathematical physics are
 not theorems and results about Nature, but about our
 description of it.
                   --Gerard 't Hooft
 Job cpu time:       0 days  0 hours  0 minutes  0.8 seconds.
 Elapsed time:       0 days  0 hours  0 minutes  0.7 seconds.
 File lengths (MBytes):  RWF=      6 Int=      0 D2E=      0 Chk=      1 Scr=      1
 Normal termination of Gaussian 16 at Tue Jun 17 15:39:19 2025.
