 Entering Gaussian System, Link 0=g16
 Input=/home/gaussian/Documents/Summer_Internship/Acid_Base_adduct/Adduct/PH3-BH3/PH3_BH3_adduct_sp.com
 Output=/home/gaussian/Documents/Summer_Internship/Acid_Base_adduct/Adduct/PH3-BH3/PH3_BH3_adduct_sp.log
 Initial command:
 /usr/local/g16/l1.exe "/home/gaussian/tmp/Gau-92548.inp" -scrdir="/home/gaussian/tmp/"
 Entering Link 1 = /usr/local/g16/l1.exe PID=     92551.
  
 Copyright (c) 1988-2017, Gaussian, Inc.  All Rights Reserved.
  
 This is part of the Gaussian(R) 16 program.  It is based on
 the Gaussian(R) 09 system (copyright 2009, Gaussian, Inc.),
 the Gaussian(R) 03 system (copyright 2003, Gaussian, Inc.),
 the Gaussian(R) 98 system (copyright 1998, Gaussian, Inc.),
 the Gaussian(R) 94 system (copyright 1995, Gaussian, Inc.),
 the Gaussian 92(TM) system (copyright 1992, Gaussian, Inc.),
 the Gaussian 90(TM) system (copyright 1990, Gaussian, Inc.),
 the Gaussian 88(TM) system (copyright 1988, Gaussian, Inc.),
 the Gaussian 86(TM) system (copyright 1986, Carnegie Mellon
 University), and the Gaussian 82(TM) system (copyright 1983,
 Carnegie Mellon University). Gaussian is a federally registered
 trademark of Gaussian, Inc.
  
 This software contains proprietary and confidential information,
 including trade secrets, belonging to Gaussian, Inc.
  
 This software is provided under written license and may be
 used, copied, transmitted, or stored only in accord with that
 written license.
  
 The following legend is applicable only to US Government
 contracts under FAR:
  
                    RESTRICTED RIGHTS LEGEND
  
 Use, reproduction and disclosure by the US Government is
 subject to restrictions as set forth in subparagraphs (a)
 and (c) of the Commercial Computer Software - Restricted
 Rights clause in FAR 52.227-19.
  
 Gaussian, Inc.
 340 Quinnipiac St., Bldg. 40, Wallingford CT 06492
  
  
 ---------------------------------------------------------------
 Warning -- This program may not be used in any manner that
 competes with the business of Gaussian, Inc. or will provide
 assistance to any competitor of Gaussian, Inc.  The licensee
 of this program is prohibited from giving any competitor of
 Gaussian, Inc. access to this program.  By using this program,
 the user acknowledges that Gaussian, Inc. is engaged in the
 business of creating and licensing software in the field of
 computational chemistry and represents and warrants to the
 licensee that it is not a competitor of Gaussian, Inc. and that
 it will not use this program in any manner prohibited above.
 ---------------------------------------------------------------
  

 Cite this work as:
 Gaussian 16, Revision B.01,
 M. J. Frisch, G. W. Trucks, H. B. Schlegel, G. E. Scuseria, 
 M. A. Robb, J. R. Cheeseman, G. Scalmani, V. Barone, 
 G. A. Petersson, H. Nakatsuji, X. Li, M. Caricato, A. V. Marenich, 
 J. Bloino, B. G. Janesko, R. Gomperts, B. Mennucci, H. P. Hratchian, 
 J. V. Ortiz, A. F. Izmaylov, J. L. Sonnenberg, D. Williams-Young, 
 F. Ding, F. Lipparini, F. Egidi, J. Goings, B. Peng, A. Petrone, 
 T. Henderson, D. Ranasinghe, V. G. Zakrzewski, J. Gao, N. Rega, 
 G. Zheng, W. Liang, M. Hada, M. Ehara, K. Toyota, R. Fukuda, 
 J. Hasegawa, M. Ishida, T. Nakajima, Y. Honda, O. Kitao, H. Nakai, 
 T. Vreven, K. Throssell, J. A. Montgomery, Jr., J. E. Peralta, 
 F. Ogliaro, M. J. Bearpark, J. J. Heyd, E. N. Brothers, K. N. Kudin, 
 V. N. Staroverov, T. A. Keith, R. Kobayashi, J. Normand, 
 K. Raghavachari, A. P. Rendell, J. C. Burant, S. S. Iyengar, 
 J. Tomasi, M. Cossi, J. M. Millam, M. Klene, C. Adamo, R. Cammi, 
 J. W. Ochterski, R. L. Martin, K. Morokuma, O. Farkas, 
 J. B. Foresman, and D. J. Fox, Gaussian, Inc., Wallingford CT, 2016.
 
 ******************************************
 Gaussian 16:  EM64L-G16RevB.01 20-Dec-2017
                17-Jun-2025 
 ******************************************
 %chk=PH3_BH3_adduct_sp.chk
 -------------------------------------
 # hf/3-21g pop=full geom=connectivity
 -------------------------------------
 1/38=1,57=2,172=1/1;
 2/12=2,17=6,18=5,40=1/2;
 3/5=5,11=9,25=1,30=1/1,2,3;
 4//1;
 5/5=2,38=5/2;
 6/7=3,28=1/1;
 99/5=1,9=1/99;
 -------------------
 Title Card Required
 -------------------
 Symbolic Z-matrix:
 Charge =  0 Multiplicity = 1
 P                     0.63105  0.        -0.00002 
 H                     1.27829   1.04432  -0.68572 
 H                     1.27845  -1.11609  -0.56126 
 H                     1.27798   0.07183   1.24738 
 B                    -1.58124   0.00001   0.00003 
 H                    -1.79804   1.05313   0.52871 
 H                    -1.79813  -0.98455   0.64747 
 H                    -1.79815  -0.06865  -1.17636 
 
                          Input orientation:                          
 ---------------------------------------------------------------------
 Center     Atomic      Atomic             Coordinates (Angstroms)
 Number     Number       Type             X           Y           Z
 ---------------------------------------------------------------------
      1         15           0        0.631054   -0.000003   -0.000023
      2          1           0        1.278292    1.044317   -0.685724
      3          1           0        1.278452   -1.116087   -0.561260
      4          1           0        1.277982    0.071831    1.247375
      5          5           0       -1.581244    0.000011    0.000027
      6          1           0       -1.798038    1.053129    0.528708
      7          1           0       -1.798130   -0.984550    0.647465
      8          1           0       -1.798149   -0.068654   -1.176357
 ---------------------------------------------------------------------
                    Distance matrix (angstroms):
                    1          2          3          4          5
     1  P    0.000000
     2  H    1.407021   0.000000
     3  H    1.407038   2.163986   0.000000
     4  H    1.407010   2.163932   2.163865   0.000000
     5  B    2.212298   3.120541   3.120670   3.120290   0.000000
     6  H    2.699839   3.307375   3.918969   3.307768   1.198149
     7  H    2.699909   3.918937   3.308123   3.307310   1.198155
     8  H    2.699908   3.308159   3.307708   3.918775   1.198183
                    6          7          8
     6  H    0.000000
     7  H    2.041137   0.000000
     8  H    2.040991   2.040880   0.000000
 Stoichiometry    BH6P
 Framework group  C1[X(BH6P)]
 Deg. of freedom    18
 Full point group                 C1      NOp   1
 Largest Abelian subgroup         C1      NOp   1
 Largest concise Abelian subgroup C1      NOp   1
                         Standard orientation:                         
 ---------------------------------------------------------------------
 Center     Atomic      Atomic             Coordinates (Angstroms)
 Number     Number       Type             X           Y           Z
 ---------------------------------------------------------------------
      1         15           0       -0.631054    0.000003   -0.000023
      2          1           0       -1.278292   -1.044631   -0.685245
      3          1           0       -1.278452    1.115829   -0.561771
      4          1           0       -1.277982   -0.071260    1.247408
      5          5           0        1.581244   -0.000011    0.000027
      6          1           0        1.798038   -1.052887    0.529190
      7          1           0        1.798130    0.984847    0.647014
      8          1           0        1.798149    0.068115   -1.176389
 ---------------------------------------------------------------------
 Rotational constants (GHZ):          56.6726458           8.5615701           8.5614521
 Standard basis: 3-21G (6D, 7F)
 There are    34 symmetry adapted cartesian basis functions of A   symmetry.
 There are    34 symmetry adapted basis functions of A   symmetry.
    34 basis functions,    60 primitive gaussians,    34 cartesian basis functions
    13 alpha electrons       13 beta electrons
       nuclear repulsion energy        55.7292271010 Hartrees.
 NAtoms=    8 NActive=    8 NUniq=    8 SFac= 1.00D+00 NAtFMM=   60 NAOKFM=F Big=F
 Integral buffers will be    131072 words long.
 Raffenetti 1 integral format.
 Two-electron integral symmetry is turned on.
 One-electron integrals computed using PRISM.
 NBasis=    34 RedAO= T EigKep=  1.45D-02  NBF=    34
 NBsUse=    34 1.00D-06 EigRej= -1.00D+00 NBFU=    34
 ExpMin= 1.23D-01 ExpMax= 1.05D+03 ExpMxC= 1.05D+03 IAcc=3 IRadAn=         5 AccDes= 0.00D+00
 Harris functional with IExCor=  205 and IRadAn=       5 diagonalized for initial guess.
 HarFok:  IExCor=  205 AccDes= 0.00D+00 IRadAn=         5 IDoV= 1 UseB2=F ITyADJ=14
 ICtDFT=  3500011 ScaDFX=  1.000000  1.000000  1.000000  1.000000
 FoFCou: FMM=F IPFlag=           0 FMFlag=      100000 FMFlg1=           0
         NFxFlg=           0 DoJE=T BraDBF=F KetDBF=T FulRan=T
         wScrn=  0.000000 ICntrl=       500 IOpCl=  0 I1Cent=   200000004 NGrid=           0
         NMat0=    1 NMatS0=      1 NMatT0=    0 NMatD0=    1 NMtDS0=    0 NMtDT0=    0
 Petite list used in FoFCou.
 Keep R1 ints in memory in canonical form, NReq=988871.
 Requested convergence on RMS density matrix=1.00D-08 within 128 cycles.
 Requested convergence on MAX density matrix=1.00D-06.
 Requested convergence on             energy=1.00D-06.
 No special actions if energy rises.
 SCF Done:  E(RHF) =  -366.955196988     A.U. after   10 cycles
            NFock= 10  Conv=0.49D-08     -V/T= 2.0007

 **********************************************************************

            Population analysis using the SCF Density.

 **********************************************************************

 Orbital symmetries:
       Occupied  (A) (A) (A) (A) (A) (A) (A) (A) (A) (A) (A) (A)
                 (A)
       Virtual   (A) (A) (A) (A) (A) (A) (A) (A) (A) (A) (A) (A)
                 (A) (A) (A) (A) (A) (A) (A) (A) (A)
 The electronic state is 1-A.
 Alpha  occ. eigenvalues --  -79.43264  -7.51068  -7.50915  -5.39377  -5.39377
 Alpha  occ. eigenvalues --   -5.39256  -0.92480  -0.68525  -0.57782  -0.57781
 Alpha  occ. eigenvalues --   -0.44389  -0.44384  -0.42449
 Alpha virt. eigenvalues --    0.16556   0.16558   0.19659   0.23193   0.34874
 Alpha virt. eigenvalues --    0.34881   0.38197   0.57458   0.57458   0.58926
 Alpha virt. eigenvalues --    0.67379   0.67380   0.70104   0.76393   1.17644
 Alpha virt. eigenvalues --    1.19257   1.24236   1.24238   1.46604   1.46612
 Alpha virt. eigenvalues --    1.48246
     Molecular Orbital Coefficients:
                           1         2         3         4         5
                           O         O         O         O         O
     Eigenvalues --   -79.43264  -7.51068  -7.50915  -5.39377  -5.39377
   1 1   P  1S          0.98702   0.03414  -0.29364  -0.00000  -0.00000
   2        2S          0.04870  -0.11596   0.99065   0.00000   0.00000
   3        2PX        -0.00008   0.00083  -0.00880   0.00009   0.00032
   4        2PY        -0.00000   0.00000  -0.00000   0.69862  -0.67678
   5        2PZ         0.00000  -0.00000   0.00000   0.67678   0.69862
   6        3S         -0.01589  -0.02178   0.13306   0.00000   0.00000
   7        3PX        -0.00009   0.00172  -0.00116   0.00001   0.00003
   8        3PY         0.00000  -0.00000  -0.00000   0.06394  -0.06194
   9        3PZ        -0.00000  -0.00000   0.00000   0.06194   0.06394
  10        4S          0.01129   0.03897  -0.09263  -0.00000  -0.00000
  11        4PX        -0.00044   0.01074   0.00510  -0.00000  -0.00001
  12        4PY        -0.00000   0.00000   0.00000  -0.02471   0.02393
  13        4PZ         0.00000   0.00000  -0.00001  -0.02393  -0.02470
  14 2   H  1S          0.00090   0.00010  -0.00473   0.00631  -0.00121
  15        2S         -0.00211  -0.00450   0.01882  -0.01113   0.00213
  16 3   H  1S          0.00090   0.00010  -0.00473  -0.00211   0.00607
  17        2S         -0.00211  -0.00450   0.01882   0.00372  -0.01070
  18 4   H  1S          0.00090   0.00010  -0.00473  -0.00420  -0.00486
  19        2S         -0.00211  -0.00450   0.01883   0.00741   0.00857
  20 5   B  1S         -0.00000   0.98227   0.11375   0.00000   0.00000
  21        2S         -0.00017   0.09642   0.00808   0.00000   0.00000
  22        2PX         0.00008  -0.00348  -0.00019  -0.00000  -0.00000
  23        2PY         0.00000   0.00000  -0.00000  -0.00034   0.00033
  24        2PZ         0.00000  -0.00000   0.00000  -0.00033  -0.00034
  25        3S          0.00022  -0.08898   0.00379   0.00000  -0.00000
  26        3PX         0.00085   0.01208  -0.00911  -0.00000  -0.00000
  27        3PY        -0.00000  -0.00000   0.00000   0.00360  -0.00348
  28        3PZ        -0.00000   0.00001   0.00000   0.00348   0.00359
  29 6   H  1S          0.00019  -0.00409  -0.00171   0.00017  -0.00050
  30        2S         -0.00075   0.01996   0.00366   0.00000  -0.00000
  31 7   H  1S          0.00019  -0.00409  -0.00171  -0.00052   0.00010
  32        2S         -0.00075   0.01996   0.00365  -0.00001   0.00000
  33 8   H  1S          0.00019  -0.00409  -0.00171   0.00034   0.00040
  34        2S         -0.00075   0.01997   0.00365   0.00000   0.00001
                           6         7         8         9        10
                           O         O         O         O         O
     Eigenvalues --    -5.39256  -0.92480  -0.68525  -0.57782  -0.57781
   1 1   P  1S         -0.00289   0.06371  -0.00307  -0.00000  -0.00000
   2        2S          0.01013  -0.34307   0.01853   0.00000   0.00000
   3        2PX         0.97287   0.03804  -0.08340  -0.00000  -0.00003
   4        2PY         0.00016   0.00000   0.00000  -0.16896   0.08707
   5        2PZ        -0.00030  -0.00001  -0.00000  -0.08707  -0.16896
   6        3S         -0.00130   0.39268  -0.00364  -0.00001  -0.00001
   7        3PX         0.08913  -0.07372   0.16232   0.00000   0.00007
   8        3PY         0.00001  -0.00001  -0.00000   0.33674  -0.17353
   9        3PZ        -0.00003   0.00002   0.00000   0.17354   0.33674
  10        4S          0.00872   0.45853  -0.08685  -0.00000   0.00001
  11        4PX        -0.03434  -0.03593   0.07044   0.00000   0.00004
  12        4PY        -0.00000  -0.00000  -0.00000   0.16353  -0.08428
  13        4PZ         0.00001   0.00002  -0.00000   0.08427   0.16354
  14 2   H  1S          0.00308   0.12381  -0.04651  -0.24676  -0.02596
  15        2S         -0.00692   0.05028  -0.03525  -0.33313  -0.03506
  16 3   H  1S          0.00308   0.12381  -0.04652   0.14587  -0.20072
  17        2S         -0.00692   0.05028  -0.03526   0.19692  -0.27098
  18 4   H  1S          0.00308   0.12382  -0.04649   0.10090   0.22669
  19        2S         -0.00692   0.05028  -0.03522   0.13622   0.30603
  20 5   B  1S          0.00075  -0.03102  -0.18541  -0.00000   0.00002
  21        2S          0.00365   0.03693   0.19445   0.00000  -0.00001
  22        2PX         0.00034  -0.02795   0.01417   0.00000  -0.00002
  23        2PY         0.00000  -0.00000   0.00000   0.04829  -0.02489
  24        2PZ        -0.00000   0.00000  -0.00001   0.02487   0.04828
  25        3S         -0.00984   0.05206   0.46030  -0.00000  -0.00007
  26        3PX        -0.00257   0.00104  -0.04334   0.00000   0.00001
  27        3PY        -0.00000   0.00000   0.00001   0.00870  -0.00449
  28        3PZ         0.00000  -0.00001  -0.00001   0.00450   0.00871
  29 6   H  1S         -0.00064   0.01666   0.13679  -0.01893   0.02599
  30        2S          0.00709  -0.00091   0.08293  -0.02667   0.03662
  31 7   H  1S         -0.00064   0.01666   0.13679   0.03197   0.00337
  32        2S          0.00709  -0.00091   0.08292   0.04505   0.00476
  33 8   H  1S         -0.00064   0.01665   0.13678  -0.01305  -0.02940
  34        2S          0.00709  -0.00091   0.08291  -0.01837  -0.04140
                          11        12        13        14        15
                           O         O         O         V         V
     Eigenvalues --    -0.44389  -0.44384  -0.42449   0.16556   0.16558
   1 1   P  1S         -0.00000  -0.00000   0.02407  -0.00003  -0.00001
   2        2S          0.00002   0.00002  -0.13506   0.00015   0.00004
   3        2PX         0.00003   0.00002  -0.19979  -0.00001  -0.00001
   4        2PY         0.02411   0.00319  -0.00001   0.05970  -0.12851
   5        2PZ        -0.00320   0.02410   0.00004  -0.12851  -0.05970
   6        3S         -0.00002  -0.00002   0.15610  -0.00016  -0.00004
   7        3PX        -0.00006  -0.00005   0.40385   0.00007   0.00002
   8        3PY        -0.05411  -0.00716   0.00002  -0.11319   0.24366
   9        3PZ         0.00717  -0.05409  -0.00008   0.24364   0.11318
  10        4S         -0.00005  -0.00003   0.34756  -0.00085  -0.00026
  11        4PX        -0.00007  -0.00003   0.43010  -0.00027   0.00001
  12        4PY         0.02155   0.00287   0.00003  -0.57386   1.23520
  13        4PZ        -0.00286   0.02155  -0.00006   1.23516   0.57394
  14 2   H  1S          0.04179   0.03608  -0.07019   0.01969   0.13391
  15        2S          0.09097   0.07858  -0.10071   0.17940   1.22104
  16 3   H  1S         -0.05213   0.01814  -0.07020   0.10616  -0.08397
  17        2S         -0.11351   0.03949  -0.10072   0.96788  -0.76556
  18 4   H  1S          0.01038  -0.05421  -0.07020  -0.12578  -0.04991
  19        2S          0.02259  -0.11804  -0.10075  -1.14673  -0.45518
  20 5   B  1S         -0.00000  -0.00001   0.04892  -0.00006  -0.00001
  21        2S          0.00000   0.00002  -0.05507   0.00001   0.00000
  22        2PX         0.00004   0.00001  -0.17885  -0.00027  -0.00004
  23        2PY         0.34544   0.04580   0.00006   0.01619  -0.03478
  24        2PZ        -0.04580   0.34543   0.00003  -0.03477  -0.01617
  25        3S          0.00003   0.00001  -0.16508   0.00065   0.00009
  26        3PX         0.00002  -0.00000  -0.06043  -0.00082  -0.00012
  27        3PY         0.19100   0.02533   0.00004   0.03676  -0.07845
  28        3PZ        -0.02532   0.19103   0.00001  -0.07859  -0.03680
  29 6   H  1S         -0.23118   0.08023  -0.07721  -0.04511   0.03574
  30        2S         -0.31254   0.10849  -0.11660  -0.08580   0.06827
  31 7   H  1S          0.18509   0.16012  -0.07713  -0.00839  -0.05695
  32        2S          0.25022   0.21648  -0.11649  -0.01629  -0.10840
  33 8   H  1S          0.04613  -0.24033  -0.07719   0.05351   0.02120
  34        2S          0.06236  -0.32492  -0.11657   0.10179   0.04009
                          16        17        18        19        20
                           V         V         V         V         V
     Eigenvalues --     0.19659   0.23193   0.34874   0.34881   0.38197
   1 1   P  1S          0.03625  -0.03375   0.00000  -0.00000  -0.00439
   2        2S         -0.21259   0.19437   0.00001  -0.00000   0.04227
   3        2PX        -0.01311  -0.10263  -0.00000   0.00001  -0.08115
   4        2PY         0.00003   0.00001   0.00202   0.01981   0.00001
   5        2PZ        -0.00011   0.00002   0.01980  -0.00201  -0.00000
   6        3S          0.24581  -0.28136   0.00007  -0.00009   0.10384
   7        3PX        -0.04742   0.17879   0.00005  -0.00006   0.30796
   8        3PY        -0.00005  -0.00002  -0.00210  -0.02091  -0.00001
   9        3PZ         0.00022  -0.00003  -0.02088   0.00207  -0.00001
  10        4S          1.24957  -1.29459  -0.00024   0.00027  -0.67329
  11        4PX         0.74839   1.61004  -0.00038   0.00036  -0.60375
  12        4PY        -0.00032  -0.00003  -0.06078  -0.59113  -0.00021
  13        4PZ         0.00121  -0.00029  -0.59080   0.06072   0.00021
  14 2   H  1S         -0.01974   0.06035   0.01652   0.02021  -0.00040
  15        2S         -0.29969   1.14498  -0.21649  -0.26626   0.10221
  16 3   H  1S         -0.01970   0.06036   0.00924  -0.02441  -0.00042
  17        2S         -0.29928   1.14515  -0.12218   0.32071   0.10239
  18 4   H  1S         -0.01986   0.06036  -0.02578   0.00421  -0.00038
  19        2S         -0.30114   1.14504   0.33859  -0.05437   0.10218
  20 5   B  1S          0.07668   0.04574  -0.00007   0.00007  -0.16890
  21        2S          0.00954   0.01855   0.00002  -0.00002   0.07726
  22        2PX         0.28658   0.07763   0.00000  -0.00000   0.02717
  23        2PY        -0.00000   0.00000   0.01517   0.14731   0.00005
  24        2PZ        -0.00002  -0.00001   0.14732  -0.01517  -0.00007
  25        3S         -0.92642  -0.92448   0.00135  -0.00123   3.30343
  26        3PX         1.18279   0.52300  -0.00005   0.00011   0.26131
  27        3PY        -0.00003  -0.00013   0.22300   2.16389   0.00085
  28        3PZ        -0.00001   0.00025   2.16301  -0.22313  -0.00124
  29 6   H  1S         -0.00813  -0.01179  -0.02513   0.06611  -0.02324
  30        2S          0.07782   0.16288  -0.67465   1.77561  -1.40881
  31 7   H  1S         -0.00811  -0.01178  -0.04475  -0.05477  -0.02327
  32        2S          0.07787   0.16304  -1.20017  -1.47114  -1.40992
  33 8   H  1S         -0.00805  -0.01177   0.06981  -0.01130  -0.02330
  34        2S          0.07801   0.16320   1.87333  -0.30309  -1.41087
                          21        22        23        24        25
                           V         V         V         V         V
     Eigenvalues --     0.57458   0.57458   0.58926   0.67379   0.67380
   1 1   P  1S          0.00001   0.00000  -0.01650  -0.00000  -0.00000
   2        2S         -0.00001  -0.00002   0.01718   0.00001   0.00001
   3        2PX         0.00006   0.00003  -0.28034   0.00003   0.00001
   4        2PY         0.28683  -0.14142   0.00005  -0.09341  -0.02692
   5        2PZ         0.14142   0.28684   0.00006   0.02692  -0.09338
   6        3S          0.00024   0.00014  -0.84116  -0.00010  -0.00016
   7        3PX        -0.00025  -0.00011   1.08729  -0.00010  -0.00002
   8        3PY        -1.08192   0.53342  -0.00018   0.38881   0.11205
   9        3PZ        -0.53344  -1.08196  -0.00025  -0.11204   0.38866
  10        4S         -0.00043  -0.00018   1.70408   0.00022   0.00023
  11        4PX         0.00036   0.00021  -1.64198   0.00024  -0.00010
  12        4PY         1.10803  -0.54627   0.00020  -0.77735  -0.22407
  13        4PZ         0.54633   1.10803   0.00041   0.22398  -0.77705
  14 2   H  1S          0.16488   0.02031  -0.15914  -0.02877  -0.03352
  15        2S          0.00993   0.00125  -0.51465  -0.14805  -0.17238
  16 3   H  1S         -0.09997   0.13260  -0.15920   0.04344  -0.00817
  17        2S         -0.00585   0.00793  -0.51471   0.22327  -0.04199
  18 4   H  1S         -0.06480  -0.15291  -0.15919  -0.01461   0.04162
  19        2S         -0.00375  -0.00902  -0.51471  -0.07525   0.21421
  20 5   B  1S         -0.00001  -0.00000   0.05894  -0.00000  -0.00000
  21        2S          0.00006   0.00001  -0.32310  -0.00001  -0.00002
  22        2PX        -0.00003  -0.00000   0.12294  -0.00020   0.00007
  23        2PY        -0.26400   0.13018  -0.00012  -0.97200  -0.28013
  24        2PZ        -0.13011  -0.26390   0.00001   0.28014  -0.97206
  25        3S         -0.00002  -0.00001  -0.02893  -0.00002   0.00003
  26        3PX         0.00002   0.00005  -0.15956   0.00031  -0.00008
  27        3PY        -0.05996   0.02950  -0.00005   1.02959   0.29679
  28        3PZ        -0.02957  -0.05994   0.00005  -0.29674   1.02941
  29 6   H  1S          0.04356  -0.05765  -0.03414   0.16334  -0.03060
  30        2S         -0.11587   0.15319   0.30160  -0.13656   0.02569
  31 7   H  1S         -0.07170  -0.00887  -0.03417  -0.10820  -0.12618
  32        2S          0.19060   0.02357   0.30177   0.09037   0.10548
  33 8   H  1S          0.02816   0.06653  -0.03413  -0.05521   0.15677
  34        2S         -0.07487  -0.17687   0.30178   0.04605  -0.13115
                          26        27        28        29        30
                           V         V         V         V         V
     Eigenvalues --     0.70104   0.76393   1.17644   1.19257   1.24236
   1 1   P  1S         -0.03118  -0.03734  -0.03260   0.00524  -0.00000
   2        2S          0.07575   0.08317   0.08793   0.05579  -0.00004
   3        2PX         0.11006   0.15015  -0.11564   0.00271  -0.00003
   4        2PY         0.00002   0.00001  -0.00001   0.00004   0.05014
   5        2PZ        -0.00000   0.00001   0.00002  -0.00009  -0.14100
   6        3S         -1.17876  -1.54363  -1.13220   0.79209  -0.00043
   7        3PX        -0.35744  -0.60841   0.35386  -0.03347   0.00010
   8        3PY        -0.00007  -0.00001   0.00003  -0.00011  -0.14957
   9        3PZ        -0.00001  -0.00006  -0.00007   0.00028   0.42061
  10        4S          2.39520   2.43616   3.10461  -2.24384   0.00124
  11        4PX         0.27181   0.35128  -0.61913  -0.78254   0.00032
  12        4PY         0.00011  -0.00007  -0.00006   0.00022   0.29318
  13        4PZ         0.00020   0.00042   0.00023  -0.00068  -0.82445
  14 2   H  1S         -0.02379  -0.13115   0.69190   0.23424   0.25400
  15        2S         -0.46580  -0.44646  -1.36487   0.08429  -0.33944
  16 3   H  1S         -0.02379  -0.13112   0.69180   0.23468   0.77619
  17        2S         -0.46586  -0.44642  -1.36474   0.08369  -1.03679
  18 4   H  1S         -0.02381  -0.13121   0.69178   0.23345  -1.03068
  19        2S         -0.46592  -0.44670  -1.36479   0.08550   1.37622
  20 5   B  1S          0.01087  -0.01496   0.03416  -0.08957   0.00007
  21        2S         -0.32686   0.13970   0.47576  -1.39897   0.00080
  22        2PX        -0.82331   0.72407   0.00685   0.46522  -0.00034
  23        2PY         0.00018  -0.00003   0.00001   0.00001   0.02684
  24        2PZ        -0.00005   0.00011  -0.00003  -0.00002  -0.07510
  25        3S          0.08348  -0.17898  -1.24417   3.25097  -0.00178
  26        3PX         1.19054  -0.19397   0.28320  -1.13198   0.00073
  27        3PY        -0.00016   0.00005  -0.00010   0.00010  -0.05957
  28        3PZ        -0.00009  -0.00028   0.00017  -0.00018   0.16730
  29 6   H  1S         -0.15478  -0.03081   0.07597  -0.42116   0.12665
  30        2S         -0.05557  -0.18931   0.21017  -0.30548  -0.12618
  31 7   H  1S         -0.15473  -0.03081   0.07601  -0.42121   0.04163
  32        2S         -0.05563  -0.18931   0.21024  -0.30557  -0.04125
  33 8   H  1S         -0.15472  -0.03082   0.07600  -0.42130  -0.16723
  34        2S         -0.05578  -0.18943   0.21036  -0.30570   0.16767
                          31        32        33        34
                           V         V         V         V
     Eigenvalues --     1.24238   1.46604   1.46612   1.48246
   1 1   P  1S         -0.00000  -0.00001   0.00001  -0.00548
   2        2S          0.00000   0.00004  -0.00003   0.04242
   3        2PX        -0.00001   0.00004  -0.00003   0.03950
   4        2PY         0.14101   0.00428   0.03085   0.00001
   5        2PZ         0.05015   0.03086  -0.00428  -0.00001
   6        3S         -0.00011  -0.00006   0.00006   0.00254
   7        3PX         0.00003  -0.00018   0.00017  -0.20500
   8        3PY        -0.42065  -0.01584  -0.11432  -0.00005
   9        3PZ        -0.14958  -0.11436   0.01583   0.00006
  10        4S          0.00030  -0.00036   0.00036  -0.61903
  11        4PX        -0.00001  -0.00018   0.00018  -0.21756
  12        4PY         0.82459   0.02666   0.19154   0.00003
  13        4PZ         0.29317   0.19167  -0.02665  -0.00007
  14 2   H  1S         -1.04317  -0.12111  -0.13848   0.05205
  15        2S          1.39309   0.19827   0.22660   0.00742
  16 3   H  1S          0.74176  -0.05932   0.17403   0.05217
  17        2S         -0.99069   0.09712  -0.28488   0.00725
  18 4   H  1S          0.30151   0.18059  -0.03570   0.05201
  19        2S         -0.40268  -0.29555   0.05841   0.00754
  20 5   B  1S          0.00001   0.00004  -0.00004   0.04676
  21        2S          0.00009  -0.00121   0.00116  -1.42133
  22        2PX        -0.00002   0.00005  -0.00006   0.04165
  23        2PY         0.07510  -0.07259  -0.52790  -0.00039
  24        2PZ         0.02684  -0.52780   0.07259   0.00054
  25        3S         -0.00023   0.00312  -0.00301   3.75821
  26        3PX         0.00007  -0.00013   0.00015  -0.13484
  27        3PY        -0.16741   0.13026   0.94800   0.00081
  28        3PZ        -0.05955   0.94774  -0.13029  -0.00120
  29 6   H  1S          0.12051   0.35971  -1.05218   0.62949
  30        2S         -0.12055  -0.51246   1.49801  -1.47017
  31 7   H  1S         -0.16960   0.73166   0.83643   0.63072
  32        2S          0.16969  -1.04177  -1.19004  -1.47202
  33 8   H  1S          0.04919  -1.08984   0.21425   0.63175
  34        2S         -0.04908   1.55062  -0.30445  -1.47362
     Density Matrix:
                           1         2         3         4         5
   1 1   P  1S          2.13252
   2        2S         -0.54395   2.26719
   3        2PX        -0.00483   0.02685   1.98975
   4        2PY        -0.00000   0.00000   0.00000   1.96564
   5        2PZ         0.00000  -0.00000  -0.00000   0.00000   1.96564
   6        3S         -0.05343  -0.04462  -0.03679  -0.00000   0.00001
   7        3PX         0.00916  -0.05338  -0.02061  -0.00000   0.00001
   8        3PY         0.00000  -0.00000  -0.00000   0.02651  -0.00000
   9        3PZ        -0.00000   0.00001   0.00001  -0.00000   0.02651
  10        4S          0.15499  -0.60301  -0.07085  -0.00001   0.00000
  11        4PX         0.01276  -0.08203  -0.25323  -0.00001   0.00002
  12        4PY        -0.00000  -0.00000  -0.00000  -0.13580   0.00000
  13        4PZ         0.00001  -0.00001   0.00001   0.00000  -0.13579
  14 2   H  1S          0.01723  -0.07696   0.05131   0.09156   0.06007
  15        2S         -0.01371   0.02939   0.03615   0.09293   0.06097
  16 3   H  1S          0.01723  -0.07696   0.05132  -0.09780   0.04924
  17        2S         -0.01370   0.02938   0.03615  -0.09927   0.04999
  18 4   H  1S          0.01723  -0.07696   0.05129   0.00625  -0.10934
  19        2S         -0.01371   0.02941   0.03613   0.00634  -0.11098
  20 5   B  1S         -0.00020  -0.00121   0.01010   0.00000  -0.00000
  21        2S          0.00234  -0.00955  -0.00050  -0.00000  -0.00000
  22        2PX        -0.01224   0.06846   0.06764   0.00000  -0.00001
  23        2PY         0.00000  -0.00000  -0.00000  -0.00464   0.00000
  24        2PZ        -0.00000   0.00000  -0.00000  -0.00000  -0.00464
  25        3S         -0.01194   0.05389  -0.02622  -0.00000   0.00001
  26        3PX         0.00536  -0.00680   0.02664   0.00000  -0.00001
  27        3PY         0.00000  -0.00000  -0.00001   0.01539   0.00000
  28        3PZ        -0.00000   0.00001   0.00001  -0.00001   0.01538
  29 6   H  1S         -0.00133   0.01206   0.00807   0.00120  -0.00061
  30        2S         -0.00855   0.03787   0.04644   0.00103  -0.00051
  31 7   H  1S         -0.00133   0.01206   0.00807  -0.00113  -0.00074
  32        2S         -0.00855   0.03786   0.04644  -0.00095  -0.00063
  33 8   H  1S         -0.00133   0.01206   0.00807  -0.00008   0.00134
  34        2S         -0.00855   0.03786   0.04644  -0.00007   0.00113
                           6         7         8         9        10
   6        3S          0.39403
   7        3PX         0.06640   0.40565
   8        3PY         0.00000   0.00001   0.30882
   9        3PZ        -0.00001  -0.00002   0.00000   0.30883
  10        4S          0.44252   0.18683   0.00001  -0.00003   0.69779
  11        4PX         0.10654   0.36947   0.00002  -0.00004   0.25307
  12        4PY         0.00001   0.00001   0.13089  -0.00001   0.00001
  13        4PZ        -0.00001  -0.00003  -0.00001   0.13089  -0.00002
  14 2   H  1S          0.07436  -0.08950  -0.16127  -0.10579   0.07378
  15        2S          0.01360  -0.10152  -0.22485  -0.14751  -0.02178
  16 3   H  1S          0.07436  -0.08952   0.17226  -0.08673   0.07378
  17        2S          0.01360  -0.10153   0.24018  -0.12094  -0.02178
  18 4   H  1S          0.07436  -0.08945  -0.01101   0.19258   0.07378
  19        2S          0.01357  -0.10147  -0.01535   0.26851  -0.02181
  20 5   B  1S         -0.02025  -0.01287  -0.00000   0.00000   0.09326
  21        2S          0.00834   0.01416  -0.00000   0.00000  -0.03211
  22        2PX        -0.07779  -0.13569  -0.00001   0.00002  -0.15264
  23        2PY         0.00000   0.00000   0.00304  -0.00000   0.00001
  24        2PZ        -0.00001  -0.00000   0.00000   0.00304   0.00001
  25        3S         -0.00910   0.00635   0.00001  -0.00002  -0.15477
  26        3PX        -0.02071  -0.06343  -0.00001   0.00002  -0.03093
  27        3PY         0.00000   0.00001  -0.01272  -0.00000   0.00001
  28        3PZ        -0.00001  -0.00001   0.00001  -0.01271  -0.00000
  29 6   H  1S         -0.01229  -0.02051   0.00218  -0.00109  -0.06214
  30        2S         -0.03760  -0.06576   0.00159  -0.00080  -0.09528
  31 7   H  1S         -0.01229  -0.02051  -0.00204  -0.00134  -0.06214
  32        2S         -0.03760  -0.06576  -0.00150  -0.00097  -0.09526
  33 8   H  1S         -0.01229  -0.02051  -0.00014   0.00244  -0.06214
  34        2S         -0.03759  -0.06576  -0.00010   0.00181  -0.09527
                          11        12        13        14        15
  11        4PX         0.38513
  12        4PY         0.00002   0.07101
  13        4PZ        -0.00004  -0.00000   0.07101
  14 2   H  1S         -0.07610  -0.07470  -0.04899   0.17422
  15        2S         -0.09466  -0.09803  -0.06430   0.20900   0.28224
  16 3   H  1S         -0.07611   0.07979  -0.04017  -0.01975  -0.06003
  17        2S         -0.09466   0.10472  -0.05273  -0.06003  -0.09809
  18 4   H  1S         -0.07607  -0.00510   0.08921  -0.01975  -0.06003
  19        2S         -0.09464  -0.00670   0.11707  -0.06003  -0.09809
  20 5   B  1S          0.04039   0.00000  -0.00000   0.00181  -0.00448
  21        2S         -0.02073  -0.00000   0.00000  -0.00124   0.00049
  22        2PX        -0.14994  -0.00001   0.00002   0.01688   0.03224
  23        2PY        -0.00000   0.03517  -0.00001   0.00962   0.03961
  24        2PZ         0.00001   0.00001   0.03517   0.00631   0.02600
  25        3S         -0.08209  -0.00000  -0.00000  -0.00685   0.00713
  26        3PX        -0.05782  -0.00000   0.00001   0.01285   0.01491
  27        3PY         0.00001   0.01163  -0.00000   0.01378   0.03314
  28        3PZ         0.00000   0.00001   0.01164   0.00903   0.02174
  29 6   H  1S         -0.04837  -0.02011   0.01012  -0.00328  -0.01111
  30        2S         -0.08853  -0.02775   0.01396   0.00141  -0.00720
  31 7   H  1S         -0.04837   0.01881   0.01236   0.01330   0.04486
  32        2S         -0.08853   0.02595   0.01706   0.02248   0.06658
  33 8   H  1S         -0.04838   0.00129  -0.02246  -0.00327  -0.01107
  34        2S         -0.08854   0.00178  -0.03099   0.00142  -0.00717
                          16        17        18        19        20
  16 3   H  1S          0.17421
  17        2S          0.20900   0.28225
  18 4   H  1S         -0.01975  -0.06004   0.17422
  19        2S         -0.06003  -0.09810   0.20900   0.28226
  20 5   B  1S          0.00181  -0.00448   0.00181  -0.00447   2.03105
  21        2S         -0.00124   0.00049  -0.00124   0.00049   0.11148
  22        2PX         0.01688   0.03224   0.01687   0.03224  -0.02789
  23        2PY        -0.01028  -0.04232   0.00066   0.00271   0.00000
  24        2PZ         0.00518   0.02131  -0.01149  -0.04731  -0.00000
  25        3S         -0.00685   0.00714  -0.00687   0.00711  -0.36403
  26        3PX         0.01284   0.01491   0.01285   0.01492   0.03175
  27        3PY        -0.01472  -0.03541   0.00094   0.00226  -0.00001
  28        3PZ         0.00741   0.01783  -0.01645  -0.03957   0.00001
  29 6   H  1S          0.01330   0.04486  -0.00327  -0.01107  -0.06773
  30        2S          0.02248   0.06658   0.00142  -0.00716  -0.00204
  31 7   H  1S         -0.00327  -0.01107  -0.00329  -0.01111  -0.06773
  32        2S          0.00143  -0.00716   0.00140  -0.00721  -0.00203
  33 8   H  1S         -0.00328  -0.01110   0.01330   0.04486  -0.06772
  34        2S          0.00141  -0.00721   0.02249   0.06660  -0.00202
                          21        22        23        24        25
  21        2S          0.10317
  22        2PX         0.02247   0.06596
  23        2PY        -0.00000   0.00001   0.24875
  24        2PZ         0.00000  -0.00001  -0.00000   0.24874
  25        3S          0.18387   0.06979   0.00001  -0.00002   0.49974
  26        3PX        -0.00796   0.02025   0.00000  -0.00000  -0.02201
  27        3PY        -0.00000   0.00000   0.13534   0.00000   0.00001
  28        3PZ         0.00000  -0.00000   0.00000   0.13536  -0.00002
  29 6   H  1S          0.06211   0.03057  -0.15550   0.07817   0.15387
  30        2S          0.04899   0.04394  -0.21040   0.10578   0.11106
  31 7   H  1S          0.06211   0.03058   0.14545   0.09558   0.15387
  32        2S          0.04898   0.04396   0.19680   0.12934   0.11106
  33 8   H  1S          0.06210   0.03058   0.01005  -0.17375   0.15387
  34        2S          0.04897   0.04396   0.01359  -0.23510   0.11105
                          26        27        28        29        30
  26        3PX         0.01154
  27        3PY         0.00000   0.07449
  28        3PZ        -0.00000   0.00000   0.07451
  29 6   H  1S         -0.00256  -0.08481   0.04264   0.17177
  30        2S          0.00727  -0.11469   0.05767   0.20530   0.26487
  31 7   H  1S         -0.00256   0.07933   0.05214  -0.01099  -0.04195
  32        2S          0.00728   0.10728   0.07052  -0.04195  -0.06964
  33 8   H  1S         -0.00256   0.00548  -0.09479  -0.01099  -0.04197
  34        2S          0.00728   0.00741  -0.12819  -0.04196  -0.06967
                          31        32        33        34
  31 7   H  1S          0.17177
  32        2S          0.20530   0.26487
  33 8   H  1S         -0.01100  -0.04197   0.17177
  34        2S         -0.04197  -0.06969   0.20530   0.26488
    Full Mulliken population analysis:
                           1         2         3         4         5
   1 1   P  1S          2.13252
   2        2S         -0.13664   2.26719
   3        2PX         0.00000   0.00000   1.98975
   4        2PY         0.00000   0.00000   0.00000   1.96564
   5        2PZ         0.00000   0.00000  -0.00000   0.00000   1.96564
   6        3S         -0.00181  -0.01577   0.00000   0.00000   0.00000
   7        3PX         0.00000   0.00000  -0.00623  -0.00000   0.00000
   8        3PY         0.00000   0.00000  -0.00000   0.00802  -0.00000
   9        3PZ         0.00000   0.00000   0.00000  -0.00000   0.00802
  10        4S          0.00509  -0.15378   0.00000   0.00000   0.00000
  11        4PX         0.00000   0.00000  -0.01873  -0.00000   0.00000
  12        4PY         0.00000   0.00000  -0.00000  -0.01004   0.00000
  13        4PZ         0.00000   0.00000   0.00000   0.00000  -0.01004
  14 2   H  1S          0.00001  -0.00060  -0.00025  -0.00073  -0.00031
  15        2S         -0.00017   0.00291  -0.00065  -0.00269  -0.00116
  16 3   H  1S          0.00001  -0.00060  -0.00025  -0.00083  -0.00021
  17        2S         -0.00017   0.00291  -0.00065  -0.00307  -0.00078
  18 4   H  1S          0.00001  -0.00060  -0.00025  -0.00000  -0.00104
  19        2S         -0.00017   0.00291  -0.00065  -0.00001  -0.00384
  20 5   B  1S          0.00000  -0.00000   0.00000  -0.00000  -0.00000
  21        2S          0.00000  -0.00001  -0.00000   0.00000  -0.00000
  22        2PX         0.00000  -0.00016  -0.00020   0.00000   0.00000
  23        2PY         0.00000  -0.00000  -0.00000  -0.00000   0.00000
  24        2PZ         0.00000  -0.00000   0.00000  -0.00000  -0.00000
  25        3S         -0.00005   0.00173  -0.00036   0.00000   0.00000
  26        3PX        -0.00006   0.00062  -0.00079   0.00000   0.00000
  27        3PY         0.00000  -0.00000  -0.00000   0.00014   0.00000
  28        3PZ         0.00000  -0.00000  -0.00000  -0.00000   0.00014
  29 6   H  1S         -0.00000   0.00000   0.00000  -0.00000  -0.00000
  30        2S         -0.00000   0.00014   0.00012  -0.00000  -0.00000
  31 7   H  1S         -0.00000   0.00000   0.00000  -0.00000  -0.00000
  32        2S         -0.00000   0.00014   0.00012  -0.00000  -0.00000
  33 8   H  1S         -0.00000   0.00000   0.00000  -0.00000  -0.00000
  34        2S         -0.00000   0.00014   0.00012  -0.00000  -0.00000
                           6         7         8         9        10
   6        3S          0.39403
   7        3PX         0.00000   0.40565
   8        3PY         0.00000   0.00000   0.30882
   9        3PZ         0.00000  -0.00000   0.00000   0.30883
  10        4S          0.36906   0.00000   0.00000   0.00000   0.69779
  11        4PX         0.00000   0.23890   0.00000  -0.00000   0.00000
  12        4PY         0.00000   0.00000   0.08464  -0.00000   0.00000
  13        4PZ         0.00000  -0.00000  -0.00000   0.08464   0.00000
  14 2   H  1S          0.01134   0.01151   0.03347   0.01440   0.01805
  15        2S          0.00549   0.01770   0.06328   0.02723  -0.01257
  16 3   H  1S          0.01134   0.01151   0.03819   0.00968   0.01805
  17        2S          0.00549   0.01771   0.07220   0.01830  -0.01257
  18 4   H  1S          0.01134   0.01150   0.00016   0.04773   0.01805
  19        2S          0.00548   0.01768   0.00029   0.09024  -0.01259
  20 5   B  1S         -0.00002  -0.00004   0.00000   0.00000   0.00200
  21        2S          0.00029   0.00104   0.00000   0.00000  -0.00472
  22        2PX         0.00515   0.01744  -0.00000  -0.00000   0.02201
  23        2PY         0.00000   0.00000   0.00006  -0.00000   0.00000
  24        2PZ         0.00000   0.00000   0.00000   0.00006  -0.00000
  25        3S         -0.00154   0.00116  -0.00000  -0.00000  -0.05257
  26        3PX         0.00764   0.01821  -0.00000  -0.00000   0.01539
  27        3PY         0.00000   0.00000  -0.00157  -0.00000   0.00000
  28        3PZ         0.00000   0.00000   0.00000  -0.00157   0.00000
  29 6   H  1S         -0.00001  -0.00006  -0.00000  -0.00000  -0.00198
  30        2S         -0.00153  -0.00394  -0.00004  -0.00001  -0.01364
  31 7   H  1S         -0.00001  -0.00006  -0.00000  -0.00000  -0.00198
  32        2S         -0.00152  -0.00394  -0.00004  -0.00002  -0.01364
  33 8   H  1S         -0.00001  -0.00006  -0.00000  -0.00000  -0.00198
  34        2S         -0.00152  -0.00394  -0.00000  -0.00005  -0.01364
                          11        12        13        14        15
  11        4PX         0.38513
  12        4PY         0.00000   0.07101
  13        4PZ        -0.00000  -0.00000   0.07101
  14 2   H  1S          0.01396   0.02212   0.00952   0.17422
  15        2S          0.02804   0.04687   0.02017   0.13499   0.28224
  16 3   H  1S          0.01397   0.02524   0.00640  -0.00002  -0.00310
  17        2S          0.02805   0.05348   0.01356  -0.00310  -0.02120
  18 4   H  1S          0.01395   0.00010   0.03155  -0.00002  -0.00310
  19        2S          0.02802   0.00022   0.06684  -0.00310  -0.02121
  20 5   B  1S          0.00246  -0.00000  -0.00000   0.00000  -0.00000
  21        2S         -0.00692   0.00000   0.00000  -0.00000   0.00001
  22        2PX         0.03575  -0.00000  -0.00000  -0.00000  -0.00052
  23        2PY        -0.00000   0.00346  -0.00000  -0.00000  -0.00024
  24        2PZ        -0.00000   0.00000   0.00346  -0.00000  -0.00010
  25        3S         -0.04110   0.00000  -0.00000  -0.00008   0.00053
  26        3PX         0.02277  -0.00000  -0.00000  -0.00052  -0.00251
  27        3PY         0.00000   0.00395  -0.00000  -0.00020  -0.00203
  28        3PZ        -0.00000   0.00000   0.00395  -0.00009  -0.00088
  29 6   H  1S         -0.00434   0.00078   0.00020  -0.00000  -0.00002
  30        2S         -0.02442   0.00332   0.00084   0.00000  -0.00020
  31 7   H  1S         -0.00434   0.00068   0.00030   0.00000   0.00001
  32        2S         -0.02441   0.00290   0.00125   0.00000   0.00044
  33 8   H  1S         -0.00434   0.00000   0.00098  -0.00000  -0.00002
  34        2S         -0.02442   0.00001   0.00414   0.00000  -0.00020
                          16        17        18        19        20
  16 3   H  1S          0.17421
  17        2S          0.13499   0.28225
  18 4   H  1S         -0.00002  -0.00310   0.17422
  19        2S         -0.00310  -0.02121   0.13500   0.28226
  20 5   B  1S          0.00000  -0.00000   0.00000  -0.00000   2.03105
  21        2S         -0.00000   0.00001  -0.00000   0.00001   0.02038
  22        2PX        -0.00000  -0.00052  -0.00000  -0.00052   0.00000
  23        2PY        -0.00000  -0.00027  -0.00000  -0.00000   0.00000
  24        2PZ        -0.00000  -0.00007  -0.00000  -0.00034   0.00000
  25        3S         -0.00008   0.00053  -0.00008   0.00053  -0.06329
  26        3PX        -0.00052  -0.00250  -0.00052  -0.00251   0.00000
  27        3PY        -0.00023  -0.00232  -0.00000  -0.00001   0.00000
  28        3PZ        -0.00006  -0.00059  -0.00029  -0.00290   0.00000
  29 6   H  1S          0.00000   0.00001  -0.00000  -0.00002  -0.00103
  30        2S          0.00000   0.00044   0.00000  -0.00020  -0.00019
  31 7   H  1S         -0.00000  -0.00002  -0.00000  -0.00002  -0.00103
  32        2S          0.00000  -0.00020   0.00000  -0.00020  -0.00019
  33 8   H  1S         -0.00000  -0.00002   0.00000   0.00001  -0.00103
  34        2S          0.00000  -0.00020   0.00000   0.00044  -0.00019
                          21        22        23        24        25
  21        2S          0.10317
  22        2PX         0.00000   0.06596
  23        2PY         0.00000   0.00000   0.24875
  24        2PZ         0.00000  -0.00000  -0.00000   0.24874
  25        3S          0.14256   0.00000   0.00000   0.00000   0.49974
  26        3PX         0.00000   0.01116   0.00000  -0.00000   0.00000
  27        3PY         0.00000   0.00000   0.07461   0.00000   0.00000
  28        3PZ         0.00000  -0.00000   0.00000   0.07462   0.00000
  29 6   H  1S          0.01355   0.00193   0.04760   0.01202   0.04642
  30        2S          0.02272   0.00277   0.06437   0.01626   0.07388
  31 7   H  1S          0.01355   0.00193   0.04164   0.01798   0.04642
  32        2S          0.02271   0.00277   0.05632   0.02431   0.07387
  33 8   H  1S          0.01354   0.00193   0.00020   0.05942   0.04642
  34        2S          0.02271   0.00277   0.00027   0.08036   0.07387
                          26        27        28        29        30
  26        3PX         0.01154
  27        3PY         0.00000   0.07449
  28        3PZ        -0.00000   0.00000   0.07451
  29 6   H  1S         -0.00020   0.03137   0.00793   0.17177
  30        2S          0.00083   0.06377   0.01612   0.13260   0.26487
  31 7   H  1S         -0.00019   0.02745   0.01185  -0.00002  -0.00286
  32        2S          0.00083   0.05579   0.02409  -0.00286  -0.01783
  33 8   H  1S         -0.00019   0.00013   0.03918  -0.00002  -0.00287
  34        2S          0.00083   0.00027   0.07963  -0.00287  -0.01784
                          31        32        33        34
  31 7   H  1S          0.17177
  32        2S          0.13260   0.26487
  33 8   H  1S         -0.00002  -0.00287   0.17177
  34        2S         -0.00287  -0.01784   0.13260   0.26488
     Gross orbital populations:
                           1
   1 1   P  1S          1.99857
   2        2S          1.97056
   3        2PX         1.96109
   4        2PY         1.95641
   5        2PZ         1.95641
   6        3S          0.80290
   7        3PX         0.75174
   8        3PY         0.60747
   9        3PZ         0.60747
  10        4S          0.86981
  11        4PX         0.65799
  12        4PY         0.30874
  13        4PZ         0.30874
  14 2   H  1S          0.43457
  15        2S          0.55733
  16 3   H  1S          0.43456
  17        2S          0.55734
  18 4   H  1S          0.43458
  19        2S          0.55733
  20 5   B  1S          1.98889
  21        2S          0.36458
  22        2PX         0.16963
  23        2PY         0.53677
  24        2PZ         0.53673
  25        3S          0.84851
  26        3PX         0.07933
  27        3PY         0.32560
  28        3PZ         0.32566
  29 6   H  1S          0.45275
  30        2S          0.57749
  31 7   H  1S          0.45275
  32        2S          0.57748
  33 8   H  1S          0.45274
  34        2S          0.57748
          Condensed to atoms (all electrons):
               1          2          3          4          5          6
     1  P   13.853646   0.326931   0.326933   0.326923   0.057235  -0.044585
     2  H    0.326931   0.726444  -0.027426  -0.027428  -0.006636  -0.000218
     3  H    0.326933  -0.027426   0.726443  -0.027433  -0.006633   0.000449
     4  H    0.326923  -0.027428  -0.027433   0.726469  -0.006643  -0.000217
     5  B    0.057235  -0.006636  -0.006633  -0.006643   3.878016   0.420117
     6  H   -0.044585  -0.000218   0.000449  -0.000217   0.420117   0.701851
     7  H   -0.044580   0.000449  -0.000217  -0.000219   0.420119  -0.023573
     8  H   -0.044591  -0.000217  -0.000218   0.000450   0.420125  -0.023586
               7          8
     1  P   -0.044580  -0.044591
     2  H    0.000449  -0.000217
     3  H   -0.000217  -0.000218
     4  H   -0.000219   0.000450
     5  B    0.420119   0.420125
     6  H   -0.023573  -0.023586
     7  H    0.701845  -0.023596
     8  H   -0.023596   0.701853
 Mulliken charges:
               1
     1  P    0.242088
     2  H    0.008101
     3  H    0.008100
     4  H    0.008099
     5  B   -0.175701
     6  H   -0.030239
     7  H   -0.030229
     8  H   -0.030219
 Sum of Mulliken charges =  -0.00000
 Mulliken charges with hydrogens summed into heavy atoms:
               1
     1  P    0.266388
     5  B   -0.266388
 Electronic spatial extent (au):  <R**2>=            207.5143
 Charge=             -0.0000 electrons
 Dipole moment (field-independent basis, Debye):
    X=             -4.1347    Y=             -0.0001    Z=              0.0001  Tot=              4.1347
 Quadrupole moment (field-independent basis, Debye-Ang):
   XX=            -28.2667   YY=            -24.7370   ZZ=            -24.7376
   XY=             -0.0002   XZ=              0.0007   YZ=              0.0000
 Traceless Quadrupole moment (field-independent basis, Debye-Ang):
   XX=             -2.3529   YY=              1.1767   ZZ=              1.1762
   XY=             -0.0002   XZ=              0.0007   YZ=              0.0000
 Octapole moment (field-independent basis, Debye-Ang**2):
  XXX=            -19.0305  YYY=              0.0401  ZZZ=              0.2282  XYY=             -7.0738
  XXY=             -0.0000  XXZ=              0.0001  XZZ=             -7.0742  YZZ=             -0.0403
  YYZ=             -0.2284  XYZ=             -0.0002
 Hexadecapole moment (field-independent basis, Debye-Ang**3):
 XXXX=           -250.9580 YYYY=            -57.3918 ZZZZ=            -57.3888 XXXY=             -0.0010
 XXXZ=              0.0029 YYYX=              0.0915 YYYZ=              0.0002 ZZZX=              0.5234
 ZZZY=              0.0000 XXYY=            -53.6295 XXZZ=            -53.6307 YYZZ=            -19.1303
 XXYZ=             -0.0000 YYXZ=             -0.5220 ZZXY=             -0.0916
 N-N= 5.572922710101D+01 E-N=-9.826398901795D+02  KE= 3.666920030826D+02
 Orbital energies and kinetic energies (alpha):
                                 1                 2
   1         O               -79.432641        105.409183
   2         O                -7.510683         10.878713
   3         O                -7.509145         16.152301
   4         O                -5.393772         14.559979
   5         O                -5.393772         14.559981
   6         O                -5.392563         14.566913
   7         O                -0.924798          1.514803
   8         O                -0.685253          0.884048
   9         O                -0.577823          1.053881
  10         O                -0.577807          1.053879
  11         O                -0.443893          0.693715
  12         O                -0.443840          0.693700
  13         O                -0.424492          1.324905
  14         V                 0.165563          0.896923
  15         V                 0.165578          0.896938
  16         V                 0.196592          1.113380
  17         V                 0.231925          1.144802
  18         V                 0.348744          0.575622
  19         V                 0.348806          0.575650
  20         V                 0.381973          1.009256
  21         V                 0.574579          2.324678
  22         V                 0.574583          2.324743
  23         V                 0.589256          2.157101
  24         V                 0.673790          1.604339
  25         V                 0.673799          1.604344
  26         V                 0.701038          1.807643
  27         V                 0.763935          1.965738
  28         V                 1.176438          2.543494
  29         V                 1.192566          1.858051
  30         V                 1.242363          2.530550
  31         V                 1.242376          2.530620
  32         V                 1.466043          2.561676
  33         V                 1.466123          2.561853
  34         V                 1.482461          2.592125
 Total kinetic energy from orbitals= 3.666920030826D+02
 1\1\GINC-IISERK51\SP\RHF\3-21G\B1H6P1\GAUSSIAN\17-Jun-2025\0\\# hf/3-2
 1g pop=full geom=connectivity\\Title Card Required\\0,1\P,0,0.631054,-
 0.000003,-0.000023\H,0,1.278292,1.044317,-0.685724\H,0,1.278452,-1.116
 087,-0.56126\H,0,1.277982,0.071831,1.247375\B,0,-1.581244,0.000011,0.0
 00027\H,0,-1.798038,1.053129,0.528708\H,0,-1.79813,-0.98455,0.647465\H
 ,0,-1.798149,-0.068654,-1.176357\\Version=EM64L-G16RevB.01\State=1-A\H
 F=-366.955197\RMSD=4.898e-09\Dipole=1.6267002,0.0000428,0.000054\Quadr
 upole=-1.749336,0.8748683,0.8744678,-0.0001366,-0.0005081,-0.0000347\P
 G=C01 [X(B1H6P1)]\\@


    UPON JULIA'S CLOTHES

 WHENAS IN SILKS MY JULIA GOES,
 THEN, THEN, METHINKS, HOW SWEETLY FLOWS
 THAT LIQUEFACTION OF HER CLOTHES.

 NEXT, WHEN I CAST MINE EYES, AND SEE
 THAT BRAVE VIBRATION, EACH WAY FREE,
 O, HOW THAT GLITTERING TAKETH ME!
     -- ROBERT HERRICK, 1648
 Job cpu time:       0 days  0 hours  0 minutes  0.5 seconds.
 Elapsed time:       0 days  0 hours  0 minutes  0.5 seconds.
 File lengths (MBytes):  RWF=      6 Int=      0 D2E=      0 Chk=      1 Scr=      1
 Normal termination of Gaussian 16 at Tue Jun 17 15:39:54 2025.
