 Entering Gaussian System, Link 0=g16
 Initial command:
 /home/user/softwares/g16/g16/l1.exe "/home/user/scratch/Gau-367640.inp" -scrdir="/home/user/scratch/"
 Entering Link 1 = /home/user/softwares/g16/g16/l1.exe PID=    367642.
  
 Copyright (c) 1988-2017, Gaussian, Inc.  All Rights Reserved.
  
 This is part of the Gaussian(R) 16 program.  It is based on
 the Gaussian(R) 09 system (copyright 2009, Gaussian, Inc.),
 the Gaussian(R) 03 system (copyright 2003, Gaussian, Inc.),
 the Gaussian(R) 98 system (copyright 1998, Gaussian, Inc.),
 the Gaussian(R) 94 system (copyright 1995, Gaussian, Inc.),
 the Gaussian 92(TM) system (copyright 1992, Gaussian, Inc.),
 the Gaussian 90(TM) system (copyright 1990, Gaussian, Inc.),
 the Gaussian 88(TM) system (copyright 1988, Gaussian, Inc.),
 the Gaussian 86(TM) system (copyright 1986, Carnegie Mellon
 University), and the Gaussian 82(TM) system (copyright 1983,
 Carnegie Mellon University). Gaussian is a federally registered
 trademark of Gaussian, Inc.
  
 This software contains proprietary and confidential information,
 including trade secrets, belonging to Gaussian, Inc.
  
 This software is provided under written license and may be
 used, copied, transmitted, or stored only in accord with that
 written license.
  
 The following legend is applicable only to US Government
 contracts under FAR:
  
                    RESTRICTED RIGHTS LEGEND
  
 Use, reproduction and disclosure by the US Government is
 subject to restrictions as set forth in subparagraphs (a)
 and (c) of the Commercial Computer Software - Restricted
 Rights clause in FAR 52.227-19.
  
 Gaussian, Inc.
 340 Quinnipiac St., Bldg. 40, Wallingford CT 06492
  
  
 ---------------------------------------------------------------
 Warning -- This program may not be used in any manner that
 competes with the business of Gaussian, Inc. or will provide
 assistance to any competitor of Gaussian, Inc.  The licensee
 of this program is prohibited from giving any competitor of
 Gaussian, Inc. access to this program.  By using this program,
 the user acknowledges that Gaussian, Inc. is engaged in the
 business of creating and licensing software in the field of
 computational chemistry and represents and warrants to the
 licensee that it is not a competitor of Gaussian, Inc. and that
 it will not use this program in any manner prohibited above.
 ---------------------------------------------------------------
  

 Cite this work as:
 Gaussian 16, Revision B.01,
 M. J. Frisch, G. W. Trucks, H. B. Schlegel, G. E. Scuseria, 
 M. A. Robb, J. R. Cheeseman, G. Scalmani, V. Barone, 
 G. A. Petersson, H. Nakatsuji, X. Li, M. Caricato, A. V. Marenich, 
 J. Bloino, B. G. Janesko, R. Gomperts, B. Mennucci, H. P. Hratchian, 
 J. V. Ortiz, A. F. Izmaylov, J. L. Sonnenberg, D. Williams-Young, 
 F. Ding, F. Lipparini, F. Egidi, J. Goings, B. Peng, A. Petrone, 
 T. Henderson, D. Ranasinghe, V. G. Zakrzewski, J. Gao, N. Rega, 
 G. Zheng, W. Liang, M. Hada, M. Ehara, K. Toyota, R. Fukuda, 
 J. Hasegawa, M. Ishida, T. Nakajima, Y. Honda, O. Kitao, H. Nakai, 
 T. Vreven, K. Throssell, J. A. Montgomery, Jr., J. E. Peralta, 
 F. Ogliaro, M. J. Bearpark, J. J. Heyd, E. N. Brothers, K. N. Kudin, 
 V. N. Staroverov, T. A. Keith, R. Kobayashi, J. Normand, 
 K. Raghavachari, A. P. Rendell, J. C. Burant, S. S. Iyengar, 
 J. Tomasi, M. Cossi, J. M. Millam, M. Klene, C. Adamo, R. Cammi, 
 J. W. Ochterski, R. L. Martin, K. Morokuma, O. Farkas, 
 J. B. Foresman, and D. J. Fox, Gaussian, Inc., Wallingford CT, 2016.
 
 ******************************************
 Gaussian 16:  EM64L-G16RevB.01 20-Dec-2017
                10-Jun-2025 
 ******************************************
 %nproc=20
 Will use up to   20 processors via shared memory.
 %mem=15GB
 %chk=cycloheptatrienyl_anion_isomer.chk
 ---------------------------------------------
 #p hf/3-21g opt freq gfinput gfprint pop=full
 ---------------------------------------------
 1/18=20,19=15,38=1/1,3;
 2/9=110,12=2,17=6,18=5,40=1/2;
 3/5=5,11=9,24=110,25=1,30=1,71=1/1,2,3;
 4//1;
 5/5=2,38=5/2;
 6/7=3,28=1/1;
 7//1,2,3,16;
 1/18=20,19=15/3(2);
 2/9=110/2;
 99//99;
 2/9=110/2;
 3/5=5,11=9,25=1,30=1,71=1/1,2,3;
 4/5=5,16=3,69=1/1;
 5/5=2,38=5/2;
 7//1,2,3,16;
 1/18=20,19=15/3(-5);
 2/9=110/2;
 6/7=3,19=2,28=1/1;
 99/9=1/99;
 Leave Link    1 at Tue Jun 10 01:50:08 2025, MaxMem=  2013265920 cpu:               1.3 elap:               0.1
 (Enter /home/user/softwares/g16/g16/l101.exe)
 ------------
 Optimisation
 ------------
 Symbolic Z-matrix:
 Charge = -1 Multiplicity = 1
 C                    -1.88545   2.95749   1.60579 
 C                    -0.49434   2.98518   1.75653 
 C                     0.37416   4.05948   2.1892 
 C                    -2.7737    4.0483    1.73201 
 C                    -0.0032    5.30879   2.60246 
 C                    -2.27999   5.48008   1.66177 
 C                    -1.4548    5.62468   2.88504 
 H                    -2.32378   2.00579   1.38893 
 H                     0.0042    2.06832   1.52048 
 H                     1.42517   3.85951   2.17207 
 H                     0.73524   6.07639   2.70439 
 H                    -1.84191   5.88749   3.84732 
 C                    -4.09066   3.80898   1.94394 
 H                    -4.7726    4.62659   2.05062 
 H                    -4.44853   2.80243   2.00459 
 H                    -1.6541    5.63208   0.80733 
 H                    -3.09878   6.16719   1.61311 
 
 ITRead=  0  0  0  0  0  0  0  0  0  0  0  0  0  0  0  0  0
 MicOpt= -1 -1 -1 -1 -1 -1 -1 -1 -1 -1 -1 -1 -1 -1 -1 -1 -1
 NAtoms=     17 NQM=       17 NQMF=       0 NMMI=      0 NMMIF=      0
                NMic=       0 NMicF=      0.
                    Isotopes and Nuclear Properties:
 (Nuclear quadrupole moments (NQMom) in fm**2, nuclear magnetic moments (NMagM)
  in nuclear magnetons)

  Atom         1           2           3           4           5           6           7           8           9          10
 IAtWgt=          12          12          12          12          12          12          12           1           1           1
 AtmWgt=  12.0000000  12.0000000  12.0000000  12.0000000  12.0000000  12.0000000  12.0000000   1.0078250   1.0078250   1.0078250
 NucSpn=           0           0           0           0           0           0           0           1           1           1
 AtZEff=  -0.0000000  -0.0000000  -0.0000000  -0.0000000  -0.0000000  -0.0000000  -0.0000000  -0.0000000  -0.0000000  -0.0000000
 NQMom=    0.0000000   0.0000000   0.0000000   0.0000000   0.0000000   0.0000000   0.0000000   0.0000000   0.0000000   0.0000000
 NMagM=    0.0000000   0.0000000   0.0000000   0.0000000   0.0000000   0.0000000   0.0000000   2.7928460   2.7928460   2.7928460
 AtZNuc=   6.0000000   6.0000000   6.0000000   6.0000000   6.0000000   6.0000000   6.0000000   1.0000000   1.0000000   1.0000000

  Atom        11          12          13          14          15          16          17
 IAtWgt=           1           1          12           1           1           1           1
 AtmWgt=   1.0078250   1.0078250  12.0000000   1.0078250   1.0078250   1.0078250   1.0078250
 NucSpn=           1           1           0           1           1           1           1
 AtZEff=  -0.0000000  -0.0000000  -0.0000000  -0.0000000  -0.0000000  -0.0000000  -0.0000000
 NQMom=    0.0000000   0.0000000   0.0000000   0.0000000   0.0000000   0.0000000   0.0000000
 NMagM=    2.7928460   2.7928460   0.0000000   2.7928460   2.7928460   2.7928460   2.7928460
 AtZNuc=   1.0000000   1.0000000   6.0000000   1.0000000   1.0000000   1.0000000   1.0000000
 Leave Link  101 at Tue Jun 10 01:50:10 2025, MaxMem=  2013265920 cpu:              24.9 elap:               1.3
 (Enter /home/user/softwares/g16/g16/l103.exe)

 GradGradGradGradGradGradGradGradGradGradGradGradGradGradGradGradGradGrad
 Berny optimization.
 Initialization pass.
                           ----------------------------
                           !    Initial Parameters    !
                           ! (Angstroms and Degrees)  !
 --------------------------                            --------------------------
 ! Name  Definition              Value          Derivative Info.                !
 --------------------------------------------------------------------------------
 ! R1    R(1,2)                  1.3995         estimate D2E/DX2                !
 ! R2    R(1,4)                  1.4124         estimate D2E/DX2                !
 ! R3    R(1,8)                  1.07           estimate D2E/DX2                !
 ! R4    R(2,3)                  1.4476         estimate D2E/DX2                !
 ! R5    R(2,9)                  1.07           estimate D2E/DX2                !
 ! R6    R(3,5)                  1.3689         estimate D2E/DX2                !
 ! R7    R(3,10)                 1.07           estimate D2E/DX2                !
 ! R8    R(4,6)                  1.5161         estimate D2E/DX2                !
 ! R9    R(4,13)                 1.3552         estimate D2E/DX2                !
 ! R10   R(5,7)                  1.5122         estimate D2E/DX2                !
 ! R11   R(5,11)                 1.07           estimate D2E/DX2                !
 ! R12   R(6,7)                  1.4826         estimate D2E/DX2                !
 ! R13   R(6,16)                 1.07           estimate D2E/DX2                !
 ! R14   R(6,17)                 1.07           estimate D2E/DX2                !
 ! R15   R(7,12)                 1.07           estimate D2E/DX2                !
 ! R16   R(13,14)                1.07           estimate D2E/DX2                !
 ! R17   R(13,15)                1.07           estimate D2E/DX2                !
 ! A1    A(2,1,4)              126.8854         estimate D2E/DX2                !
 ! A2    A(2,1,8)              116.5275         estimate D2E/DX2                !
 ! A3    A(4,1,8)              116.5776         estimate D2E/DX2                !
 ! A4    A(1,2,3)              130.0324         estimate D2E/DX2                !
 ! A5    A(1,2,9)              114.9864         estimate D2E/DX2                !
 ! A6    A(3,2,9)              114.9802         estimate D2E/DX2                !
 ! A7    A(2,3,5)              127.0211         estimate D2E/DX2                !
 ! A8    A(2,3,10)             116.4761         estimate D2E/DX2                !
 ! A9    A(5,3,10)             116.4978         estimate D2E/DX2                !
 ! A10   A(1,4,6)              121.36           estimate D2E/DX2                !
 ! A11   A(1,4,13)             119.2587         estimate D2E/DX2                !
 ! A12   A(6,4,13)             119.3709         estimate D2E/DX2                !
 ! A13   A(3,5,7)              120.7748         estimate D2E/DX2                !
 ! A14   A(3,5,11)             119.5517         estimate D2E/DX2                !
 ! A15   A(7,5,11)             119.6579         estimate D2E/DX2                !
 ! A16   A(4,6,7)              103.5983         estimate D2E/DX2                !
 ! A17   A(4,6,16)             111.2004         estimate D2E/DX2                !
 ! A18   A(4,6,17)             111.0598         estimate D2E/DX2                !
 ! A19   A(7,6,16)             108.6285         estimate D2E/DX2                !
 ! A20   A(7,6,17)             113.6275         estimate D2E/DX2                !
 ! A21   A(16,6,17)            108.6676         estimate D2E/DX2                !
 ! A22   A(5,7,6)              111.0824         estimate D2E/DX2                !
 ! A23   A(5,7,12)             124.516          estimate D2E/DX2                !
 ! A24   A(6,7,12)             124.3747         estimate D2E/DX2                !
 ! A25   A(4,13,14)            120.0            estimate D2E/DX2                !
 ! A26   A(4,13,15)            120.0            estimate D2E/DX2                !
 ! A27   A(14,13,15)           120.0            estimate D2E/DX2                !
 ! D1    D(4,1,2,3)              6.387          estimate D2E/DX2                !
 ! D2    D(4,1,2,9)           -173.9925         estimate D2E/DX2                !
 ! D3    D(8,1,2,3)           -172.4521         estimate D2E/DX2                !
 ! D4    D(8,1,2,9)              7.1683         estimate D2E/DX2                !
 ! D5    D(2,1,4,6)             17.9519         estimate D2E/DX2                !
 ! D6    D(2,1,4,13)          -160.8623         estimate D2E/DX2                !
 ! D7    D(8,1,4,6)           -163.2095         estimate D2E/DX2                !
 ! D8    D(8,1,4,13)            17.9764         estimate D2E/DX2                !
 ! D9    D(1,2,3,5)              2.5648         estimate D2E/DX2                !
 ! D10   D(1,2,3,10)          -176.5808         estimate D2E/DX2                !
 ! D11   D(9,2,3,5)           -177.0557         estimate D2E/DX2                !
 ! D12   D(9,2,3,10)             3.7987         estimate D2E/DX2                !
 ! D13   D(2,3,5,7)             11.1174         estimate D2E/DX2                !
 ! D14   D(2,3,5,11)          -167.4415         estimate D2E/DX2                !
 ! D15   D(10,3,5,7)          -169.7371         estimate D2E/DX2                !
 ! D16   D(10,3,5,11)           11.7039         estimate D2E/DX2                !
 ! D17   D(1,4,6,7)            -67.0726         estimate D2E/DX2                !
 ! D18   D(1,4,6,16)            49.4356         estimate D2E/DX2                !
 ! D19   D(1,4,6,17)           170.5831         estimate D2E/DX2                !
 ! D20   D(13,4,6,7)           111.7402         estimate D2E/DX2                !
 ! D21   D(13,4,6,16)         -131.7515         estimate D2E/DX2                !
 ! D22   D(13,4,6,17)          -10.604          estimate D2E/DX2                !
 ! D23   D(1,4,13,14)          179.419          estimate D2E/DX2                !
 ! D24   D(1,4,13,15)           -0.581          estimate D2E/DX2                !
 ! D25   D(6,4,13,14)            0.581          estimate D2E/DX2                !
 ! D26   D(6,4,13,15)         -179.419          estimate D2E/DX2                !
 ! D27   D(3,5,7,6)            -62.6181         estimate D2E/DX2                !
 ! D28   D(3,5,7,12)           115.5607         estimate D2E/DX2                !
 ! D29   D(11,5,7,6)           115.9393         estimate D2E/DX2                !
 ! D30   D(11,5,7,12)          -65.8819         estimate D2E/DX2                !
 ! D31   D(4,6,7,5)             92.4904         estimate D2E/DX2                !
 ! D32   D(4,6,7,12)           -85.6915         estimate D2E/DX2                !
 ! D33   D(16,6,7,5)           -25.815          estimate D2E/DX2                !
 ! D34   D(16,6,7,12)          156.0031         estimate D2E/DX2                !
 ! D35   D(17,6,7,5)          -146.8889         estimate D2E/DX2                !
 ! D36   D(17,6,7,12)           34.9292         estimate D2E/DX2                !
 --------------------------------------------------------------------------------
 Trust Radius=3.00D-01 FncErr=1.00D-07 GrdErr=1.00D-07 EigMax=2.50D+02 EigMin=1.00D-04
 Number of steps in this run=     90 maximum allowed number of steps=    102.
 GradGradGradGradGradGradGradGradGradGradGradGradGradGradGradGradGradGrad

 Leave Link  103 at Tue Jun 10 01:50:10 2025, MaxMem=  2013265920 cpu:               0.2 elap:               0.0
 (Enter /home/user/softwares/g16/g16/l202.exe)
                          Input orientation:                          
 ---------------------------------------------------------------------
 Center     Atomic      Atomic             Coordinates (Angstroms)
 Number     Number       Type             X           Y           Z
 ---------------------------------------------------------------------
      1          6           0       -1.885449    2.957486    1.605792
      2          6           0       -0.494340    2.985183    1.756532
      3          6           0        0.374161    4.059481    2.189197
      4          6           0       -2.773704    4.048297    1.732010
      5          6           0       -0.003205    5.308792    2.602460
      6          6           0       -2.279985    5.480081    1.661767
      7          6           0       -1.454804    5.624676    2.885037
      8          1           0       -2.323785    2.005786    1.388930
      9          1           0        0.004200    2.068319    1.520484
     10          1           0        1.425169    3.859509    2.172068
     11          1           0        0.735241    6.076391    2.704389
     12          1           0       -1.841906    5.887488    3.847316
     13          6           0       -4.090663    3.808983    1.943938
     14          1           0       -4.772604    4.626587    2.050619
     15          1           0       -4.448530    2.802428    2.004586
     16          1           0       -1.654096    5.632083    0.807333
     17          1           0       -3.098776    6.167186    1.613109
 ---------------------------------------------------------------------
                    Distance matrix (angstroms):
                    1          2          3          4          5
     1  C    0.000000
     2  C    1.399527   0.000000
     3  C    2.580812   1.447621   0.000000
     4  C    1.412373   2.515216   3.180911   0.000000
     5  C    3.172512   2.521103   1.368930   3.165785   0.000000
     6  C    2.553875   3.069532   3.056269   1.516145   2.469407
     7  C    2.989286   3.027034   2.505822   2.356679   1.512208
     8  H    1.070000   2.107420   3.483820   2.119430   4.215162
     9  H    2.090136   1.070000   2.132785   3.417865   3.416341
    10  H    3.477716   2.149798   1.070000   4.226088   2.079882
    11  H    4.219301   3.459171   2.112754   4.167898   1.070000
    12  H    3.689342   3.822393   3.316915   2.953877   2.294641
    13  C    2.387961   3.694226   4.478566   1.355200   4.403452
    14  H    3.364436   4.591757   5.179768   2.105120   4.849443
    15  H    2.598550   3.966175   4.987244   2.105120   5.138115
    16  H    2.800809   3.041725   2.914868   2.148703   2.460171
    17  H    3.431384   4.114463   4.103120   2.146975   3.361282
                    6          7          8          9         10
     6  C    0.000000
     7  C    1.482639   0.000000
     8  H    3.485267   4.011213   0.000000
     9  H    4.108233   4.079016   2.332537   0.000000
    10  H    4.076129   3.452301   4.254909   2.377410   0.000000
    11  H    3.245648   2.243429   5.259077   4.242722   2.382001
    12  H    2.265947   1.070000   4.619901   4.838213   4.194393
    13  C    2.480069   3.336190   2.584843   4.469577   5.520779
    14  H    2.663232   3.563738   3.647348   5.444596   6.246242
    15  H    3.462649   4.207455   2.351215   4.538730   5.970411
    16  H    1.070000   2.087253   3.733198   3.994864   3.806100
    17  H    1.070000   2.148200   4.238882   5.141765   5.109196
                   11         12         13         14         15
    11  H    0.000000
    12  H    2.825536   0.000000
    13  C    5.385979   3.605543   0.000000
    14  H    5.732861   3.661554   1.070000   0.000000
    15  H    6.170902   4.439340   1.070000   1.853294   0.000000
    16  H    3.083044   3.056469   3.248450   3.504550   4.153218
    17  H    3.987333   2.578688   2.579614   2.316583   3.646462
                   16         17
    16  H    0.000000
    17  H    1.738595   0.000000
 Stoichiometry    C8H9(1-)
 Framework group  C1[X(C8H9)]
 Deg. of freedom    45
 Full point group                 C1      NOp   1
 Largest Abelian subgroup         C1      NOp   1
 Largest concise Abelian subgroup C1      NOp   1
                         Standard orientation:                         
 ---------------------------------------------------------------------
 Center     Atomic      Atomic             Coordinates (Angstroms)
 Number     Number       Type             X           Y           Z
 ---------------------------------------------------------------------
      1          6           0       -0.519104    1.335202    0.038754
      2          6           0        0.869597    1.508749    0.030553
      3          6           0        1.930610    0.525224   -0.019812
      4          6           0       -1.220076    0.112008    0.123799
      5          6           0        1.791490   -0.832860   -0.120913
      6          6           0       -0.543640   -1.152469    0.615965
      7          6           0        0.449734   -1.451333   -0.443331
      8          1           0       -1.112030    2.221890   -0.045640
      9          1           0        1.198064    2.526637    0.060780
     10          1           0        2.931195    0.899384    0.041293
     11          1           0        2.637544   -1.464419    0.052946
     12          1           0        0.235627   -2.005287   -1.333384
     13          6           0       -2.517333    0.063577   -0.265232
     14          1           0       -3.056977   -0.858984   -0.214579
     15          1           0       -3.001941    0.947900   -0.623044
     16          1           0       -0.022492   -0.980141    1.534447
     17          1           0       -1.256664   -1.935562    0.768482
 ---------------------------------------------------------------------
 Rotational constants (GHZ):           3.6119583           2.0437211           1.4018032
 Leave Link  202 at Tue Jun 10 01:50:10 2025, MaxMem=  2013265920 cpu:               0.1 elap:               0.0
 (Enter /home/user/softwares/g16/g16/l301.exe)
 Standard basis: 3-21G (6D, 7F)
 Ernie: Thresh=  0.10000D-02 Tol=  0.10000D-05 Strict=F.
 AO basis set in the form of general basis input (Overlap normalization):
      1 0
 S   3 1.00       0.000000000000
      0.1722560000D+03  0.6176690738D-01
      0.2591090000D+02  0.3587940429D+00
      0.5533350000D+01  0.7007130837D+00
 SP   2 1.00       0.000000000000
      0.3664980000D+01 -0.3958951621D+00  0.2364599466D+00
      0.7705450000D+00  0.1215834356D+01  0.8606188057D+00
 SP   1 1.00       0.000000000000
      0.1958570000D+00  0.1000000000D+01  0.1000000000D+01
 ****
      2 0
 S   3 1.00       0.000000000000
      0.1722560000D+03  0.6176690738D-01
      0.2591090000D+02  0.3587940429D+00
      0.5533350000D+01  0.7007130837D+00
 SP   2 1.00       0.000000000000
      0.3664980000D+01 -0.3958951621D+00  0.2364599466D+00
      0.7705450000D+00  0.1215834356D+01  0.8606188057D+00
 SP   1 1.00       0.000000000000
      0.1958570000D+00  0.1000000000D+01  0.1000000000D+01
 ****
      3 0
 S   3 1.00       0.000000000000
      0.1722560000D+03  0.6176690738D-01
      0.2591090000D+02  0.3587940429D+00
      0.5533350000D+01  0.7007130837D+00
 SP   2 1.00       0.000000000000
      0.3664980000D+01 -0.3958951621D+00  0.2364599466D+00
      0.7705450000D+00  0.1215834356D+01  0.8606188057D+00
 SP   1 1.00       0.000000000000
      0.1958570000D+00  0.1000000000D+01  0.1000000000D+01
 ****
      4 0
 S   3 1.00       0.000000000000
      0.1722560000D+03  0.6176690738D-01
      0.2591090000D+02  0.3587940429D+00
      0.5533350000D+01  0.7007130837D+00
 SP   2 1.00       0.000000000000
      0.3664980000D+01 -0.3958951621D+00  0.2364599466D+00
      0.7705450000D+00  0.1215834356D+01  0.8606188057D+00
 SP   1 1.00       0.000000000000
      0.1958570000D+00  0.1000000000D+01  0.1000000000D+01
 ****
      5 0
 S   3 1.00       0.000000000000
      0.1722560000D+03  0.6176690738D-01
      0.2591090000D+02  0.3587940429D+00
      0.5533350000D+01  0.7007130837D+00
 SP   2 1.00       0.000000000000
      0.3664980000D+01 -0.3958951621D+00  0.2364599466D+00
      0.7705450000D+00  0.1215834356D+01  0.8606188057D+00
 SP   1 1.00       0.000000000000
      0.1958570000D+00  0.1000000000D+01  0.1000000000D+01
 ****
      6 0
 S   3 1.00       0.000000000000
      0.1722560000D+03  0.6176690738D-01
      0.2591090000D+02  0.3587940429D+00
      0.5533350000D+01  0.7007130837D+00
 SP   2 1.00       0.000000000000
      0.3664980000D+01 -0.3958951621D+00  0.2364599466D+00
      0.7705450000D+00  0.1215834356D+01  0.8606188057D+00
 SP   1 1.00       0.000000000000
      0.1958570000D+00  0.1000000000D+01  0.1000000000D+01
 ****
      7 0
 S   3 1.00       0.000000000000
      0.1722560000D+03  0.6176690738D-01
      0.2591090000D+02  0.3587940429D+00
      0.5533350000D+01  0.7007130837D+00
 SP   2 1.00       0.000000000000
      0.3664980000D+01 -0.3958951621D+00  0.2364599466D+00
      0.7705450000D+00  0.1215834356D+01  0.8606188057D+00
 SP   1 1.00       0.000000000000
      0.1958570000D+00  0.1000000000D+01  0.1000000000D+01
 ****
      8 0
 S   2 1.00       0.000000000000
      0.5447178000D+01  0.1562849787D+00
      0.8245472400D+00  0.9046908767D+00
 S   1 1.00       0.000000000000
      0.1831915800D+00  0.1000000000D+01
 ****
      9 0
 S   2 1.00       0.000000000000
      0.5447178000D+01  0.1562849787D+00
      0.8245472400D+00  0.9046908767D+00
 S   1 1.00       0.000000000000
      0.1831915800D+00  0.1000000000D+01
 ****
     10 0
 S   2 1.00       0.000000000000
      0.5447178000D+01  0.1562849787D+00
      0.8245472400D+00  0.9046908767D+00
 S   1 1.00       0.000000000000
      0.1831915800D+00  0.1000000000D+01
 ****
     11 0
 S   2 1.00       0.000000000000
      0.5447178000D+01  0.1562849787D+00
      0.8245472400D+00  0.9046908767D+00
 S   1 1.00       0.000000000000
      0.1831915800D+00  0.1000000000D+01
 ****
     12 0
 S   2 1.00       0.000000000000
      0.5447178000D+01  0.1562849787D+00
      0.8245472400D+00  0.9046908767D+00
 S   1 1.00       0.000000000000
      0.1831915800D+00  0.1000000000D+01
 ****
     13 0
 S   3 1.00       0.000000000000
      0.1722560000D+03  0.6176690738D-01
      0.2591090000D+02  0.3587940429D+00
      0.5533350000D+01  0.7007130837D+00
 SP   2 1.00       0.000000000000
      0.3664980000D+01 -0.3958951621D+00  0.2364599466D+00
      0.7705450000D+00  0.1215834356D+01  0.8606188057D+00
 SP   1 1.00       0.000000000000
      0.1958570000D+00  0.1000000000D+01  0.1000000000D+01
 ****
     14 0
 S   2 1.00       0.000000000000
      0.5447178000D+01  0.1562849787D+00
      0.8245472400D+00  0.9046908767D+00
 S   1 1.00       0.000000000000
      0.1831915800D+00  0.1000000000D+01
 ****
     15 0
 S   2 1.00       0.000000000000
      0.5447178000D+01  0.1562849787D+00
      0.8245472400D+00  0.9046908767D+00
 S   1 1.00       0.000000000000
      0.1831915800D+00  0.1000000000D+01
 ****
     16 0
 S   2 1.00       0.000000000000
      0.5447178000D+01  0.1562849787D+00
      0.8245472400D+00  0.9046908767D+00
 S   1 1.00       0.000000000000
      0.1831915800D+00  0.1000000000D+01
 ****
     17 0
 S   2 1.00       0.000000000000
      0.5447178000D+01  0.1562849787D+00
      0.8245472400D+00  0.9046908767D+00
 S   1 1.00       0.000000000000
      0.1831915800D+00  0.1000000000D+01
 ****

 AO basis set (Overlap normalization):
 Atom C1       Shell     1 S   3     bf    1 -     1         -0.980963674220          2.523165181703          0.073234620009
      0.1722560000D+03  0.6176690738D-01
      0.2591090000D+02  0.3587940429D+00
      0.5533350000D+01  0.7007130837D+00
 Atom C1       Shell     2 SP   2    bf    2 -     5         -0.980963674220          2.523165181703          0.073234620009
      0.3664980000D+01 -0.3958951621D+00  0.2364599466D+00
      0.7705450000D+00  0.1215834356D+01  0.8606188057D+00
 Atom C1       Shell     3 SP   1    bf    6 -     9         -0.980963674220          2.523165181703          0.073234620009
      0.1958570000D+00  0.1000000000D+01  0.1000000000D+01
 Atom C2       Shell     4 S   3     bf   10 -    10          1.643299981131          2.851121847990          0.057736908816
      0.1722560000D+03  0.6176690738D-01
      0.2591090000D+02  0.3587940429D+00
      0.5533350000D+01  0.7007130837D+00
 Atom C2       Shell     5 SP   2    bf   11 -    14          1.643299981131          2.851121847990          0.057736908816
      0.3664980000D+01 -0.3958951621D+00  0.2364599466D+00
      0.7705450000D+00  0.1215834356D+01  0.8606188057D+00
 Atom C2       Shell     6 SP   1    bf   15 -    18          1.643299981131          2.851121847990          0.057736908816
      0.1958570000D+00  0.1000000000D+01  0.1000000000D+01
 Atom C3       Shell     7 S   3     bf   19 -    19          3.648324689793          0.992529590759         -0.037438969792
      0.1722560000D+03  0.6176690738D-01
      0.2591090000D+02  0.3587940429D+00
      0.5533350000D+01  0.7007130837D+00
 Atom C3       Shell     8 SP   2    bf   20 -    23          3.648324689793          0.992529590759         -0.037438969792
      0.3664980000D+01 -0.3958951621D+00  0.2364599466D+00
      0.7705450000D+00  0.1215834356D+01  0.8606188057D+00
 Atom C3       Shell     9 SP   1    bf   24 -    27          3.648324689793          0.992529590759         -0.037438969792
      0.1958570000D+00  0.1000000000D+01  0.1000000000D+01
 Atom C4       Shell    10 S   3     bf   28 -    28         -2.305609579695          0.211664811989          0.233945798483
      0.1722560000D+03  0.6176690738D-01
      0.2591090000D+02  0.3587940429D+00
      0.5533350000D+01  0.7007130837D+00
 Atom C4       Shell    11 SP   2    bf   29 -    32         -2.305609579695          0.211664811989          0.233945798483
      0.3664980000D+01 -0.3958951621D+00  0.2364599466D+00
      0.7705450000D+00  0.1215834356D+01  0.8606188057D+00
 Atom C4       Shell    12 SP   1    bf   33 -    36         -2.305609579695          0.211664811989          0.233945798483
      0.1958570000D+00  0.1000000000D+01  0.1000000000D+01
 Atom C5       Shell    13 S   3     bf   37 -    37          3.385426251543         -1.573877885924         -0.228492557944
      0.1722560000D+03  0.6176690738D-01
      0.2591090000D+02  0.3587940429D+00
      0.5533350000D+01  0.7007130837D+00
 Atom C5       Shell    14 SP   2    bf   38 -    41          3.385426251543         -1.573877885924         -0.228492557944
      0.3664980000D+01 -0.3958951621D+00  0.2364599466D+00
      0.7705450000D+00  0.1215834356D+01  0.8606188057D+00
 Atom C5       Shell    15 SP   1    bf   42 -    45          3.385426251543         -1.573877885924         -0.228492557944
      0.1958570000D+00  0.1000000000D+01  0.1000000000D+01
 Atom C6       Shell    16 S   3     bf   46 -    46         -1.027329882573         -2.177850808168          1.164005431970
      0.1722560000D+03  0.6176690738D-01
      0.2591090000D+02  0.3587940429D+00
      0.5533350000D+01  0.7007130837D+00
 Atom C6       Shell    17 SP   2    bf   47 -    50         -1.027329882573         -2.177850808168          1.164005431970
      0.3664980000D+01 -0.3958951621D+00  0.2364599466D+00
      0.7705450000D+00  0.1215834356D+01  0.8606188057D+00
 Atom C6       Shell    18 SP   1    bf   51 -    54         -1.027329882573         -2.177850808168          1.164005431970
      0.1958570000D+00  0.1000000000D+01  0.1000000000D+01
 Atom C7       Shell    19 S   3     bf   55 -    55          0.849874074139         -2.742622211004         -0.837774500327
      0.1722560000D+03  0.6176690738D-01
      0.2591090000D+02  0.3587940429D+00
      0.5533350000D+01  0.7007130837D+00
 Atom C7       Shell    20 SP   2    bf   56 -    59          0.849874074139         -2.742622211004         -0.837774500327
      0.3664980000D+01 -0.3958951621D+00  0.2364599466D+00
      0.7705450000D+00  0.1215834356D+01  0.8606188057D+00
 Atom C7       Shell    21 SP   1    bf   60 -    63          0.849874074139         -2.742622211004         -0.837774500327
      0.1958570000D+00  0.1000000000D+01  0.1000000000D+01
 Atom H8       Shell    22 S   2     bf   64 -    64         -2.101431588712          4.198763343474         -0.086247658031
      0.5447178000D+01  0.1562849787D+00
      0.8245472400D+00  0.9046908767D+00
 Atom H8       Shell    23 S   1     bf   65 -    65         -2.101431588712          4.198763343474         -0.086247658031
      0.1831915800D+00  0.1000000000D+01
 Atom H9       Shell    24 S   2     bf   66 -    66          2.264012471666          4.774651279142          0.114856849620
      0.5447178000D+01  0.1562849787D+00
      0.8245472400D+00  0.9046908767D+00
 Atom H9       Shell    25 S   1     bf   67 -    67          2.264012471666          4.774651279142          0.114856849620
      0.1831915800D+00  0.1000000000D+01
 Atom H10      Shell    26 S   2     bf   68 -    68          5.539156685586          1.699589019453          0.078031605145
      0.5447178000D+01  0.1562849787D+00
      0.8245472400D+00  0.9046908767D+00
 Atom H10      Shell    27 S   1     bf   69 -    69          5.539156685586          1.699589019453          0.078031605145
      0.1831915800D+00  0.1000000000D+01
 Atom H11      Shell    28 S   2     bf   70 -    70          4.984235714543         -2.767350831181          0.100053876489
      0.5447178000D+01  0.1562849787D+00
      0.8245472400D+00  0.9046908767D+00
 Atom H11      Shell    29 S   1     bf   71 -    71          4.984235714543         -2.767350831181          0.100053876489
      0.1831915800D+00  0.1000000000D+01
 Atom H12      Shell    30 S   2     bf   72 -    72          0.445270761230         -3.789442366346         -2.519730464401
      0.5447178000D+01  0.1562849787D+00
      0.8245472400D+00  0.9046908767D+00
 Atom H12      Shell    31 S   1     bf   73 -    73          0.445270761230         -3.789442366346         -2.519730464401
      0.1831915800D+00  0.1000000000D+01
 Atom C13      Shell    32 S   3     bf   74 -    74         -4.757070812859          0.120143544630         -0.501215124357
      0.1722560000D+03  0.6176690738D-01
      0.2591090000D+02  0.3587940429D+00
      0.5533350000D+01  0.7007130837D+00
 Atom C13      Shell    33 SP   2    bf   75 -    78         -4.757070812859          0.120143544630         -0.501215124357
      0.3664980000D+01 -0.3958951621D+00  0.2364599466D+00
      0.7705450000D+00  0.1215834356D+01  0.8606188057D+00
 Atom C13      Shell    34 SP   1    bf   79 -    82         -4.757070812859          0.120143544630         -0.501215124357
      0.1958570000D+00  0.1000000000D+01  0.1000000000D+01
 Atom H14      Shell    35 S   2     bf   83 -    83         -5.776849875388         -1.623244088535         -0.405495107956
      0.5447178000D+01  0.1562849787D+00
      0.8245472400D+00  0.9046908767D+00
 Atom H14      Shell    36 S   1     bf   84 -    84         -5.776849875388         -1.623244088535         -0.405495107956
      0.1831915800D+00  0.1000000000D+01
 Atom H15      Shell    37 S   2     bf   85 -    85         -5.672846311697          1.791270450658         -1.177382443749
      0.5447178000D+01  0.1562849787D+00
      0.8245472400D+00  0.9046908767D+00
 Atom H15      Shell    38 S   1     bf   86 -    86         -5.672846311697          1.791270450658         -1.177382443749
      0.1831915800D+00  0.1000000000D+01
 Atom H16      Shell    39 S   2     bf   87 -    87         -0.042503743776         -1.852198487383          2.899684031595
      0.5447178000D+01  0.1562849787D+00
      0.8245472400D+00  0.9046908767D+00
 Atom H16      Shell    40 S   1     bf   88 -    88         -0.042503743776         -1.852198487383          2.899684031595
      0.1831915800D+00  0.1000000000D+01
 Atom H17      Shell    41 S   2     bf   89 -    89         -2.374750397006         -3.657682751134          1.452219670136
      0.5447178000D+01  0.1562849787D+00
      0.8245472400D+00  0.9046908767D+00
 Atom H17      Shell    42 S   1     bf   90 -    90         -2.374750397006         -3.657682751134          1.452219670136
      0.1831915800D+00  0.1000000000D+01
 There are    90 symmetry adapted cartesian basis functions of A   symmetry.
 There are    90 symmetry adapted basis functions of A   symmetry.
    90 basis functions,   147 primitive gaussians,    90 cartesian basis functions
    29 alpha electrons       29 beta electrons
       nuclear repulsion energy       335.0373620757 Hartrees.
 IExCor=    0 DFT=F Ex=HF Corr=None ExCW=0 ScaHFX=  1.000000
 ScaDFX=  1.000000  1.000000  1.000000  1.000000 ScalE2=  1.000000  1.000000
 IRadAn=      5 IRanWt=     -1 IRanGd=            0 ICorTp=0 IEmpDi=  4
 NAtoms=   17 NActive=   17 NUniq=   17 SFac= 1.00D+00 NAtFMM=   60 NAOKFM=F Big=F
 Integral buffers will be    131072 words long.
 Raffenetti 1 integral format.
 Two-electron integral symmetry is turned on.
 Leave Link  301 at Tue Jun 10 01:50:10 2025, MaxMem=  2013265920 cpu:               1.8 elap:               0.1
 (Enter /home/user/softwares/g16/g16/l302.exe)
 NPDir=0 NMtPBC=     1 NCelOv=     1 NCel=       1 NClECP=     1 NCelD=      1
         NCelK=      1 NCelE2=     1 NClLst=     1 CellRange=     0.0.
 One-electron integrals computed using PRISM.
 One-electron integral symmetry used in STVInt
 NBasis=    90 RedAO= T EigKep=  3.84D-03  NBF=    90
 NBsUse=    90 1.00D-06 EigRej= -1.00D+00 NBFU=    90
 Leave Link  302 at Tue Jun 10 01:50:10 2025, MaxMem=  2013265920 cpu:               5.1 elap:               0.3
 (Enter /home/user/softwares/g16/g16/l303.exe)
 DipDrv:  MaxL=1.
 Leave Link  303 at Tue Jun 10 01:50:10 2025, MaxMem=  2013265920 cpu:               1.4 elap:               0.1
 (Enter /home/user/softwares/g16/g16/l401.exe)
 ExpMin= 1.83D-01 ExpMax= 1.72D+02 ExpMxC= 1.72D+02 IAcc=3 IRadAn=         5 AccDes= 0.00D+00
 Harris functional with IExCor=  205 and IRadAn=       5 diagonalized for initial guess.
 HarFok:  IExCor=  205 AccDes= 0.00D+00 IRadAn=         5 IDoV= 1 UseB2=F ITyADJ=14
 ICtDFT=  3500011 ScaDFX=  1.000000  1.000000  1.000000  1.000000
 FoFCou: FMM=F IPFlag=           0 FMFlag=      100000 FMFlg1=           0
         NFxFlg=           0 DoJE=T BraDBF=F KetDBF=T FulRan=T
         wScrn=  0.000000 ICntrl=       500 IOpCl=  0 I1Cent=   200000004 NGrid=           0
         NMat0=    1 NMatS0=      1 NMatT0=    0 NMatD0=    1 NMtDS0=    0 NMtDT0=    0
 Petite list used in FoFCou.
 Harris En= -307.102314100014    
 JPrj=0 DoOrth=F DoCkMO=F.
 Leave Link  401 at Tue Jun 10 01:50:11 2025, MaxMem=  2013265920 cpu:               9.8 elap:               0.5
 (Enter /home/user/softwares/g16/g16/l502.exe)
 Integral symmetry usage will be decided dynamically.
 Closed shell SCF:
 Using DIIS extrapolation, IDIIS=  1040.
 NGot=  2013265920 LenX=  2013246555 LenY=  2013238014
 Requested convergence on RMS density matrix=1.00D-08 within 128 cycles.
 Requested convergence on MAX density matrix=1.00D-06.
 Requested convergence on             energy=1.00D-06.
 No special actions if energy rises.
 Fock matrices will be formed incrementally for  20 cycles.
 Integral accuracy reduced to 1.0D-05 until final iterations.

 Cycle   1  Pass 0  IDiag  1:
 FoFJK:  IHMeth= 1 ICntrl=       0 DoSepK=F KAlg= 0 I1Cent=           0 FoldK=F
 IRaf= 940000000 NMat=       1 IRICut=       1 DoRegI=T DoRafI=F ISym2E= 0 IDoP0=0 IntGTp=1.
 FoFCou: FMM=F IPFlag=           0 FMFlag=      100000 FMFlg1=           0
         NFxFlg=           0 DoJE=F BraDBF=F KetDBF=F FulRan=T
         wScrn=  0.000000 ICntrl=         0 IOpCl=  0 I1Cent=           0 NGrid=           0
         NMat0=    1 NMatS0=      1 NMatT0=    0 NMatD0=    1 NMtDS0=    0 NMtDT0=    0
 Symmetry not used in FoFCou.
 E= -305.871834781991    
 DIIS: error= 4.56D-02 at cycle   1 NSaved=   1.
 NSaved= 1 IEnMin= 1 EnMin= -305.871834781991     IErMin= 1 ErrMin= 4.56D-02
 ErrMax= 4.56D-02  0.00D+00 EMaxC= 1.00D-01 BMatC= 4.44D-01 BMatP= 4.44D-01
 IDIUse=3 WtCom= 5.44D-01 WtEn= 4.56D-01
 Coeff-Com:  0.100D+01
 Coeff-En:   0.100D+01
 Coeff:      0.100D+01
 Gap=     0.275 Goal=   None    Shift=    0.000
 GapD=    0.275 DampG=1.000 DampE=0.500 DampFc=0.5000 IDamp=-1.
 Damping current iteration by 5.00D-01
 RMSDP=1.01D-02 MaxDP=1.12D-01              OVMax= 1.28D-01

 Cycle   2  Pass 0  IDiag  1:
 RMSU=  4.92D-03    CP:  9.75D-01
 E= -306.093422393609     Delta-E=       -0.221587611617 Rises=F Damp=T
 DIIS: error= 1.63D-02 at cycle   2 NSaved=   2.
 NSaved= 2 IEnMin= 2 EnMin= -306.093422393609     IErMin= 2 ErrMin= 1.63D-02
 ErrMax= 1.63D-02  0.00D+00 EMaxC= 1.00D-01 BMatC= 7.58D-02 BMatP= 4.44D-01
 IDIUse=3 WtCom= 8.37D-01 WtEn= 1.63D-01
 Coeff-Com: -0.567D+00 0.157D+01
 Coeff-En:   0.000D+00 0.100D+01
 Coeff:     -0.474D+00 0.147D+01
 Gap=     0.290 Goal=   None    Shift=    0.000
 RMSDP=3.61D-03 MaxDP=5.52D-02 DE=-2.22D-01 OVMax= 5.24D-02

 Cycle   3  Pass 0  IDiag  1:
 RMSU=  2.82D-03    CP:  9.61D-01  1.44D+00
 E= -306.283432057863     Delta-E=       -0.190009664254 Rises=F Damp=F
 DIIS: error= 2.31D-03 at cycle   3 NSaved=   3.
 NSaved= 3 IEnMin= 3 EnMin= -306.283432057863     IErMin= 3 ErrMin= 2.31D-03
 ErrMax= 2.31D-03  0.00D+00 EMaxC= 1.00D-01 BMatC= 1.17D-03 BMatP= 7.58D-02
 IDIUse=3 WtCom= 9.77D-01 WtEn= 2.31D-02
 Coeff-Com: -0.365D-01 0.589D-01 0.978D+00
 Coeff-En:   0.000D+00 0.000D+00 0.100D+01
 Coeff:     -0.357D-01 0.576D-01 0.978D+00
 Gap=     0.282 Goal=   None    Shift=    0.000
 RMSDP=7.50D-04 MaxDP=8.39D-03 DE=-1.90D-01 OVMax= 1.47D-02

 Cycle   4  Pass 0  IDiag  1:
 RMSU=  7.01D-04    CP:  9.61D-01  1.49D+00  1.04D+00
 E= -306.284766829791     Delta-E=       -0.001334771929 Rises=F Damp=F
 DIIS: error= 3.12D-03 at cycle   4 NSaved=   4.
 NSaved= 4 IEnMin= 4 EnMin= -306.284766829791     IErMin= 3 ErrMin= 2.31D-03
 ErrMax= 3.12D-03  0.00D+00 EMaxC= 1.00D-01 BMatC= 3.15D-04 BMatP= 1.17D-03
 IDIUse=3 WtCom= 9.69D-01 WtEn= 3.12D-02
 Coeff-Com:  0.115D-01-0.432D-01 0.324D+00 0.708D+00
 Coeff-En:   0.000D+00 0.000D+00 0.000D+00 0.100D+01
 Coeff:      0.111D-01-0.418D-01 0.313D+00 0.717D+00
 Gap=     0.286 Goal=   None    Shift=    0.000
 RMSDP=3.42D-04 MaxDP=4.34D-03 DE=-1.33D-03 OVMax= 1.50D-02

 Cycle   5  Pass 0  IDiag  1:
 RMSU=  2.47D-04    CP:  9.61D-01  1.48D+00  1.11D+00  8.52D-01
 E= -306.285307377104     Delta-E=       -0.000540547313 Rises=F Damp=F
 DIIS: error= 6.56D-04 at cycle   5 NSaved=   5.
 NSaved= 5 IEnMin= 5 EnMin= -306.285307377104     IErMin= 5 ErrMin= 6.56D-04
 ErrMax= 6.56D-04  0.00D+00 EMaxC= 1.00D-01 BMatC= 4.22D-05 BMatP= 3.15D-04
 IDIUse=3 WtCom= 9.93D-01 WtEn= 6.56D-03
 Coeff-Com: -0.198D-02 0.127D-01-0.211D+00-0.956D-01 0.130D+01
 Coeff-En:   0.000D+00 0.000D+00 0.000D+00 0.000D+00 0.100D+01
 Coeff:     -0.197D-02 0.126D-01-0.209D+00-0.950D-01 0.129D+01
 Gap=     0.287 Goal=   None    Shift=    0.000
 RMSDP=2.67D-04 MaxDP=3.25D-03 DE=-5.41D-04 OVMax= 9.28D-03

 Cycle   6  Pass 0  IDiag  1:
 RMSU=  9.64D-05    CP:  9.62D-01  1.49D+00  1.14D+00  1.07D+00  1.68D+00
 E= -306.285511764122     Delta-E=       -0.000204387018 Rises=F Damp=F
 DIIS: error= 5.93D-04 at cycle   6 NSaved=   6.
 NSaved= 6 IEnMin= 6 EnMin= -306.285511764122     IErMin= 6 ErrMin= 5.93D-04
 ErrMax= 5.93D-04  0.00D+00 EMaxC= 1.00D-01 BMatC= 1.03D-05 BMatP= 4.22D-05
 IDIUse=3 WtCom= 9.94D-01 WtEn= 5.93D-03
 Coeff-Com: -0.334D-02 0.107D-01-0.784D-01-0.681D-01-0.408D-01 0.118D+01
 Coeff-En:   0.000D+00 0.000D+00 0.000D+00 0.000D+00 0.000D+00 0.100D+01
 Coeff:     -0.332D-02 0.106D-01-0.779D-01-0.677D-01-0.405D-01 0.118D+01
 Gap=     0.288 Goal=   None    Shift=    0.000
 RMSDP=1.58D-04 MaxDP=1.95D-03 DE=-2.04D-04 OVMax= 7.11D-03

 Cycle   7  Pass 0  IDiag  1:
 RMSU=  4.81D-05    CP:  9.62D-01  1.49D+00  1.15D+00  1.17D+00  2.16D+00
                    CP:  1.56D+00
 E= -306.285579512243     Delta-E=       -0.000067748121 Rises=F Damp=F
 DIIS: error= 2.97D-04 at cycle   7 NSaved=   7.
 NSaved= 7 IEnMin= 7 EnMin= -306.285579512243     IErMin= 7 ErrMin= 2.97D-04
 ErrMax= 2.97D-04  0.00D+00 EMaxC= 1.00D-01 BMatC= 3.80D-06 BMatP= 1.03D-05
 IDIUse=3 WtCom= 9.97D-01 WtEn= 2.97D-03
 Coeff-Com: -0.197D-03-0.327D-02 0.797D-01 0.912D-01-0.606D+00-0.221D-02
 Coeff-Com:  0.144D+01
 Coeff-En:   0.000D+00 0.000D+00 0.000D+00 0.000D+00 0.000D+00 0.000D+00
 Coeff-En:   0.100D+01
 Coeff:     -0.196D-03-0.326D-02 0.795D-01 0.909D-01-0.604D+00-0.220D-02
 Coeff:      0.144D+01
 Gap=     0.289 Goal=   None    Shift=    0.000
 RMSDP=1.43D-04 MaxDP=1.90D-03 DE=-6.77D-05 OVMax= 6.32D-03

 Cycle   8  Pass 0  IDiag  1:
 RMSU=  2.31D-05    CP:  9.62D-01  1.49D+00  1.16D+00  1.25D+00  2.54D+00
                    CP:  2.34D+00  1.86D+00
 E= -306.285606814870     Delta-E=       -0.000027302627 Rises=F Damp=F
 DIIS: error= 1.14D-04 at cycle   8 NSaved=   8.
 NSaved= 8 IEnMin= 8 EnMin= -306.285606814870     IErMin= 8 ErrMin= 1.14D-04
 ErrMax= 1.14D-04  0.00D+00 EMaxC= 1.00D-01 BMatC= 3.95D-07 BMatP= 3.80D-06
 IDIUse=3 WtCom= 9.99D-01 WtEn= 1.14D-03
 Coeff-Com:  0.320D-03-0.684D-03-0.546D-03 0.175D-01 0.485D-01-0.136D+00
 Coeff-Com: -0.154D+00 0.123D+01
 Coeff-En:   0.000D+00 0.000D+00 0.000D+00 0.000D+00 0.000D+00 0.000D+00
 Coeff-En:   0.000D+00 0.100D+01
 Coeff:      0.320D-03-0.683D-03-0.546D-03 0.174D-01 0.485D-01-0.136D+00
 Coeff:     -0.154D+00 0.123D+01
 Gap=     0.289 Goal=   None    Shift=    0.000
 RMSDP=3.86D-05 MaxDP=5.43D-04 DE=-2.73D-05 OVMax= 1.90D-03

 Cycle   9  Pass 0  IDiag  1:
 RMSU=  1.01D-05    CP:  9.62D-01  1.49D+00  1.16D+00  1.26D+00  2.61D+00
                    CP:  2.54D+00  2.30D+00  1.59D+00
 E= -306.285609393634     Delta-E=       -0.000002578764 Rises=F Damp=F
 DIIS: error= 4.38D-05 at cycle   9 NSaved=   9.
 NSaved= 9 IEnMin= 9 EnMin= -306.285609393634     IErMin= 9 ErrMin= 4.38D-05
 ErrMax= 4.38D-05  0.00D+00 EMaxC= 1.00D-01 BMatC= 1.15D-07 BMatP= 3.95D-07
 IDIUse=1 WtCom= 1.00D+00 WtEn= 0.00D+00
 Coeff-Com:  0.196D-04 0.861D-03-0.204D-01-0.125D-01 0.134D+00-0.261D-02
 Coeff-Com: -0.348D+00 0.113D+00 0.114D+01
 Coeff:      0.196D-04 0.861D-03-0.204D-01-0.125D-01 0.134D+00-0.261D-02
 Coeff:     -0.348D+00 0.113D+00 0.114D+01
 Gap=     0.289 Goal=   None    Shift=    0.000
 RMSDP=2.04D-05 MaxDP=2.81D-04 DE=-2.58D-06 OVMax= 9.44D-04

 Cycle  10  Pass 0  IDiag  1:
 RMSU=  5.16D-06    CP:  9.62D-01  1.49D+00  1.16D+00  1.27D+00  2.64D+00
                    CP:  2.64D+00  2.50D+00  2.03D+00  1.67D+00
 E= -306.285610080723     Delta-E=       -0.000000687089 Rises=F Damp=F
 DIIS: error= 2.11D-05 at cycle  10 NSaved=  10.
 NSaved=10 IEnMin=10 EnMin= -306.285610080723     IErMin=10 ErrMin= 2.11D-05
 ErrMax= 2.11D-05  0.00D+00 EMaxC= 1.00D-01 BMatC= 2.25D-08 BMatP= 1.15D-07
 IDIUse=1 WtCom= 1.00D+00 WtEn= 0.00D+00
 Coeff-Com: -0.102D-03 0.102D-03 0.206D-02 0.692D-03-0.367D-01 0.420D-01
 Coeff-Com:  0.791D-01-0.293D+00-0.288D+00 0.149D+01
 Coeff:     -0.102D-03 0.102D-03 0.206D-02 0.692D-03-0.367D-01 0.420D-01
 Coeff:      0.791D-01-0.293D+00-0.288D+00 0.149D+01
 Gap=     0.289 Goal=   None    Shift=    0.000
 RMSDP=1.32D-05 MaxDP=1.70D-04 DE=-6.87D-07 OVMax= 6.18D-04

 Cycle  11  Pass 0  IDiag  1:
 RMSU=  1.87D-06    CP:  9.62D-01  1.49D+00  1.16D+00  1.27D+00  2.65D+00
                    CP:  2.70D+00  2.61D+00  2.31D+00  2.32D+00  1.64D+00
 E= -306.285610291551     Delta-E=       -0.000000210828 Rises=F Damp=F
 DIIS: error= 6.59D-06 at cycle  11 NSaved=  11.
 NSaved=11 IEnMin=11 EnMin= -306.285610291551     IErMin=11 ErrMin= 6.59D-06
 ErrMax= 6.59D-06  0.00D+00 EMaxC= 1.00D-01 BMatC= 3.52D-09 BMatP= 2.25D-08
 IDIUse=1 WtCom= 1.00D+00 WtEn= 0.00D+00
 Coeff-Com:  0.142D-04-0.166D-03 0.315D-02 0.241D-02-0.188D-01-0.171D-02
 Coeff-Com:  0.362D-01 0.585D-01-0.219D+00-0.112D+00 0.125D+01
 Coeff:      0.142D-04-0.166D-03 0.315D-02 0.241D-02-0.188D-01-0.171D-02
 Coeff:      0.362D-01 0.585D-01-0.219D+00-0.112D+00 0.125D+01
 Gap=     0.289 Goal=   None    Shift=    0.000
 RMSDP=4.21D-06 MaxDP=4.64D-05 DE=-2.11D-07 OVMax= 1.82D-04

 Initial convergence to 1.0D-05 achieved.  Increase integral accuracy.
 Cycle  12  Pass 1  IDiag  1:
 E= -306.285610248922     Delta-E=        0.000000042629 Rises=F Damp=F
 DIIS: error= 5.14D-06 at cycle   1 NSaved=   1.
 NSaved= 1 IEnMin= 1 EnMin= -306.285610248922     IErMin= 1 ErrMin= 5.14D-06
 ErrMax= 5.14D-06  0.00D+00 EMaxC= 1.00D-01 BMatC= 1.23D-09 BMatP= 1.23D-09
 IDIUse=1 WtCom= 1.00D+00 WtEn= 0.00D+00
 Coeff-Com:  0.100D+01
 Coeff:      0.100D+01
 Gap=     0.289 Goal=   None    Shift=    0.000
 RMSDP=4.21D-06 MaxDP=4.64D-05 DE= 4.26D-08 OVMax= 2.54D-05

 Cycle  13  Pass 1  IDiag  1:
 RMSU=  1.05D-06    CP:  1.00D+00
 E= -306.285610251378     Delta-E=       -0.000000002457 Rises=F Damp=F
 DIIS: error= 1.99D-06 at cycle   2 NSaved=   2.
 NSaved= 2 IEnMin= 2 EnMin= -306.285610251378     IErMin= 2 ErrMin= 1.99D-06
 ErrMax= 1.99D-06  0.00D+00 EMaxC= 1.00D-01 BMatC= 2.71D-10 BMatP= 1.23D-09
 IDIUse=1 WtCom= 1.00D+00 WtEn= 0.00D+00
 Coeff-Com:  0.117D+00 0.883D+00
 Coeff:      0.117D+00 0.883D+00
 Gap=     0.289 Goal=   None    Shift=    0.000
 RMSDP=4.43D-07 MaxDP=4.52D-06 DE=-2.46D-09 OVMax= 1.41D-05

 Cycle  14  Pass 1  IDiag  1:
 RMSU=  4.01D-07    CP:  1.00D+00  1.18D+00
 E= -306.285610252171     Delta-E=       -0.000000000793 Rises=F Damp=F
 DIIS: error= 2.14D-06 at cycle   3 NSaved=   3.
 NSaved= 3 IEnMin= 3 EnMin= -306.285610252171     IErMin= 2 ErrMin= 1.99D-06
 ErrMax= 2.14D-06  0.00D+00 EMaxC= 1.00D-01 BMatC= 8.21D-11 BMatP= 2.71D-10
 IDIUse=1 WtCom= 1.00D+00 WtEn= 0.00D+00
 Coeff-Com: -0.142D+00 0.340D-01 0.111D+01
 Coeff:     -0.142D+00 0.340D-01 0.111D+01
 Gap=     0.289 Goal=   None    Shift=    0.000
 RMSDP=3.68D-07 MaxDP=6.09D-06 DE=-7.93D-10 OVMax= 1.43D-05

 Cycle  15  Pass 1  IDiag  1:
 RMSU=  2.05D-07    CP:  1.00D+00  1.41D+00  1.47D+00
 E= -306.285610252667     Delta-E=       -0.000000000496 Rises=F Damp=F
 DIIS: error= 8.19D-07 at cycle   4 NSaved=   4.
 NSaved= 4 IEnMin= 4 EnMin= -306.285610252667     IErMin= 4 ErrMin= 8.19D-07
 ErrMax= 8.19D-07  0.00D+00 EMaxC= 1.00D-01 BMatC= 2.92D-11 BMatP= 8.21D-11
 IDIUse=1 WtCom= 1.00D+00 WtEn= 0.00D+00
 Coeff-Com:  0.221D-01-0.428D+00-0.343D+00 0.175D+01
 Coeff:      0.221D-01-0.428D+00-0.343D+00 0.175D+01
 Gap=     0.289 Goal=   None    Shift=    0.000
 RMSDP=4.56D-07 MaxDP=6.11D-06 DE=-4.96D-10 OVMax= 1.89D-05

 Cycle  16  Pass 1  IDiag  1:
 RMSU=  6.35D-08    CP:  1.00D+00  1.63D+00  2.28D+00  2.01D+00
 E= -306.285610252920     Delta-E=       -0.000000000253 Rises=F Damp=F
 DIIS: error= 2.85D-07 at cycle   5 NSaved=   5.
 NSaved= 5 IEnMin= 5 EnMin= -306.285610252920     IErMin= 5 ErrMin= 2.85D-07
 ErrMax= 2.85D-07  0.00D+00 EMaxC= 1.00D-01 BMatC= 2.52D-12 BMatP= 2.92D-11
 IDIUse=1 WtCom= 1.00D+00 WtEn= 0.00D+00
 Coeff-Com:  0.143D-01-0.828D-01-0.100D+00 0.303D+00 0.865D+00
 Coeff:      0.143D-01-0.828D-01-0.100D+00 0.303D+00 0.865D+00
 Gap=     0.289 Goal=   None    Shift=    0.000
 RMSDP=5.88D-08 MaxDP=7.51D-07 DE=-2.53D-10 OVMax= 2.76D-06

 Cycle  17  Pass 1  IDiag  1:
 RMSU=  2.89D-08    CP:  1.00D+00  1.65D+00  2.34D+00  2.16D+00  1.41D+00
 E= -306.285610252929     Delta-E=       -0.000000000009 Rises=F Damp=F
 DIIS: error= 2.28D-07 at cycle   6 NSaved=   6.
 NSaved= 6 IEnMin= 6 EnMin= -306.285610252929     IErMin= 6 ErrMin= 2.28D-07
 ErrMax= 2.28D-07  0.00D+00 EMaxC= 1.00D-01 BMatC= 8.43D-13 BMatP= 2.52D-12
 IDIUse=1 WtCom= 1.00D+00 WtEn= 0.00D+00
 Coeff-Com: -0.101D-01 0.147D+00 0.145D+00-0.667D+00-0.275D+00 0.166D+01
 Coeff:     -0.101D-01 0.147D+00 0.145D+00-0.667D+00-0.275D+00 0.166D+01
 Gap=     0.289 Goal=   None    Shift=    0.000
 RMSDP=8.71D-08 MaxDP=1.25D-06 DE=-8.53D-12 OVMax= 4.31D-06

 Cycle  18  Pass 1  IDiag  1:
 RMSU=  1.39D-08    CP:  1.00D+00  1.68D+00  2.43D+00  2.38D+00  2.21D+00
                    CP:  1.95D+00
 E= -306.285610252939     Delta-E=       -0.000000000010 Rises=F Damp=F
 DIIS: error= 7.34D-08 at cycle   7 NSaved=   7.
 NSaved= 7 IEnMin= 7 EnMin= -306.285610252939     IErMin= 7 ErrMin= 7.34D-08
 ErrMax= 7.34D-08  0.00D+00 EMaxC= 1.00D-01 BMatC= 1.72D-13 BMatP= 8.43D-13
 IDIUse=1 WtCom= 1.00D+00 WtEn= 0.00D+00
 Coeff-Com: -0.248D-02 0.138D-01 0.239D-01-0.593D-01-0.233D+00 0.777D-01
 Coeff-Com:  0.118D+01
 Coeff:     -0.248D-02 0.138D-01 0.239D-01-0.593D-01-0.233D+00 0.777D-01
 Coeff:      0.118D+01
 Gap=     0.289 Goal=   None    Shift=    0.000
 RMSDP=3.23D-08 MaxDP=4.37D-07 DE=-1.00D-11 OVMax= 1.49D-06

 Cycle  19  Pass 1  IDiag  1:
 RMSU=  6.17D-09    CP:  1.00D+00  1.69D+00  2.46D+00  2.44D+00  2.49D+00
                    CP:  2.47D+00  1.65D+00
 E= -306.285610252940     Delta-E=       -0.000000000002 Rises=F Damp=F
 DIIS: error= 3.53D-08 at cycle   8 NSaved=   8.
 NSaved= 8 IEnMin= 8 EnMin= -306.285610252940     IErMin= 8 ErrMin= 3.53D-08
 ErrMax= 3.53D-08  0.00D+00 EMaxC= 1.00D-01 BMatC= 3.09D-14 BMatP= 1.72D-13
 IDIUse=1 WtCom= 1.00D+00 WtEn= 0.00D+00
 Coeff-Com:  0.277D-02-0.430D-01-0.376D-01 0.190D+00 0.436D-01-0.384D+00
 Coeff-Com:  0.626D-01 0.116D+01
 Coeff:      0.277D-02-0.430D-01-0.376D-01 0.190D+00 0.436D-01-0.384D+00
 Coeff:      0.626D-01 0.116D+01
 Gap=     0.289 Goal=   None    Shift=    0.000
 RMSDP=9.92D-09 MaxDP=1.23D-07 DE=-1.59D-12 OVMax= 4.46D-07

 SCF Done:  E(RHF) =  -306.285610253     A.U. after   19 cycles
            NFock= 19  Conv=0.99D-08     -V/T= 2.0013
 KE= 3.058859584626D+02 PE=-1.393832885617D+03 EE= 4.466239548261D+02
 Leave Link  502 at Tue Jun 10 01:50:12 2025, MaxMem=  2013265920 cpu:              25.9 elap:               1.3
 (Enter /home/user/softwares/g16/g16/l601.exe)
 Copying SCF densities to generalized density rwf, IOpCl= 0 IROHF=0.

 **********************************************************************

            Population analysis using the SCF Density.

 **********************************************************************

 Orbital symmetries:
       Occupied  (A) (A) (A) (A) (A) (A) (A) (A) (A) (A) (A) (A)
                 (A) (A) (A) (A) (A) (A) (A) (A) (A) (A) (A) (A)
                 (A) (A) (A) (A) (A)
       Virtual   (A) (A) (A) (A) (A) (A) (A) (A) (A) (A) (A) (A)
                 (A) (A) (A) (A) (A) (A) (A) (A) (A) (A) (A) (A)
                 (A) (A) (A) (A) (A) (A) (A) (A) (A) (A) (A) (A)
                 (A) (A) (A) (A) (A) (A) (A) (A) (A) (A) (A) (A)
                 (A) (A) (A) (A) (A) (A) (A) (A) (A) (A) (A) (A)
                 (A)
 The electronic state is 1-A.
 Alpha  occ. eigenvalues --  -11.00120 -10.99458 -10.99068 -10.98113 -10.97051
 Alpha  occ. eigenvalues --  -10.96910 -10.94139 -10.91445  -0.93504  -0.86240
 Alpha  occ. eigenvalues --   -0.82732  -0.75083  -0.67754  -0.61790  -0.54278
 Alpha  occ. eigenvalues --   -0.49585  -0.48415  -0.44602  -0.40886  -0.38913
 Alpha  occ. eigenvalues --   -0.36446  -0.33436  -0.32829  -0.30027  -0.28061
 Alpha  occ. eigenvalues --   -0.26351  -0.17477  -0.09957  -0.00279
 Alpha virt. eigenvalues --    0.28587   0.38655   0.43518   0.46875   0.47387
 Alpha virt. eigenvalues --    0.50224   0.50981   0.51964   0.53123   0.54237
 Alpha virt. eigenvalues --    0.55293   0.57448   0.63829   0.67304   0.69222
 Alpha virt. eigenvalues --    0.71208   0.77096   0.78607   0.87638   0.90512
 Alpha virt. eigenvalues --    1.05656   1.11681   1.14965   1.15693   1.17750
 Alpha virt. eigenvalues --    1.18578   1.23046   1.24202   1.25781   1.26888
 Alpha virt. eigenvalues --    1.28196   1.29136   1.30222   1.31776   1.33020
 Alpha virt. eigenvalues --    1.36434   1.41747   1.45134   1.48262   1.50301
 Alpha virt. eigenvalues --    1.50667   1.52561   1.54902   1.58267   1.61183
 Alpha virt. eigenvalues --    1.64298   1.65097   1.66184   1.76524   1.80981
 Alpha virt. eigenvalues --    1.84320   1.88073   1.90825   1.95174   2.02116
 Alpha virt. eigenvalues --    2.10124   2.16347   2.25010   2.45321   2.57850
 Alpha virt. eigenvalues --    2.84891
     Molecular Orbital Coefficients:
                           1         2         3         4         5
                           O         O         O         O         O
     Eigenvalues --   -11.00120 -10.99458 -10.99068 -10.98113 -10.97051
   1 1   C  1S         -0.01124  -0.01695  -0.00347   0.98696   0.00935
   2        2S         -0.00524  -0.00524  -0.00109   0.09899   0.00033
   3        2PX        -0.00184   0.00035  -0.00010   0.00032   0.00001
   4        2PY         0.00042   0.00142   0.00001  -0.00062   0.00079
   5        2PZ        -0.00006  -0.00027   0.00012   0.00005  -0.00029
   6        3S          0.03230   0.03003   0.01183  -0.08742   0.00043
   7        3PX         0.01692  -0.00564   0.00589  -0.00945  -0.00940
   8        3PY        -0.00850  -0.01849  -0.00583   0.01525  -0.00255
   9        3PZ         0.00028   0.00126   0.00015  -0.00136  -0.00052
  10 2   C  1S          0.98712   0.00636   0.00472   0.01058   0.00090
  11        2S          0.09852   0.00099   0.00098  -0.00296  -0.00040
  12        2PX        -0.00018   0.00066  -0.00054   0.00147   0.00020
  13        2PY        -0.00039   0.00016   0.00068   0.00090   0.00013
  14        2PZ         0.00004   0.00008   0.00004   0.00000  -0.00011
  15        3S         -0.08368  -0.00685  -0.01136   0.02903   0.00769
  16        3PX         0.00569  -0.00142   0.00522  -0.01587  -0.00442
  17        3PY         0.01456   0.00709   0.00655  -0.01224  -0.00174
  18        3PZ         0.00036  -0.00031   0.00044   0.00022   0.00012
  19 3   C  1S         -0.00897  -0.00145  -0.00832  -0.00374   0.00680
  20        2S         -0.00446  -0.00089  -0.00527   0.00014   0.00105
  21        2PX         0.00135   0.00004   0.00081   0.00067  -0.00001
  22        2PY        -0.00031  -0.00003   0.00195  -0.00066   0.00029
  23        2PZ        -0.00001  -0.00005   0.00032   0.00002  -0.00014
  24        3S          0.02747   0.01101   0.03377  -0.00807  -0.00408
  25        3PX        -0.01855  -0.00593  -0.01202   0.00565   0.00392
  26        3PY         0.00307  -0.00173  -0.01843   0.00447   0.00218
  27        3PZ        -0.00001   0.00003  -0.00227   0.00002   0.00098
  28 4   C  1S         -0.00619   0.98725  -0.01503   0.01629  -0.00022
  29        2S         -0.00016   0.10122  -0.00060  -0.00141  -0.00096
  30        2PX        -0.00067   0.00051   0.00079  -0.00146  -0.00027
  31        2PY        -0.00050  -0.00012   0.00004  -0.00116   0.00055
  32        2PZ        -0.00008  -0.00060   0.00004  -0.00006  -0.00042
  33        3S         -0.00912  -0.09231  -0.00407   0.02088   0.01454
  34        3PX        -0.00394  -0.00215  -0.01270   0.01956   0.01367
  35        3PY        -0.00275  -0.00652  -0.00040   0.01419  -0.02161
  36        3PZ         0.00099   0.00313  -0.00123   0.00107   0.00855
  37 5   C  1S         -0.00462   0.01528   0.98711   0.00329   0.01286
  38        2S         -0.00018   0.00255   0.09934  -0.00005  -0.00119
  39        2PX        -0.00002  -0.00028  -0.00085   0.00030   0.00136
  40        2PY        -0.00106   0.00042   0.00035   0.00026  -0.00004
  41        2PZ        -0.00004   0.00003   0.00026   0.00002   0.00008
  42        3S         -0.00807  -0.00784  -0.08334   0.00499   0.00727
  43        3PX         0.00573   0.00604   0.01137  -0.00167  -0.00662
  44        3PY        -0.00238  -0.00607  -0.01291   0.00327   0.00238
  45        3PZ         0.00012  -0.00018   0.00054   0.00025  -0.00188
  46 6   C  1S         -0.00079  -0.00000  -0.01346  -0.00941   0.98796
  47        2S         -0.00025  -0.00031  -0.00420  -0.00136   0.10603
  48        2PX        -0.00036  -0.00050  -0.00179   0.00022   0.00032
  49        2PY        -0.00002   0.00025  -0.00022  -0.00100   0.00029
  50        2PZ         0.00023  -0.00008   0.00068   0.00021  -0.00037
  51        3S         -0.00012   0.00663   0.00927  -0.00148  -0.10344
  52        3PX         0.00036  -0.00571   0.00760  -0.00307  -0.00162
  53        3PY         0.00090   0.00822   0.00458  -0.00130  -0.00857
  54        3PZ        -0.00110   0.00173  -0.00486  -0.00054   0.00944
  55 7   C  1S         -0.00078  -0.00543  -0.00142  -0.00051  -0.00002
  56        2S         -0.00067  -0.00471  -0.00158  -0.00007  -0.00068
  57        2PX         0.00034   0.00127   0.00052  -0.00022  -0.00064
  58        2PY        -0.00025  -0.00080  -0.00018  -0.00036   0.00030
  59        2PZ        -0.00013  -0.00011  -0.00006   0.00003   0.00007
  60        3S          0.00374   0.01456   0.01341  -0.00060   0.01751
  61        3PX         0.00159  -0.00495   0.01097   0.00064  -0.01188
  62        3PY         0.00209   0.00557   0.00626  -0.00016   0.00096
  63        3PZ         0.00132   0.00323  -0.00098   0.00066   0.00991
  64 8   H  1S         -0.00009  -0.00048   0.00034  -0.00204  -0.00054
  65        2S          0.00385   0.00232   0.00214   0.00819  -0.00032
  66 9   H  1S         -0.00198  -0.00051  -0.00047  -0.00004  -0.00016
  67        2S          0.00909  -0.00064  -0.00088   0.00441   0.00094
  68 10  H  1S          0.00004   0.00014  -0.00008  -0.00048  -0.00046
  69        2S          0.00430   0.00141   0.00462  -0.00117  -0.00094
  70 11  H  1S         -0.00035  -0.00067  -0.00209   0.00008   0.00027
  71        2S         -0.00079  -0.00252   0.00877   0.00085   0.00253
  72 12  H  1S          0.00004  -0.00068  -0.00091   0.00012  -0.00081
  73        2S          0.00071   0.00001   0.00109   0.00044   0.00148
  74 13  C  1S         -0.00088  -0.00144  -0.00021  -0.00319  -0.00534
  75        2S         -0.00064  -0.00388   0.00009  -0.00156  -0.00190
  76        2PX        -0.00008  -0.00158  -0.00029  -0.00037  -0.00044
  77        2PY        -0.00028   0.00004   0.00003  -0.00023   0.00064
  78        2PZ        -0.00005  -0.00040  -0.00011   0.00012  -0.00015
  79        3S          0.00121   0.02539  -0.00704   0.00985   0.00854
  80        3PX         0.00143   0.01269  -0.00287   0.00501   0.00479
  81        3PY         0.00297   0.00165  -0.00032  -0.00185   0.00327
  82        3PZ        -0.00035   0.00268  -0.00144   0.00190   0.00043
  83 14  H  1S          0.00030  -0.00096   0.00017  -0.00048   0.00006
  84        2S          0.00128   0.00051  -0.00028   0.00021   0.00085
  85 15  H  1S         -0.00048  -0.00112   0.00015  -0.00006  -0.00056
  86        2S         -0.00074  -0.00062   0.00001   0.00061  -0.00028
  87 16  H  1S         -0.00024  -0.00117  -0.00208   0.00002   0.00117
  88        2S          0.00098   0.00108   0.00248   0.00131   0.01493
  89 17  H  1S          0.00005  -0.00027   0.00032  -0.00027   0.00079
  90        2S          0.00055   0.00008   0.00371  -0.00032   0.01387
                           6         7         8         9        10
                           O         O         O         O         O
     Eigenvalues --   -10.96910 -10.94139 -10.91445  -0.93504  -0.86240
   1 1   C  1S          0.00388   0.00299   0.00054  -0.10502   0.01311
   2        2S          0.00086  -0.00062   0.00021   0.11635  -0.01574
   3        2PX        -0.00089   0.00084   0.00017   0.00783   0.06910
   4        2PY        -0.00006   0.00040   0.00046  -0.04366   0.03782
   5        2PZ         0.00004   0.00013   0.00018   0.00275  -0.00254
   6        3S         -0.00956  -0.00016  -0.00291   0.20048  -0.02373
   7        3PX        -0.00134  -0.00429  -0.00558   0.01877   0.00152
   8        3PY         0.00754  -0.00253   0.00350   0.00486   0.00004
   9        3PZ        -0.00022   0.00025  -0.00064   0.00164  -0.00004
  10 2   C  1S          0.00832   0.00076   0.00066  -0.08317  -0.08388
  11        2S         -0.00271  -0.00052  -0.00064   0.09266   0.09068
  12        2PX        -0.00044   0.00022  -0.00015  -0.02590   0.04272
  13        2PY         0.00133   0.00014   0.00051  -0.02747  -0.03192
  14        2PZ         0.00007  -0.00008   0.00020   0.00034  -0.00196
  15        3S          0.02602   0.00336   0.00737   0.15564   0.19064
  16        3PX         0.00534  -0.00387  -0.00006   0.00738   0.00129
  17        3PY        -0.01812  -0.00090  -0.00403   0.00300   0.00040
  18        3PZ        -0.00077   0.00022  -0.00019   0.00094   0.00028
  19 3   C  1S          0.98706   0.00028   0.00270  -0.06843  -0.13500
  20        2S          0.09869   0.00002  -0.00068   0.07531   0.14492
  21        2PX        -0.00052   0.00009   0.00079  -0.03003  -0.02445
  22        2PY        -0.00028  -0.00007   0.00096  -0.01068  -0.03214
  23        2PZ         0.00029  -0.00001   0.00040   0.00003  -0.00265
  24        3S         -0.08408  -0.00054  -0.00157   0.12712   0.29453
  25        3PX         0.01467   0.00027   0.00248   0.00013   0.00245
  26        3PY         0.00649   0.00190  -0.00474   0.00279   0.00144
  27        3PZ         0.00056   0.00011  -0.00103   0.00198   0.00368
  28 4   C  1S          0.00111   0.00107   0.00431  -0.12453   0.10164
  29        2S         -0.00031  -0.00328  -0.00369   0.13639  -0.10904
  30        2PX        -0.00018   0.00224  -0.00153   0.00967   0.04447
  31        2PY         0.00012   0.00025   0.00141   0.01368   0.00276
  32        2PZ         0.00007   0.00066   0.00029  -0.00353   0.00931
  33        3S          0.00497   0.02164   0.01258   0.25322  -0.22809
  34        3PX         0.00420  -0.01536   0.01172  -0.01886   0.01826
  35        3PY         0.00385  -0.00224  -0.01065   0.03195  -0.01032
  36        3PZ        -0.00046  -0.00444   0.00110  -0.01206   0.00504
  37 5   C  1S          0.00754   0.00032   0.00110  -0.05862  -0.10517
  38        2S         -0.00333  -0.00013  -0.00171   0.06478   0.11328
  39        2PX         0.00059   0.00014   0.00061  -0.01745   0.00893
  40        2PY        -0.00176  -0.00003   0.00003   0.02809   0.07009
  41        2PZ         0.00003   0.00001   0.00012   0.00280   0.00751
  42        3S          0.02825   0.00113   0.01693   0.11635   0.23221
  43        3PX        -0.00652  -0.00022  -0.01603   0.00066   0.00522
  44        3PY         0.01751   0.00138  -0.00514   0.01140   0.00851
  45        3PZ         0.00046  -0.00003  -0.00179   0.00491   0.00206
  46 6   C  1S         -0.00683   0.00507   0.00006  -0.09094   0.04871
  47        2S         -0.00049  -0.00051   0.00014   0.08427  -0.04278
  48        2PX         0.00008   0.00069   0.00033   0.00020   0.03355
  49        2PY        -0.00028  -0.00038   0.00001   0.03187  -0.02206
  50        2PZ         0.00008   0.00036  -0.00016  -0.02296   0.00582
  51        3S          0.00028   0.00111   0.00700   0.25092  -0.14630
  52        3PX        -0.00116  -0.00024   0.01112   0.00165  -0.00463
  53        3PY        -0.00003   0.00135  -0.00889   0.01778  -0.00704
  54        3PZ        -0.00111  -0.00084  -0.00220  -0.01822   0.01648
  55 7   C  1S         -0.00277  -0.00031   0.98731  -0.05533  -0.01857
  56        2S         -0.00093  -0.00002   0.09968   0.06110   0.01486
  57        2PX        -0.00093  -0.00003  -0.00048  -0.01010   0.04281
  58        2PY        -0.00066  -0.00005   0.00123   0.02388   0.01176
  59        2PZ        -0.00001  -0.00012   0.00112   0.02409  -0.00265
  60        3S         -0.00275  -0.00035  -0.07408   0.08182   0.05936
  61        3PX         0.00028   0.00065  -0.00330   0.01504  -0.01060
  62        3PY        -0.00223   0.00002  -0.00888   0.00111   0.00874
  63        3PZ        -0.00106   0.00054  -0.01072  -0.00144   0.01587
  64 8   H  1S         -0.00045  -0.00023  -0.00067   0.04646  -0.01125
  65        2S         -0.00104  -0.00029  -0.00164   0.00045  -0.00549
  66 9   H  1S         -0.00003  -0.00003  -0.00009   0.03607   0.04430
  67        2S          0.00430   0.00086   0.00141  -0.00630   0.00531
  68 10  H  1S         -0.00203  -0.00013  -0.00026   0.02792   0.06722
  69        2S          0.00884  -0.00016   0.00147  -0.00465   0.00612
  70 11  H  1S         -0.00023   0.00003  -0.00057   0.02344   0.05073
  71        2S          0.00421   0.00043   0.00369  -0.00239   0.00246
  72 12  H  1S         -0.00008   0.00005  -0.00225   0.02113   0.00606
  73        2S         -0.00055   0.00047   0.00930   0.00093   0.00244
  74 13  C  1S         -0.00027   0.98678   0.00032  -0.06362   0.08264
  75        2S         -0.00011   0.09677   0.00001   0.07208  -0.08858
  76        2PX         0.00001   0.00018  -0.00000   0.05354  -0.05486
  77        2PY         0.00005   0.00008  -0.00006   0.00338  -0.00129
  78        2PZ        -0.00001   0.00003  -0.00019   0.01519  -0.01699
  79        3S          0.00163  -0.07017   0.00363   0.09712  -0.16512
  80        3PX         0.00057  -0.00866   0.00133  -0.00942  -0.00301
  81        3PY        -0.00130  -0.00026   0.00391  -0.00783  -0.00054
  82        3PZ         0.00069  -0.00257   0.00157  -0.00052  -0.00227
  83 14  H  1S         -0.00017  -0.00156   0.00027   0.02564  -0.03865
  84        2S         -0.00050   0.01242   0.00173  -0.00381  -0.00535
  85 15  H  1S          0.00013  -0.00153  -0.00041   0.02785  -0.03815
  86        2S          0.00051   0.01235  -0.00101   0.00323  -0.00429
  87 16  H  1S         -0.00022  -0.00007  -0.00059   0.04272  -0.01579
  88        2S          0.00138   0.00063  -0.00115  -0.00733   0.00095
  89 17  H  1S         -0.00011  -0.00020  -0.00058   0.03707  -0.02859
  90        2S         -0.00013   0.00017   0.00044  -0.00326  -0.00888
                          11        12        13        14        15
                           O         O         O         O         O
     Eigenvalues --    -0.82732  -0.75083  -0.67754  -0.61790  -0.54278
   1 1   C  1S          0.11406   0.05293  -0.10032   0.02228   0.02887
   2        2S         -0.12042  -0.05485   0.10450  -0.02555  -0.02691
   3        2PX        -0.03863  -0.07489  -0.06481   0.08958  -0.06542
   4        2PY        -0.01378  -0.02346  -0.01416   0.10325  -0.15134
   5        2PZ         0.00152  -0.00587  -0.00303  -0.01806  -0.00148
   6        3S         -0.27366  -0.14094   0.27889  -0.06330  -0.10199
   7        3PX         0.00399  -0.02891  -0.02584   0.04341  -0.02179
   8        3PY         0.00068  -0.00375  -0.00890   0.03795  -0.07268
   9        3PZ        -0.00078  -0.00393  -0.00147  -0.01001  -0.00606
  10 2   C  1S          0.10403   0.05750   0.07435  -0.07022   0.00352
  11        2S         -0.11146  -0.06110  -0.07799   0.07250  -0.00227
  12        2PX         0.05568   0.06965  -0.13148  -0.01950   0.12921
  13        2PY        -0.01174  -0.02738   0.00170   0.07471  -0.09598
  14        2PZ        -0.00079  -0.00434  -0.00045  -0.00187  -0.00735
  15        3S         -0.24568  -0.14706  -0.21003   0.21422  -0.01243
  16        3PX         0.00993   0.01921  -0.05749  -0.00644   0.07218
  17        3PY        -0.01181  -0.00923  -0.00219   0.03387  -0.05692
  18        3PZ        -0.00111  -0.00315  -0.00182  -0.00082  -0.00451
  19 3   C  1S         -0.00525  -0.07129   0.06838   0.06298  -0.03680
  20        2S          0.00712   0.07466  -0.06821  -0.06328   0.03852
  21        2PX         0.02382   0.03479   0.01469  -0.05865  -0.05085
  22        2PY        -0.07474  -0.06622  -0.12769   0.05371   0.11485
  23        2PZ        -0.00374  -0.00521  -0.01100  -0.00368  -0.00127
  24        3S          0.00664   0.17601  -0.20182  -0.19350   0.11740
  25        3PX         0.00439   0.01290   0.01016  -0.01936  -0.02071
  26        3PY        -0.00735  -0.01625  -0.03553   0.02555   0.05435
  27        3PZ         0.00112  -0.00004  -0.00279  -0.00226  -0.00062
  28 4   C  1S          0.01129  -0.04566  -0.01044   0.07120  -0.06182
  29        2S         -0.00963   0.04591   0.01293  -0.07290   0.06549
  30        2PX         0.00275  -0.14309   0.05959  -0.10192   0.03514
  31        2PY        -0.09480   0.02462   0.12791  -0.03459   0.05871
  32        2PZ         0.01920  -0.04667  -0.01846  -0.04525  -0.03630
  33        3S         -0.04311   0.13492   0.03140  -0.21486   0.21487
  34        3PX         0.00064  -0.01838   0.02193  -0.06116   0.02075
  35        3PY         0.00952  -0.01002   0.04707  -0.00115   0.03561
  36        3PZ        -0.00092  -0.00578  -0.00676  -0.02585  -0.01933
  37 5   C  1S         -0.08080  -0.07038  -0.09426  -0.00647   0.06162
  38        2S          0.08737   0.07333   0.09561   0.00430  -0.06373
  39        2PX        -0.02586   0.05022  -0.00784  -0.08238  -0.12328
  40        2PY        -0.00579   0.05865  -0.05281  -0.10823   0.01302
  41        2PZ         0.00016   0.00834  -0.00885  -0.02851  -0.03864
  42        3S          0.18231   0.18116   0.27520   0.02631  -0.20331
  43        3PX         0.00552   0.01124  -0.00898  -0.03506  -0.07352
  44        3PY         0.00653   0.01729  -0.00577  -0.04463   0.00953
  45        3PZ         0.00427   0.00157  -0.00573  -0.01750  -0.02782
  46 6   C  1S         -0.11344   0.09740   0.07147   0.03496   0.05658
  47        2S          0.10521  -0.08660  -0.06314  -0.03076  -0.05245
  48        2PX         0.02810  -0.03283   0.05316   0.05348   0.04571
  49        2PY        -0.01344   0.01355   0.01094  -0.06902   0.05419
  50        2PZ        -0.02191   0.00221  -0.02605  -0.05437  -0.12331
  51        3S          0.32578  -0.31632  -0.24745  -0.13000  -0.21345
  52        3PX        -0.00691  -0.01250   0.00940   0.01047   0.02811
  53        3PY         0.01260  -0.01499  -0.00128  -0.02211   0.03099
  54        3PZ        -0.01658   0.01383  -0.00148  -0.02392  -0.07970
  55 7   C  1S         -0.10032   0.04725  -0.05680  -0.11272  -0.08652
  56        2S          0.09880  -0.04559   0.05238   0.10272   0.08448
  57        2PX        -0.00675   0.04999   0.06689   0.02581  -0.02698
  58        2PY         0.01677   0.00279   0.01002  -0.02514  -0.00087
  59        2PZ         0.03780  -0.02986  -0.01731  -0.02349  -0.05926
  60        3S          0.20975  -0.10335   0.16798   0.33758   0.26610
  61        3PX         0.01181  -0.00000   0.01137  -0.00115  -0.01265
  62        3PY         0.01250  -0.00552   0.00941   0.00202   0.00270
  63        3PZ         0.01948  -0.00512   0.01463   0.01431  -0.02402
  64 8   H  1S         -0.06615  -0.02498   0.08473   0.00327  -0.07683
  65        2S         -0.01481  -0.00483   0.03920   0.01376  -0.05852
  66 9   H  1S         -0.06209  -0.04081  -0.07406   0.09030  -0.03291
  67        2S         -0.01294  -0.01485  -0.03630   0.05360  -0.02540
  68 10  H  1S          0.00172   0.05065  -0.06481  -0.06676   0.02846
  69        2S         -0.00197   0.01915  -0.03676  -0.04113   0.01460
  70 11  H  1S          0.04372   0.04993   0.08024   0.00234  -0.11669
  71        2S          0.00649   0.01950   0.04182  -0.00007  -0.07943
  72 12  H  1S          0.04648  -0.02505   0.03808   0.09795   0.10177
  73        2S          0.01430  -0.00810   0.02221   0.06119   0.07001
  74 13  C  1S          0.01003  -0.13460   0.04529  -0.09283   0.02922
  75        2S         -0.01117   0.13790  -0.04616   0.09231  -0.02747
  76        2PX        -0.00564   0.04136   0.00525  -0.05703   0.07400
  77        2PY        -0.01842   0.00964   0.03763  -0.00751   0.02800
  78        2PZ         0.00134   0.01243  -0.00755  -0.01976   0.00580
  79        3S         -0.01614   0.34359  -0.12408   0.26778  -0.10513
  80        3PX         0.00184   0.01560   0.00289  -0.02660   0.03073
  81        3PY        -0.01111   0.01268   0.01477  -0.00882   0.01240
  82        3PZ         0.00122   0.00546  -0.00345  -0.01051  -0.00370
  83 14  H  1S          0.00097   0.07603  -0.04997   0.08873  -0.06154
  84        2S          0.00246   0.02600  -0.02824   0.04770  -0.04972
  85 15  H  1S         -0.01120   0.08113  -0.01692   0.08550  -0.03406
  86        2S         -0.00478   0.02409  -0.00182   0.04997  -0.02676
  87 16  H  1S          0.06130  -0.06140  -0.04084  -0.04088  -0.08631
  88        2S          0.00517  -0.01595  -0.01336  -0.01658  -0.05139
  89 17  H  1S          0.05874  -0.05179  -0.07080  -0.01823  -0.09629
  90        2S          0.00549  -0.01136  -0.03642  -0.00160  -0.06232
                          16        17        18        19        20
                           O         O         O         O         O
     Eigenvalues --    -0.49585  -0.48415  -0.44602  -0.40886  -0.38913
   1 1   C  1S         -0.04452   0.02318   0.03301  -0.02274   0.00678
   2        2S          0.04146  -0.02570  -0.03230   0.02602  -0.00885
   3        2PX        -0.16816  -0.06053  -0.12352   0.09189  -0.04259
   4        2PY         0.11508   0.03901  -0.08367  -0.14870   0.10650
   5        2PZ        -0.01785  -0.00097   0.01848   0.03309   0.01154
   6        3S          0.16524  -0.08381  -0.11973   0.07024  -0.01377
   7        3PX        -0.09007  -0.03321  -0.06380   0.05794  -0.03936
   8        3PY         0.08181   0.03294  -0.04863  -0.11568   0.08144
   9        3PZ        -0.01140  -0.00241   0.01568   0.02397   0.00797
  10 2   C  1S          0.05608  -0.01353  -0.01684   0.00276   0.03086
  11        2S         -0.06040   0.00916   0.01443  -0.00191  -0.03467
  12        2PX         0.05575   0.07046   0.17218  -0.07772  -0.01016
  13        2PY         0.02403   0.17908   0.06543  -0.02744   0.17581
  14        2PZ        -0.00512   0.00269   0.01496   0.02220   0.01526
  15        3S         -0.19502   0.05951   0.07322  -0.01646  -0.09036
  16        3PX         0.03489   0.04151   0.11213  -0.05181  -0.01181
  17        3PY         0.00617   0.11133   0.05010  -0.02087   0.12107
  18        3PZ        -0.00510   0.00069   0.01306   0.01897   0.01184
  19 3   C  1S         -0.05665   0.02602   0.02701   0.01024   0.00076
  20        2S          0.05373  -0.02967  -0.02919  -0.01448  -0.00204
  21        2PX         0.14531   0.12288  -0.03340   0.16226   0.13049
  22        2PY         0.04993   0.07117   0.12343   0.11468  -0.06603
  23        2PZ         0.00609   0.00264   0.02647   0.02995   0.00675
  24        3S          0.20857  -0.09337  -0.09175  -0.02178   0.00626
  25        3PX         0.09347   0.06919  -0.02825   0.11367   0.09630
  26        3PY         0.02655   0.04982   0.06690   0.08326  -0.03428
  27        3PZ         0.00394  -0.00172   0.02159   0.02242   0.01148
  28 4   C  1S          0.05449  -0.06175  -0.01128   0.00816  -0.00908
  29        2S         -0.05394   0.06368   0.01316  -0.00951   0.00534
  30        2PX        -0.02003  -0.08556   0.00773   0.20636   0.05488
  31        2PY         0.10165  -0.05657   0.13095   0.02894  -0.11196
  32        2PZ        -0.02859  -0.00850   0.00624   0.04667   0.04078
  33        3S         -0.19816   0.21858   0.03757  -0.03517   0.04040
  34        3PX        -0.02376  -0.03978   0.00118   0.12503   0.05013
  35        3PY         0.08906  -0.03791   0.09768   0.00479  -0.08749
  36        3PZ        -0.02776   0.00130   0.00146   0.03610   0.03375
  37 5   C  1S          0.05394  -0.01793  -0.01437   0.02538   0.00486
  38        2S         -0.05467   0.01414   0.01127  -0.02971  -0.00312
  39        2PX         0.00685   0.11779  -0.02918   0.14385  -0.08161
  40        2PY         0.04614  -0.13691  -0.14990  -0.14497   0.07262
  41        2PZ         0.00067  -0.00552   0.01584   0.01590   0.00207
  42        3S         -0.19358   0.07453   0.06674  -0.06655  -0.02759
  43        3PX         0.00336   0.08670  -0.01232   0.11270  -0.06895
  44        3PY         0.01699  -0.06180  -0.09172  -0.07745   0.05615
  45        3PZ         0.00041  -0.00409   0.01467   0.01113  -0.00150
  46 6   C  1S         -0.02506   0.01212  -0.00930  -0.00035   0.00006
  47        2S          0.01928  -0.01110   0.00667   0.00012   0.00042
  48        2PX         0.04465  -0.10634   0.14183   0.02497   0.13975
  49        2PY        -0.13468   0.00274   0.03504   0.06404   0.19910
  50        2PZ         0.01059  -0.05506   0.13212  -0.02928  -0.07945
  51        3S          0.11320  -0.05885   0.04259  -0.00270  -0.01897
  52        3PX         0.01452  -0.06961   0.09981   0.02451   0.11882
  53        3PY        -0.07043  -0.01526   0.03416   0.04343   0.15439
  54        3PZ         0.00096  -0.04006   0.10161  -0.02646  -0.05964
  55 7   C  1S         -0.04089  -0.00953   0.01042  -0.00728  -0.01570
  56        2S          0.03582   0.00882  -0.01142   0.00585   0.01441
  57        2PX        -0.07581  -0.00243   0.08493  -0.05374  -0.01052
  58        2PY        -0.06236  -0.05643   0.02993  -0.05401   0.10532
  59        2PZ        -0.01054  -0.06338   0.09107  -0.03719   0.08361
  60        3S          0.13209   0.04003  -0.03593   0.03498   0.03433
  61        3PX        -0.03945   0.00977   0.04657  -0.02599  -0.00329
  62        3PY        -0.03211  -0.03325   0.02046  -0.03471   0.07403
  63        3PZ        -0.00541  -0.03334   0.06575  -0.02773   0.05564
[...]
 3251,12.6909269,-1.3502769,3.4822881,1.8900605,-2.3459207,1.3324289,8.
 4489771,6.8993476,6.0314166,2.5439709,37.1702904,5.0176956,-1.9145091,
 1.0215652,-1.2721223,-0.7698033,-6.8290873,-2.4051053,-0.4146706,-0.13
 80618,0.8591631,0.1129146,-7.2662489,-1.7710793,-0.783579,6.1160591,2.
 1100264,-0.5078351,-3.3970148,-0.669439,15.567484,-1.6729173,5.8891635
 ,1.0851663,5.4231544,-2.1007937,-16.351307,-2.6514394,-4.1944414,-3.56
 80674,0.9447786,-2.8809423,-2.0005624,-1.5947536,-4.2017321,-1.9049785
 ,1.1754008,-2.5841981,1.8182725,0.5341379,0.2264597,-2.3216475,-5.0565
 448,0.9432507,-0.1917564,-0.6574449,0.6610441,-0.1234537,1.6128279,-0.
 0515414,0.8446738,-1.9102587,-3.1312624,2.9219948,3.018833,3.1964718,-
 10.022471,0.5421174,-4.488793,-0.9948906,1.6747714,1.3612272,11.340363
 1,2.4621112,-0.9991802,-1.2482907,0.3033172,1.4537811,-6.1800957,0.324
 936,2.1535326,1.0955019,-1.2803243,-1.9787717,-1.736093,-0.5731062,-0.
 5815035,-0.256909,-2.1237893,-2.3242889,-8.6456793,-0.7468934,-2.19348
 26,-0.660479,2.0743883,-0.029454,-1.1380096,0.14209,-1.7350209,-1.0857
 59,3.665473,-3.1516413,2.7426006,-1.2929327,1.0595231,0.55374,-2.42503
 85,4.3236066,-7.0599142,1.3362038,-2.1098665,-0.7821657,-0.9493433,0.9
 457004,-1.8754499,1.651354,-2.5696554,-1.9507068,13.5239807,-1.2453613
 ,0.3224608,0.0016847,0.1115936,0.2067534,-1.5788457,2.3994282,-0.52516
 71,0.4129708,0.2607355,0.1235473,-0.2766923,0.4297894,0.1613417,1.4412
 549,-0.6121603,-0.3247537,6.1779047,3.1767976,2.7555228,3.9225246,1.92
 64431,2.1667825,2.0998636,3.7972845,3.8509103,1.9422118,2.3424023,1.18
 71406,4.8912912,1.5636879,-0.9753021,4.1346173,1.8379925,4.6961459,-0.
 3087962,1.5410751,-2.0519008,0.9472691,-0.8725402,-1.0133822,0.2974105
 ,-0.8671169,5.4622153,-0.5580516,3.7110226,1.8410922,0.3515248,-0.3455
 805,4.4288992,-0.3402639,4.1348783,4.5651276,-30.1908636,-5.2018994,2.
 524595,-1.8858321,-0.0165496,0.3353584,-7.1584644,1.0063015,0.9712298,
 -1.7310782,-1.1250723,-0.036883,0.9550496,-0.6198011,-0.8470616,-12.78
 48741,-2.6430444,0.6171518,-8.7607511,2.4913533,-1.2617615,0.4775759,0
 .2828057,0.0364304,3.7172841,-4.0694261,2.0957977,0.1782897,0.1400691,
 0.2022839,0.3807532,0.4383304,0.3473712,-0.4460164,1.671107,-0.1180945
 ,-5.8070436,-2.8934173,-2.0606279,0.8107172,0.2347107,0.0620765,-2.992
 9113,-4.9522951,-6.6331958,1.0348722,1.0298678,-0.2756809,1.4698509,0.
 6941503,0.7804852,0.2964374,-1.7873736,0.8266285,1.6154882,0.4711517,0
 .2490124,-1.5006316,-0.7517925,1.4305616,1.0435991,0.2625906,1.320266,
 -0.2195449,-1.7596957,0.8946842,-0.575684,-0.2134966,-1.639695,0.97247
 26,2.6379248,-7.410615,-3.6527047,2.831577,-2.4879353,-0.1951275,0.295
 2742,0.1531688,1.8308841,-2.8126556,4.3282163,0.3254971,-0.4964578,0.3
 191623,-0.09988,0.3112687,-0.3889346,-0.9921226,1.6450281,-0.6439815\H
 yperPolar=112.2689227,31.2551235,-73.4423608,30.476761,-17.6164995,-6.
 2065747,48.3046827,13.4364941,55.2895776,10.4042605\Quadrupole=-4.3619
 902,2.3046502,2.05734,-2.2401614,-0.2349159,0.1643214\PG=C01 [X(C8H9)]
 \NImag=0\\0.75058106,0.04604174,0.64498769,0.00840913,0.12921847,0.151
 62127,-0.36232729,-0.05609685,-0.00989691,0.75708325,0.01646645,-0.141
 45639,-0.01710991,0.00724162,0.64693927,0.00596689,-0.01841857,-0.0699
 4417,0.01204956,0.19181725,0.26319218,-0.04936574,-0.02293550,-0.01281
 655,-0.20365366,-0.11758544,-0.05001558,0.73044924,-0.06971382,0.01821
 225,-0.00927824,-0.04114146,-0.23395075,-0.06256674,-0.00431673,0.5465
 7989,-0.02666117,-0.00166390,0.00985204,-0.02873641,-0.08133621,-0.096
 50907,0.03289691,0.22871499,0.23529438,-0.15411305,0.05896470,0.022153
 52,-0.07225633,0.01509718,0.00530685,0.01764105,0.02823071,0.01349025,
 0.83041235,0.05055207,-0.20256480,-0.02852754,0.03969722,0.02601335,0.
 00770326,-0.01695838,-0.02735925,-0.00732446,0.02403876,0.55744477,0.0
 0434947,-0.02182731,-0.08062288,0.01130975,0.00563860,-0.00053633,-0.0
 0414711,-0.00389921,-0.00398308,-0.10845875,-0.00850050,0.24689395,-0.
 01961412,-0.00291324,-0.00591977,0.04042568,-0.00212703,0.00288390,-0.
 14627682,0.02103754,-0.00467829,0.00931838,-0.00444559,-0.00213432,0.8
 0145012,0.03517911,-0.00415033,0.00660020,-0.03680112,-0.05283111,-0.0
 4010178,0.06275734,-0.19165702,-0.07113051,-0.01842261,0.01631145,0.00
 316747,-0.14859411,0.51249861,0.01512548,0.00028677,0.00021630,-0.0144
 2172,-0.02540476,-0.01476571,0.03198602,-0.09463027,-0.12747395,-0.009
 34467,0.00899243,0.00057653,0.14969955,0.20836420,0.41848282,0.0085476
 5,0.01733572,-0.00085719,0.00614129,0.00659816,0.00155863,0.00168456,-
 0.01242712,-0.00459537,-0.10156127,-0.00939557,0.00407391,-0.03395006,
 -0.00254153,-0.02684614,0.60289993,-0.00552216,-0.03852644,0.00031025,
 -0.00335041,0.00087046,0.00028567,0.00362263,-0.00402701,0.00089215,-0
 .02430162,-0.15746537,0.01490599,0.00199097,0.01220628,0.01045254,-0.0
 9697343,0.51112072,0.00586295,-0.00267491,0.00167862,-0.00004984,0.000
 30262,-0.00010338,0.00316107,-0.00065890,-0.00183576,0.00883789,0.0259
 4930,-0.08537440,-0.00554293,-0.00151599,-0.00176729,-0.05138725,0.000
 92601,0.55808343,0.01809233,0.00409210,0.00461203,-0.02356563,-0.01818
 258,-0.01393653,-0.01284746,0.05404574,0.02984427,-0.02244637,-0.00647
 225,-0.00543244,-0.44930776,0.14095984,-0.05080926,-0.13099435,0.00407
 013,-0.06245056,0.73130554,-0.00904893,0.00620235,0.00290803,0.0190002
 8,0.00815311,0.00570344,0.03398276,-0.02770912,-0.01538654,-0.01855034
 ,-0.01296538,-0.02708971,0.16506465,-0.16580372,-0.01203792,-0.0069013
 4,-0.09325221,-0.03537222,-0.24357466,0.47050545,-0.00888423,0.0022414
 0,0.00090908,0.00999502,0.00399652,0.00119393,0.01680182,-0.01927195,0
 .00978126,0.00192787,-0.01781336,0.00062895,-0.03653927,-0.01360993,-0
 .10734475,-0.05577796,-0.02274894,-0.15409465,0.08322728,0.22121839,0.
 44618560,-0.10208788,-0.09219562,-0.02362035,-0.01579174,-0.03850454,-
 0.01085736,-0.00416043,0.00187649,0.00079470,0.00776506,0.02478201,0.0
 0680051,-0.00067025,0.00138871,0.00072565,-0.00315339,0.00266597,0.000
 40200,0.00054618,-0.00065155,-0.00030761,0.11654046,-0.09556404,-0.292
 07675,-0.07407755,0.00515181,-0.00309395,-0.00085789,-0.00061653,0.002
 07505,-0.00076210,-0.01350561,-0.02494927,-0.00637637,0.00008825,0.000
 15893,0.00012326,0.00392649,-0.00255807,-0.00174320,0.00067959,0.00041
 244,0.00057172,0.10007142,0.31745499,-0.01859268,-0.07987194,-0.047666
 30,-0.00516648,-0.00310515,-0.00112024,0.00053198,0.00113679,0.0070248
 3,-0.01102999,-0.00440990,0.00208789,0.00190584,-0.00177304,-0.0006660
 4,0.00312115,0.00300062,0.00400073,-0.00214034,0.00202336,-0.00053513,
 0.02783102,0.08036859,0.04287783,-0.01916303,0.03502835,0.01154867,-0.
 13326656,0.10493624,0.04163033,0.01089985,-0.01910503,-0.00875125,-0.0
 0616348,-0.00294137,0.00095711,-0.00123280,-0.00332594,-0.00148811,0.0
 0025584,-0.00067017,0.00015785,-0.00065523,0.00036338,-0.00012541,0.00
 042560,-0.00030554,-0.00078076,0.14765674,-0.00197655,0.00113258,-0.00
 184234,0.10402255,-0.24458245,-0.07475724,0.01883168,-0.02185707,-0.01
 147657,-0.00151690,0.00344778,-0.00335331,-0.00509632,-0.00105632,-0.0
 0318331,-0.00030001,0.00020149,0.00002997,-0.00038150,0.00079175,0.000
 67609,-0.00010869,0.00180095,0.00312483,-0.11446043,0.26168739,-0.0041
 5551,-0.00051683,0.00682685,0.04565014,-0.07132720,-0.08070034,0.00377
 433,-0.01668084,-0.00012027,-0.00072315,-0.00261898,0.00866567,-0.0014
 9571,-0.00379975,0.00749351,-0.00009129,-0.00018936,-0.00009230,0.0004
 2092,-0.00108559,-0.00149421,-0.00000960,0.00222033,-0.00523079,-0.042
 76012,0.09000573,0.07017983,0.00111215,-0.00346589,-0.00185039,-0.0228
 4410,0.00870603,0.00200041,-0.34180927,0.05199499,-0.00090811,0.001269
 44,0.00002767,-0.00025978,-0.00987028,-0.00276250,-0.00387938,0.000273
 21,-0.00040041,0.00021885,0.00068979,0.00195142,0.00241904,-0.00127967
 ,-0.00039004,-0.00007878,0.00178910,-0.00143440,0.00010937,0.37078518,
 0.00128557,-0.00188379,-0.00310530,-0.03495487,0.00190502,-0.00052492,
 0.05755747,-0.06194645,-0.01882106,-0.00039069,-0.00005918,0.00004386,
 0.03545855,-0.00847217,0.00187691,-0.00029515,0.00030918,-0.00033478,-
 0.00158878,-0.00215135,-0.00499293,-0.00077836,-0.00010649,-0.00090422
 ,-0.00086400,0.00048869,0.00285200,-0.05571495,0.07304200,-0.00190892,
 -0.00375949,0.00371270,-0.01327482,0.00477546,-0.00038382,-0.00674607,
 -0.02331434,-0.03542484,0.00121233,-0.00119942,-0.00018203,0.01828583,
 0.00177957,0.00124587,-0.00006446,0.00004811,0.00022229,0.00124944,-0.
 00461076,-0.00041855,-0.00097896,-0.00062065,0.00167514,0.00026485,0.0
 0192630,-0.00476021,0.00133777,0.02336029,0.03323322,-0.00182194,0.000
 09509,-0.00032053,0.00210031,0.00363789,0.00094550,0.01004191,0.003422
 54,0.00422952,0.00169534,0.00020409,0.00011597,-0.18314804,-0.06035999
 ,-0.11168613,-0.00353151,0.00488224,0.00050575,-0.01723968,-0.01668318
 ,-0.02958093,0.00002226,-0.00015551,0.00006121,0.00018811,0.00039259,-
 0.00014104,0.00144120,-0.00123097,0.00080031,0.19227389,-0.00341664,0.
 00055073,-0.00031886,0.00765608,0.00218771,-0.00418420,-0.02126050,-0.
 01648353,-0.02377308,0.00314925,-0.00132884,0.00046491,-0.07068785,-0.
 09900861,-0.07702464,0.00373478,0.00387368,-0.00366103,0.01732884,0.00
 782188,0.00916316,-0.00022990,-0.00018629,0.00059492,-0.00032086,-0.00
 131648,0.00023202,0.00070612,-0.00060782,0.00246231,0.06703214,0.10657
 627,0.00153546,0.00051248,0.00062421,0.00073971,-0.00442706,-0.0012803
 8,-0.01690246,-0.00243334,-0.00300943,-0.00150046,0.00021663,-0.001174
 48,-0.11067571,-0.08344015,-0.17499297,-0.00220221,-0.00441768,0.00592
 877,-0.00785124,-0.00328307,0.00266154,-0.00006543,-0.00005666,-0.0002
 2571,-0.00054206,-0.00121256,0.00002787,0.00100398,0.00082530,-0.00043
 413,0.13405816,0.09268307,0.17369068,0.00252760,-0.00024436,0.00033184
 ,-0.00333555,-0.00162796,-0.00063445,-0.00279821,0.00403874,-0.0026979
 6,-0.00232624,0.00162574,-0.00218441,-0.00288620,0.02750174,0.02443593
 ,0.00611281,-0.01689986,-0.01742093,-0.08519252,0.06264272,0.04020539,
 0.00014545,0.00004084,-0.00020224,0.00010391,0.00009353,0.00042152,-0.
 00059964,0.00147748,0.00002057,0.00005924,-0.00206577,0.00212311,0.087
 89354,0.00013209,0.00121700,-0.00002453,-0.00076838,0.00046624,0.00012
 486,0.00444776,0.00693002,-0.00185201,0.00012384,0.00027258,-0.0015654
 1,0.00478783,-0.01112747,-0.01400920,0.00571175,-0.00369014,-0.0035106
 1,0.06344620,-0.19837639,-0.14994425,-0.00007328,-0.00006043,-0.000090
 76,0.00011239,-0.00013557,0.00036512,0.00068988,-0.00084962,-0.0012198
 1,-0.00089628,-0.00267243,0.00566465,-0.07471338,0.20746970,0.00009183
 ,-0.00123778,0.00066223,0.00018399,0.00029087,-0.00040294,-0.00117952,
 -0.00419146,0.00348928,-0.00083364,0.00200332,-0.00124150,-0.00843189,
 0.00479585,0.00358431,0.00751778,-0.01604224,-0.01205835,0.04708383,-0
 .15205475,-0.17091944,-0.00000241,-0.00016317,0.00003028,0.00000662,-0
 .00008933,-0.00036706,-0.00021588,-0.00035368,0.00122238,0.00211796,0.
 00377225,-0.00272912,-0.04389130,0.16397496,0.18101225,-0.06845006,0.0
 2091166,0.01148814,0.02994245,0.01287998,0.00162061,-0.01112103,-0.016
 48355,-0.00620330,-0.47809741,-0.08070335,0.07425621,-0.00494414,0.008
 77269,0.00425970,-0.01452046,-0.00604023,0.00123084,0.00392463,-0.0048
 7202,0.00022707,0.00105298,-0.00052310,0.00421851,-0.00009513,0.001448
 91,-0.00106451,-0.00063752,0.00008482,-0.00045245,-0.00086993,-0.00124
 290,-0.00002343,0.00063117,-0.00085576,0.00008854,0.83324441,0.0399889
 3,0.01186859,-0.00564906,-0.00557119,-0.00983433,-0.00355199,0.0017262
 6,0.00729781,0.00318639,-0.05959361,-0.14058403,0.01385911,0.00340735,
 -0.00534593,-0.00298801,-0.03815539,-0.01029754,0.00661538,-0.00366258
 ,-0.00087345,0.00367069,0.00151070,0.00118246,-0.00010198,0.00162259,-
 0.00063472,0.00057263,0.00000045,0.00017677,0.00030025,-0.00006746,0.0
 0066823,-0.00065525,-0.00076924,-0.00065305,-0.00054299,0.01414545,0.6
 9796641,0.01419527,-0.00362556,0.01538539,-0.00491169,-0.00223194,0.00
 238569,0.00231782,0.00290442,0.00123820,0.07432816,0.01968334,-0.08649
 961,0.00152582,-0.00194399,-0.00005928,0.00518305,-0.00016846,0.008723
 05,-0.00212963,0.00049704,0.00207495,-0.00042811,0.00182906,-0.0023350
 5,-0.00023716,0.00014964,-0.00037908,0.00010055,0.00012292,-0.00005961
 ,0.00032229,0.00022800,0.00002142,0.00065978,0.00109491,-0.00018271,-0
 .12530038,-0.05679826,0.12483557,-0.00627884,-0.00376874,0.00116773,0.
 00218299,0.00263811,0.00173382,-0.00087804,-0.00180168,-0.00066822,-0.
 02008892,0.03208486,0.00108060,-0.00049932,0.00094665,0.00060056,0.000
 37719,0.00314817,-0.00139903,0.00036185,-0.00078055,-0.00051054,0.0002
 6187,0.00041811,-0.00003375,-0.00063661,0.00025381,-0.00024754,-0.0000
 9823,0.00000053,-0.00016853,-0.00006010,-0.00015262,-0.00002182,0.0000
 1511,-0.00015305,-0.00009652,-0.18813995,0.13829852,0.01422060,0.20321
 994,0.00015046,0.00062025,0.00096639,-0.00092305,-0.00019646,-0.000299
 73,0.00038334,0.00068535,0.00035752,-0.00784576,0.00396461,0.00151454,
 0.00029935,-0.00062403,-0.00022291,-0.00130185,0.00074327,-0.00071617,
 -0.00050141,0.00030137,0.00009337,-0.00023060,0.00041136,0.00031523,0.
 00000630,0.00001043,-0.00008098,0.00006515,0.00000786,0.00008174,0.000
 01622,0.00009338,-0.00000625,0.00003705,0.00012043,0.00003304,0.148757
 20,-0.23475348,-0.00520057,-0.15887552,0.24779367,0.00030155,0.0020193
 3,0.00905205,0.00236044,-0.00060096,0.00194764,-0.00119194,-0.00058350
 ,0.00021695,0.00539791,-0.00771860,0.00260160,0.00054713,-0.00065712,0
 .00001675,0.00002894,0.00118344,-0.00796313,-0.00187941,-0.00074647,-0
 .00090578,0.00001656,0.00074210,-0.00050646,0.00015125,0.00033807,-0.0
 0086324,0.00004814,0.00012158,-0.00019861,-0.00008280,0.00005757,-0.00
 013707,-0.00015674,-0.00024255,-0.00000779,0.01266580,-0.00367881,-0.0
 2584588,-0.01534430,0.00475658,0.02192825,0.00179800,-0.00111384,-0.00
 233502,-0.00117113,-0.00014553,-0.00039844,0.00047279,0.00109345,0.000
 57445,-0.00897595,-0.03867020,0.00583942,0.00060316,-0.00083598,-0.000
 59568,-0.00450799,0.00147510,0.00300420,-0.00033514,0.00005348,0.00036
 808,-0.00001351,0.00089277,0.00072344,-0.00009979,0.00001417,0.0001261
 6,-0.00005155,0.00001425,0.00010696,-0.00004698,0.00008878,-0.00014326
 ,-0.00019577,-0.00020134,-0.00014156,-0.10342152,-0.08896936,0.0208501
 5,0.00936657,0.02098862,-0.00372803,0.10669642,0.00143872,0.00077065,-
 0.00127584,-0.00094478,0.00039544,-0.00024378,0.00045080,0.00067255,0.
 00012094,0.00268925,-0.00542519,0.00012693,0.00017655,-0.00057384,-0.0
 0040208,-0.00071702,0.00079018,0.00122145,-0.00033207,0.00035402,0.000
 65791,-0.00045836,0.00085800,0.00054412,-0.00021862,0.00002577,0.00015
 138,-0.00008394,0.00000373,0.00010233,-0.00011266,0.00004628,-0.000101
 62,-0.00006031,-0.00005965,-0.00011651,-0.09776451,-0.31267218,0.04475
 173,-0.01033201,-0.02060330,0.00375832,0.10693041,0.33500269,-0.000045
 55,-0.00006171,-0.00649193,-0.00104003,0.00029090,-0.00039358,0.001016
 81,-0.00073325,-0.00118777,0.00038681,0.00870478,0.00308343,-0.0017744
 2,0.00174223,0.00055404,0.00060233,-0.00301901,0.01148254,0.00333181,0
 .00206372,0.00075361,-0.00000532,-0.00130975,-0.00002618,0.00000833,-0
 .00018398,0.00036390,-0.00000320,-0.00009412,0.00004630,0.00000124,-0.
 00020820,0.00032621,0.00028168,0.00029147,-0.00003913,0.02321007,0.044
 86512,-0.03853481,-0.00061916,-0.00156460,0.00003931,-0.02446797,-0.04
 923650,0.03022756,-0.00023391,0.00277099,-0.00188759,0.00185766,0.0010
 8268,0.00055377,0.00091534,-0.00185342,0.00198406,-0.00908315,-0.00375
 970,0.01347231,0.00176374,-0.00115132,-0.00302740,-0.11238137,-0.00329
 295,0.10993574,0.00850035,0.00092111,-0.02653204,0.00001240,0.00000808
 ,-0.00032363,0.00007333,0.00008484,0.00008000,-0.00001346,-0.00013549,
 0.00030590,0.00026081,-0.00056546,0.00068119,-0.00151224,-0.00082770,-
 0.00224480,0.00012989,-0.00201226,-0.00069716,0.00037828,-0.00018690,0
 .00087477,-0.00064578,-0.00063796,-0.00086063,0.12343107,-0.00111045,-
 0.00008836,0.00014526,-0.00075317,-0.00076936,0.00037681,0.00017044,0.
 00166143,0.00005239,-0.02169472,-0.00788852,0.03526187,0.00178019,-0.0
 0035478,0.00107024,-0.00087000,-0.05697443,0.01601825,0.00162167,0.000
 79246,-0.01242286,-0.00010979,0.00042378,-0.00077708,0.00003630,0.0000
 6499,-0.00008067,-0.00001807,0.00011135,-0.00019109,0.00001349,-0.0003
 4463,0.00023949,-0.00081274,-0.00013260,-0.00102221,0.00086459,-0.0045
 9268,-0.00081959,-0.00016062,0.00043937,0.00088056,-0.00151239,-0.0004
 8344,-0.00148751,0.01212812,0.06641158,0.00252725,-0.00093110,0.002745
 08,-0.00410853,-0.00101150,-0.00208559,0.00026363,0.00535737,0.0021959
 4,0.00369331,0.00154858,-0.00330230,0.00422578,-0.00556311,-0.00041360
 ,0.11151792,0.01837199,-0.26601681,0.00248898,-0.00332343,-0.02851297,
 -0.00005358,0.00002961,0.00008665,-0.00004260,-0.00011719,0.00036507,-
 0.00004492,-0.00011508,0.00038895,0.00002379,-0.00050413,0.00057421,-0
 .00191864,0.00065790,-0.00337704,-0.00001756,0.00093453,-0.00017781,0.
 00005522,-0.00008172,0.00000769,0.00032090,0.00007052,-0.00016793,-0.1
 1893053,-0.01387008,0.29578900,0.00079707,-0.00250633,-0.00020673,-0.0
 0152165,-0.00111127,-0.00040790,0.00080591,0.00110260,0.00008590,0.007
 01053,-0.00966601,0.00036156,-0.00116129,-0.00271098,-0.00473439,-0.22
 169210,0.13559604,0.00493340,-0.02083654,0.01708277,0.00308641,0.00038
 461,-0.00021699,-0.00004449,-0.00007985,0.00013271,0.00010604,-0.00015
 635,0.00007458,0.00001025,-0.00136489,0.00024652,-0.00021355,0.0013575
 3,-0.00096258,-0.00005303,0.00137164,-0.00189917,0.00000063,0.00051622
 ,-0.00083859,-0.00000926,0.00052819,-0.00002350,-0.00002281,-0.0134529
 7,0.01042716,-0.00000042,0.24749395,-0.00488255,-0.00481524,0.00106055
 ,-0.00146428,-0.00021582,-0.00050444,-0.00025740,0.00087586,0.00020205
 ,0.03352816,-0.02686470,-0.00237148,-0.00022708,-0.00016993,-0.0012632
 4,0.13257151,-0.16332406,-0.00087516,-0.01154827,0.00579680,-0.0014850
 5,0.00104536,-0.00174670,-0.00007440,0.00010639,-0.00006921,-0.0000190
 0,0.00012850,0.00003229,0.00007921,-0.00019025,0.00013048,-0.00010798,
 -0.00026424,0.00128138,0.00094382,0.00062013,0.00108113,-0.00047269,-0
 .00176396,0.00098593,0.00037043,-0.00010239,0.00089829,-0.00005960,-0.
 00257266,0.00172385,-0.00145316,-0.14472697,0.18439965,0.00188277,0.00
 031064,0.00143945,-0.00068218,-0.00055753,-0.00049390,0.00024884,0.000
 12845,0.00045129,-0.00484422,0.00331113,-0.00162140,-0.00188153,-0.002
 91416,-0.00468654,0.00821815,-0.00379109,-0.06081335,-0.02562916,0.020
 57647,0.00003657,-0.00024171,0.00008267,0.00052855,0.00000243,-0.00003
 479,0.00008481,0.00000234,0.00004321,0.00011497,-0.00137026,0.00001593
 ,0.00012839,0.00062686,0.00028525,0.00132435,-0.00020385,-0.00003777,-
 0.00059044,0.00025089,0.00005452,0.00061773,-0.00010381,-0.00012932,-0
 .00003559,0.02661604,-0.02337376,0.00190146,-0.00289161,0.00603014,0.0
 6161365\\-0.00003250,0.00001882,0.00001085,0.00001871,0.00001613,-0.00
 001001,0.00000555,0.00001578,0.00000487,-0.00000222,-0.00001321,-0.000
 00518,-0.00000661,0.00000524,-0.00002846,0.00000852,-0.00002791,0.0000
 3788,0.00001762,-0.00000468,0.00000635,0.00001076,-0.00000943,0.000002
 75,-0.00000979,-0.00000125,-0.00000161,-0.00000872,-0.00001093,0.00000
 879,-0.00000940,0.00000130,0.00000178,-0.00000099,-0.00000363,-0.00000
 093,0.00000539,0.00000574,-0.00000690,0.00000309,-0.00000084,0.0000039
 8,-0.00000129,-0.00000037,-0.00000449,0.00000269,0.00000030,-0.0000122
 3,-0.00000079,0.00000893,-0.00000744\\\@


 MATERIAL COPIED FROM ONE SCHOLARLY BOOK WITHOUT CREDIT COMPRISES PLAGIARISM.
 MATERIAL COPIED FROM TWO SCHOLARLY BOOKS COMPRISES AN ESSAY.
 MATERIAL COPIED FROM THREE SCHOLARLY BOOKS COMPRISES A DISSERTATION.
 MATERIAL COPIED FROM FOUR SCHOLARLY BOOKS COMPRISES A FIFTH SCHOLARLY BOOK.

                               -- C&EN, 25 FEB 1980
 Job cpu time:       0 days  0 hours  2 minutes  8.7 seconds.
 Elapsed time:       0 days  0 hours  0 minutes  6.5 seconds.
 File lengths (MBytes):  RWF=     25 Int=      0 D2E=      0 Chk=      2 Scr=      1
 Normal termination of Gaussian 16 at Tue Jun 10 01:50:48 2025.
