 Entering Gaussian System, Link 0=g16
 Initial command:
 /home/user/softwares/g16/g16/l1.exe "/home/user/scratch/Gau-360174.inp" -scrdir="/home/user/scratch/"
 Entering Link 1 = /home/user/softwares/g16/g16/l1.exe PID=    360176.
  
 Copyright (c) 1988-2017, Gaussian, Inc.  All Rights Reserved.
  
 This is part of the Gaussian(R) 16 program.  It is based on
 the Gaussian(R) 09 system (copyright 2009, Gaussian, Inc.),
 the Gaussian(R) 03 system (copyright 2003, Gaussian, Inc.),
 the Gaussian(R) 98 system (copyright 1998, Gaussian, Inc.),
 the Gaussian(R) 94 system (copyright 1995, Gaussian, Inc.),
 the Gaussian 92(TM) system (copyright 1992, Gaussian, Inc.),
 the Gaussian 90(TM) system (copyright 1990, Gaussian, Inc.),
 the Gaussian 88(TM) system (copyright 1988, Gaussian, Inc.),
 the Gaussian 86(TM) system (copyright 1986, Carnegie Mellon
 University), and the Gaussian 82(TM) system (copyright 1983,
 Carnegie Mellon University). Gaussian is a federally registered
 trademark of Gaussian, Inc.
  
 This software contains proprietary and confidential information,
 including trade secrets, belonging to Gaussian, Inc.
  
 This software is provided under written license and may be
 used, copied, transmitted, or stored only in accord with that
 written license.
  
 The following legend is applicable only to US Government
 contracts under FAR:
  
                    RESTRICTED RIGHTS LEGEND
  
 Use, reproduction and disclosure by the US Government is
 subject to restrictions as set forth in subparagraphs (a)
 and (c) of the Commercial Computer Software - Restricted
 Rights clause in FAR 52.227-19.
  
 Gaussian, Inc.
 340 Quinnipiac St., Bldg. 40, Wallingford CT 06492
  
  
 ---------------------------------------------------------------
 Warning -- This program may not be used in any manner that
 competes with the business of Gaussian, Inc. or will provide
 assistance to any competitor of Gaussian, Inc.  The licensee
 of this program is prohibited from giving any competitor of
 Gaussian, Inc. access to this program.  By using this program,
 the user acknowledges that Gaussian, Inc. is engaged in the
 business of creating and licensing software in the field of
 computational chemistry and represents and warrants to the
 licensee that it is not a competitor of Gaussian, Inc. and that
 it will not use this program in any manner prohibited above.
 ---------------------------------------------------------------
  

 Cite this work as:
 Gaussian 16, Revision B.01,
 M. J. Frisch, G. W. Trucks, H. B. Schlegel, G. E. Scuseria, 
 M. A. Robb, J. R. Cheeseman, G. Scalmani, V. Barone, 
 G. A. Petersson, H. Nakatsuji, X. Li, M. Caricato, A. V. Marenich, 
 J. Bloino, B. G. Janesko, R. Gomperts, B. Mennucci, H. P. Hratchian, 
 J. V. Ortiz, A. F. Izmaylov, J. L. Sonnenberg, D. Williams-Young, 
 F. Ding, F. Lipparini, F. Egidi, J. Goings, B. Peng, A. Petrone, 
 T. Henderson, D. Ranasinghe, V. G. Zakrzewski, J. Gao, N. Rega, 
 G. Zheng, W. Liang, M. Hada, M. Ehara, K. Toyota, R. Fukuda, 
 J. Hasegawa, M. Ishida, T. Nakajima, Y. Honda, O. Kitao, H. Nakai, 
 T. Vreven, K. Throssell, J. A. Montgomery, Jr., J. E. Peralta, 
 F. Ogliaro, M. J. Bearpark, J. J. Heyd, E. N. Brothers, K. N. Kudin, 
 V. N. Staroverov, T. A. Keith, R. Kobayashi, J. Normand, 
 K. Raghavachari, A. P. Rendell, J. C. Burant, S. S. Iyengar, 
 J. Tomasi, M. Cossi, J. M. Millam, M. Klene, C. Adamo, R. Cammi, 
 J. W. Ochterski, R. L. Martin, K. Morokuma, O. Farkas, 
 J. B. Foresman, and D. J. Fox, Gaussian, Inc., Wallingford CT, 2016.
 
 ******************************************
 Gaussian 16:  EM64L-G16RevB.01 20-Dec-2017
                10-Jun-2025 
 ******************************************
 %nproc=20
 Will use up to   20 processors via shared memory.
 %mem=15GB
 %chk=cycloheptatrienyl_cation.chk
 ---------------------------------------------
 #p hf/3-21g opt freq gfinput gfprint pop=full
 ---------------------------------------------
 1/18=20,19=15,38=1/1,3;
 2/9=110,12=2,17=6,18=5,40=1/2;
 3/5=5,11=9,24=110,25=1,30=1,71=1/1,2,3;
 4//1;
 5/5=2,38=5/2;
 6/7=3,28=1/1;
 7//1,2,3,16;
 1/18=20,19=15/3(2);
 2/9=110/2;
 99//99;
 2/9=110/2;
 3/5=5,11=9,25=1,30=1,71=1/1,2,3;
 4/5=5,16=3,69=1/1;
 5/5=2,38=5/2;
 7//1,2,3,16;
 1/18=20,19=15/3(-5);
 2/9=110/2;
 6/7=3,19=2,28=1/1;
 99/9=1/99;
 Leave Link    1 at Tue Jun 10 01:46:44 2025, MaxMem=  2013265920 cpu:               0.6 elap:               0.0
 (Enter /home/user/softwares/g16/g16/l101.exe)
 ------------
 optimisation
 ------------
 Symbolic Z-matrix:
 Charge =  1 Multiplicity = 1
 C                    -1.01596   1.12548  -0.23002 
 C                     0.39482   1.12583  -0.16487 
 C                     1.30307   2.2138    0.07779 
 C                    -1.94324   2.213    -0.07214 
 C                     0.92763   3.38376   0.61315 
 C                    -1.61932   3.38313   0.49554 
 C                    -0.38152   3.36968   1.32701 
 H                    -1.45987   0.17826  -0.45501 
 H                     0.85805   0.17884  -0.34799 
 H                     2.33216   2.08319  -0.18453 
 H                     1.52986   4.26526   0.5412 
 H                    -2.21282   4.26432   0.36841 
 H                    -0.43079   3.31258   2.39435 
 C                    -3.3832    2.02425  -0.58447 
 H                    -3.38011   1.35354  -1.41815 
 H                    -3.98974   1.61805   0.19784 
 H                    -3.78025   2.97002  -0.88905 
 
 ITRead=  0  0  0  0  0  0  0  0  0  0  0  0  0  0  0  0  0
 MicOpt= -1 -1 -1 -1 -1 -1 -1 -1 -1 -1 -1 -1 -1 -1 -1 -1 -1
 NAtoms=     17 NQM=       17 NQMF=       0 NMMI=      0 NMMIF=      0
                NMic=       0 NMicF=      0.
                    Isotopes and Nuclear Properties:
 (Nuclear quadrupole moments (NQMom) in fm**2, nuclear magnetic moments (NMagM)
  in nuclear magnetons)

  Atom         1           2           3           4           5           6           7           8           9          10
 IAtWgt=          12          12          12          12          12          12          12           1           1           1
 AtmWgt=  12.0000000  12.0000000  12.0000000  12.0000000  12.0000000  12.0000000  12.0000000   1.0078250   1.0078250   1.0078250
 NucSpn=           0           0           0           0           0           0           0           1           1           1
 AtZEff=  -0.0000000  -0.0000000  -0.0000000  -0.0000000  -0.0000000  -0.0000000  -0.0000000  -0.0000000  -0.0000000  -0.0000000
 NQMom=    0.0000000   0.0000000   0.0000000   0.0000000   0.0000000   0.0000000   0.0000000   0.0000000   0.0000000   0.0000000
 NMagM=    0.0000000   0.0000000   0.0000000   0.0000000   0.0000000   0.0000000   0.0000000   2.7928460   2.7928460   2.7928460
 AtZNuc=   6.0000000   6.0000000   6.0000000   6.0000000   6.0000000   6.0000000   6.0000000   1.0000000   1.0000000   1.0000000

  Atom        11          12          13          14          15          16          17
 IAtWgt=           1           1           1          12           1           1           1
 AtmWgt=   1.0078250   1.0078250   1.0078250  12.0000000   1.0078250   1.0078250   1.0078250
 NucSpn=           1           1           1           0           1           1           1
 AtZEff=  -0.0000000  -0.0000000  -0.0000000  -0.0000000  -0.0000000  -0.0000000  -0.0000000
 NQMom=    0.0000000   0.0000000   0.0000000   0.0000000   0.0000000   0.0000000   0.0000000
 NMagM=    2.7928460   2.7928460   2.7928460   0.0000000   2.7928460   2.7928460   2.7928460
 AtZNuc=   1.0000000   1.0000000   1.0000000   6.0000000   1.0000000   1.0000000   1.0000000
 Leave Link  101 at Tue Jun 10 01:46:45 2025, MaxMem=  2013265920 cpu:              11.7 elap:               0.6
 (Enter /home/user/softwares/g16/g16/l103.exe)

 GradGradGradGradGradGradGradGradGradGradGradGradGradGradGradGradGradGrad
 Berny optimization.
 Initialization pass.
                           ----------------------------
                           !    Initial Parameters    !
                           ! (Angstroms and Degrees)  !
 --------------------------                            --------------------------
 ! Name  Definition              Value          Derivative Info.                !
 --------------------------------------------------------------------------------
 ! R1    R(1,2)                  1.4123         estimate D2E/DX2                !
 ! R2    R(1,4)                  1.4379         estimate D2E/DX2                !
 ! R3    R(1,8)                  1.07           estimate D2E/DX2                !
 ! R4    R(2,3)                  1.4379         estimate D2E/DX2                !
 ! R5    R(2,9)                  1.07           estimate D2E/DX2                !
 ! R6    R(3,5)                  1.3403         estimate D2E/DX2                !
 ! R7    R(3,10)                 1.07           estimate D2E/DX2                !
 ! R8    R(4,6)                  1.3403         estimate D2E/DX2                !
 ! R9    R(4,14)                 1.54           estimate D2E/DX2                !
 ! R10   R(5,7)                  1.4912         estimate D2E/DX2                !
 ! R11   R(5,11)                 1.07           estimate D2E/DX2                !
 ! R12   R(6,7)                  1.4912         estimate D2E/DX2                !
 ! R13   R(6,12)                 1.07           estimate D2E/DX2                !
 ! R14   R(7,13)                 1.07           estimate D2E/DX2                !
 ! R15   R(14,15)                1.07           estimate D2E/DX2                !
 ! R16   R(14,16)                1.07           estimate D2E/DX2                !
 ! R17   R(14,17)                1.07           estimate D2E/DX2                !
 ! A1    A(2,1,4)              129.7142         estimate D2E/DX2                !
 ! A2    A(2,1,8)              115.1096         estimate D2E/DX2                !
 ! A3    A(4,1,8)              115.1561         estimate D2E/DX2                !
 ! A4    A(1,2,3)              129.7144         estimate D2E/DX2                !
 ! A5    A(1,2,9)              115.1096         estimate D2E/DX2                !
 ! A6    A(3,2,9)              115.156          estimate D2E/DX2                !
 ! A7    A(2,3,5)              123.4331         estimate D2E/DX2                !
 ! A8    A(2,3,10)             118.2795         estimate D2E/DX2                !
 ! A9    A(5,3,10)             118.2873         estimate D2E/DX2                !
 ! A10   A(1,4,6)              123.4332         estimate D2E/DX2                !
 ! A11   A(1,4,14)             118.2797         estimate D2E/DX2                !
 ! A12   A(6,4,14)             118.287          estimate D2E/DX2                !
 ! A13   A(3,5,7)              115.3977         estimate D2E/DX2                !
 ! A14   A(3,5,11)             122.3177         estimate D2E/DX2                !
 ! A15   A(7,5,11)             122.2823         estimate D2E/DX2                !
 ! A16   A(4,6,7)              115.398          estimate D2E/DX2                !
 ! A17   A(4,6,12)             122.3175         estimate D2E/DX2                !
 ! A18   A(7,6,12)             122.2822         estimate D2E/DX2                !
 ! A19   A(5,7,6)              117.4983         estimate D2E/DX2                !
 ! A20   A(5,7,13)             121.2288         estimate D2E/DX2                !
 ! A21   A(6,7,13)             121.2288         estimate D2E/DX2                !
 ! A22   A(4,14,15)            109.4712         estimate D2E/DX2                !
 ! A23   A(4,14,16)            109.4712         estimate D2E/DX2                !
 ! A24   A(4,14,17)            109.4712         estimate D2E/DX2                !
 ! A25   A(15,14,16)           109.4712         estimate D2E/DX2                !
 ! A26   A(15,14,17)           109.4712         estimate D2E/DX2                !
 ! A27   A(16,14,17)           109.4712         estimate D2E/DX2                !
 ! D1    D(4,1,2,3)              0.0012         estimate D2E/DX2                !
 ! D2    D(4,1,2,9)           -178.2709         estimate D2E/DX2                !
 ! D3    D(8,1,2,3)            178.2731         estimate D2E/DX2                !
 ! D4    D(8,1,2,9)              0.001          estimate D2E/DX2                !
 ! D5    D(2,1,4,6)            -17.2082         estimate D2E/DX2                !
 ! D6    D(2,1,4,14)           162.6762         estimate D2E/DX2                !
 ! D7    D(8,1,4,6)            164.5205         estimate D2E/DX2                !
 ! D8    D(8,1,4,14)           -15.595          estimate D2E/DX2                !
 ! D9    D(1,2,3,5)             17.2051         estimate D2E/DX2                !
 ! D10   D(1,2,3,10)          -162.6716         estimate D2E/DX2                !
 ! D11   D(9,2,3,5)           -164.5235         estimate D2E/DX2                !
 ! D12   D(9,2,3,10)            15.5998         estimate D2E/DX2                !
 ! D13   D(2,3,5,7)             17.9437         estimate D2E/DX2                !
 ! D14   D(2,3,5,11)          -162.5965         estimate D2E/DX2                !
 ! D15   D(10,3,5,7)          -162.1796         estimate D2E/DX2                !
 ! D16   D(10,3,5,11)           17.2802         estimate D2E/DX2                !
 ! D17   D(1,4,6,7)            -17.9404         estimate D2E/DX2                !
 ! D18   D(1,4,6,12)           162.5996         estimate D2E/DX2                !
 ! D19   D(14,4,6,7)           162.1751         estimate D2E/DX2                !
 ! D20   D(14,4,6,12)          -17.2849         estimate D2E/DX2                !
 ! D21   D(1,4,14,15)          -29.9453         estimate D2E/DX2                !
 ! D22   D(1,4,14,16)           90.0547         estimate D2E/DX2                !
 ! D23   D(1,4,14,17)         -149.9453         estimate D2E/DX2                !
 ! D24   D(6,4,14,15)          149.9453         estimate D2E/DX2                !
 ! D25   D(6,4,14,16)          -90.0547         estimate D2E/DX2                !
 ! D26   D(6,4,14,17)           29.9453         estimate D2E/DX2                !
 ! D27   D(3,5,7,6)            -76.9922         estimate D2E/DX2                !
 ! D28   D(3,5,7,13)           100.6221         estimate D2E/DX2                !
 ! D29   D(11,5,7,6)           103.5477         estimate D2E/DX2                !
 ! D30   D(11,5,7,13)          -78.838          estimate D2E/DX2                !
 ! D31   D(4,6,7,5)             76.9905         estimate D2E/DX2                !
 ! D32   D(4,6,7,13)          -100.6238         estimate D2E/DX2                !
 ! D33   D(12,6,7,5)          -103.5493         estimate D2E/DX2                !
 ! D34   D(12,6,7,13)           78.8364         estimate D2E/DX2                !
 --------------------------------------------------------------------------------
 Trust Radius=3.00D-01 FncErr=1.00D-07 GrdErr=1.00D-07 EigMax=2.50D+02 EigMin=1.00D-04
 Number of steps in this run=     88 maximum allowed number of steps=    102.
 GradGradGradGradGradGradGradGradGradGradGradGradGradGradGradGradGradGrad

 Leave Link  103 at Tue Jun 10 01:46:45 2025, MaxMem=  2013265920 cpu:               0.4 elap:               0.0
 (Enter /home/user/softwares/g16/g16/l202.exe)
                          Input orientation:                          
 ---------------------------------------------------------------------
 Center     Atomic      Atomic             Coordinates (Angstroms)
 Number     Number       Type             X           Y           Z
 ---------------------------------------------------------------------
      1          6           0       -1.015959    1.125480   -0.230020
      2          6           0        0.394822    1.125830   -0.164874
      3          6           0        1.303072    2.213801    0.077790
      4          6           0       -1.943241    2.213002   -0.072137
      5          6           0        0.927627    3.383764    0.613146
      6          6           0       -1.619324    3.383128    0.495545
      7          6           0       -0.381522    3.369684    1.327012
      8          1           0       -1.459874    0.178265   -0.455011
      9          1           0        0.858052    0.178843   -0.347993
     10          1           0        2.332163    2.083187   -0.184532
     11          1           0        1.529860    4.265262    0.541197
     12          1           0       -2.212816    4.264322    0.368407
     13          1           0       -0.430791    3.312581    2.394351
     14          6           0       -3.383204    2.024251   -0.584465
     15          1           0       -3.380112    1.353540   -1.418154
     16          1           0       -3.989744    1.618048    0.197845
     17          1           0       -3.780250    2.970021   -0.889054
 ---------------------------------------------------------------------
                    Distance matrix (angstroms):
                    1          2          3          4          5
     1  C    0.000000
     2  C    1.412284   0.000000
     3  C    2.580134   1.437875   0.000000
     4  C    1.437874   2.580132   3.249773   0.000000
     5  C    3.096498   2.446929   1.340291   3.175244   0.000000
     6  C    2.446930   3.096503   3.175255   1.340291   2.549664
     7  C    2.804159   2.804160   2.394677   2.394681   1.491199
     8  H    1.070000   2.102846   3.472918   2.126121   4.137191
     9  H    2.102845   1.070000   2.126121   3.472916   3.346663
    10  H    3.482698   2.161066   1.070000   4.278850   2.073768
    11  H    4.115118   3.412166   2.115342   4.080488   1.070000
    12  H    3.412171   4.115130   4.080510   2.115340   3.270728
    13  H    3.466000   3.465999   3.095166   3.095181   2.241217
    14  C    2.556809   3.905982   4.736633   1.540000   4.676089
    15  H    2.655728   3.984054   4.991003   2.148263   5.177316
    16  H    3.044518   4.426992   5.327592   2.148263   5.241255
    17  H    3.387914   4.621331   5.229419   2.148263   4.959021
                    6          7          8          9         10
     6  C    0.000000
     7  C    1.491198   0.000000
     8  H    3.346659   3.810985   0.000000
     9  H    4.137196   3.810991   2.320396   0.000000
    10  H    4.215044   3.362131   4.252227   2.413763   0.000000
    11  H    3.270719   2.252320   5.160861   4.235659   2.435533
    12  H    1.070000   2.252318   4.235658   5.160872   5.071481
    13  H    2.241217   1.070000   4.359108   4.359115   3.974413
    14  C    2.474720   3.804475   2.669011   4.631383   5.729645
    15  H    3.298764   4.537875   2.448719   4.526278   5.889337
    16  H    2.970357   4.166834   2.983192   5.086293   6.350517
    17  H    2.599495   4.077013   3.656014   5.440337   6.216463
                   11         12         13         14         15
    11  H    0.000000
    12  H    3.746663   0.000000
    13  H    2.861107   2.861097   0.000000
    14  C    5.516107   2.701053   4.387469   0.000000
    15  H    6.035313   3.609298   5.203031   1.070000   0.000000
    16  H    6.131203   3.192072   4.512452   1.070000   1.747303
    17  H    5.649826   2.390246   4.702869   1.070000   1.747303
                   16         17
    16  H    0.000000
    17  H    1.747303   0.000000
 Stoichiometry    C8H9(1+)
 Framework group  C1[X(C8H9)]
 Deg. of freedom    45
 Full point group                 C1      NOp   1
 Largest Abelian subgroup         C1      NOp   1
 Largest concise Abelian subgroup C1      NOp   1
                         Standard orientation:                         
 ---------------------------------------------------------------------
 Center     Atomic      Atomic             Coordinates (Angstroms)
 Number     Number       Type             X           Y           Z
 ---------------------------------------------------------------------
      1          6           0        0.445631    1.192695    0.226962
      2          6           0       -0.940504    1.439099    0.115334
      3          6           0       -2.004016    0.549595   -0.265728
      4          6           0        1.185589   -0.017396   -0.008887
      5          6           0       -1.884292   -0.785330   -0.270203
      6          6           0        0.618163   -1.230176   -0.068667
      7          6           0       -0.745980   -1.328051    0.525645
      8          1           0        1.036539    2.040303    0.504970
      9          1           0       -1.240892    2.445152    0.321549
     10          1           0       -2.939329    0.975812   -0.563098
     11          1           0       -2.563953   -1.418843   -0.800884
     12          1           0        1.113334   -2.072537   -0.504708
     13          1           0       -0.897334   -1.736755    1.502862
     14          6           0        2.709476    0.085836   -0.205636
     15          1           0        2.949180    1.031845   -0.644395
     16          1           0        3.198224   -0.001825    0.742172
     17          1           0        3.039829   -0.700784   -0.851388
 ---------------------------------------------------------------------
 Rotational constants (GHZ):           3.9965692           1.8033139           1.3201329
 Leave Link  202 at Tue Jun 10 01:46:45 2025, MaxMem=  2013265920 cpu:               0.1 elap:               0.0
 (Enter /home/user/softwares/g16/g16/l301.exe)
 Standard basis: 3-21G (6D, 7F)
 Ernie: Thresh=  0.10000D-02 Tol=  0.10000D-05 Strict=F.
 AO basis set in the form of general basis input (Overlap normalization):
      1 0
 S   3 1.00       0.000000000000
      0.1722560000D+03  0.6176690738D-01
      0.2591090000D+02  0.3587940429D+00
      0.5533350000D+01  0.7007130837D+00
 SP   2 1.00       0.000000000000
      0.3664980000D+01 -0.3958951621D+00  0.2364599466D+00
      0.7705450000D+00  0.1215834356D+01  0.8606188057D+00
 SP   1 1.00       0.000000000000
      0.1958570000D+00  0.1000000000D+01  0.1000000000D+01
 ****
      2 0
 S   3 1.00       0.000000000000
      0.1722560000D+03  0.6176690738D-01
      0.2591090000D+02  0.3587940429D+00
      0.5533350000D+01  0.7007130837D+00
 SP   2 1.00       0.000000000000
      0.3664980000D+01 -0.3958951621D+00  0.2364599466D+00
      0.7705450000D+00  0.1215834356D+01  0.8606188057D+00
 SP   1 1.00       0.000000000000
      0.1958570000D+00  0.1000000000D+01  0.1000000000D+01
 ****
      3 0
 S   3 1.00       0.000000000000
      0.1722560000D+03  0.6176690738D-01
      0.2591090000D+02  0.3587940429D+00
      0.5533350000D+01  0.7007130837D+00
 SP   2 1.00       0.000000000000
      0.3664980000D+01 -0.3958951621D+00  0.2364599466D+00
      0.7705450000D+00  0.1215834356D+01  0.8606188057D+00
 SP   1 1.00       0.000000000000
      0.1958570000D+00  0.1000000000D+01  0.1000000000D+01
 ****
      4 0
 S   3 1.00       0.000000000000
      0.1722560000D+03  0.6176690738D-01
      0.2591090000D+02  0.3587940429D+00
      0.5533350000D+01  0.7007130837D+00
 SP   2 1.00       0.000000000000
      0.3664980000D+01 -0.3958951621D+00  0.2364599466D+00
      0.7705450000D+00  0.1215834356D+01  0.8606188057D+00
 SP   1 1.00       0.000000000000
      0.1958570000D+00  0.1000000000D+01  0.1000000000D+01
 ****
      5 0
 S   3 1.00       0.000000000000
      0.1722560000D+03  0.6176690738D-01
      0.2591090000D+02  0.3587940429D+00
      0.5533350000D+01  0.7007130837D+00
 SP   2 1.00       0.000000000000
      0.3664980000D+01 -0.3958951621D+00  0.2364599466D+00
      0.7705450000D+00  0.1215834356D+01  0.8606188057D+00
 SP   1 1.00       0.000000000000
      0.1958570000D+00  0.1000000000D+01  0.1000000000D+01
 ****
      6 0
 S   3 1.00       0.000000000000
      0.1722560000D+03  0.6176690738D-01
      0.2591090000D+02  0.3587940429D+00
      0.5533350000D+01  0.7007130837D+00
 SP   2 1.00       0.000000000000
      0.3664980000D+01 -0.3958951621D+00  0.2364599466D+00
      0.7705450000D+00  0.1215834356D+01  0.8606188057D+00
 SP   1 1.00       0.000000000000
      0.1958570000D+00  0.1000000000D+01  0.1000000000D+01
 ****
      7 0
 S   3 1.00       0.000000000000
      0.1722560000D+03  0.6176690738D-01
      0.2591090000D+02  0.3587940429D+00
      0.5533350000D+01  0.7007130837D+00
 SP   2 1.00       0.000000000000
      0.3664980000D+01 -0.3958951621D+00  0.2364599466D+00
      0.7705450000D+00  0.1215834356D+01  0.8606188057D+00
 SP   1 1.00       0.000000000000
      0.1958570000D+00  0.1000000000D+01  0.1000000000D+01
 ****
      8 0
 S   2 1.00       0.000000000000
      0.5447178000D+01  0.1562849787D+00
      0.8245472400D+00  0.9046908767D+00
 S   1 1.00       0.000000000000
      0.1831915800D+00  0.1000000000D+01
 ****
      9 0
 S   2 1.00       0.000000000000
      0.5447178000D+01  0.1562849787D+00
      0.8245472400D+00  0.9046908767D+00
 S   1 1.00       0.000000000000
      0.1831915800D+00  0.1000000000D+01
 ****
     10 0
 S   2 1.00       0.000000000000
      0.5447178000D+01  0.1562849787D+00
      0.8245472400D+00  0.9046908767D+00
 S   1 1.00       0.000000000000
      0.1831915800D+00  0.1000000000D+01
 ****
     11 0
 S   2 1.00       0.000000000000
      0.5447178000D+01  0.1562849787D+00
      0.8245472400D+00  0.9046908767D+00
 S   1 1.00       0.000000000000
      0.1831915800D+00  0.1000000000D+01
 ****
     12 0
 S   2 1.00       0.000000000000
      0.5447178000D+01  0.1562849787D+00
      0.8245472400D+00  0.9046908767D+00
 S   1 1.00       0.000000000000
      0.1831915800D+00  0.1000000000D+01
 ****
     13 0
 S   2 1.00       0.000000000000
      0.5447178000D+01  0.1562849787D+00
      0.8245472400D+00  0.9046908767D+00
 S   1 1.00       0.000000000000
      0.1831915800D+00  0.1000000000D+01
 ****
     14 0
 S   3 1.00       0.000000000000
      0.1722560000D+03  0.6176690738D-01
      0.2591090000D+02  0.3587940429D+00
      0.5533350000D+01  0.7007130837D+00
 SP   2 1.00       0.000000000000
      0.3664980000D+01 -0.3958951621D+00  0.2364599466D+00
      0.7705450000D+00  0.1215834356D+01  0.8606188057D+00
 SP   1 1.00       0.000000000000
      0.1958570000D+00  0.1000000000D+01  0.1000000000D+01
 ****
     15 0
 S   2 1.00       0.000000000000
      0.5447178000D+01  0.1562849787D+00
      0.8245472400D+00  0.9046908767D+00
 S   1 1.00       0.000000000000
      0.1831915800D+00  0.1000000000D+01
 ****
     16 0
 S   2 1.00       0.000000000000
      0.5447178000D+01  0.1562849787D+00
      0.8245472400D+00  0.9046908767D+00
 S   1 1.00       0.000000000000
      0.1831915800D+00  0.1000000000D+01
 ****
     17 0
 S   2 1.00       0.000000000000
      0.5447178000D+01  0.1562849787D+00
      0.8245472400D+00  0.9046908767D+00
 S   1 1.00       0.000000000000
      0.1831915800D+00  0.1000000000D+01
 ****

 AO basis set (Overlap normalization):
 Atom C1       Shell     1 S   3     bf    1 -     1          0.842120958022          2.253866569908          0.428895301391
      0.1722560000D+03  0.6176690738D-01
      0.2591090000D+02  0.3587940429D+00
      0.5533350000D+01  0.7007130837D+00
 Atom C1       Shell     2 SP   2    bf    2 -     5          0.842120958022          2.253866569908          0.428895301391
      0.3664980000D+01 -0.3958951621D+00  0.2364599466D+00
      0.7705450000D+00  0.1215834356D+01  0.8606188057D+00
 Atom C1       Shell     3 SP   1    bf    6 -     9          0.842120958022          2.253866569908          0.428895301391
      0.1958570000D+00  0.1000000000D+01  0.1000000000D+01
 Atom C2       Shell     4 S   3     bf   10 -    10         -1.777295056021          2.719503597115          0.217949861672
      0.1722560000D+03  0.6176690738D-01
      0.2591090000D+02  0.3587940429D+00
      0.5533350000D+01  0.7007130837D+00
 Atom C2       Shell     5 SP   2    bf   11 -    14         -1.777295056021          2.719503597115          0.217949861672
      0.3664980000D+01 -0.3958951621D+00  0.2364599466D+00
      0.7705450000D+00  0.1215834356D+01  0.8606188057D+00
 Atom C2       Shell     6 SP   1    bf   15 -    18         -1.777295056021          2.719503597115          0.217949861672
      0.1958570000D+00  0.1000000000D+01  0.1000000000D+01
 Atom C3       Shell     7 S   3     bf   19 -    19         -3.787041686499          1.038584298332         -0.502152992965
      0.1722560000D+03  0.6176690738D-01
      0.2591090000D+02  0.3587940429D+00
      0.5533350000D+01  0.7007130837D+00
 Atom C3       Shell     8 SP   2    bf   20 -    23         -3.787041686499          1.038584298332         -0.502152992965
      0.3664980000D+01 -0.3958951621D+00  0.2364599466D+00
      0.7705450000D+00  0.1215834356D+01  0.8606188057D+00
 Atom C3       Shell     9 SP   1    bf   24 -    27         -3.787041686499          1.038584298332         -0.502152992965
      0.1958570000D+00  0.1000000000D+01  0.1000000000D+01
 Atom C4       Shell    10 S   3     bf   28 -    28          2.240438316289         -0.032874496216         -0.016793267207
      0.1722560000D+03  0.6176690738D-01
      0.2591090000D+02  0.3587940429D+00
      0.5533350000D+01  0.7007130837D+00
 Atom C4       Shell    11 SP   2    bf   29 -    32          2.240438316289         -0.032874496216         -0.016793267207
      0.3664980000D+01 -0.3958951621D+00  0.2364599466D+00
      0.7705450000D+00  0.1215834356D+01  0.8606188057D+00
 Atom C4       Shell    12 SP   1    bf   33 -    36          2.240438316289         -0.032874496216         -0.016793267207
      0.1958570000D+00  0.1000000000D+01  0.1000000000D+01
 Atom C5       Shell    13 S   3     bf   37 -    37         -3.560795865313         -1.484058913846         -0.510609777833
      0.1722560000D+03  0.6176690738D-01
      0.2591090000D+02  0.3587940429D+00
      0.5533350000D+01  0.7007130837D+00
 Atom C5       Shell    14 SP   2    bf   38 -    41         -3.560795865313         -1.484058913846         -0.510609777833
      0.3664980000D+01 -0.3958951621D+00  0.2364599466D+00
      0.7705450000D+00  0.1215834356D+01  0.8606188057D+00
 Atom C5       Shell    15 SP   1    bf   42 -    45         -3.560795865313         -1.484058913846         -0.510609777833
      0.1958570000D+00  0.1000000000D+01  0.1000000000D+01
 Atom C6       Shell    16 S   3     bf   46 -    46          1.168158755793         -2.324695357910         -0.129760913139
      0.1722560000D+03  0.6176690738D-01
      0.2591090000D+02  0.3587940429D+00
      0.5533350000D+01  0.7007130837D+00
 Atom C6       Shell    17 SP   2    bf   47 -    50          1.168158755793         -2.324695357910         -0.129760913139
      0.3664980000D+01 -0.3958951621D+00  0.2364599466D+00
      0.7705450000D+00  0.1215834356D+01  0.8606188057D+00
 Atom C6       Shell    18 SP   1    bf   51 -    54          1.168158755793         -2.324695357910         -0.129760913139
      0.1958570000D+00  0.1000000000D+01  0.1000000000D+01
 Atom C7       Shell    19 S   3     bf   55 -    55         -1.409698365947         -2.509652666484          0.993324505756
      0.1722560000D+03  0.6176690738D-01
      0.2591090000D+02  0.3587940429D+00
      0.5533350000D+01  0.7007130837D+00
 Atom C7       Shell    20 SP   2    bf   56 -    59         -1.409698365947         -2.509652666484          0.993324505756
      0.3664980000D+01 -0.3958951621D+00  0.2364599466D+00
      0.7705450000D+00  0.1215834356D+01  0.8606188057D+00
 Atom C7       Shell    21 SP   1    bf   60 -    63         -1.409698365947         -2.509652666484          0.993324505756
      0.1958570000D+00  0.1000000000D+01  0.1000000000D+01
 Atom H8       Shell    22 S   2     bf   64 -    64          1.958774295068          3.855613669147          0.954255788066
      0.5447178000D+01  0.1562849787D+00
      0.8245472400D+00  0.9046908767D+00
 Atom H8       Shell    23 S   1     bf   65 -    65          1.958774295068          3.855613669147          0.954255788066
      0.1831915800D+00  0.1000000000D+01
 Atom H9       Shell    24 S   2     bf   66 -    66         -2.344945687770          4.620668259719          0.607639225847
      0.5447178000D+01  0.1562849787D+00
      0.8245472400D+00  0.9046908767D+00
 Atom H9       Shell    25 S   1     bf   67 -    67         -2.344945687770          4.620668259719          0.607639225847
      0.1831915800D+00  0.1000000000D+01
 Atom H10      Shell    26 S   2     bf   68 -    68         -5.554526746115          1.844017198637         -1.064101855784
      0.5447178000D+01  0.1562849787D+00
      0.8245472400D+00  0.9046908767D+00
 Atom H10      Shell    27 S   1     bf   69 -    69         -5.554526746115          1.844017198637         -1.064101855784
      0.1831915800D+00  0.1000000000D+01
 Atom H11      Shell    28 S   2     bf   70 -    70         -4.845169802270         -2.681224584263         -1.513450789568
      0.5447178000D+01  0.1562849787D+00
      0.8245472400D+00  0.9046908767D+00
 Atom H11      Shell    29 S   1     bf   71 -    71         -4.845169802270         -2.681224584263         -1.513450789568
      0.1831915800D+00  0.1000000000D+01
 Atom H12      Shell    30 S   2     bf   72 -    72          2.103897179572         -3.916527624805         -0.953760745251
      0.5447178000D+01  0.1562849787D+00
      0.8245472400D+00  0.9046908767D+00
 Atom H12      Shell    31 S   1     bf   73 -    73          2.103897179572         -3.916527624805         -0.953760745251
      0.1831915800D+00  0.1000000000D+01
 Atom H13      Shell    32 S   2     bf   74 -    74         -1.695714992919         -3.281992004128          2.839996806046
      0.5447178000D+01  0.1562849787D+00
      0.8245472400D+00  0.9046908767D+00
 Atom H13      Shell    33 S   1     bf   75 -    75         -1.695714992919         -3.281992004128          2.839996806046
      0.1831915800D+00  0.1000000000D+01
 Atom C14      Shell    34 S   3     bf   76 -    76          5.120168028894          0.162207028322         -0.388596028707
      0.1722560000D+03  0.6176690738D-01
      0.2591090000D+02  0.3587940429D+00
      0.5533350000D+01  0.7007130837D+00
 Atom C14      Shell    35 SP   2    bf   77 -    80          5.120168028894          0.162207028322         -0.388596028707
      0.3664980000D+01 -0.3958951621D+00  0.2364599466D+00
      0.7705450000D+00  0.1215834356D+01  0.8606188057D+00
 Atom C14      Shell    36 SP   1    bf   81 -    84          5.120168028894          0.162207028322         -0.388596028707
      0.1958570000D+00  0.1000000000D+01  0.1000000000D+01
 Atom H15      Shell    37 S   2     bf   85 -    85          5.573143018290          1.949904244799         -1.217730764364
      0.5447178000D+01  0.1562849787D+00
      0.8245472400D+00  0.9046908767D+00
 Atom H15      Shell    38 S   1     bf   86 -    86          5.573143018290          1.949904244799         -1.217730764364
      0.1831915800D+00  0.1000000000D+01
 Atom H16      Shell    39 S   2     bf   87 -    87          6.043768128068         -0.003449300180          1.402502237436
      0.5447178000D+01  0.1562849787D+00
      0.8245472400D+00  0.9046908767D+00
 Atom H16      Shell    40 S   1     bf   88 -    88          6.043768128068         -0.003449300180          1.402502237436
      0.1831915800D+00  0.1000000000D+01
 Atom H17      Shell    41 S   2     bf   89 -    89          5.744444096763         -1.324290214256         -1.608890036238
      0.5447178000D+01  0.1562849787D+00
      0.8245472400D+00  0.9046908767D+00
 Atom H17      Shell    42 S   1     bf   90 -    90          5.744444096763         -1.324290214256         -1.608890036238
      0.1831915800D+00  0.1000000000D+01
 There are    90 symmetry adapted cartesian basis functions of A   symmetry.
 There are    90 symmetry adapted basis functions of A   symmetry.
    90 basis functions,   147 primitive gaussians,    90 cartesian basis functions
    28 alpha electrons       28 beta electrons
       nuclear repulsion energy       331.6674190351 Hartrees.
 IExCor=    0 DFT=F Ex=HF Corr=None ExCW=0 ScaHFX=  1.000000
 ScaDFX=  1.000000  1.000000  1.000000  1.000000 ScalE2=  1.000000  1.000000
 IRadAn=      5 IRanWt=     -1 IRanGd=            0 ICorTp=0 IEmpDi=  4
 NAtoms=   17 NActive=   17 NUniq=   17 SFac= 1.00D+00 NAtFMM=   60 NAOKFM=F Big=F
 Integral buffers will be    131072 words long.
 Raffenetti 1 integral format.
 Two-electron integral symmetry is turned on.
 Leave Link  301 at Tue Jun 10 01:46:45 2025, MaxMem=  2013265920 cpu:               1.9 elap:               0.1
 (Enter /home/user/softwares/g16/g16/l302.exe)
 NPDir=0 NMtPBC=     1 NCelOv=     1 NCel=       1 NClECP=     1 NCelD=      1
         NCelK=      1 NCelE2=     1 NClLst=     1 CellRange=     0.0.
 One-electron integrals computed using PRISM.
 One-electron integral symmetry used in STVInt
 NBasis=    90 RedAO= T EigKep=  3.74D-03  NBF=    90
 NBsUse=    90 1.00D-06 EigRej= -1.00D+00 NBFU=    90
 Leave Link  302 at Tue Jun 10 01:46:45 2025, MaxMem=  2013265920 cpu:               3.4 elap:               0.2
 (Enter /home/user/softwares/g16/g16/l303.exe)
 DipDrv:  MaxL=1.
 Leave Link  303 at Tue Jun 10 01:46:45 2025, MaxMem=  2013265920 cpu:               0.7 elap:               0.0
 (Enter /home/user/softwares/g16/g16/l401.exe)
 ExpMin= 1.83D-01 ExpMax= 1.72D+02 ExpMxC= 1.72D+02 IAcc=3 IRadAn=         5 AccDes= 0.00D+00
 Harris functional with IExCor=  205 and IRadAn=       5 diagonalized for initial guess.
 HarFok:  IExCor=  205 AccDes= 0.00D+00 IRadAn=         5 IDoV= 1 UseB2=F ITyADJ=14
 ICtDFT=  3500011 ScaDFX=  1.000000  1.000000  1.000000  1.000000
 FoFCou: FMM=F IPFlag=           0 FMFlag=      100000 FMFlg1=           0
         NFxFlg=           0 DoJE=T BraDBF=F KetDBF=T FulRan=T
         wScrn=  0.000000 ICntrl=       500 IOpCl=  0 I1Cent=   200000004 NGrid=           0
         NMat0=    1 NMatS0=      1 NMatT0=    0 NMatD0=    1 NMtDS0=    0 NMtDT0=    0
 Petite list used in FoFCou.
 Harris En= -306.576269298668    
 JPrj=0 DoOrth=F DoCkMO=F.
 Leave Link  401 at Tue Jun 10 01:46:45 2025, MaxMem=  2013265920 cpu:               9.4 elap:               0.5
 (Enter /home/user/softwares/g16/g16/l502.exe)
 Integral symmetry usage will be decided dynamically.
 Closed shell SCF:
 Using DIIS extrapolation, IDIIS=  1040.
 NGot=  2013265920 LenX=  2013246555 LenY=  2013238014
 Requested convergence on RMS density matrix=1.00D-08 within 128 cycles.
 Requested convergence on MAX density matrix=1.00D-06.
 Requested convergence on             energy=1.00D-06.
 No special actions if energy rises.
 Fock matrices will be formed incrementally for  20 cycles.
 Integral accuracy reduced to 1.0D-05 until final iterations.

 Cycle   1  Pass 0  IDiag  1:
 FoFJK:  IHMeth= 1 ICntrl=       0 DoSepK=F KAlg= 0 I1Cent=           0 FoldK=F
 IRaf= 930000000 NMat=       1 IRICut=       1 DoRegI=T DoRafI=F ISym2E= 0 IDoP0=0 IntGTp=1.
 FoFCou: FMM=F IPFlag=           0 FMFlag=      100000 FMFlg1=           0
         NFxFlg=           0 DoJE=F BraDBF=F KetDBF=F FulRan=T
         wScrn=  0.000000 ICntrl=         0 IOpCl=  0 I1Cent=           0 NGrid=           0
         NMat0=    1 NMatS0=      1 NMatT0=    0 NMatD0=    1 NMtDS0=    0 NMtDT0=    0
 Symmetry not used in FoFCou.
 E= -305.844222316611    
 DIIS: error= 3.79D-02 at cycle   1 NSaved=   1.
 NSaved= 1 IEnMin= 1 EnMin= -305.844222316611     IErMin= 1 ErrMin= 3.79D-02
 ErrMax= 3.79D-02  0.00D+00 EMaxC= 1.00D-01 BMatC= 3.05D-01 BMatP= 3.05D-01
 IDIUse=3 WtCom= 6.21D-01 WtEn= 3.79D-01
 Coeff-Com:  0.100D+01
 Coeff-En:   0.100D+01
 Coeff:      0.100D+01
 Gap=     0.198 Goal=   None    Shift=    0.000
 GapD=    0.198 DampG=1.000 DampE=0.500 DampFc=0.5000 IDamp=-1.
 Damping current iteration by 5.00D-01
 RMSDP=7.55D-03 MaxDP=9.61D-02              OVMax= 1.33D-01

 Cycle   2  Pass 0  IDiag  1:
 RMSU=  3.74D-03    CP:  9.87D-01
 E= -305.971022904465     Delta-E=       -0.126800587854 Rises=F Damp=T
 DIIS: error= 1.75D-02 at cycle   2 NSaved=   2.
 NSaved= 2 IEnMin= 2 EnMin= -305.971022904465     IErMin= 2 ErrMin= 1.75D-02
 ErrMax= 1.75D-02  0.00D+00 EMaxC= 1.00D-01 BMatC= 5.98D-02 BMatP= 3.05D-01
 IDIUse=3 WtCom= 8.25D-01 WtEn= 1.75D-01
 Coeff-Com: -0.612D+00 0.161D+01
 Coeff-En:   0.000D+00 0.100D+01
 Coeff:     -0.505D+00 0.150D+01
 Gap=     0.320 Goal=   None    Shift=    0.000
 RMSDP=3.35D-03 MaxDP=6.05D-02 DE=-1.27D-01 OVMax= 5.08D-02

 Cycle   3  Pass 0  IDiag  1:
 RMSU=  2.52D-03    CP:  9.79D-01  1.59D+00
 E= -306.083437660109     Delta-E=       -0.112414755644 Rises=F Damp=F
 DIIS: error= 3.93D-03 at cycle   3 NSaved=   3.
 NSaved= 3 IEnMin= 3 EnMin= -306.083437660109     IErMin= 3 ErrMin= 3.93D-03
 ErrMax= 3.93D-03  0.00D+00 EMaxC= 1.00D-01 BMatC= 1.24D-03 BMatP= 5.98D-02
 IDIUse=3 WtCom= 9.61D-01 WtEn= 3.93D-02
 Coeff-Com: -0.996D-01 0.173D+00 0.927D+00
 Coeff-En:   0.000D+00 0.000D+00 0.100D+01
 Coeff:     -0.957D-01 0.166D+00 0.929D+00
 Gap=     0.299 Goal=   None    Shift=    0.000
 RMSDP=6.47D-04 MaxDP=7.79D-03 DE=-1.12D-01 OVMax= 2.46D-02

 Cycle   4  Pass 0  IDiag  1:
 RMSU=  4.82D-04    CP:  9.79D-01  1.70D+00  9.95D-01
 E= -306.085065592570     Delta-E=       -0.001627932461 Rises=F Damp=F
 DIIS: error= 2.04D-03 at cycle   4 NSaved=   4.
 NSaved= 4 IEnMin= 4 EnMin= -306.085065592570     IErMin= 4 ErrMin= 2.04D-03
 ErrMax= 2.04D-03  0.00D+00 EMaxC= 1.00D-01 BMatC= 2.35D-04 BMatP= 1.24D-03
 IDIUse=3 WtCom= 9.80D-01 WtEn= 2.04D-02
 Coeff-Com: -0.390D-02-0.143D-01 0.296D+00 0.722D+00
 Coeff-En:   0.000D+00 0.000D+00 0.000D+00 0.100D+01
 Coeff:     -0.382D-02-0.140D-01 0.290D+00 0.728D+00
 Gap=     0.303 Goal=   None    Shift=    0.000
 RMSDP=2.38D-04 MaxDP=2.91D-03 DE=-1.63D-03 OVMax= 5.31D-03

 Cycle   5  Pass 0  IDiag  1:
 RMSU=  1.57D-04    CP:  9.79D-01  1.69D+00  1.06D+00  9.11D-01
 E= -306.085365329258     Delta-E=       -0.000299736688 Rises=F Damp=F
 DIIS: error= 6.70D-04 at cycle   5 NSaved=   5.
 NSaved= 5 IEnMin= 5 EnMin= -306.085365329258     IErMin= 5 ErrMin= 6.70D-04
 ErrMax= 6.70D-04  0.00D+00 EMaxC= 1.00D-01 BMatC= 1.40D-05 BMatP= 2.35D-04
 IDIUse=3 WtCom= 9.93D-01 WtEn= 6.70D-03
 Coeff-Com:  0.846D-02-0.112D-01-0.111D+00-0.208D+00 0.132D+01
 Coeff-En:   0.000D+00 0.000D+00 0.000D+00 0.000D+00 0.100D+01
 Coeff:      0.840D-02-0.111D-01-0.110D+00-0.207D+00 0.132D+01
 Gap=     0.305 Goal=   None    Shift=    0.000
 RMSDP=1.35D-04 MaxDP=1.44D-03 DE=-3.00D-04 OVMax= 5.65D-03

 Cycle   6  Pass 0  IDiag  1:
 RMSU=  5.73D-05    CP:  9.79D-01  1.69D+00  1.09D+00  1.03D+00  1.54D+00
 E= -306.085436486504     Delta-E=       -0.000071157246 Rises=F Damp=F
 DIIS: error= 1.93D-04 at cycle   6 NSaved=   6.
 NSaved= 6 IEnMin= 6 EnMin= -306.085436486504     IErMin= 6 ErrMin= 1.93D-04
 ErrMax= 1.93D-04  0.00D+00 EMaxC= 1.00D-01 BMatC= 3.49D-06 BMatP= 1.40D-05
 IDIUse=3 WtCom= 9.98D-01 WtEn= 1.93D-03
 Coeff-Com:  0.204D-02-0.753D-03-0.476D-01-0.157D+00 0.224D+00 0.980D+00
 Coeff-En:   0.000D+00 0.000D+00 0.000D+00 0.000D+00 0.000D+00 0.100D+01
 Coeff:      0.204D-02-0.752D-03-0.475D-01-0.157D+00 0.223D+00 0.980D+00
 Gap=     0.305 Goal=   None    Shift=    0.000
 RMSDP=5.85D-05 MaxDP=5.01D-04 DE=-7.12D-05 OVMax= 1.95D-03

 Cycle   7  Pass 0  IDiag  1:
 RMSU=  2.35D-05    CP:  9.79D-01  1.69D+00  1.10D+00  1.05D+00  1.81D+00
                    CP:  1.23D+00
 E= -306.085448695972     Delta-E=       -0.000012209468 Rises=F Damp=F
 DIIS: error= 9.13D-05 at cycle   7 NSaved=   7.
 NSaved= 7 IEnMin= 7 EnMin= -306.085448695972     IErMin= 7 ErrMin= 9.13D-05
 ErrMax= 9.13D-05  0.00D+00 EMaxC= 1.00D-01 BMatC= 5.23D-07 BMatP= 3.49D-06
 IDIUse=1 WtCom= 1.00D+00 WtEn= 0.00D+00
 Coeff-Com: -0.148D-02 0.146D-02 0.305D-01 0.393D-01-0.232D+00-0.131D+00
 Coeff-Com:  0.129D+01
 Coeff:     -0.148D-02 0.146D-02 0.305D-01 0.393D-01-0.232D+00-0.131D+00
 Coeff:      0.129D+01
 Gap=     0.305 Goal=   None    Shift=    0.000
 RMSDP=2.88D-05 MaxDP=2.33D-04 DE=-1.22D-05 OVMax= 1.11D-03

 Cycle   8  Pass 0  IDiag  1:
 RMSU=  9.46D-06    CP:  9.79D-01  1.69D+00  1.10D+00  1.06D+00  1.91D+00
                    CP:  1.53D+00  1.41D+00
 E= -306.085451143841     Delta-E=       -0.000002447869 Rises=F Damp=F
 DIIS: error= 4.19D-05 at cycle   8 NSaved=   8.
 NSaved= 8 IEnMin= 8 EnMin= -306.085451143841     IErMin= 8 ErrMin= 4.19D-05
 ErrMax= 4.19D-05  0.00D+00 EMaxC= 1.00D-01 BMatC= 8.02D-08 BMatP= 5.23D-07
 IDIUse=1 WtCom= 1.00D+00 WtEn= 0.00D+00
 Coeff-Com: -0.568D-03 0.301D-03 0.151D-01 0.290D-01-0.830D-01-0.161D+00
 Coeff-Com:  0.293D+00 0.907D+00
 Coeff:     -0.568D-03 0.301D-03 0.151D-01 0.290D-01-0.830D-01-0.161D+00
 Coeff:      0.293D+00 0.907D+00
 Gap=     0.305 Goal=   None    Shift=    0.000
 RMSDP=8.69D-06 MaxDP=8.46D-05 DE=-2.45D-06 OVMax= 2.66D-04

 Initial convergence to 1.0D-05 achieved.  Increase integral accuracy.
 Cycle   9  Pass 1  IDiag  1:
 E= -306.085450525834     Delta-E=        0.000000618008 Rises=F Damp=F
 DIIS: error= 3.00D-05 at cycle   1 NSaved=   1.
 NSaved= 1 IEnMin= 1 EnMin= -306.085450525834     IErMin= 1 ErrMin= 3.00D-05
 ErrMax= 3.00D-05  0.00D+00 EMaxC= 1.00D-01 BMatC= 1.42D-08 BMatP= 1.42D-08
 IDIUse=1 WtCom= 1.00D+00 WtEn= 0.00D+00
 Coeff-Com:  0.100D+01
 Coeff:      0.100D+01
 Gap=     0.305 Goal=   None    Shift=    0.000
 RMSDP=8.69D-06 MaxDP=8.46D-05 DE= 6.18D-07 OVMax= 1.42D-04

 Cycle  10  Pass 1  IDiag  1:
 RMSU=  3.20D-06    CP:  1.00D+00
 E= -306.085450588601     Delta-E=       -0.000000062767 Rises=F Damp=F
 DIIS: error= 2.31D-05 at cycle   2 NSaved=   2.
 NSaved= 2 IEnMin= 2 EnMin= -306.085450588601     IErMin= 2 ErrMin= 2.31D-05
 ErrMax= 2.31D-05  0.00D+00 EMaxC= 1.00D-01 BMatC= 6.26D-09 BMatP= 1.42D-08
 IDIUse=1 WtCom= 1.00D+00 WtEn= 0.00D+00
 Coeff-Com:  0.843D-01 0.916D+00
 Coeff:      0.843D-01 0.916D+00
 Gap=     0.305 Goal=   None    Shift=    0.000
 RMSDP=2.04D-06 MaxDP=2.51D-05 DE=-6.28D-08 OVMax= 1.13D-04

 Cycle  11  Pass 1  IDiag  1:
 RMSU=  1.41D-06    CP:  1.00D+00  1.46D+00
 E= -306.085450619291     Delta-E=       -0.000000030691 Rises=F Damp=F
 DIIS: error= 1.87D-05 at cycle   3 NSaved=   3.
 NSaved= 3 IEnMin= 3 EnMin= -306.085450619291     IErMin= 3 ErrMin= 1.87D-05
 ErrMax= 1.87D-05  0.00D+00 EMaxC= 1.00D-01 BMatC= 3.13D-09 BMatP= 6.26D-09
 IDIUse=1 WtCom= 1.00D+00 WtEn= 0.00D+00
 Coeff-Com: -0.580D+00-0.178D-01 0.160D+01
 Coeff:     -0.580D+00-0.178D-01 0.160D+01
 Gap=     0.305 Goal=   None    Shift=    0.000
 RMSDP=3.73D-06 MaxDP=4.84D-05 DE=-3.07D-08 OVMax= 2.21D-04

 Cycle  12  Pass 1  IDiag  1:
 RMSU=  8.79D-07    CP:  1.00D+00  2.51D+00  1.97D+00
 E= -306.085450656034     Delta-E=       -0.000000036743 Rises=F Damp=F
 DIIS: error= 9.43D-06 at cycle   4 NSaved=   4.
 NSaved= 4 IEnMin= 4 EnMin= -306.085450656034     IErMin= 4 ErrMin= 9.43D-06
 ErrMax= 9.43D-06  0.00D+00 EMaxC= 1.00D-01 BMatC= 5.77D-10 BMatP= 3.13D-09
 IDIUse=1 WtCom= 1.00D+00 WtEn= 0.00D+00
 Coeff-Com:  0.152D+00-0.233D+00-0.449D+00 0.153D+01
 Coeff:      0.152D+00-0.233D+00-0.449D+00 0.153D+01
 Gap=     0.305 Goal=   None    Shift=    0.000
 RMSDP=2.16D-06 MaxDP=2.89D-05 DE=-3.67D-08 OVMax= 1.44D-04

 Cycle  13  Pass 1  IDiag  1:
 RMSU=  4.00D-07    CP:  1.00D+00  3.00D+00  2.72D+00  1.79D+00
 E= -306.085450666070     Delta-E=       -0.000000010036 Rises=F Damp=F
 DIIS: error= 4.12D-06 at cycle   5 NSaved=   5.
 NSaved= 5 IEnMin= 5 EnMin= -306.085450666070     IErMin= 5 ErrMin= 4.12D-06
 ErrMax= 4.12D-06  0.00D+00 EMaxC= 1.00D-01 BMatC= 1.65D-10 BMatP= 5.77D-10
 IDIUse=1 WtCom= 1.00D+00 WtEn= 0.00D+00
 Coeff-Com:  0.107D+00 0.133D-01-0.284D+00-0.199D+00 0.136D+01
 Coeff:      0.107D+00 0.133D-01-0.284D+00-0.199D+00 0.136D+01
 Gap=     0.305 Goal=   None    Shift=    0.000
 RMSDP=1.09D-06 MaxDP=1.45D-05 DE=-1.00D-08 OVMax= 7.79D-05

 Cycle  14  Pass 1  IDiag  1:
 RMSU=  6.55D-07    CP:  1.00D+00  3.00D+00  3.00D+00  2.30D+00  2.42D+00
 E= -306.085450668563     Delta-E=       -0.000000002493 Rises=F Damp=F
 DIIS: error= 1.60D-06 at cycle   6 NSaved=   6.
 NSaved= 6 IEnMin= 6 EnMin= -306.085450668563     IErMin= 6 ErrMin= 1.60D-06
 ErrMax= 1.60D-06  0.00D+00 EMaxC= 1.00D-01 BMatC= 4.22D-11 BMatP= 1.65D-10
 IDIUse=1 WtCom= 1.00D+00 WtEn= 0.00D+00
 Coeff-Com: -0.363D-01 0.836D-01 0.123D+00-0.624D+00 0.202D+00 0.125D+01
 Coeff:     -0.363D-01 0.836D-01 0.123D+00-0.624D+00 0.202D+00 0.125D+01
 Gap=     0.305 Goal=   None    Shift=    0.000
 RMSDP=6.98D-07 MaxDP=8.80D-06 DE=-2.49D-09 OVMax= 5.03D-05

 Cycle  15  Pass 1  IDiag  1:
 RMSU=  3.32D-07    CP:  1.00D+00  3.00D+00  3.00D+00  2.62D+00  3.00D+00
                    CP:  1.59D+00
 E= -306.085450669206     Delta-E=       -0.000000000643 Rises=F Damp=F
 DIIS: error= 3.56D-07 at cycle   7 NSaved=   7.
 NSaved= 7 IEnMin= 7 EnMin= -306.085450669206     IErMin= 7 ErrMin= 3.56D-07
 ErrMax= 3.56D-07  0.00D+00 EMaxC= 1.00D-01 BMatC= 6.21D-12 BMatP= 4.22D-11
 IDIUse=1 WtCom= 1.00D+00 WtEn= 0.00D+00
 Coeff-Com: -0.697D-02-0.249D-01 0.203D-01 0.187D+00-0.293D+00-0.190D+00
 Coeff-Com:  0.131D+01
 Coeff:     -0.697D-02-0.249D-01 0.203D-01 0.187D+00-0.293D+00-0.190D+00
 Coeff:      0.131D+01
 Gap=     0.305 Goal=   None    Shift=    0.000
 RMSDP=1.27D-07 MaxDP=1.36D-06 DE=-6.43D-10 OVMax= 8.11D-06

 Cycle  16  Pass 1  IDiag  1:
 RMSU=  8.42D-08    CP:  1.00D+00  3.00D+00  3.00D+00  2.67D+00  3.00D+00
                    CP:  1.66D+00  1.22D+00
 E= -306.085450669252     Delta-E=       -0.000000000046 Rises=F Damp=F
 DIIS: error= 2.01D-07 at cycle   8 NSaved=   8.
 NSaved= 8 IEnMin= 8 EnMin= -306.085450669252     IErMin= 8 ErrMin= 2.01D-07
 ErrMax= 2.01D-07  0.00D+00 EMaxC= 1.00D-01 BMatC= 1.23D-12 BMatP= 6.21D-12
 IDIUse=1 WtCom= 1.00D+00 WtEn= 0.00D+00
 Coeff-Com:  0.741D-02-0.266D-01-0.264D-01 0.181D+00-0.113D+00-0.300D+00
 Coeff-Com:  0.188D+00 0.109D+01
 Coeff:      0.741D-02-0.266D-01-0.264D-01 0.181D+00-0.113D+00-0.300D+00
 Coeff:      0.188D+00 0.109D+01
 Gap=     0.305 Goal=   None    Shift=    0.000
 RMSDP=7.37D-08 MaxDP=8.50D-07 DE=-4.59D-11 OVMax= 4.62D-06

 Cycle  17  Pass 1  IDiag  1:
 RMSU=  1.89D-08    CP:  1.00D+00  3.00D+00  3.00D+00  2.70D+00  3.00D+00
                    CP:  1.72D+00  1.35D+00  1.41D+00
 E= -306.085450669260     Delta-E=       -0.000000000008 Rises=F Damp=F
 DIIS: error= 1.19D-07 at cycle   9 NSaved=   9.
 NSaved= 9 IEnMin= 9 EnMin= -306.085450669260     IErMin= 9 ErrMin= 1.19D-07
 ErrMax= 1.19D-07  0.00D+00 EMaxC= 1.00D-01 BMatC= 1.85D-13 BMatP= 1.23D-12
 IDIUse=1 WtCom= 1.00D+00 WtEn= 0.00D+00
 Coeff-Com: -0.212D-03 0.662D-02 0.217D-02-0.485D-01 0.500D-01 0.778D-01
 Coeff-Com: -0.206D+00-0.128D+00 0.125D+01
 Coeff:     -0.212D-03 0.662D-02 0.217D-02-0.485D-01 0.500D-01 0.778D-01
 Coeff:     -0.206D+00-0.128D+00 0.125D+01
 Gap=     0.305 Goal=   None    Shift=    0.000
 RMSDP=1.89D-08 MaxDP=1.92D-07 DE=-7.84D-12 OVMax= 1.16D-06

 Cycle  18  Pass 1  IDiag  1:
 RMSU=  1.04D-08    CP:  1.00D+00  3.00D+00  3.00D+00  2.70D+00  3.00D+00
                    CP:  1.71D+00  1.35D+00  1.56D+00  1.46D+00
 E= -306.085450669263     Delta-E=       -0.000000000003 Rises=F Damp=F
 DIIS: error= 7.02D-08 at cycle  10 NSaved=  10.
 NSaved=10 IEnMin=10 EnMin= -306.085450669263     IErMin=10 ErrMin= 7.02D-08
 ErrMax= 7.02D-08  0.00D+00 EMaxC= 1.00D-01 BMatC= 5.03D-14 BMatP= 1.85D-13
 IDIUse=1 WtCom= 1.00D+00 WtEn= 0.00D+00
 Coeff-Com: -0.176D-02 0.521D-02 0.597D-02-0.364D-01 0.198D-01 0.605D-01
 Coeff-Com: -0.216D-01-0.230D+00-0.229D+00 0.143D+01
 Coeff:     -0.176D-02 0.521D-02 0.597D-02-0.364D-01 0.198D-01 0.605D-01
 Coeff:     -0.216D-01-0.230D+00-0.229D+00 0.143D+01
 Gap=     0.305 Goal=   None    Shift=    0.000
 RMSDP=1.36D-08 MaxDP=1.51D-07 DE=-2.84D-12 OVMax= 8.16D-07

 Cycle  19  Pass 1  IDiag  1:
 RMSU=  4.27D-09    CP:  1.00D+00  3.00D+00  3.00D+00  2.70D+00  3.00D+00
                    CP:  1.72D+00  1.36D+00  1.65D+00  1.85D+00  1.66D+00
 E= -306.085450669263     Delta-E=        0.000000000000 Rises=F Damp=F
 DIIS: error= 2.91D-08 at cycle  11 NSaved=  11.
 NSaved=11 IEnMin=10 EnMin= -306.085450669263     IErMin=11 ErrMin= 2.91D-08
 ErrMax= 2.91D-08  0.00D+00 EMaxC= 1.00D-01 BMatC= 9.44D-15 BMatP= 5.03D-14
 IDIUse=1 WtCom= 1.00D+00 WtEn= 0.00D+00
 Coeff-Com:  0.704D-03-0.367D-02-0.302D-02 0.269D-01-0.196D-01-0.475D-01
 Coeff-Com:  0.699D-01 0.117D+00-0.272D+00-0.522D+00 0.165D+01
 Coeff:      0.704D-03-0.367D-02-0.302D-02 0.269D-01-0.196D-01-0.475D-01
 Coeff:      0.699D-01 0.117D+00-0.272D+00-0.522D+00 0.165D+01
 Gap=     0.305 Goal=   None    Shift=    0.000
 RMSDP=8.17D-09 MaxDP=9.20D-08 DE= 3.41D-13 OVMax= 4.83D-07

 SCF Done:  E(RHF) =  -306.085450669     A.U. after   19 cycles
            NFock= 19  Conv=0.82D-08     -V/T= 2.0026
 KE= 3.052873130610D+02 PE=-1.363201357154D+03 EE= 4.201611743888D+02
 Leave Link  502 at Tue Jun 10 01:46:47 2025, MaxMem=  2013265920 cpu:              29.2 elap:               1.5
 (Enter /home/user/softwares/g16/g16/l601.exe)
 Copying SCF densities to generalized density rwf, IOpCl= 0 IROHF=0.

 **********************************************************************

            Population analysis using the SCF Density.

 **********************************************************************

 Orbital symmetries:
       Occupied  (A) (A) (A) (A) (A) (A) (A) (A) (A) (A) (A) (A)
                 (A) (A) (A) (A) (A) (A) (A) (A) (A) (A) (A) (A)
                 (A) (A) (A) (A)
       Virtual   (A) (A) (A) (A) (A) (A) (A) (A) (A) (A) (A) (A)
                 (A) (A) (A) (A) (A) (A) (A) (A) (A) (A) (A) (A)
                 (A) (A) (A) (A) (A) (A) (A) (A) (A) (A) (A) (A)
                 (A) (A) (A) (A) (A) (A) (A) (A) (A) (A) (A) (A)
                 (A) (A) (A) (A) (A) (A) (A) (A) (A) (A) (A) (A)
                 (A) (A)
 The electronic state is 1-A.
 Alpha  occ. eigenvalues --  -11.53648 -11.40293 -11.39957 -11.39365 -11.38976
 Alpha  occ. eigenvalues --  -11.37389 -11.37100 -11.31811  -1.36297  -1.27832
 Alpha  occ. eigenvalues --   -1.23506  -1.14445  -1.08705  -1.04949  -0.94670
 Alpha  occ. eigenvalues --   -0.90891  -0.89005  -0.84507  -0.82463  -0.78807
 Alpha  occ. eigenvalues --   -0.75180  -0.73442  -0.70518  -0.69236  -0.68302
 Alpha  occ. eigenvalues --   -0.63958  -0.54755  -0.49578
 Alpha virt. eigenvalues --   -0.19034  -0.11074  -0.01036   0.09975   0.11104
 Alpha virt. eigenvalues --    0.11134   0.13506   0.16032   0.17544   0.18911
 Alpha virt. eigenvalues --    0.20901   0.22115   0.23074   0.23909   0.27416
 Alpha virt. eigenvalues --    0.30725   0.33697   0.38708   0.43442   0.47246
 Alpha virt. eigenvalues --    0.52512   0.69728   0.72855   0.73628   0.74968
 Alpha virt. eigenvalues --    0.75410   0.79725   0.81134   0.83122   0.83948
 Alpha virt. eigenvalues --    0.86366   0.87660   0.90714   0.91676   0.94710
 Alpha virt. eigenvalues --    0.96061   0.99744   1.00632   1.02073   1.04346
 Alpha virt. eigenvalues --    1.06242   1.11550   1.13051   1.15758   1.18364
 Alpha virt. eigenvalues --    1.21994   1.22825   1.23434   1.28254   1.30707
 Alpha virt. eigenvalues --    1.39786   1.40839   1.47939   1.50207   1.56622
 Alpha virt. eigenvalues --    1.59901   1.65556   1.77030   1.88863   1.99045
 Alpha virt. eigenvalues --    2.07010   2.30011
     Molecular Orbital Coefficients:
                           1         2         3         4         5
                           O         O         O         O         O
     Eigenvalues --   -11.53648 -11.40293 -11.39957 -11.39365 -11.38976
   1 1   C  1S         -0.00098  -0.00078  -0.00823  -0.00405  -0.00248
   2        2S         -0.00114  -0.00055  -0.00386  -0.00057   0.00017
   3        2PX         0.00040   0.00016  -0.00038  -0.00027   0.00085
   4        2PY         0.00092   0.00001   0.00114   0.00094  -0.00010
   5        2PZ        -0.00024  -0.00002   0.00024   0.00033   0.00024
   6        3S          0.00132   0.00843   0.02372  -0.00621  -0.00846
   7        3PX         0.00153  -0.00295   0.00555   0.00566   0.00182
   8        3PY        -0.00116  -0.00460  -0.01544   0.00354   0.00691
   9        3PZ         0.00016  -0.00044  -0.00307  -0.00026   0.00110
  10 2   C  1S         -0.00107  -0.00313  -0.00211  -0.00122  -0.01615
  11        2S         -0.00128  -0.00038  -0.00009  -0.00060  -0.00499
  12        2PX         0.00005   0.00049  -0.00072  -0.00003   0.00048
  13        2PY         0.00104   0.00088   0.00019   0.00007   0.00117
  14        2PZ        -0.00026   0.00044   0.00008  -0.00001   0.00032
  15        3S          0.00321  -0.00816  -0.00349   0.00917   0.02865
  16        3PX        -0.00076  -0.00208   0.00229   0.00108  -0.00659
  17        3PY        -0.00271   0.00455   0.00478  -0.00478  -0.01773
  18        3PZ         0.00006  -0.00088   0.00107  -0.00024  -0.00425
  19 3   C  1S         -0.00141  -0.00549  -0.00294   0.01050   0.98701
  20        2S         -0.00182  -0.00517  -0.00070   0.00172   0.09911
  21        2PX        -0.00071  -0.00075  -0.00004   0.00030   0.00105
  22        2PY         0.00082   0.00214   0.00013   0.00032  -0.00089
  23        2PZ        -0.00052  -0.00026   0.00000   0.00023   0.00050
  24        3S          0.00417   0.03497   0.00527  -0.00712  -0.08774
  25        3PX         0.00064   0.01034   0.00322  -0.00756  -0.01633
  26        3PY        -0.00668  -0.01874   0.00008   0.00138   0.00885
  27        3PZ         0.00082   0.00413   0.00114  -0.00290  -0.00512
  28 4   C  1S         -0.00124   0.00724   0.98733   0.00734   0.00266
  29        2S         -0.00147   0.00158   0.10001  -0.00345  -0.00020
  30        2PX         0.00133  -0.00049  -0.00058   0.00169   0.00022
  31        2PY         0.00063   0.00018  -0.00043   0.00209   0.00011
  32        2PZ        -0.00053   0.00024   0.00020  -0.00004  -0.00002
  33        3S          0.00367  -0.00936  -0.09060   0.03220   0.00628
  34        3PX        -0.00796   0.01043   0.00739  -0.02005  -0.00562
  35        3PY        -0.00730   0.00065   0.00174  -0.01731   0.00145
  36        3PZ         0.00161  -0.00210  -0.00029   0.00178   0.00107
  37 5   C  1S         -0.00020   0.98635  -0.00736   0.03995   0.00432
  38        2S         -0.00096   0.09951  -0.00037   0.00057  -0.00385
  39        2PX        -0.00017   0.00171   0.00012  -0.00159  -0.00043
  40        2PY         0.00040   0.00039  -0.00008   0.00027  -0.00191
  41        2PZ        -0.00014   0.00098   0.00007  -0.00015  -0.00035
  42        3S          0.01206  -0.08488  -0.00110   0.01014   0.03117
  43        3PX         0.01077  -0.01077  -0.00124   0.00865   0.00569
  44        3PY        -0.00858  -0.01345  -0.00111   0.00094   0.01848
  45        3PZ         0.00502  -0.00860  -0.00049   0.00438   0.00326
  46 6   C  1S         -0.00000  -0.04080  -0.00761   0.98629  -0.01051
  47        2S         -0.00071  -0.00756  -0.00483   0.09946  -0.00051
  48        2PX         0.00027   0.00176  -0.00043  -0.00152  -0.00021
  49        2PY         0.00035  -0.00037  -0.00193   0.00092  -0.00007
  50        2PZ        -0.00005   0.00003  -0.00020   0.00077   0.00007
  51        3S          0.00988   0.01762   0.02892  -0.08659  -0.00200
  52        3PX        -0.01274  -0.00909   0.00423   0.00617   0.00154
  53        3PY        -0.00616   0.00579   0.01622  -0.01795  -0.00233
  54        3PZ         0.00224   0.00384   0.00106  -0.00728  -0.00072
  55 7   C  1S          0.98745   0.00012   0.00097  -0.00001   0.00108
  56        2S          0.09875  -0.00049  -0.00108  -0.00039  -0.00126
  57        2PX         0.00032  -0.00031  -0.00097   0.00030   0.00112
  58        2PY         0.00111   0.00003  -0.00012  -0.00003  -0.00060
  59        2PZ        -0.00076   0.00017  -0.00003   0.00018   0.00021
  60        3S         -0.07351   0.01051   0.00079   0.01170  -0.00045
  61        3PX        -0.00146  -0.01454   0.00046   0.01493  -0.00022
  62        3PY        -0.00507   0.00556  -0.00114   0.00069  -0.00104
  63        3PZ         0.00980  -0.00402   0.00094  -0.00193   0.00134
  64 8   H  1S         -0.00021   0.00016  -0.00050  -0.00039  -0.00046
  65        2S          0.00049   0.00133   0.00190  -0.00076  -0.00091
  66 9   H  1S         -0.00009  -0.00025  -0.00039   0.00005  -0.00008
  67        2S          0.00138   0.00019  -0.00034   0.00116   0.00393
  68 10  H  1S         -0.00006  -0.00022   0.00008  -0.00069  -0.00202
  69        2S          0.00248   0.00454   0.00081  -0.00223   0.00761
  70 11  H  1S         -0.00090  -0.00215  -0.00013   0.00006  -0.00032
  71        2S          0.00141   0.00768  -0.00051   0.00263   0.00411
  72 12  H  1S         -0.00099   0.00030  -0.00072  -0.00219  -0.00020
  73        2S          0.00044   0.00216   0.00194   0.00744  -0.00091
  74 13  H  1S         -0.00177  -0.00095  -0.00025  -0.00103  -0.00026
  75        2S          0.01044   0.00195  -0.00081   0.00215  -0.00090
  76 14  C  1S         -0.00062  -0.00003  -0.00084  -0.00215  -0.00013
  77        2S         -0.00130   0.00017  -0.00137  -0.00169  -0.00018
  78        2PX         0.00007   0.00033   0.00007   0.00022  -0.00010
  79        2PY         0.00010   0.00014  -0.00006   0.00043   0.00001
  80        2PZ         0.00012  -0.00011   0.00040  -0.00013   0.00004
  81        3S          0.00649  -0.00436   0.01282   0.00854   0.00223
  82        3PX        -0.00387   0.00163  -0.00916  -0.00418  -0.00093
  83        3PY         0.00029  -0.00047  -0.00031   0.00028  -0.00046
  84        3PZ        -0.00013   0.00028  -0.00130   0.00103  -0.00008
  85 15  H  1S         -0.00046   0.00023  -0.00094  -0.00041  -0.00001
  86        2S         -0.00006   0.00046  -0.00027   0.00052  -0.00003
  87 16  H  1S         -0.00019   0.00007  -0.00120  -0.00052  -0.00005
  88        2S          0.00006  -0.00013   0.00374  -0.00023   0.00003
  89 17  H  1S         -0.00054   0.00002  -0.00087  -0.00030  -0.00013
  90        2S          0.00058   0.00039  -0.00034  -0.00036  -0.00017
                           6         7         8         9        10
                           O         O         O         O         O
     Eigenvalues --   -11.37389 -11.37100 -11.31811  -1.36297  -1.27832
   1 1   C  1S         -0.07905   0.98404   0.00194  -0.06159   0.04706
   2        2S         -0.01176   0.09812  -0.00050   0.07099  -0.05168
   3        2PX         0.00166  -0.00037  -0.00081  -0.01139  -0.04335
   4        2PY         0.00043  -0.00087   0.00047  -0.03544   0.04278
   5        2PZ         0.00034  -0.00021   0.00010  -0.00743   0.00553
   6        3S          0.03540  -0.08277   0.00022   0.11203  -0.10692
   7        3PX        -0.01728   0.00728   0.00218  -0.01276   0.00958
   8        3PY        -0.00738   0.01337  -0.00492  -0.00166   0.00940
   9        3PZ        -0.00385   0.00395  -0.00029   0.00117   0.00141
  10 2   C  1S          0.98397   0.07827   0.00073  -0.05848  -0.03618
  11        2S          0.09843   0.00395  -0.00031   0.06831   0.03980
  12        2PX         0.00024  -0.00129  -0.00030   0.00402  -0.04982
  13        2PY        -0.00107   0.00088   0.00009  -0.03632  -0.02688
  14        2PZ        -0.00018   0.00010  -0.00002  -0.00549  -0.01124
  15        3S         -0.08377   0.02171   0.00103   0.09433   0.08504
  16        3PX        -0.00588   0.01400   0.00366  -0.00113   0.00490
  17        3PY         0.01501  -0.01161   0.00083   0.00336  -0.00928
  18        3PZ         0.00275  -0.00095   0.00056   0.00216   0.00057
  19 3   C  1S          0.01520   0.00404   0.00012  -0.08024  -0.11137
  20        2S         -0.00193   0.00054  -0.00009   0.09259   0.12560
  21        2PX        -0.00122  -0.00081  -0.00007   0.03358   0.02015
  22        2PY        -0.00032  -0.00071  -0.00008  -0.04194  -0.05811
  23        2PZ        -0.00029  -0.00015   0.00000   0.01143   0.00774
  24        3S          0.02586  -0.00558   0.00139   0.13973   0.22006
  25        3PX         0.01742  -0.00372   0.00107   0.01161  -0.00215
  26        3PY         0.00210   0.00424   0.00176   0.00707   0.00156
  27        3PZ         0.00460  -0.00053   0.00051   0.00249  -0.00027
  28 4   C  1S          0.00181   0.00788   0.00045  -0.09033   0.12523
  29        2S          0.00077  -0.00227  -0.00116   0.10250  -0.13816
  30        2PX         0.00032   0.00142  -0.00036  -0.04513   0.01807
  31        2PY        -0.00055  -0.00118  -0.00012  -0.02899   0.03352
  32        2PZ         0.00005  -0.00019   0.00014   0.00459  -0.00042
  33        3S         -0.00862   0.02432   0.01307   0.15930  -0.25542
  34        3PX         0.00641  -0.01930   0.01710   0.01024  -0.01013
  35        3PY        -0.00120   0.01168   0.00121   0.01670   0.00437
  36        3PZ        -0.00054   0.00288  -0.00273  -0.00098   0.00043
  37 5   C  1S          0.00330   0.00105   0.00018  -0.09910  -0.11393
  38        2S          0.00000  -0.00005   0.00002   0.11124   0.12056
  39        2PX        -0.00020  -0.00028  -0.00010   0.04164   0.00411
  40        2PY        -0.00114   0.00032   0.00001   0.03259   0.06451
  41        2PZ        -0.00021  -0.00003  -0.00001   0.02510   0.01327
  42        3S         -0.00799   0.00298  -0.00057   0.19017   0.27264
  43        3PX        -0.00425  -0.00046  -0.00147   0.00124   0.02493
  44        3PY        -0.00158   0.00165   0.00068   0.02369   0.02263
  45        3PZ        -0.00139  -0.00037  -0.00056   0.00957   0.02255
  46 6   C  1S          0.00049   0.00410   0.00185  -0.10316   0.09246
  47        2S          0.00011   0.00007  -0.00098   0.11473  -0.09756
  48        2PX         0.00032  -0.00006  -0.00082  -0.02707  -0.04114
  49        2PY         0.00034  -0.00101  -0.00023   0.04962  -0.06636
  50        2PZ         0.00005  -0.00015  -0.00002   0.01893  -0.00601
  51        3S          0.00165  -0.00612   0.00272   0.20552  -0.22391
  52        3PX         0.00024   0.00533   0.00184  -0.00042   0.02748
  53        3PY         0.00061  -0.00301   0.00280   0.03095  -0.02512
  54        3PZ        -0.00015  -0.00134   0.00044   0.01330  -0.01743
  55 7   C  1S          0.00075   0.00081   0.00029  -0.11680  -0.02277
  56        2S         -0.00115  -0.00127  -0.00097   0.13280   0.02488
  57        2PX        -0.00022   0.00005  -0.00012   0.00867  -0.08784
  58        2PY        -0.00061  -0.00071  -0.00014   0.02994   0.01794
  59        2PZ         0.00008   0.00006   0.00033  -0.03764  -0.01161
  60        3S          0.00470   0.00572   0.00360   0.26819   0.06471
  61        3PX        -0.00074   0.00195   0.00068   0.00263   0.00602
  62        3PY         0.00265   0.00219   0.00120   0.01393   0.00215
  63        3PZ        -0.00212  -0.00210  -0.00239  -0.02713  -0.00726
  64 8   H  1S          0.00006  -0.00190   0.00005   0.02197  -0.02283
  65        2S          0.00304   0.00872   0.00132  -0.00689  -0.00364
  66 9   H  1S         -0.00188  -0.00013  -0.00013   0.01997   0.01564
  67        2S          0.00862   0.00500   0.00027  -0.01158   0.00045
  68 10  H  1S         -0.00010  -0.00044  -0.00006   0.02799   0.04767
  69        2S          0.00440  -0.00085   0.00006  -0.00826  -0.00606
  70 11  H  1S         -0.00024  -0.00013  -0.00008   0.03669   0.05036
  71        2S          0.00002  -0.00008  -0.00020  -0.00355   0.00806
  72 12  H  1S         -0.00007  -0.00041  -0.00004   0.03863  -0.04189
  73        2S         -0.00020  -0.00076  -0.00014   0.00090  -0.01104
  74 13  H  1S         -0.00003  -0.00006   0.00003   0.05285   0.01248
  75        2S          0.00076   0.00072   0.00090  -0.00381   0.00138
  76 14  C  1S         -0.00066  -0.00220   0.98754  -0.02589   0.06296
  77        2S         -0.00039  -0.00128   0.10238   0.02874  -0.06194
  78        2PX         0.00020   0.00022  -0.00046  -0.02079   0.03587
  79        2PY        -0.00020  -0.00014  -0.00005  -0.00331   0.00525
  80        2PZ        -0.00018   0.00000   0.00013   0.00238  -0.00437
  81        3S         -0.00087   0.00719  -0.08497   0.04214  -0.14728
  82        3PX         0.00009  -0.00379   0.00648   0.01025   0.00168
  83        3PY         0.00175  -0.00209   0.00046  -0.00185   0.00223
  84        3PZ         0.00068   0.00044  -0.00097   0.00023  -0.00318
  85 15  H  1S         -0.00020  -0.00035   0.00018   0.01104  -0.02738
  86        2S         -0.00040   0.00090   0.01464  -0.00384   0.00502
  87 16  H  1S         -0.00013  -0.00029   0.00011   0.01139  -0.02871
  88        2S         -0.00023  -0.00008   0.01506  -0.00650   0.01004
  89 17  H  1S          0.00018  -0.00037   0.00016   0.01193  -0.02909
  90        2S          0.00083  -0.00041   0.01469  -0.00377   0.00254
                          11        12        13        14        15
                           O         O         O         O         O
     Eigenvalues --    -1.23506  -1.14445  -1.08705  -1.04949  -0.94670
   1 1   C  1S          0.11703   0.06979   0.08888   0.06490   0.00460
   2        2S         -0.12587  -0.07406  -0.09515  -0.06947  -0.00392
   3        2PX         0.04191   0.07252  -0.02588  -0.08856   0.13063
   4        2PY         0.00028  -0.02185  -0.02096   0.06856  -0.11604
   5        2PZ         0.00852  -0.00211  -0.00653   0.00429  -0.00907
   6        3S         -0.26030  -0.18159  -0.24394  -0.17211  -0.01976
   7        3PX         0.00583   0.01874  -0.00828  -0.02471   0.04624
   8        3PY         0.00392   0.00958  -0.00812   0.02821  -0.05042
   9        3PZ         0.00074  -0.00091  -0.00171   0.00057  -0.00386
  10 2   C  1S          0.12800   0.07427  -0.01400  -0.09652   0.05156
  11        2S         -0.13818  -0.07915   0.01567   0.10229  -0.05316
  12        2PX        -0.02768  -0.06477  -0.10552  -0.07707  -0.11305
  13        2PY         0.02367  -0.01255  -0.02465   0.01991  -0.07129
  14        2PZ         0.00471  -0.01281  -0.02223  -0.00556  -0.03190
  15        3S         -0.28433  -0.19496   0.02260   0.28372  -0.17828
  16        3PX         0.00063  -0.01900  -0.02673  -0.03209  -0.04940
  17        3PY         0.01008   0.00107  -0.00120   0.00206  -0.02897
  18        3PZ         0.00015  -0.00328  -0.00507  -0.00296  -0.01455
  19 3   C  1S          0.06845  -0.05671  -0.09028  -0.01716  -0.07767
  20        2S         -0.07259   0.06078   0.09318   0.01891   0.08133
  21        2PX        -0.03809  -0.03793  -0.00725   0.05086  -0.04653
  22        2PY        -0.04776  -0.08078   0.03536   0.14510   0.05717
  23        2PZ        -0.01091  -0.01584  -0.00660   0.03072   0.00011
  24        3S         -0.16645   0.14791   0.28635   0.04904   0.26978
  25        3PX        -0.01244  -0.00734   0.02586   0.01337  -0.02495
  26        3PY         0.01251  -0.02514  -0.00562   0.04745   0.02488
  27        3PZ        -0.00670  -0.00461   0.00850   0.01374   0.00460
  28 4   C  1S          0.03803  -0.04761  -0.01826   0.07009  -0.05600
  29        2S         -0.03856   0.04867   0.01936  -0.07299   0.05899
  30        2PX        -0.00063   0.11401  -0.04958   0.10240  -0.03257
  31        2PY        -0.07729  -0.01280  -0.16350  -0.05149   0.09962
  32        2PZ        -0.00436  -0.01992  -0.01704  -0.01679   0.03853
  33        3S         -0.10116   0.14101   0.04974  -0.22303   0.18072
  34        3PX         0.01851  -0.00272  -0.01356   0.05948  -0.01140
  35        3PY         0.00231  -0.01592  -0.06094  -0.01738   0.06091
  36        3PZ        -0.00590  -0.00135  -0.01083  -0.01053   0.02754
  37 5   C  1S         -0.03050  -0.07185   0.03700   0.08216   0.07047
  38        2S          0.03293   0.07584  -0.03268  -0.08613  -0.07235
  39        2PX         0.03866  -0.03964  -0.04344   0.04229  -0.00647
  40        2PY        -0.06023   0.06028   0.10211  -0.02445   0.10213
  41        2PZ         0.02486  -0.01780  -0.04511   0.03131   0.03690
  42        3S          0.07535   0.19581  -0.14187  -0.25440  -0.24694
  43        3PX        -0.00312   0.00371  -0.03782   0.00708   0.00695
  44        3PY         0.00731   0.00871   0.01040  -0.00387   0.05952
  45        3PZ         0.00469   0.00468  -0.03018   0.00330   0.02009
  46 6   C  1S         -0.06628   0.02980  -0.11254  -0.01297   0.05391
  47        2S          0.06964  -0.02606   0.11708   0.00924  -0.05773
  48        2PX        -0.05284   0.06852   0.06430  -0.03501  -0.03093
  49        2PY        -0.02202   0.02081   0.04250  -0.08747   0.06670
  50        2PZ         0.02079  -0.02611  -0.01599   0.01832   0.06890
  51        3S          0.16463  -0.10527   0.32447   0.06564  -0.17148
  52        3PX        -0.00174   0.02646  -0.00406  -0.01890  -0.02817
  53        3PY         0.01681  -0.02467   0.01598  -0.01821   0.06094
  54        3PZ         0.01189  -0.01808   0.00712   0.01029   0.03965
  55 7   C  1S         -0.12014   0.05831   0.08408  -0.06403  -0.04269
  56        2S          0.13192  -0.06386  -0.09420   0.07199   0.04904
  57        2PX         0.01711  -0.06436   0.12271   0.05280   0.02877
  58        2PY        -0.00702   0.01950   0.01339  -0.05099  -0.05980
  59        2PZ        -0.01241  -0.01761  -0.04073   0.06956   0.20090
  60        3S          0.33022  -0.18676  -0.27629   0.21863   0.16907
  61        3PX         0.00320  -0.01397   0.03734   0.01208   0.00691
  62        3PY         0.00590   0.00318   0.01269  -0.02785  -0.05095
  63        3PZ        -0.01966   0.00218  -0.02442   0.04313   0.15230
  64 8   H  1S         -0.05777  -0.03402  -0.07399  -0.04120  -0.01457
  65        2S         -0.00240  -0.00525  -0.02011  -0.01174  -0.00682
  66 9   H  1S         -0.06204  -0.04473   0.00990   0.08448  -0.06118
  67        2S         -0.00232  -0.00806   0.00280   0.02577  -0.02669
  68 10  H  1S         -0.03407   0.03737   0.07131   0.01584   0.09524
  69        2S         -0.00710   0.00904   0.02989   0.00380   0.03892
  70 11  H  1S          0.01883   0.04634  -0.03186  -0.07230  -0.09803
  71        2S          0.00321   0.01164  -0.02002  -0.02441  -0.03863
  72 12  H  1S          0.03511  -0.00953   0.07963   0.03086  -0.09407
  73        2S          0.00676  -0.00660   0.02502   0.01927  -0.03448
  74 13  H  1S          0.07468  -0.04796  -0.09210   0.08778   0.14887
  75        2S          0.00553  -0.01100  -0.02127   0.02318   0.05500
  76 14  C  1S          0.02782  -0.14741   0.06604  -0.10152   0.02335
  77        2S         -0.02568   0.13809  -0.06251   0.09622  -0.02194
  78        2PX         0.01300  -0.01777  -0.01020   0.04394  -0.03941
  79        2PY        -0.00753  -0.00522  -0.02677  -0.00918   0.02724
  80        2PZ        -0.00254   0.00224  -0.00301  -0.00607   0.01523
  81        3S         -0.08176   0.44553  -0.20732   0.31988  -0.08793
  82        3PX         0.00862  -0.02183   0.00055   0.01179  -0.01270
  83        3PY        -0.00266  -0.00067  -0.01056  -0.00763   0.01103
  84        3PZ        -0.00103   0.00674  -0.00239  -0.00020   0.00534
  85 15  H  1S         -0.01561   0.07819  -0.05178   0.06429  -0.01071
  86        2S         -0.00048   0.00134  -0.01083   0.01268  -0.00173
  87 16  H  1S         -0.01312   0.08094  -0.04194   0.06964  -0.01880
  88        2S          0.00250  -0.00135  -0.00548   0.01425  -0.00828
  89 17  H  1S         -0.00969   0.08241  -0.03018   0.07528  -0.04038
  90        2S          0.00266   0.00587   0.00186   0.01736  -0.02301
                          16        17        18        19        20
                           O         O         O         O         O
     Eigenvalues --    -0.90891  -0.89005  -0.84507  -0.82463  -0.78807
   1 1   C  1S         -0.05763   0.03213  -0.02359   0.00572   0.00655
   2        2S          0.05570  -0.03511   0.02317  -0.00608  -0.01010
   3        2PX         0.06714  -0.02984  -0.12319  -0.17778   0.07410
   4        2PY         0.11683   0.01243   0.06490  -0.02718   0.20218
   5        2PZ         0.03150  -0.00079   0.01075  -0.00615   0.08207
   6        3S          0.22093  -0.11557   0.08705  -0.01773   0.02205
   7        3PX         0.04762  -0.02016  -0.05722  -0.11622   0.07293
   8        3PY         0.05365   0.01231   0.02264  -0.05717   0.14703
   9        3PZ         0.01456  -0.00027   0.00647  -0.01020   0.06324
  10 2   C  1S          0.03340  -0.04288   0.01109  -0.01360   0.02032
  11        2S         -0.03714   0.04104  -0.01075   0.01542  -0.02418
  12        2PX         0.05763  -0.03418   0.15908   0.14890  -0.00341
  13        2PY         0.08218   0.10261  -0.09772   0.01599   0.20561
  14        2PZ         0.01667   0.01953   0.01771   0.02715   0.07092
  15        3S         -0.11337   0.17062  -0.05450   0.03337  -0.02721
  16        3PX         0.03091  -0.02998   0.10058   0.08402  -0.01216
  17        3PY         0.05833   0.05513  -0.08075   0.01633   0.14945
  18        3PZ         0.00928   0.00826   0.00992   0.01930   0.05196
  19 3   C  1S         -0.03286   0.03007  -0.00617   0.01462  -0.00422
  20        2S          0.03123  -0.03339   0.01140  -0.01644   0.00629
  21        2PX        -0.18162  -0.04445   0.08156  -0.07272  -0.11787
  22        2PY        -0.03406   0.07742  -0.22035  -0.08482  -0.09638
  23        2PZ        -0.07308   0.00908   0.03271  -0.05045  -0.00274
  24        3S          0.15313  -0.09458  -0.04174  -0.02660  -0.01970
  25        3PX        -0.10914  -0.05027   0.05846  -0.03476  -0.10806
  26        3PY        -0.00938   0.03390  -0.11245  -0.04955  -0.02894
  27        3PZ        -0.04044   0.00509   0.02925  -0.02600  -0.01438
  28 4   C  1S          0.04379  -0.06437   0.02037   0.01805  -0.00247
  29        2S         -0.04686   0.06496  -0.02157  -0.01133   0.00326
  30        2PX         0.04512   0.03601   0.02866  -0.11722   0.04193
  31        2PY         0.06002  -0.13197  -0.09852  -0.11333  -0.15080
  32        2PZ         0.01465  -0.02372  -0.01706   0.03125   0.01564
  33        3S         -0.15550   0.24336  -0.06680  -0.14983  -0.01594
  34        3PX         0.05002   0.02661   0.01816  -0.05267   0.05264
  35        3PY         0.02253  -0.08108  -0.08095  -0.06224  -0.09659
  36        3PZ         0.00779  -0.00929  -0.00481   0.02130   0.00351
  37 5   C  1S         -0.00399  -0.02972  -0.00110  -0.00906   0.00193
  38        2S          0.00534   0.02578   0.00309   0.01249  -0.00005
  39        2PX        -0.16181  -0.09086   0.00708  -0.14349   0.09513
  40        2PY         0.02442  -0.15758   0.22856   0.02844   0.12477
  41        2PZ        -0.10149  -0.00173   0.05859  -0.11308   0.10529
  42        3S          0.02661   0.14180   0.01140   0.04971  -0.02033
  43        3PX        -0.10022  -0.04707   0.05306  -0.10790   0.09386
  44        3PY        -0.02424  -0.10976   0.17199  -0.01469   0.13462
  45        3PZ        -0.07183  -0.01275   0.06138  -0.08451   0.10551
  46 6   C  1S         -0.04325   0.01421  -0.01350   0.00795  -0.00041
  47        2S          0.03868  -0.01063   0.01554  -0.00874   0.00475
  48        2PX        -0.00634   0.19733   0.15116  -0.09399  -0.00943
  49        2PY        -0.18081   0.10626  -0.04016   0.18785   0.15550
  50        2PZ        -0.00052  -0.03921  -0.04023   0.12627   0.05850
  51        3S          0.18674  -0.05455   0.06534  -0.03211  -0.02653
  52        3PX        -0.00658   0.08582   0.08240  -0.09330  -0.02308
  53        3PY        -0.10936   0.03620  -0.05124   0.19867   0.13769
  54        3PZ        -0.01034  -0.02739  -0.03435   0.10848   0.06707
  55 7   C  1S          0.00509   0.00807   0.01992   0.00565  -0.02006
  56        2S         -0.00651  -0.00829  -0.01999  -0.00486   0.02216
  57        2PX         0.13483  -0.19898  -0.06822   0.17570  -0.02165
  58        2PY        -0.11251  -0.06937  -0.03336  -0.02225   0.09736
  59        2PZ         0.10043   0.18195   0.18879   0.08009  -0.06638
  60        3S         -0.01448  -0.02608  -0.08214  -0.03232   0.04378
  61        3PX         0.07548  -0.13556  -0.04610   0.10761  -0.01573
  62        3PY        -0.07607  -0.06193  -0.05136  -0.02828   0.06695
  63        3PZ         0.09048   0.16925   0.17882   0.07367  -0.05403
  64 8   H  1S          0.12092  -0.03293   0.01136  -0.07829   0.13424
  65        2S          0.06059  -0.01472   0.00478  -0.03692   0.08220
  66 9   H  1S          0.00666   0.09560  -0.08806  -0.00032   0.11244
  67        2S          0.00618   0.04845  -0.04459  -0.00394   0.07205
  68 10  H  1S          0.11569   0.00994  -0.09437   0.01237   0.04505
[...]
 581532,-2.012974,-4.2419007,0.0985159,2.3645711,-0.8110401,1.5713769,0
 .7058033,-2.9220779,0.5196398,-1.0138973,-1.0491729,0.6210355,0.814456
 5,-2.5724263,-0.2340152,2.1501988,1.2010148,-1.3386515,-1.2978573,3.56
 3383,-0.990505,0.5852676,-0.4641363,0.4880535,-0.0457936,0.3111918,0.1
 537782,-2.1658017,-1.6874441,-0.3435187,-0.2499695,-0.3873505,-1.65001
 75,0.4921103,2.7543078,-1.4880777,-0.5466902,-10.4044276,-2.7140485,-1
 .190939,-2.5359422,-1.1970952,-0.0950633,-3.2162833,0.2264388,0.150467
 4,1.1868415,0.7862009,0.7210121,-2.2345277,1.3670632,0.9387188,-2.6648
 206,-0.3550625,-1.5816128,0.9291081,2.2329682,1.4346552,0.9015759,0.78
 4509,0.0800719,2.2475482,-0.3597238,2.2598071,-1.0943593,-0.0906689,-1
 .097291,0.505223,-1.470227,-1.0915172,1.899604,1.7266193,2.6359446,2.8
 948973,0.835414,-2.4677086,1.1946945,-1.3589728,-0.6299134,6.1661013,0
 .5305026,-0.110314,2.3689793,-0.8537073,-0.5076569,4.1814825,1.2879595
 ,-2.3055993,-1.1190527,0.9862564,0.8460553,-3.1314788,-2.9466521,1.745
 0766,-1.9818085,-0.0082291,-0.4091503,1.1957081,0.3950831,2.1873183,0.
 2467188,-0.0749798,-0.9444017,0.0381519,-0.795155,-1.3461042,-0.046228
 7,1.9800731,2.2540966,-1.4436938,-1.7053892,-1.6360384,-0.9564954,-0.7
 994946,-0.6195883,-1.1716375,-1.9759305,-5.6622523,-0.8494331,-2.34547
 09,-1.298443,-0.643316,-0.8042428,-1.8779775,-0.9747179,-2.1331619,-2.
 0549853,2.2064595,-2.4191487,2.209394,-1.0099717,0.8417917,0.5423644,-
 1.6311787,3.0417317,-6.5891429,0.9722994,-1.9579996,-0.961052,-0.69665
 58,0.9925039,-1.6209279,1.1356006,-1.9058764,-1.5093134,10.2005498,-2.
 0506027,0.7948067,0.186126,-0.1035854,0.4565036,-1.9316775,1.9307096,-
 0.9414413,-0.0546954,0.0326136,-0.1465979,0.0961121,-0.0440567,-0.0390
 11,1.4966338,-0.3452367,0.1245689,6.0888071,3.0968771,1.8115678,2.1908
 27,1.0529725,1.1445297,2.6066109,2.7604411,2.8232637,1.0968832,1.30204
 96,0.7950771,1.8216177,1.097298,0.9211205,2.0258174,1.2760721,1.671337
 5,-4.7730646,2.8322239,-2.0705706,0.9035561,-0.5772744,-0.5375442,2.41
 96225,-2.7445939,3.449682,-0.5468409,0.7060306,0.4213395,0.798197,-0.5
 759083,0.5019616,-1.1992423,1.0276433,0.7376321,0.0741011,1.2678137,-0
 .0195163,0.6380799,-0.0195447,-0.0469234,0.2284329,0.3217465,8.1333899
 ,0.1086217,3.1521371,1.6753616,0.1131921,0.1180346,2.6183818,0.0805423
 ,2.6318178,2.2480876,4.0559272,1.0176976,1.5850078,0.3036629,0.1646367
 ,0.2631181,3.5215077,5.3223786,1.6029734,0.2578622,-1.7285854,1.046381
 4,0.8974237,-0.1765263,-2.5044819,4.7351301,1.4920122,5.5352328,-2.143
 8984,-0.3056923,-0.4096398,-2.8222189,-0.2368078,-0.6206364,-1.4335643
 ,-1.9508339,-0.7789169,-0.4456481,-1.835591,-0.3038678,-3.6520622,-0.5
 161251,-0.0556537,-4.091193,-0.8680328,-8.4104333,-4.2714698,-2.89621,
 -1.2258976,1.3835798,0.0929181,-0.0837509,-4.5889851,-4.1269874,-5.240
 2973,0.1689841,1.5745401,-0.8302327,1.6391342,0.9609293,1.4879023,-2.3
 08626,-2.3467305,1.1698015,-5.2160088,2.4902615,-0.8897972,0.8489892,0
 .0065257,-0.2836989,2.7673655,-2.5978736,2.8479881,0.2253365,0.7307801
 ,0.1753897,1.2471257,0.0416818,0.4974477,-1.9543558,1.118489,0.1911093
 \HyperPolar=124.2071816,33.2367471,-15.6346181,-12.1275837,40.0279502,
 8.6769208,8.970135,-6.3209872,-6.08595,-26.55053\Quadrupole=6.8383644,
 0.9268199,-7.7651844,-0.1363831,2.5611356,5.9385771\PG=C01 [X(C8H9)]\N
 Imag=0\\0.78139789,-0.01477760,0.64466602,0.07959518,0.22400070,0.3114
 6565,-0.36547490,-0.03252181,-0.05709537,0.77256048,0.05801575,-0.1529
 8521,-0.02464119,-0.04285454,0.66087206,-0.01218864,-0.03791890,-0.106
 74759,0.06383483,0.22610377,0.31386250,-0.03170584,-0.02698220,-0.0192
 5236,-0.23070509,-0.10874601,-0.07464080,0.77384026,-0.05942515,0.0456
 4337,0.00980107,-0.02042536,-0.22569767,-0.07052906,-0.05131423,0.6672
 3868,-0.03534370,0.01455888,0.01035042,-0.03083352,-0.08348147,-0.1354
 7202,0.06001517,0.22865373,0.31328414,-0.21139171,0.11281310,0.0381605
 1,-0.04356476,0.02723099,0.00614565,0.00106057,0.00865725,0.00527985,0
 .62089307,0.03969980,-0.23276484,-0.06496327,0.05225431,0.03318579,0.0
 2083544,0.00473247,-0.01837219,-0.00561013,-0.04190600,0.64480513,0.00
 189635,-0.05424115,-0.11667824,0.01855684,0.01716603,0.01786419,0.0033
 3324,-0.00503445,-0.00766987,0.03699478,0.20113287,0.33209368,-0.02300
 259,0.01782989,0.00611776,0.06680936,-0.01282381,0.00222924,-0.1785460
 5,0.00231414,-0.01215533,0.00222001,0.00736112,0.00476324,0.75894335,0
 .01438971,-0.01457789,-0.00292974,-0.04409565,-0.03774557,-0.02927509,
 0.08961781,-0.31400480,-0.09903428,0.00228572,-0.02240191,-0.00811730,
 -0.02133675,0.67627680,0.00441161,-0.00242534,-0.00497215,-0.01328195,
 -0.02468902,-0.00595504,0.03114754,-0.11183781,-0.13874211,0.00224547,
 -0.00737260,-0.00868876,0.07288342,0.23815648,0.31862627,0.05369454,0.
 01352266,0.01334565,-0.01183557,-0.01187495,-0.00702033,-0.00773664,-0
 .00948671,-0.00517189,-0.16278116,0.01599220,-0.00279167,-0.05515233,0
 .01883888,-0.00000354,0.78387979,0.02409283,-0.03691674,-0.01895785,0.
 00090117,-0.00662694,-0.00110749,-0.01323381,-0.02356896,-0.01137083,-
 0.06218459,-0.26885798,-0.09800338,-0.01391344,0.06057698,0.02374678,-
 0.04043081,0.64559332,0.01858888,-0.02050793,0.00098173,-0.00068377,-0
 .00298148,-0.00570612,-0.00703017,-0.01082079,-0.01095546,-0.04156785,
 -0.08653915,-0.13867473,-0.01624837,0.02854979,0.02036441,0.06750268,0
 .22161252,0.30666251,-0.01505290,-0.00325341,-0.00318724,-0.03254505,-
 0.00288843,-0.00534413,0.02018120,0.07311006,0.03803687,0.00926587,-0.
 06960505,-0.03402607,-0.30523853,0.02479575,-0.01933877,-0.32266359,-0
 .00731048,-0.03818003,0.76114100,0.00885316,-0.00386592,0.00152421,-0.
 00661584,-0.00345165,0.00023220,0.04174560,-0.01054643,-0.00311947,-0.
 04185065,0.00114135,-0.00848137,0.11354755,-0.18235696,-0.02939826,-0.
 09808028,-0.17361100,-0.05731879,-0.02766615,0.66613650,0.00281714,-0.
 00025123,-0.00403264,-0.00719242,0.00077893,-0.00654442,0.02247951,0.0
 0148017,0.01211702,-0.02025937,-0.01255160,-0.00333044,0.02468241,-0.0
 4241431,-0.10693072,-0.08320193,-0.04400709,-0.12107835,0.06949613,0.2
 3027511,0.31810392,-0.12232692,-0.09705257,-0.05707454,-0.01699750,-0.
 03169214,-0.01993658,-0.00528491,0.00227927,-0.00101679,0.01158737,0.0
 2386946,0.01192047,-0.00031015,0.00063031,0.00022197,-0.00349600,0.003
 57814,0.00012148,-0.00001104,0.00002937,-0.00010202,0.13678206,-0.0971
 8631,-0.25868306,-0.11210850,0.00514499,0.00713460,-0.00153846,0.00139
 868,0.00219532,-0.00334708,-0.01085991,-0.01955666,-0.01676613,-0.0002
 1048,0.00070275,0.00016489,0.00366352,-0.00061131,-0.00362342,0.001093
 29,0.00027490,-0.00009215,0.09774550,0.26930563,-0.05714072,-0.1120890
 9,-0.12537363,-0.00166537,-0.00694087,0.00807052,-0.00145349,-0.003217
 80,0.00754772,-0.00530547,-0.01167243,0.00446701,-0.00019503,0.0002881
 6,0.00042241,0.00016380,-0.00363602,0.00599760,0.00042573,-0.00024818,
 0.00072327,0.06339290,0.13049653,0.10913637,-0.01701249,0.03434035,0.0
 1278211,-0.13004620,0.10990359,0.04452890,0.01275541,-0.02420061,-0.01
 183390,-0.00551560,-0.00058513,-0.00251045,-0.00275115,-0.00229896,-0.
 00271660,-0.00017198,-0.00041587,-0.00026508,-0.00030915,-0.00001882,-
 0.00011431,0.00027764,0.00027611,0.00106575,0.14190691,-0.00207933,0.0
 0460544,-0.00395932,0.11030747,-0.28063923,-0.09228540,0.01209787,-0.0
 1659551,-0.01221002,-0.00007056,0.00243532,-0.00357567,-0.00274008,0.0
 0010410,-0.00431699,0.00028490,0.00070196,0.00027637,-0.00097920,0.000
 41179,-0.00014104,-0.00106162,0.00029073,0.00299212,-0.11565088,0.2905
 7888,-0.00528213,0.00138190,0.01188377,0.04472910,-0.09234484,-0.10121
 182,0.00617042,-0.01753317,0.00380656,-0.00225526,-0.00365109,0.007481
 60,-0.00293536,-0.00425233,0.00545772,0.00008254,0.00017364,0.00032722
 ,-0.00059075,-0.00000020,0.00031987,0.00040222,0.00318829,-0.00441516,
 -0.04180556,0.10940107,0.08395336,-0.00039346,-0.00231873,-0.00236006,
 -0.01874815,0.00737594,-0.00074505,-0.35792641,0.07622612,-0.00565109,
 0.00048365,-0.00092575,-0.00046247,-0.00289152,0.00003208,-0.00216183,
 0.00075958,0.00044283,0.00029792,0.00089286,0.00107296,-0.00072266,-0.
 00084485,0.00008035,0.00012929,0.00109553,-0.00034306,0.00072551,0.376
 49890,-0.00171733,-0.00166444,-0.00497442,-0.02901891,0.00991933,-0.00
 492983,0.07605298,-0.09128147,-0.00357307,0.00024236,-0.00011622,-0.00
 027312,0.03637270,-0.00580750,-0.00347744,-0.00044864,-0.00031802,-0.0
 0033553,0.00059588,-0.00304044,-0.00610753,-0.00107114,-0.00029007,0.0
 0042056,-0.00132044,-0.00013598,0.00222476,-0.08086963,0.09432622,-0.0
 0206185,-0.00506261,0.00504335,-0.01879688,0.00040771,0.00872382,-0.00
 573679,-0.00354782,-0.06419172,0.00011695,-0.00044450,0.00030279,0.015
 86296,-0.00880692,0.00991624,-0.00014419,-0.00020478,0.00010310,-0.000
 95929,-0.00603753,0.00631407,-0.00044185,0.00058944,-0.00122711,0.0002
 4071,0.00236813,-0.00380189,0.00986770,0.01721542,0.04569249,0.0005069
 8,-0.00004457,0.00001804,-0.00013932,0.00253480,-0.00014429,0.01162068
 ,0.00945705,0.00468284,-0.00001338,0.00111404,0.00046581,-0.25117822,-
 0.12193227,-0.08833712,-0.00325543,0.00385006,0.00025900,-0.02475859,-
 0.01830405,-0.01433138,0.00006016,-0.00012382,0.00007844,0.00013937,0.
 00027304,0.00037033,0.00142975,0.00025982,0.00120903,0.26607859,0.0008
 4329,-0.00017943,-0.00008100,0.00305346,-0.00236779,-0.00539762,-0.026
 95536,-0.01478353,-0.01707609,-0.00004850,0.00013381,-0.00022752,-0.12
 180356,-0.15556372,-0.06465873,0.00314377,0.00013278,-0.00344099,0.018
 20227,0.01336083,0.00381219,-0.00012521,-0.00013789,0.00035640,-0.0009
 4501,-0.00107427,0.00005384,-0.00070372,-0.00067282,0.00250707,0.12417
 759,0.16111449,0.00045836,-0.00021120,0.00019569,0.00011293,-0.0054736
 9,0.00671902,-0.01337758,-0.01173592,0.00389113,-0.00011078,-0.0000571
 0,0.00053361,-0.08827331,-0.06467771,-0.10624363,-0.00009125,-0.003337
 37,0.00633110,0.00377566,-0.00154172,0.01084599,0.00007775,0.00035662,
 -0.00070520,-0.00023382,0.00023251,-0.00138124,0.00073110,0.00264839,-
 0.00451467,0.09537140,0.08039320,0.08960940,-0.00055780,-0.00179883,-0
 .00211013,0.00051731,0.00018704,0.00005513,0.00007438,-0.00094694,-0.0
 0050627,0.00884484,-0.00756880,-0.00411837,-0.00314592,-0.00246727,-0.
 00303582,-0.25154364,0.14455586,0.04370737,-0.02609954,0.02175462,0.00
 529245,0.00043479,-0.00045678,0.00009115,0.00001163,0.00002030,0.00011
 498,-0.00001137,0.00000231,0.00013181,-0.00109583,0.00055620,0.0003160
 6,0.27142617,-0.00188571,-0.00240234,-0.00531069,-0.00089097,-0.000019
 36,-0.00052421,-0.00008561,0.00040321,0.00002683,0.02642087,-0.0183127
 3,-0.01082777,-0.00165303,0.00095224,-0.00433857,0.14346413,-0.1828002
 8,-0.03954254,-0.01486441,0.01252145,-0.00161872,0.00088654,-0.0012113
 4,0.00038815,0.00001840,-0.00011566,0.00029438,0.00000306,-0.00009699,
 0.00039995,-0.00059094,-0.00011791,0.00053433,-0.14921959,0.19099854,-
 0.00215325,-0.00529782,0.00480351,-0.00047954,-0.00036611,0.00052216,-
 0.00007903,-0.00009952,0.00026286,0.01274063,-0.01581240,0.00535457,-0
 .00263208,-0.00445795,0.00661333,0.04316614,-0.03938267,-0.07386471,-0
 .01287078,0.00375154,0.01136331,0.00075744,0.00019116,-0.00152587,0.00
 011404,0.00029466,-0.00054086,0.00013220,0.00039983,-0.00068472,-0.000
 25291,0.00070256,-0.00105853,-0.03933547,0.05551393,0.05672407,-0.0000
 7319,0.00010518,0.00000900,-0.00061728,-0.00030792,-0.00030372,-0.0054
 3362,0.00223090,-0.00088212,-0.00537700,-0.00067354,-0.00252566,0.0001
 3109,0.03561240,0.01593341,0.00034669,-0.03401004,-0.01860179,-0.07295
 179,0.00422193,0.00053085,0.00007608,-0.00007844,0.00007689,0.00008600
 ,-0.00002202,0.00010020,-0.00031564,0.00110337,0.00072691,0.00062029,0
 .00054072,0.00110802,0.00047162,-0.00154893,0.00017319,0.08300340,-0.0
 0063122,0.00064347,0.00011689,0.00064933,0.00062953,0.00020298,0.00264
 163,0.00168621,-0.00280694,-0.00091869,0.00228171,-0.00374812,-0.00066
 214,-0.00883140,-0.01039507,0.00230024,-0.00574202,-0.00854290,0.00395
 715,-0.31503440,-0.12478103,-0.00008320,-0.00015493,0.00026485,-0.0000
 1361,-0.00014726,0.00025813,-0.00011203,-0.00081870,0.00034166,-0.0004
 6435,0.00013602,0.00253205,-0.00021411,0.00015363,0.00299505,-0.006320
 01,0.32592961,-0.00035626,0.00022489,0.00028047,0.00017113,0.00006261,
 0.00046843,-0.00067841,-0.00286721,0.00660467,-0.00264718,-0.00371209,
 0.00733723,-0.00205906,-0.00507502,0.00911124,-0.00059174,-0.01386798,
 0.00519615,0.00039966,-0.12474242,-0.12410634,0.00007453,0.00026555,-0
 .00057086,0.00010437,0.00025690,-0.00052898,0.00012408,0.00051989,-0.0
 0126457,0.00060949,0.00267941,-0.00368775,0.00083522,0.00279931,-0.004
 43707,0.00379432,0.14300070,0.10724133,-0.03878397,0.00366682,-0.00516
 982,0.00524922,0.00250083,0.00112909,-0.00121562,-0.00329592,-0.001970
 63,-0.17745557,-0.01280716,-0.01833106,-0.00265010,0.00186182,0.000525
 07,-0.01105788,-0.00761456,-0.00779480,0.00298939,0.00310760,0.0005507
 6,0.00042800,-0.00195352,-0.00047416,-0.00012212,-0.00014011,0.0001676
 5,-0.00002396,-0.00011325,0.00000696,-0.00001916,-0.00000462,0.0001314
 8,0.00087477,0.00188780,0.00192359,0.00035449,0.00009170,0.00042279,0.
 52086181,0.02567169,0.00984195,0.00424852,0.00890557,-0.00174639,-0.00
 253976,-0.00185757,-0.00543988,-0.00350361,-0.00276768,-0.10302276,-0.
 00400207,-0.00441116,0.00481576,0.00170902,-0.03770959,-0.00855795,-0.
 01788066,0.00779076,-0.00162540,-0.00449771,0.00172667,0.00049801,0.00
 196107,0.00113431,-0.00043954,0.00081081,0.00004959,-0.00003519,0.0002
 1513,-0.00014898,-0.00001790,0.00043131,-0.00300067,-0.00102751,0.0019
 5634,-0.00073586,-0.00075527,0.00061780,-0.04880330,0.65186559,0.00574
 338,0.00102174,0.01021728,0.00430796,-0.00347902,0.00491451,-0.0012576
 7,-0.00371617,-0.00095332,-0.01334908,-0.00547416,-0.10044475,-0.00258
 757,0.00263030,0.00099123,-0.02272270,-0.01346757,0.00632831,0.0028754
 2,-0.00518391,0.00759556,0.00135123,0.00142195,-0.00204273,0.00079981,
 0.00062397,-0.00131217,0.00008773,0.00019129,-0.00034665,0.00005990,0.
 00045244,-0.00069819,-0.00050090,0.00267277,-0.00460593,0.00001240,0.0
 0073913,-0.00184984,-0.03745120,0.01304685,0.61210480,-0.00133763,-0.0
 0140429,0.00010203,0.00231185,0.00031898,0.00163594,-0.00048417,-0.002
 23305,-0.00092751,-0.00840841,-0.00509889,-0.04217539,-0.00148499,0.00
 165450,0.00076602,-0.00516965,-0.00125270,0.00048934,0.00183734,-0.001
 49492,0.00144486,0.00007927,0.00108998,-0.00023115,0.00008068,0.000244
 69,-0.00036801,0.00002202,0.00002905,-0.00007360,-0.00000918,0.0001158
 6,-0.00013092,-0.00001164,0.00011455,-0.00077130,-0.00010155,0.0001037
 2,-0.00048436,-0.05989755,0.00039642,-0.02551636,0.06798661,0.00341340
 ,-0.00048575,0.00020725,-0.00197138,-0.00073310,-0.00031169,0.00036303
 ,0.00139961,0.00074464,-0.00399382,-0.00314259,-0.00770613,0.00094336,
 -0.00092300,-0.00042472,-0.00098156,-0.00016712,0.00065943,-0.00140474
 ,-0.00048796,0.00027820,0.00060580,-0.00004107,-0.00011379,-0.00003420
 ,-0.00000925,0.00002389,-0.00000791,0.00002465,-0.00003022,-0.00001450
 ,0.00002401,-0.00006991,-0.00006001,0.00051777,-0.00052460,-0.00009066
 ,0.00001214,-0.00011119,-0.00001875,-0.05643013,-0.03454252,0.00335996
 ,0.05859952,0.00225706,-0.00149079,0.00103728,-0.00148559,-0.00030820,
 0.00021266,0.00031147,0.00093538,0.00033215,-0.00291748,-0.00126300,-0
 .00499303,0.00055696,-0.00048663,-0.00012445,-0.00022712,0.00069599,-0
 .00042626,-0.00053589,-0.00018774,-0.00026418,-0.00023102,0.00072555,-
 0.00031009,-0.00007838,-0.00001866,0.00003547,0.00002194,0.00006098,-0
 .00004352,-0.00002525,-0.00001374,0.00001880,-0.00003416,0.00021024,-0
 .00002518,-0.00006761,-0.00003091,0.00003432,-0.02627026,-0.03385484,-
 0.33422814,0.03061198,0.03824857,0.36535903,-0.00086022,-0.00062771,-0
 .00173866,0.00239248,0.00125675,-0.00022139,-0.00039059,-0.00194338,-0
 .00122303,-0.01698798,-0.03411678,0.01796520,-0.00137276,0.00173083,0.
 00047933,-0.00458043,0.00016942,-0.00212024,0.00221658,-0.00006454,-0.
 00145395,-0.00025090,0.00053460,0.00111137,-0.00004618,-0.00013863,0.0
 0039945,0.00000385,-0.00003985,0.00008198,-0.00005117,-0.00002295,0.00
 014587,-0.00018318,-0.00047805,0.00047444,-0.00021388,-0.00028207,0.00
 030621,-0.08433938,-0.06997538,0.04107382,0.00157278,0.00402786,-0.001
 22822,0.09469107,0.00423628,-0.00053145,-0.00062781,-0.00251012,-0.000
 30775,-0.00105548,0.00048219,0.00171182,0.00108930,-0.00424073,-0.0039
 5030,-0.00050652,0.00117053,-0.00117879,-0.00035752,-0.00024283,0.0003
 9028,0.00040847,-0.00145446,-0.00015502,-0.00044189,0.00006058,0.00001
 127,0.00053399,-0.00006330,0.00004715,-0.00010792,-0.00000756,0.000000
 74,0.00007433,-0.00002859,-0.00001274,-0.00000620,-0.00017204,0.000096
 41,0.00049763,-0.00008680,0.00000487,-0.00005318,-0.07096604,-0.254796
 94,0.11069813,0.00257560,0.00466513,-0.00272683,0.08085497,0.27731949,
 0.00090897,-0.00034979,0.00060612,-0.00010547,-0.00017072,-0.00029352,
 0.00002898,0.00016284,-0.00007338,-0.00592384,-0.01149294,0.00439446,0
 .00005839,-0.00010984,0.00001906,-0.00147371,0.00039264,-0.00157360,-0
 .00011913,0.00021431,-0.00097644,0.00063618,-0.00016510,-0.00003203,0.
 00000889,-0.00003551,0.00010591,-0.00001585,-0.00001621,-0.00000141,-0
 .00002726,-0.00004241,0.00009755,-0.00019753,-0.00025626,0.00056791,-0
 .00011010,-0.00013354,0.00015383,0.04113244,0.11021705,-0.11142329,0.0
 1255230,0.03399015,-0.01728243,-0.04244077,-0.12131073,0.11993773,-0.0
 0762579,-0.00149628,-0.00214210,0.00083311,0.00186314,0.00098615,-0.00
 010358,-0.00100344,-0.00049893,-0.02285982,0.02826370,0.01104520,-0.00
 037950,0.00068109,0.00026179,0.00076371,0.00277600,0.00152543,0.001105
 95,-0.00023755,0.00008393,-0.00020308,-0.00015775,-0.00006993,-0.00037
 830,-0.00000278,-0.00002533,-0.00003077,-0.00005928,-0.00003056,0.0000
 6446,-0.00002423,-0.00001095,-0.00000660,-0.00157810,-0.00090729,-0.00
 000569,-0.00004234,-0.00002479,-0.15519238,0.12373519,0.04707382,0.003
 01420,-0.00413588,-0.00065843,0.00839993,-0.00960769,-0.00491251,0.172
 60414,-0.00151325,-0.00034318,-0.00134484,-0.00031174,0.00057934,0.000
 03860,0.00004254,0.00001222,0.00005961,-0.00880918,0.00651508,0.003211
 78,0.00001516,-0.00003707,-0.00008509,-0.00195492,0.00038301,0.0000276
 1,-0.00011881,0.00032836,0.00027970,-0.00032577,0.00027314,0.00021634,
 -0.00012593,-0.00001865,0.00007884,0.00000546,0.00000688,0.00001555,-0
 .00001433,0.00002608,-0.00001758,-0.00117126,0.00046086,-0.00036163,0.
 00005972,0.00000679,0.00000204,0.13260066,-0.23312643,-0.06763523,0.00
 148054,-0.00282285,-0.00049538,0.01911490,-0.02331417,-0.01089396,-0.1
 3897379,0.25107060,-0.00215037,-0.00134224,0.00093898,-0.00009292,0.00
 035755,0.00057274,0.00001997,-0.00009346,-0.00013879,-0.00734752,0.008
 64815,0.00065068,-0.00006828,0.00001239,0.00013496,-0.00082074,0.00072
 146,-0.00001289,0.00014261,0.00026221,-0.00011947,-0.00015338,0.000240
 87,-0.00016222,-0.00008647,0.00009687,-0.00017938,0.00000154,0.0000060
 4,-0.00001959,-0.00000606,-0.00001902,0.00004692,-0.00070552,-0.000421
 13,0.00053115,0.00002580,-0.00001294,0.00001775,0.05147211,-0.06893526
 ,-0.08424668,0.02307612,-0.03031736,-0.00933241,-0.01161141,0.01389224
 ,0.00577353,-0.05169550,0.07690365,0.08554472\\-0.00000110,0.00000064,
 0.00000089,0.00000061,0.00000065,0.00000067,0.00000009,-0.00000111,0.0
 0000025,0.00000019,-0.00000182,-0.00000155,0.00000077,0.00000010,-0.00
 000033,-0.00000011,0.00000093,-0.00000033,-0.00000081,0.00000055,-0.00
 000009,0.,0.00000020,-0.00000026,-0.00000002,0.00000017,-0.00000025,0.
 ,0.00000005,-0.00000015,0.00000014,-0.00000022,-0.00000006,0.00000006,
 -0.00000018,0.00000028,-0.00000022,-0.00000013,0.00000025,0.00000025,0
 .00000007,0.00000051,0.00000031,0.,0.00000026,-0.00000014,-0.00000003,
 -0.00000015,0.,0.00000013,0.00000006\\\@


 ASKING DUMB QUESTIONS IS EASIER THAN CORECTING DUMB MISTAKES.
 Job cpu time:       0 days  0 hours  2 minutes 18.3 seconds.
 Elapsed time:       0 days  0 hours  0 minutes  7.0 seconds.
 File lengths (MBytes):  RWF=     25 Int=      0 D2E=      0 Chk=      2 Scr=      1
 Normal termination of Gaussian 16 at Tue Jun 10 01:48:25 2025.
