 Entering Gaussian System, Link 0=g16
 Initial command:
 /home/user/softwares/g16/g16/l1.exe "/home/user/scratch/Gau-370506.inp" -scrdir="/home/user/scratch/"
 Entering Link 1 = /home/user/softwares/g16/g16/l1.exe PID=    370508.
  
 Copyright (c) 1988-2017, Gaussian, Inc.  All Rights Reserved.
  
 This is part of the Gaussian(R) 16 program.  It is based on
 the Gaussian(R) 09 system (copyright 2009, Gaussian, Inc.),
 the Gaussian(R) 03 system (copyright 2003, Gaussian, Inc.),
 the Gaussian(R) 98 system (copyright 1998, Gaussian, Inc.),
 the Gaussian(R) 94 system (copyright 1995, Gaussian, Inc.),
 the Gaussian 92(TM) system (copyright 1992, Gaussian, Inc.),
 the Gaussian 90(TM) system (copyright 1990, Gaussian, Inc.),
 the Gaussian 88(TM) system (copyright 1988, Gaussian, Inc.),
 the Gaussian 86(TM) system (copyright 1986, Carnegie Mellon
 University), and the Gaussian 82(TM) system (copyright 1983,
 Carnegie Mellon University). Gaussian is a federally registered
 trademark of Gaussian, Inc.
  
 This software contains proprietary and confidential information,
 including trade secrets, belonging to Gaussian, Inc.
  
 This software is provided under written license and may be
 used, copied, transmitted, or stored only in accord with that
 written license.
  
 The following legend is applicable only to US Government
 contracts under FAR:
  
                    RESTRICTED RIGHTS LEGEND
  
 Use, reproduction and disclosure by the US Government is
 subject to restrictions as set forth in subparagraphs (a)
 and (c) of the Commercial Computer Software - Restricted
 Rights clause in FAR 52.227-19.
  
 Gaussian, Inc.
 340 Quinnipiac St., Bldg. 40, Wallingford CT 06492
  
  
 ---------------------------------------------------------------
 Warning -- This program may not be used in any manner that
 competes with the business of Gaussian, Inc. or will provide
 assistance to any competitor of Gaussian, Inc.  The licensee
 of this program is prohibited from giving any competitor of
 Gaussian, Inc. access to this program.  By using this program,
 the user acknowledges that Gaussian, Inc. is engaged in the
 business of creating and licensing software in the field of
 computational chemistry and represents and warrants to the
 licensee that it is not a competitor of Gaussian, Inc. and that
 it will not use this program in any manner prohibited above.
 ---------------------------------------------------------------
  

 Cite this work as:
 Gaussian 16, Revision B.01,
 M. J. Frisch, G. W. Trucks, H. B. Schlegel, G. E. Scuseria, 
 M. A. Robb, J. R. Cheeseman, G. Scalmani, V. Barone, 
 G. A. Petersson, H. Nakatsuji, X. Li, M. Caricato, A. V. Marenich, 
 J. Bloino, B. G. Janesko, R. Gomperts, B. Mennucci, H. P. Hratchian, 
 J. V. Ortiz, A. F. Izmaylov, J. L. Sonnenberg, D. Williams-Young, 
 F. Ding, F. Lipparini, F. Egidi, J. Goings, B. Peng, A. Petrone, 
 T. Henderson, D. Ranasinghe, V. G. Zakrzewski, J. Gao, N. Rega, 
 G. Zheng, W. Liang, M. Hada, M. Ehara, K. Toyota, R. Fukuda, 
 J. Hasegawa, M. Ishida, T. Nakajima, Y. Honda, O. Kitao, H. Nakai, 
 T. Vreven, K. Throssell, J. A. Montgomery, Jr., J. E. Peralta, 
 F. Ogliaro, M. J. Bearpark, J. J. Heyd, E. N. Brothers, K. N. Kudin, 
 V. N. Staroverov, T. A. Keith, R. Kobayashi, J. Normand, 
 K. Raghavachari, A. P. Rendell, J. C. Burant, S. S. Iyengar, 
 J. Tomasi, M. Cossi, J. M. Millam, M. Klene, C. Adamo, R. Cammi, 
 J. W. Ochterski, R. L. Martin, K. Morokuma, O. Farkas, 
 J. B. Foresman, and D. J. Fox, Gaussian, Inc., Wallingford CT, 2016.
 
 ******************************************
 Gaussian 16:  EM64L-G16RevB.01 20-Dec-2017
                10-Jun-2025 
 ******************************************
 %nproc=20
 Will use up to   20 processors via shared memory.
 %mem=15GB
 %chk=cycloheptatrienyl_anion.chk
 ---------------------------------------------
 #p hf/3-21g opt freq gfinput gfprint pop=full
 ---------------------------------------------
 1/18=20,19=15,38=1/1,3;
 2/9=110,12=2,17=6,18=5,40=1/2;
 3/5=5,11=9,24=110,25=1,30=1,71=1/1,2,3;
 4//1;
 5/5=2,38=5/2;
 6/7=3,28=1/1;
 7//1,2,3,16;
 1/18=20,19=15/3(2);
 2/9=110/2;
 99//99;
 2/9=110/2;
 3/5=5,11=9,25=1,30=1,71=1/1,2,3;
 4/5=5,16=3,69=1/1;
 5/5=2,38=5/2;
 7//1,2,3,16;
 1/18=20,19=15/3(-5);
 2/9=110/2;
 6/7=3,19=2,28=1/1;
 99/9=1/99;
 Leave Link    1 at Tue Jun 10 01:52:44 2025, MaxMem=  2013265920 cpu:               0.9 elap:               0.1
 (Enter /home/user/softwares/g16/g16/l101.exe)
 ------------
 Optimisation
 ------------
 Symbolic Z-matrix:
 Charge = -1 Multiplicity = 1
 C                    -1.91774   3.06448   1.83389 
 C                    -0.50554   3.05203   1.84333 
 C                     0.42218   4.14525   1.95144 
 C                    -2.8274    4.17391   1.9297 
 C                     0.07988   5.36323   2.39384 
 C                    -2.46963   5.38572   2.37682 
 C                    -1.19953   5.4303    3.15691 
 H                    -2.37946   2.10689   1.7125 
 H                    -0.0592    2.08643   1.72799 
 H                     1.43857   3.97813   1.66173 
 H                     0.68719   6.22674   2.21941 
 H                    -3.05924   6.25978   2.19442 
 H                    -1.20633   5.46949   4.22617 
 C                    -4.28857   3.95915   1.49331 
 H                    -4.38696   4.18628   0.45233 
 H                    -4.56553   2.93975   1.66368 
 H                    -4.92845   4.6022    2.06071 
 
 ITRead=  0  0  0  0  0  0  0  0  0  0  0  0  0  0  0  0  0
 MicOpt= -1 -1 -1 -1 -1 -1 -1 -1 -1 -1 -1 -1 -1 -1 -1 -1 -1
 NAtoms=     17 NQM=       17 NQMF=       0 NMMI=      0 NMMIF=      0
                NMic=       0 NMicF=      0.
                    Isotopes and Nuclear Properties:
 (Nuclear quadrupole moments (NQMom) in fm**2, nuclear magnetic moments (NMagM)
  in nuclear magnetons)

  Atom         1           2           3           4           5           6           7           8           9          10
 IAtWgt=          12          12          12          12          12          12          12           1           1           1
 AtmWgt=  12.0000000  12.0000000  12.0000000  12.0000000  12.0000000  12.0000000  12.0000000   1.0078250   1.0078250   1.0078250
 NucSpn=           0           0           0           0           0           0           0           1           1           1
 AtZEff=  -0.0000000  -0.0000000  -0.0000000  -0.0000000  -0.0000000  -0.0000000  -0.0000000  -0.0000000  -0.0000000  -0.0000000
 NQMom=    0.0000000   0.0000000   0.0000000   0.0000000   0.0000000   0.0000000   0.0000000   0.0000000   0.0000000   0.0000000
 NMagM=    0.0000000   0.0000000   0.0000000   0.0000000   0.0000000   0.0000000   0.0000000   2.7928460   2.7928460   2.7928460
 AtZNuc=   6.0000000   6.0000000   6.0000000   6.0000000   6.0000000   6.0000000   6.0000000   1.0000000   1.0000000   1.0000000

  Atom        11          12          13          14          15          16          17
 IAtWgt=           1           1           1          12           1           1           1
 AtmWgt=   1.0078250   1.0078250   1.0078250  12.0000000   1.0078250   1.0078250   1.0078250
 NucSpn=           1           1           1           0           1           1           1
 AtZEff=  -0.0000000  -0.0000000  -0.0000000  -0.0000000  -0.0000000  -0.0000000  -0.0000000
 NQMom=    0.0000000   0.0000000   0.0000000   0.0000000   0.0000000   0.0000000   0.0000000
 NMagM=    2.7928460   2.7928460   2.7928460   0.0000000   2.7928460   2.7928460   2.7928460
 AtZNuc=   1.0000000   1.0000000   1.0000000   6.0000000   1.0000000   1.0000000   1.0000000
 Leave Link  101 at Tue Jun 10 01:52:45 2025, MaxMem=  2013265920 cpu:              11.7 elap:               0.6
 (Enter /home/user/softwares/g16/g16/l103.exe)

 GradGradGradGradGradGradGradGradGradGradGradGradGradGradGradGradGradGrad
 Berny optimization.
 Initialization pass.
                           ----------------------------
                           !    Initial Parameters    !
                           ! (Angstroms and Degrees)  !
 --------------------------                            --------------------------
 ! Name  Definition              Value          Derivative Info.                !
 --------------------------------------------------------------------------------
 ! R1    R(1,2)                  1.4123         estimate D2E/DX2                !
 ! R2    R(1,4)                  1.4379         estimate D2E/DX2                !
 ! R3    R(1,8)                  1.07           estimate D2E/DX2                !
 ! R4    R(2,3)                  1.4379         estimate D2E/DX2                !
 ! R5    R(2,9)                  1.07           estimate D2E/DX2                !
 ! R6    R(3,5)                  1.3403         estimate D2E/DX2                !
 ! R7    R(3,10)                 1.07           estimate D2E/DX2                !
 ! R8    R(4,6)                  1.3403         estimate D2E/DX2                !
 ! R9    R(4,14)                 1.54           estimate D2E/DX2                !
 ! R10   R(5,7)                  1.4912         estimate D2E/DX2                !
 ! R11   R(5,11)                 1.07           estimate D2E/DX2                !
 ! R12   R(6,7)                  1.4912         estimate D2E/DX2                !
 ! R13   R(6,12)                 1.07           estimate D2E/DX2                !
 ! R14   R(7,13)                 1.07           estimate D2E/DX2                !
 ! R15   R(14,15)                1.07           estimate D2E/DX2                !
 ! R16   R(14,16)                1.07           estimate D2E/DX2                !
 ! R17   R(14,17)                1.07           estimate D2E/DX2                !
 ! A1    A(2,1,4)              129.7142         estimate D2E/DX2                !
 ! A2    A(2,1,8)              115.1096         estimate D2E/DX2                !
 ! A3    A(4,1,8)              115.1561         estimate D2E/DX2                !
 ! A4    A(1,2,3)              129.7144         estimate D2E/DX2                !
 ! A5    A(1,2,9)              115.1096         estimate D2E/DX2                !
 ! A6    A(3,2,9)              115.156          estimate D2E/DX2                !
 ! A7    A(2,3,5)              123.4331         estimate D2E/DX2                !
 ! A8    A(2,3,10)             118.2795         estimate D2E/DX2                !
 ! A9    A(5,3,10)             118.2873         estimate D2E/DX2                !
 ! A10   A(1,4,6)              123.4332         estimate D2E/DX2                !
 ! A11   A(1,4,14)             118.2797         estimate D2E/DX2                !
 ! A12   A(6,4,14)             118.287          estimate D2E/DX2                !
 ! A13   A(3,5,7)              115.3977         estimate D2E/DX2                !
 ! A14   A(3,5,11)             122.3177         estimate D2E/DX2                !
 ! A15   A(7,5,11)             122.2823         estimate D2E/DX2                !
 ! A16   A(4,6,7)              115.398          estimate D2E/DX2                !
 ! A17   A(4,6,12)             122.3175         estimate D2E/DX2                !
 ! A18   A(7,6,12)             122.2822         estimate D2E/DX2                !
 ! A19   A(5,7,6)              117.4983         estimate D2E/DX2                !
 ! A20   A(5,7,13)             121.2288         estimate D2E/DX2                !
 ! A21   A(6,7,13)             121.2288         estimate D2E/DX2                !
 ! A22   A(4,14,15)            109.4712         estimate D2E/DX2                !
 ! A23   A(4,14,16)            109.4712         estimate D2E/DX2                !
 ! A24   A(4,14,17)            109.4712         estimate D2E/DX2                !
 ! A25   A(15,14,16)           109.4712         estimate D2E/DX2                !
 ! A26   A(15,14,17)           109.4712         estimate D2E/DX2                !
 ! A27   A(16,14,17)           109.4712         estimate D2E/DX2                !
 ! D1    D(4,1,2,3)              0.0012         estimate D2E/DX2                !
 ! D2    D(4,1,2,9)           -178.2709         estimate D2E/DX2                !
 ! D3    D(8,1,2,3)            178.2731         estimate D2E/DX2                !
 ! D4    D(8,1,2,9)              0.001          estimate D2E/DX2                !
 ! D5    D(2,1,4,6)            -17.2082         estimate D2E/DX2                !
 ! D6    D(2,1,4,14)           162.6762         estimate D2E/DX2                !
 ! D7    D(8,1,4,6)            164.5205         estimate D2E/DX2                !
 ! D8    D(8,1,4,14)           -15.595          estimate D2E/DX2                !
 ! D9    D(1,2,3,5)             17.2051         estimate D2E/DX2                !
 ! D10   D(1,2,3,10)          -162.6716         estimate D2E/DX2                !
 ! D11   D(9,2,3,5)           -164.5235         estimate D2E/DX2                !
 ! D12   D(9,2,3,10)            15.5998         estimate D2E/DX2                !
 ! D13   D(2,3,5,7)             17.9437         estimate D2E/DX2                !
 ! D14   D(2,3,5,11)          -162.5965         estimate D2E/DX2                !
 ! D15   D(10,3,5,7)          -162.1796         estimate D2E/DX2                !
 ! D16   D(10,3,5,11)           17.2802         estimate D2E/DX2                !
 ! D17   D(1,4,6,7)            -17.9404         estimate D2E/DX2                !
 ! D18   D(1,4,6,12)           162.5996         estimate D2E/DX2                !
 ! D19   D(14,4,6,7)           162.1751         estimate D2E/DX2                !
 ! D20   D(14,4,6,12)          -17.2849         estimate D2E/DX2                !
 ! D21   D(1,4,14,15)          -89.9453         estimate D2E/DX2                !
 ! D22   D(1,4,14,16)           30.0547         estimate D2E/DX2                !
 ! D23   D(1,4,14,17)          150.0547         estimate D2E/DX2                !
 ! D24   D(6,4,14,15)           89.9453         estimate D2E/DX2                !
 ! D25   D(6,4,14,16)         -150.0547         estimate D2E/DX2                !
 ! D26   D(6,4,14,17)          -30.0547         estimate D2E/DX2                !
 ! D27   D(3,5,7,6)            -76.9922         estimate D2E/DX2                !
 ! D28   D(3,5,7,13)           100.6221         estimate D2E/DX2                !
 ! D29   D(11,5,7,6)           103.5477         estimate D2E/DX2                !
 ! D30   D(11,5,7,13)          -78.838          estimate D2E/DX2                !
 ! D31   D(4,6,7,5)             76.9905         estimate D2E/DX2                !
 ! D32   D(4,6,7,13)          -100.6238         estimate D2E/DX2                !
 ! D33   D(12,6,7,5)          -103.5493         estimate D2E/DX2                !
 ! D34   D(12,6,7,13)           78.8364         estimate D2E/DX2                !
 --------------------------------------------------------------------------------
 Trust Radius=3.00D-01 FncErr=1.00D-07 GrdErr=1.00D-07 EigMax=2.50D+02 EigMin=1.00D-04
 Number of steps in this run=     88 maximum allowed number of steps=    102.
 GradGradGradGradGradGradGradGradGradGradGradGradGradGradGradGradGradGrad

 Leave Link  103 at Tue Jun 10 01:52:45 2025, MaxMem=  2013265920 cpu:               0.2 elap:               0.0
 (Enter /home/user/softwares/g16/g16/l202.exe)
                          Input orientation:                          
 ---------------------------------------------------------------------
 Center     Atomic      Atomic             Coordinates (Angstroms)
 Number     Number       Type             X           Y           Z
 ---------------------------------------------------------------------
      1          6           0       -1.917740    3.064482    1.833893
      2          6           0       -0.505543    3.052028    1.843330
      3          6           0        0.422179    4.145247    1.951441
      4          6           0       -2.827395    4.173911    1.929703
      5          6           0        0.079882    5.363234    2.393843
      6          6           0       -2.469626    5.385716    2.376815
      7          6           0       -1.199534    5.430304    3.156910
      8          1           0       -2.379459    2.106891    1.712503
      9          1           0       -0.059205    2.086430    1.727991
     10          1           0        1.438566    3.978134    1.661732
     11          1           0        0.687192    6.226744    2.219414
     12          1           0       -3.059242    6.259777    2.194415
     13          1           0       -1.206330    5.469489    4.226171
     14          6           0       -4.288572    3.959150    1.493308
     15          1           0       -4.386965    4.186279    0.452332
     16          1           0       -4.565533    2.939754    1.663677
     17          1           0       -4.928452    4.602199    2.060707
 ---------------------------------------------------------------------
                    Distance matrix (angstroms):
                    1          2          3          4          5
     1  C    0.000000
     2  C    1.412284   0.000000
     3  C    2.580134   1.437875   0.000000
     4  C    1.437874   2.580132   3.249773   0.000000
     5  C    3.096498   2.446929   1.340291   3.175244   0.000000
     6  C    2.446930   3.096503   3.175255   1.340291   2.549664
     7  C    2.804159   2.804160   2.394677   2.394681   1.491199
     8  H    1.070000   2.102846   3.472918   2.126121   4.137191
     9  H    2.102845   1.070000   2.126121   3.472916   3.346663
    10  H    3.482698   2.161066   1.070000   4.278850   2.073768
    11  H    4.115118   3.412166   2.115342   4.080488   1.070000
    12  H    3.412171   4.115130   4.080510   2.115340   3.270728
    13  H    3.466000   3.465999   3.095166   3.095181   2.241217
    14  C    2.556809   3.905982   4.736633   1.540000   4.676089
    15  H    3.043716   4.276312   5.037546   2.148263   5.010729
    16  H    2.656188   4.065514   5.139386   2.148263   5.290205
    17  H    3.388274   4.691739   5.371219   2.148263   5.076767
                    6          7          8          9         10
     6  C    0.000000
     7  C    1.491198   0.000000
     8  H    3.346659   3.810985   0.000000
     9  H    4.137196   3.810991   2.320396   0.000000
    10  H    4.215044   3.362131   4.252227   2.413763   0.000000
    11  H    3.270719   2.252320   5.160861   4.235659   2.435533
    12  H    1.070000   2.252318   4.235658   5.160872   5.071481
    13  H    2.241217   1.070000   4.359108   4.359115   3.974413
    14  C    2.474720   3.804475   2.669011   4.631383   5.729645
    15  H    2.969591   4.361429   3.153088   4.976563   5.953384
    16  H    3.299109   4.445508   2.339864   4.586860   6.093228
    17  H    2.599933   3.973947   3.584017   5.490844   6.409958
                   11         12         13         14         15
    11  H    0.000000
    12  H    3.746663   0.000000
    13  H    2.861107   2.861097   0.000000
    14  C    5.516107   2.701053   4.387469   0.000000
    15  H    5.747446   3.016139   5.099503   1.070000   0.000000
    16  H    6.221275   3.684175   4.924447   1.070000   1.747303
    17  H    5.848059   2.501877   4.392679   1.070000   1.747303
                   16         17
    16  H    0.000000
    17  H    1.747303   0.000000
 Stoichiometry    C8H9(1-)
 Framework group  C1[X(C8H9)]
 Deg. of freedom    45
 Full point group                 C1      NOp   1
 Largest Abelian subgroup         C1      NOp   1
 Largest concise Abelian subgroup C1      NOp   1
                         Standard orientation:                         
 ---------------------------------------------------------------------
 Center     Atomic      Atomic             Coordinates (Angstroms)
 Number     Number       Type             X           Y           Z
 ---------------------------------------------------------------------
      1          6           0        0.445631    1.192695    0.226962
      2          6           0       -0.940504    1.439099    0.115334
      3          6           0       -2.004016    0.549595   -0.265728
      4          6           0        1.185589   -0.017396   -0.008887
      5          6           0       -1.884292   -0.785330   -0.270203
      6          6           0        0.618163   -1.230176   -0.068667
      7          6           0       -0.745980   -1.328051    0.525645
      8          1           0        1.036539    2.040303    0.504970
      9          1           0       -1.240892    2.445152    0.321549
     10          1           0       -2.939329    0.975812   -0.563098
     11          1           0       -2.563953   -1.418843   -0.800884
     12          1           0        1.113334   -2.072537   -0.504708
     13          1           0       -0.897334   -1.736755    1.502862
     14          6           0        2.709476    0.085836   -0.205636
     15          1           0        2.926598    0.221316   -1.244580
     16          1           0        3.084993    0.920274    0.348981
     17          1           0        3.175642   -0.812355    0.141988
 ---------------------------------------------------------------------
 Rotational constants (GHZ):           3.9965692           1.8033139           1.3201329
 Leave Link  202 at Tue Jun 10 01:52:45 2025, MaxMem=  2013265920 cpu:               0.1 elap:               0.0
 (Enter /home/user/softwares/g16/g16/l301.exe)
 Standard basis: 3-21G (6D, 7F)
 Ernie: Thresh=  0.10000D-02 Tol=  0.10000D-05 Strict=F.
 AO basis set in the form of general basis input (Overlap normalization):
      1 0
 S   3 1.00       0.000000000000
      0.1722560000D+03  0.6176690738D-01
      0.2591090000D+02  0.3587940429D+00
      0.5533350000D+01  0.7007130837D+00
 SP   2 1.00       0.000000000000
      0.3664980000D+01 -0.3958951621D+00  0.2364599466D+00
      0.7705450000D+00  0.1215834356D+01  0.8606188057D+00
 SP   1 1.00       0.000000000000
      0.1958570000D+00  0.1000000000D+01  0.1000000000D+01
 ****
      2 0
 S   3 1.00       0.000000000000
      0.1722560000D+03  0.6176690738D-01
      0.2591090000D+02  0.3587940429D+00
      0.5533350000D+01  0.7007130837D+00
 SP   2 1.00       0.000000000000
      0.3664980000D+01 -0.3958951621D+00  0.2364599466D+00
      0.7705450000D+00  0.1215834356D+01  0.8606188057D+00
 SP   1 1.00       0.000000000000
      0.1958570000D+00  0.1000000000D+01  0.1000000000D+01
 ****
      3 0
 S   3 1.00       0.000000000000
      0.1722560000D+03  0.6176690738D-01
      0.2591090000D+02  0.3587940429D+00
      0.5533350000D+01  0.7007130837D+00
 SP   2 1.00       0.000000000000
      0.3664980000D+01 -0.3958951621D+00  0.2364599466D+00
      0.7705450000D+00  0.1215834356D+01  0.8606188057D+00
 SP   1 1.00       0.000000000000
      0.1958570000D+00  0.1000000000D+01  0.1000000000D+01
 ****
      4 0
 S   3 1.00       0.000000000000
      0.1722560000D+03  0.6176690738D-01
      0.2591090000D+02  0.3587940429D+00
      0.5533350000D+01  0.7007130837D+00
 SP   2 1.00       0.000000000000
      0.3664980000D+01 -0.3958951621D+00  0.2364599466D+00
      0.7705450000D+00  0.1215834356D+01  0.8606188057D+00
 SP   1 1.00       0.000000000000
      0.1958570000D+00  0.1000000000D+01  0.1000000000D+01
 ****
      5 0
 S   3 1.00       0.000000000000
      0.1722560000D+03  0.6176690738D-01
      0.2591090000D+02  0.3587940429D+00
      0.5533350000D+01  0.7007130837D+00
 SP   2 1.00       0.000000000000
      0.3664980000D+01 -0.3958951621D+00  0.2364599466D+00
      0.7705450000D+00  0.1215834356D+01  0.8606188057D+00
 SP   1 1.00       0.000000000000
      0.1958570000D+00  0.1000000000D+01  0.1000000000D+01
 ****
      6 0
 S   3 1.00       0.000000000000
      0.1722560000D+03  0.6176690738D-01
      0.2591090000D+02  0.3587940429D+00
      0.5533350000D+01  0.7007130837D+00
 SP   2 1.00       0.000000000000
      0.3664980000D+01 -0.3958951621D+00  0.2364599466D+00
      0.7705450000D+00  0.1215834356D+01  0.8606188057D+00
 SP   1 1.00       0.000000000000
      0.1958570000D+00  0.1000000000D+01  0.1000000000D+01
 ****
      7 0
 S   3 1.00       0.000000000000
      0.1722560000D+03  0.6176690738D-01
      0.2591090000D+02  0.3587940429D+00
      0.5533350000D+01  0.7007130837D+00
 SP   2 1.00       0.000000000000
      0.3664980000D+01 -0.3958951621D+00  0.2364599466D+00
      0.7705450000D+00  0.1215834356D+01  0.8606188057D+00
 SP   1 1.00       0.000000000000
      0.1958570000D+00  0.1000000000D+01  0.1000000000D+01
 ****
      8 0
 S   2 1.00       0.000000000000
      0.5447178000D+01  0.1562849787D+00
      0.8245472400D+00  0.9046908767D+00
 S   1 1.00       0.000000000000
      0.1831915800D+00  0.1000000000D+01
 ****
      9 0
 S   2 1.00       0.000000000000
      0.5447178000D+01  0.1562849787D+00
      0.8245472400D+00  0.9046908767D+00
 S   1 1.00       0.000000000000
      0.1831915800D+00  0.1000000000D+01
 ****
     10 0
 S   2 1.00       0.000000000000
      0.5447178000D+01  0.1562849787D+00
      0.8245472400D+00  0.9046908767D+00
 S   1 1.00       0.000000000000
      0.1831915800D+00  0.1000000000D+01
 ****
     11 0
 S   2 1.00       0.000000000000
      0.5447178000D+01  0.1562849787D+00
      0.8245472400D+00  0.9046908767D+00
 S   1 1.00       0.000000000000
      0.1831915800D+00  0.1000000000D+01
 ****
     12 0
 S   2 1.00       0.000000000000
      0.5447178000D+01  0.1562849787D+00
      0.8245472400D+00  0.9046908767D+00
 S   1 1.00       0.000000000000
      0.1831915800D+00  0.1000000000D+01
 ****
     13 0
 S   2 1.00       0.000000000000
      0.5447178000D+01  0.1562849787D+00
      0.8245472400D+00  0.9046908767D+00
 S   1 1.00       0.000000000000
      0.1831915800D+00  0.1000000000D+01
 ****
     14 0
 S   3 1.00       0.000000000000
      0.1722560000D+03  0.6176690738D-01
      0.2591090000D+02  0.3587940429D+00
      0.5533350000D+01  0.7007130837D+00
 SP   2 1.00       0.000000000000
      0.3664980000D+01 -0.3958951621D+00  0.2364599466D+00
      0.7705450000D+00  0.1215834356D+01  0.8606188057D+00
 SP   1 1.00       0.000000000000
      0.1958570000D+00  0.1000000000D+01  0.1000000000D+01
 ****
     15 0
 S   2 1.00       0.000000000000
      0.5447178000D+01  0.1562849787D+00
      0.8245472400D+00  0.9046908767D+00
 S   1 1.00       0.000000000000
      0.1831915800D+00  0.1000000000D+01
 ****
     16 0
 S   2 1.00       0.000000000000
      0.5447178000D+01  0.1562849787D+00
      0.8245472400D+00  0.9046908767D+00
 S   1 1.00       0.000000000000
      0.1831915800D+00  0.1000000000D+01
 ****
     17 0
 S   2 1.00       0.000000000000
      0.5447178000D+01  0.1562849787D+00
      0.8245472400D+00  0.9046908767D+00
 S   1 1.00       0.000000000000
      0.1831915800D+00  0.1000000000D+01
 ****

 AO basis set (Overlap normalization):
 Atom C1       Shell     1 S   3     bf    1 -     1          0.842120955498          2.253866568859          0.428895298941
      0.1722560000D+03  0.6176690738D-01
      0.2591090000D+02  0.3587940429D+00
      0.5533350000D+01  0.7007130837D+00
 Atom C1       Shell     2 SP   2    bf    2 -     5          0.842120955498          2.253866568859          0.428895298941
      0.3664980000D+01 -0.3958951621D+00  0.2364599466D+00
      0.7705450000D+00  0.1215834356D+01  0.8606188057D+00
 Atom C1       Shell     3 SP   1    bf    6 -     9          0.842120955498          2.253866568859          0.428895298941
      0.1958570000D+00  0.1000000000D+01  0.1000000000D+01
 Atom C2       Shell     4 S   3     bf   10 -    10         -1.777295072851          2.719503596395          0.217949869729
      0.1722560000D+03  0.6176690738D-01
      0.2591090000D+02  0.3587940429D+00
      0.5533350000D+01  0.7007130837D+00
 Atom C2       Shell     5 SP   2    bf   11 -    14         -1.777295072851          2.719503596395          0.217949869729
      0.3664980000D+01 -0.3958951621D+00  0.2364599466D+00
      0.7705450000D+00  0.1215834356D+01  0.8606188057D+00
 Atom C2       Shell     6 SP   1    bf   15 -    18         -1.777295072851          2.719503596395          0.217949869729
      0.1958570000D+00  0.1000000000D+01  0.1000000000D+01
 Atom C3       Shell     7 S   3     bf   19 -    19         -3.787041677497          1.038584292603         -0.502153009494
      0.1722560000D+03  0.6176690738D-01
      0.2591090000D+02  0.3587940429D+00
      0.5533350000D+01  0.7007130837D+00
 Atom C3       Shell     8 SP   2    bf   20 -    23         -3.787041677497          1.038584292603         -0.502153009494
      0.3664980000D+01 -0.3958951621D+00  0.2364599466D+00
      0.7705450000D+00  0.1215834356D+01  0.8606188057D+00
 Atom C3       Shell     9 SP   1    bf   24 -    27         -3.787041677497          1.038584292603         -0.502153009494
      0.1958570000D+00  0.1000000000D+01  0.1000000000D+01
 Atom C4       Shell    10 S   3     bf   28 -    28          2.240438302236         -0.032874506632         -0.016793263197
      0.1722560000D+03  0.6176690738D-01
      0.2591090000D+02  0.3587940429D+00
      0.5533350000D+01  0.7007130837D+00
 Atom C4       Shell    11 SP   2    bf   29 -    32          2.240438302236         -0.032874506632         -0.016793263197
      0.3664980000D+01 -0.3958951621D+00  0.2364599466D+00
      0.7705450000D+00  0.1215834356D+01  0.8606188057D+00
 Atom C4       Shell    12 SP   1    bf   33 -    36          2.240438302236         -0.032874506632         -0.016793263197
      0.1958570000D+00  0.1000000000D+01  0.1000000000D+01
 Atom C5       Shell    13 S   3     bf   37 -    37         -3.560795847017         -1.484058912779         -0.510609772961
      0.1722560000D+03  0.6176690738D-01
      0.2591090000D+02  0.3587940429D+00
      0.5533350000D+01  0.7007130837D+00
 Atom C5       Shell    14 SP   2    bf   38 -    41         -3.560795847017         -1.484058912779         -0.510609772961
      0.3664980000D+01 -0.3958951621D+00  0.2364599466D+00
      0.7705450000D+00  0.1215834356D+01  0.8606188057D+00
 Atom C5       Shell    15 SP   1    bf   42 -    45         -3.560795847017         -1.484058912779         -0.510609772961
      0.1958570000D+00  0.1000000000D+01  0.1000000000D+01
 Atom C6       Shell    16 S   3     bf   46 -    46          1.168158759587         -2.324695339669         -0.129760915182
      0.1722560000D+03  0.6176690738D-01
      0.2591090000D+02  0.3587940429D+00
      0.5533350000D+01  0.7007130837D+00
 Atom C6       Shell    17 SP   2    bf   47 -    50          1.168158759587         -2.324695339669         -0.129760915182
      0.3664980000D+01 -0.3958951621D+00  0.2364599466D+00
      0.7705450000D+00  0.1215834356D+01  0.8606188057D+00
 Atom C6       Shell    18 SP   1    bf   51 -    54          1.168158759587         -2.324695339669         -0.129760915182
      0.1958570000D+00  0.1000000000D+01  0.1000000000D+01
 Atom C7       Shell    19 S   3     bf   55 -    55         -1.409698361317         -2.509652683634          0.993324501260
      0.1722560000D+03  0.6176690738D-01
      0.2591090000D+02  0.3587940429D+00
      0.5533350000D+01  0.7007130837D+00
 Atom C7       Shell    20 SP   2    bf   56 -    59         -1.409698361317         -2.509652683634          0.993324501260
      0.3664980000D+01 -0.3958951621D+00  0.2364599466D+00
      0.7705450000D+00  0.1215834356D+01  0.8606188057D+00
 Atom C7       Shell    21 SP   1    bf   60 -    63         -1.409698361317         -2.509652683634          0.993324501260
      0.1958570000D+00  0.1000000000D+01  0.1000000000D+01
 Atom H8       Shell    22 S   2     bf   64 -    64          1.958774277552          3.855613686575          0.954255799264
      0.5447178000D+01  0.1562849787D+00
      0.8245472400D+00  0.9046908767D+00
 Atom H8       Shell    23 S   1     bf   65 -    65          1.958774277552          3.855613686575          0.954255799264
      0.1831915800D+00  0.1000000000D+01
 Atom H9       Shell    24 S   2     bf   66 -    66         -2.344945701697          4.620668266262          0.607639237029
      0.5447178000D+01  0.1562849787D+00
      0.8245472400D+00  0.9046908767D+00
 Atom H9       Shell    25 S   1     bf   67 -    67         -2.344945701697          4.620668266262          0.607639237029
      0.1831915800D+00  0.1000000000D+01
 Atom H10      Shell    26 S   2     bf   68 -    68         -5.554526743201          1.844017202586         -1.064101848656
      0.5447178000D+01  0.1562849787D+00
      0.8245472400D+00  0.9046908767D+00
 Atom H10      Shell    27 S   1     bf   69 -    69         -5.554526743201          1.844017202586         -1.064101848656
      0.1831915800D+00  0.1000000000D+01
 Atom H11      Shell    28 S   2     bf   70 -    70         -4.845169797543         -2.681224584860         -1.513450776191
      0.5447178000D+01  0.1562849787D+00
      0.8245472400D+00  0.9046908767D+00
 Atom H11      Shell    29 S   1     bf   71 -    71         -4.845169797543         -2.681224584860         -1.513450776191
      0.1831915800D+00  0.1000000000D+01
 Atom H12      Shell    30 S   2     bf   72 -    72          2.103897176952         -3.916527620689         -0.953760752182
      0.5447178000D+01  0.1562849787D+00
      0.8245472400D+00  0.9046908767D+00
 Atom H12      Shell    31 S   1     bf   73 -    73          2.103897176952         -3.916527620689         -0.953760752182
      0.1831915800D+00  0.1000000000D+01
 Atom H13      Shell    32 S   2     bf   74 -    74         -1.695714995556         -3.281992011559          2.839996814750
      0.5447178000D+01  0.1562849787D+00
      0.8245472400D+00  0.9046908767D+00
 Atom H13      Shell    33 S   1     bf   75 -    75         -1.695714995556         -3.281992011559          2.839996814750
      0.1831915800D+00  0.1000000000D+01
 Atom C14      Shell    34 S   3     bf   76 -    76          5.120168031698          0.162207035899         -0.388596029210
      0.1722560000D+03  0.6176690738D-01
      0.2591090000D+02  0.3587940429D+00
      0.5533350000D+01  0.7007130837D+00
 Atom C14      Shell    35 SP   2    bf   77 -    80          5.120168031698          0.162207035899         -0.388596029210
      0.3664980000D+01 -0.3958951621D+00  0.2364599466D+00
      0.7705450000D+00  0.1215834356D+01  0.8606188057D+00
 Atom C14      Shell    36 SP   1    bf   81 -    84          5.120168031698          0.162207035899         -0.388596029210
      0.1958570000D+00  0.1000000000D+01  0.1000000000D+01
 Atom H15      Shell    37 S   2     bf   85 -    85          5.530468707602          0.418225781090         -2.351914602029
      0.5447178000D+01  0.1562849787D+00
      0.8245472400D+00  0.9046908767D+00
 Atom H15      Shell    38 S   1     bf   86 -    86          5.530468707602          0.418225781090         -2.351914602029
      0.1831915800D+00  0.1000000000D+01
 Atom H16      Shell    39 S   2     bf   87 -    87          5.829792728914          1.739066717177          0.659477654087
      0.5447178000D+01  0.1562849787D+00
      0.8245472400D+00  0.9046908767D+00
 Atom H16      Shell    40 S   1     bf   88 -    88          5.829792728914          1.739066717177          0.659477654087
      0.1831915800D+00  0.1000000000D+01
 Atom H17      Shell    41 S   2     bf   89 -    89          6.001093804955         -1.535127742833          0.268318394608
      0.5447178000D+01  0.1562849787D+00
      0.8245472400D+00  0.9046908767D+00
 Atom H17      Shell    42 S   1     bf   90 -    90          6.001093804955         -1.535127742833          0.268318394608
      0.1831915800D+00  0.1000000000D+01
 There are    90 symmetry adapted cartesian basis functions of A   symmetry.
 There are    90 symmetry adapted basis functions of A   symmetry.
    90 basis functions,   147 primitive gaussians,    90 cartesian basis functions
    29 alpha electrons       29 beta electrons
       nuclear repulsion energy       331.6671588269 Hartrees.
 IExCor=    0 DFT=F Ex=HF Corr=None ExCW=0 ScaHFX=  1.000000
 ScaDFX=  1.000000  1.000000  1.000000  1.000000 ScalE2=  1.000000  1.000000
 IRadAn=      5 IRanWt=     -1 IRanGd=            0 ICorTp=0 IEmpDi=  4
 NAtoms=   17 NActive=   17 NUniq=   17 SFac= 1.00D+00 NAtFMM=   60 NAOKFM=F Big=F
 Integral buffers will be    131072 words long.
 Raffenetti 1 integral format.
 Two-electron integral symmetry is turned on.
 Leave Link  301 at Tue Jun 10 01:52:45 2025, MaxMem=  2013265920 cpu:               1.9 elap:               0.1
 (Enter /home/user/softwares/g16/g16/l302.exe)
 NPDir=0 NMtPBC=     1 NCelOv=     1 NCel=       1 NClECP=     1 NCelD=      1
         NCelK=      1 NCelE2=     1 NClLst=     1 CellRange=     0.0.
 One-electron integrals computed using PRISM.
 One-electron integral symmetry used in STVInt
 NBasis=    90 RedAO= T EigKep=  3.74D-03  NBF=    90
 NBsUse=    90 1.00D-06 EigRej= -1.00D+00 NBFU=    90
 Leave Link  302 at Tue Jun 10 01:52:45 2025, MaxMem=  2013265920 cpu:               5.1 elap:               0.3
 (Enter /home/user/softwares/g16/g16/l303.exe)
 DipDrv:  MaxL=1.
 Leave Link  303 at Tue Jun 10 01:52:45 2025, MaxMem=  2013265920 cpu:               1.4 elap:               0.1
 (Enter /home/user/softwares/g16/g16/l401.exe)
 ExpMin= 1.83D-01 ExpMax= 1.72D+02 ExpMxC= 1.72D+02 IAcc=3 IRadAn=         5 AccDes= 0.00D+00
 Harris functional with IExCor=  205 and IRadAn=       5 diagonalized for initial guess.
 HarFok:  IExCor=  205 AccDes= 0.00D+00 IRadAn=         5 IDoV= 1 UseB2=F ITyADJ=14
 ICtDFT=  3500011 ScaDFX=  1.000000  1.000000  1.000000  1.000000
 FoFCou: FMM=F IPFlag=           0 FMFlag=      100000 FMFlg1=           0
         NFxFlg=           0 DoJE=T BraDBF=F KetDBF=T FulRan=T
         wScrn=  0.000000 ICntrl=       500 IOpCl=  0 I1Cent=   200000004 NGrid=           0
         NMat0=    1 NMatS0=      1 NMatT0=    0 NMatD0=    1 NMtDS0=    0 NMtDT0=    0
 Petite list used in FoFCou.
 Harris En= -307.084686252156    
 JPrj=0 DoOrth=F DoCkMO=F.
 Leave Link  401 at Tue Jun 10 01:52:46 2025, MaxMem=  2013265920 cpu:               8.4 elap:               0.4
 (Enter /home/user/softwares/g16/g16/l502.exe)
 Integral symmetry usage will be decided dynamically.
 Closed shell SCF:
 Using DIIS extrapolation, IDIIS=  1040.
 NGot=  2013265920 LenX=  2013246555 LenY=  2013238014
 Requested convergence on RMS density matrix=1.00D-08 within 128 cycles.
 Requested convergence on MAX density matrix=1.00D-06.
 Requested convergence on             energy=1.00D-06.
 No special actions if energy rises.
 Fock matrices will be formed incrementally for  20 cycles.
 Integral accuracy reduced to 1.0D-05 until final iterations.

 Cycle   1  Pass 0  IDiag  1:
 FoFJK:  IHMeth= 1 ICntrl=       0 DoSepK=F KAlg= 0 I1Cent=           0 FoldK=F
 IRaf= 930000000 NMat=       1 IRICut=       1 DoRegI=T DoRafI=F ISym2E= 0 IDoP0=0 IntGTp=1.
 FoFCou: FMM=F IPFlag=           0 FMFlag=      100000 FMFlg1=           0
         NFxFlg=           0 DoJE=F BraDBF=F KetDBF=F FulRan=T
         wScrn=  0.000000 ICntrl=         0 IOpCl=  0 I1Cent=           0 NGrid=           0
         NMat0=    1 NMatS0=      1 NMatT0=    0 NMatD0=    1 NMtDS0=    0 NMtDT0=    0
 Symmetry not used in FoFCou.
 E= -305.799629239216    
 DIIS: error= 4.31D-02 at cycle   1 NSaved=   1.
 NSaved= 1 IEnMin= 1 EnMin= -305.799629239216     IErMin= 1 ErrMin= 4.31D-02
 ErrMax= 4.31D-02  0.00D+00 EMaxC= 1.00D-01 BMatC= 4.79D-01 BMatP= 4.79D-01
 IDIUse=3 WtCom= 5.69D-01 WtEn= 4.31D-01
 Coeff-Com:  0.100D+01
 Coeff-En:   0.100D+01
 Coeff:      0.100D+01
 Gap=     0.184 Goal=   None    Shift=    0.000
 GapD=    0.184 DampG=1.000 DampE=0.500 DampFc=0.5000 IDamp=-1.
 Damping current iteration by 5.00D-01
 RMSDP=1.26D-02 MaxDP=1.36D-01              OVMax= 1.66D-01

 Cycle   2  Pass 0  IDiag  1:
 RMSU=  6.25D-03    CP:  9.83D-01
 E= -306.043575596503     Delta-E=       -0.243946357287 Rises=F Damp=T
 DIIS: error= 1.69D-02 at cycle   2 NSaved=   2.
 NSaved= 2 IEnMin= 2 EnMin= -306.043575596503     IErMin= 2 ErrMin= 1.69D-02
 ErrMax= 1.69D-02  0.00D+00 EMaxC= 1.00D-01 BMatC= 7.76D-02 BMatP= 4.79D-01
 IDIUse=3 WtCom= 8.31D-01 WtEn= 1.69D-01
 Coeff-Com: -0.530D+00 0.153D+01
 Coeff-En:   0.000D+00 0.100D+01
 Coeff:     -0.441D+00 0.144D+01
 Gap=     0.278 Goal=   None    Shift=    0.000
 RMSDP=3.62D-03 MaxDP=5.59D-02 DE=-2.44D-01 OVMax= 5.85D-02

 Cycle   3  Pass 0  IDiag  1:
 RMSU=  2.88D-03    CP:  9.70D-01  1.34D+00
 E= -306.252097158326     Delta-E=       -0.208521561824 Rises=F Damp=F
 DIIS: error= 4.62D-03 at cycle   3 NSaved=   3.
 NSaved= 3 IEnMin= 3 EnMin= -306.252097158326     IErMin= 3 ErrMin= 4.62D-03
 ErrMax= 4.62D-03  0.00D+00 EMaxC= 1.00D-01 BMatC= 9.71D-04 BMatP= 7.76D-02
 IDIUse=3 WtCom= 9.54D-01 WtEn= 4.62D-02
 Coeff-Com: -0.209D-01 0.204D-01 0.100D+01
 Coeff-En:   0.000D+00 0.000D+00 0.100D+01
 Coeff:     -0.199D-01 0.195D-01 0.100D+01
 Gap=     0.260 Goal=   None    Shift=    0.000
 RMSDP=7.18D-04 MaxDP=7.76D-03 DE=-2.09D-01 OVMax= 2.24D-02

 Cycle   4  Pass 0  IDiag  1:
 RMSU=  6.38D-04    CP:  9.70D-01  1.37D+00  1.10D+00
 E= -306.253309116774     Delta-E=       -0.001211958448 Rises=F Damp=F
 DIIS: error= 1.95D-03 at cycle   4 NSaved=   4.
 NSaved= 4 IEnMin= 4 EnMin= -306.253309116774     IErMin= 4 ErrMin= 1.95D-03
 ErrMax= 1.95D-03  0.00D+00 EMaxC= 1.00D-01 BMatC= 2.82D-04 BMatP= 9.71D-04
 IDIUse=3 WtCom= 9.80D-01 WtEn= 1.95D-02
 Coeff-Com:  0.134D-01-0.487D-01 0.329D+00 0.706D+00
 Coeff-En:   0.000D+00 0.000D+00 0.000D+00 0.100D+01
 Coeff:      0.131D-01-0.477D-01 0.323D+00 0.712D+00
 Gap=     0.268 Goal=   None    Shift=    0.000
 RMSDP=3.19D-04 MaxDP=4.37D-03 DE=-1.21D-03 OVMax= 8.01D-03

 Cycle   5  Pass 0  IDiag  1:
 RMSU=  2.19D-04    CP:  9.69D-01  1.35D+00  1.15D+00  7.98D-01
 E= -306.253672311067     Delta-E=       -0.000363194293 Rises=F Damp=F
 DIIS: error= 9.16D-04 at cycle   5 NSaved=   5.
 NSaved= 5 IEnMin= 5 EnMin= -306.253672311067     IErMin= 5 ErrMin= 9.16D-04
 ErrMax= 9.16D-04  0.00D+00 EMaxC= 1.00D-01 BMatC= 1.48D-05 BMatP= 2.82D-04
 IDIUse=3 WtCom= 9.91D-01 WtEn= 9.16D-03
 Coeff-Com: -0.758D-03 0.728D-02-0.130D+00-0.109D+00 0.123D+01
 Coeff-En:   0.000D+00 0.000D+00 0.000D+00 0.000D+00 0.100D+01
 Coeff:     -0.751D-03 0.721D-02-0.129D+00-0.108D+00 0.123D+01
 Gap=     0.270 Goal=   None    Shift=    0.000
 RMSDP=1.74D-04 MaxDP=1.68D-03 DE=-3.63D-04 OVMax= 5.47D-03

 Cycle   6  Pass 0  IDiag  1:
 RMSU=  7.23D-05    CP:  9.69D-01  1.34D+00  1.18D+00  9.16D-01  1.46D+00
 E= -306.253742638480     Delta-E=       -0.000070327413 Rises=F Damp=F
 DIIS: error= 3.19D-04 at cycle   6 NSaved=   6.
 NSaved= 6 IEnMin= 6 EnMin= -306.253742638480     IErMin= 6 ErrMin= 3.19D-04
 ErrMax= 3.19D-04  0.00D+00 EMaxC= 1.00D-01 BMatC= 2.87D-06 BMatP= 1.48D-05
 IDIUse=3 WtCom= 9.97D-01 WtEn= 3.19D-03
 Coeff-Com: -0.183D-02 0.647D-02-0.500D-01-0.103D+00 0.136D+00 0.101D+01
 Coeff-En:   0.000D+00 0.000D+00 0.000D+00 0.000D+00 0.000D+00 0.100D+01
 Coeff:     -0.182D-02 0.645D-02-0.498D-01-0.103D+00 0.135D+00 0.101D+01
 Gap=     0.270 Goal=   None    Shift=    0.000
 RMSDP=6.50D-05 MaxDP=6.84D-04 DE=-7.03D-05 OVMax= 1.98D-03

 Cycle   7  Pass 0  IDiag  1:
 RMSU=  2.40D-05    CP:  9.69D-01  1.34D+00  1.18D+00  9.37D-01  1.69D+00
                    CP:  1.34D+00
 E= -306.253755590305     Delta-E=       -0.000012951824 Rises=F Damp=F
 DIIS: error= 1.31D-04 at cycle   7 NSaved=   7.
 NSaved= 7 IEnMin= 7 EnMin= -306.253755590305     IErMin= 7 ErrMin= 1.31D-04
 ErrMax= 1.31D-04  0.00D+00 EMaxC= 1.00D-01 BMatC= 4.37D-07 BMatP= 2.87D-06
 IDIUse=3 WtCom= 9.99D-01 WtEn= 1.31D-03
 Coeff-Com:  0.238D-03-0.219D-02 0.357D-01 0.370D-01-0.240D+00-0.228D+00
 Coeff-Com:  0.140D+01
 Coeff-En:   0.000D+00 0.000D+00 0.000D+00 0.000D+00 0.000D+00 0.000D+00
 Coeff-En:   0.100D+01
 Coeff:      0.238D-03-0.219D-02 0.357D-01 0.370D-01-0.239D+00-0.228D+00
 Coeff:      0.140D+01
 Gap=     0.270 Goal=   None    Shift=    0.000
 RMSDP=4.56D-05 MaxDP=4.33D-04 DE=-1.30D-05 OVMax= 1.79D-03

 Cycle   8  Pass 0  IDiag  1:
 RMSU=  1.44D-05    CP:  9.69D-01  1.34D+00  1.18D+00  9.45D-01  1.79D+00
                    CP:  1.71D+00  1.92D+00
 E= -306.253759685905     Delta-E=       -0.000004095601 Rises=F Damp=F
 DIIS: error= 1.08D-04 at cycle   8 NSaved=   8.
 NSaved= 8 IEnMin= 8 EnMin= -306.253759685905     IErMin= 8 ErrMin= 1.08D-04
 ErrMax= 1.08D-04  0.00D+00 EMaxC= 1.00D-01 BMatC= 8.77D-08 BMatP= 4.37D-07
 IDIUse=3 WtCom= 9.99D-01 WtEn= 1.08D-03
 Coeff-Com:  0.128D-03-0.149D-03-0.249D-02 0.292D-02 0.322D-01-0.341D-01
 Coeff-Com: -0.288D+00 0.129D+01
 Coeff-En:   0.000D+00 0.000D+00 0.000D+00 0.000D+00 0.000D+00 0.000D+00
 Coeff-En:   0.000D+00 0.100D+01
 Coeff:      0.128D-03-0.149D-03-0.249D-02 0.291D-02 0.322D-01-0.341D-01
 Coeff:     -0.288D+00 0.129D+01
 Gap=     0.270 Goal=   None    Shift=    0.000
 RMSDP=2.33D-05 MaxDP=2.87D-04 DE=-4.10D-06 OVMax= 1.28D-03

 Cycle   9  Pass 0  IDiag  1:
 RMSU=  7.16D-06    CP:  9.69D-01  1.34D+00  1.18D+00  9.47D-01  1.81D+00
                    CP:  1.83D+00  2.55D+00  1.92D+00
 E= -306.253760994181     Delta-E=       -0.000001308276 Rises=F Damp=F
 DIIS: error= 8.94D-05 at cycle   9 NSaved=   9.
 NSaved= 9 IEnMin= 9 EnMin= -306.253760994181     IErMin= 9 ErrMin= 8.94D-05
 ErrMax= 8.94D-05  0.00D+00 EMaxC= 1.00D-01 BMatC= 5.18D-08 BMatP= 8.77D-08
 IDIUse=1 WtCom= 1.00D+00 WtEn= 0.00D+00
 Coeff-Com: -0.516D-04 0.566D-03-0.968D-02-0.910D-02 0.612D-01 0.655D-01
 Coeff-Com: -0.365D+00-0.486D-01 0.130D+01
 Coeff:     -0.516D-04 0.566D-03-0.968D-02-0.910D-02 0.612D-01 0.655D-01
 Coeff:     -0.365D+00-0.486D-01 0.130D+01
 Gap=     0.270 Goal=   None    Shift=    0.000
 RMSDP=2.26D-05 MaxDP=2.91D-04 DE=-1.31D-06 OVMax= 1.28D-03

 Cycle  10  Pass 0  IDiag  1:
 RMSU=  4.44D-06    CP:  9.69D-01  1.34D+00  1.18D+00  9.48D-01  1.82D+00
                    CP:  1.92D+00  3.00D+00  2.90D+00  2.18D+00
 E= -306.253761993737     Delta-E=       -0.000000999557 Rises=F Damp=F
 DIIS: error= 7.09D-05 at cycle  10 NSaved=  10.
 NSaved=10 IEnMin=10 EnMin= -306.253761993737     IErMin=10 ErrMin= 7.09D-05
 ErrMax= 7.09D-05  0.00D+00 EMaxC= 1.00D-01 BMatC= 3.03D-08 BMatP= 5.18D-08
 IDIUse=1 WtCom= 1.00D+00 WtEn= 0.00D+00
 Coeff-Com: -0.537D-04-0.117D-03 0.458D-02 0.794D-03-0.439D-01 0.576D-02
 Coeff-Com:  0.348D+00-0.108D+01-0.259D+00 0.203D+01
 Coeff:     -0.537D-04-0.117D-03 0.458D-02 0.794D-03-0.439D-01 0.576D-02
 Coeff:      0.348D+00-0.108D+01-0.259D+00 0.203D+01
 Gap=     0.270 Goal=   None    Shift=    0.000
 RMSDP=3.85D-05 MaxDP=5.00D-04 DE=-1.00D-06 OVMax= 2.20D-03

 Cycle  11  Pass 0  IDiag  1:
 RMSU=  3.03D-05    CP:  9.69D-01  1.34D+00  1.18D+00  9.51D-01  1.83D+00
                    CP:  2.06D+00  3.00D+00  3.00D+00  3.00D+00  3.00D+00
 E= -306.253763168560     Delta-E=       -0.000001174822 Rises=F Damp=F
 DIIS: error= 3.84D-05 at cycle  11 NSaved=  11.
 NSaved=11 IEnMin=11 EnMin= -306.253763168560     IErMin=11 ErrMin= 3.84D-05
 ErrMax= 3.84D-05  0.00D+00 EMaxC= 1.00D-01 BMatC= 1.01D-08 BMatP= 3.03D-08
 IDIUse=1 WtCom= 1.00D+00 WtEn= 0.00D+00
 Coeff-Com:  0.627D-04-0.340D-03 0.476D-02 0.459D-02-0.230D-01-0.473D-01
 Coeff-Com:  0.149D+00 0.240D+00-0.587D+00-0.518D+00 0.178D+01
 Coeff:      0.627D-04-0.340D-03 0.476D-02 0.459D-02-0.230D-01-0.473D-01
 Coeff:      0.149D+00 0.240D+00-0.587D+00-0.518D+00 0.178D+01
 Gap=     0.270 Goal=   None    Shift=    0.000
 RMSDP=2.95D-05 MaxDP=3.83D-04 DE=-1.17D-06 OVMax= 1.69D-03

 Cycle  12  Pass 0  IDiag  1:
 RMSU=  8.44D-06    CP:  9.69D-01  1.34D+00  1.18D+00  9.52D-01  1.84D+00
                    CP:  2.15D+00  3.00D+00  3.00D+00  3.00D+00  3.00D+00
                    CP:  1.90D+00
 E= -306.253763620944     Delta-E=       -0.000000452384 Rises=F Damp=F
 DIIS: error= 1.30D-05 at cycle  12 NSaved=  12.
 NSaved=12 IEnMin=12 EnMin= -306.253763620944     IErMin=12 ErrMin= 1.30D-05
 ErrMax= 1.30D-05  0.00D+00 EMaxC= 1.00D-01 BMatC= 2.14D-09 BMatP= 1.01D-08
 IDIUse=1 WtCom= 1.00D+00 WtEn= 0.00D+00
 Coeff-Com:  0.403D-04-0.510D-04-0.443D-03 0.359D-03 0.112D-01-0.174D-01
 Coeff-Com: -0.847D-01 0.401D+00 0.987D-02-0.835D+00 0.369D+00 0.115D+01
 Coeff:      0.403D-04-0.510D-04-0.443D-03 0.359D-03 0.112D-01-0.174D-01
 Coeff:     -0.847D-01 0.401D+00 0.987D-02-0.835D+00 0.369D+00 0.115D+01
 Gap=     0.270 Goal=   None    Shift=    0.000
 RMSDP=1.30D-05 MaxDP=1.67D-04 DE=-4.52D-07 OVMax= 7.40D-04

 Cycle  13  Pass 0  IDiag  1:
 RMSU=  8.99D-07    CP:  9.69D-01  1.34D+00  1.18D+00  9.52D-01  1.85D+00
                    CP:  2.20D+00  3.00D+00  3.00D+00  3.00D+00  3.00D+00
                    CP:  2.29D+00  1.43D+00
 E= -306.253763691975     Delta-E=       -0.000000071031 Rises=F Damp=F
 DIIS: error= 2.05D-06 at cycle  13 NSaved=  13.
 NSaved=13 IEnMin=13 EnMin= -306.253763691975     IErMin=13 ErrMin= 2.05D-06
 ErrMax= 2.05D-06  0.00D+00 EMaxC= 1.00D-01 BMatC= 1.70D-10 BMatP= 2.14D-09
 IDIUse=1 WtCom= 1.00D+00 WtEn= 0.00D+00
 Coeff-Com: -0.166D-04 0.573D-04-0.573D-03-0.102D-02 0.176D-02 0.861D-02
 Coeff-Com:  0.200D-02-0.132D+00 0.109D+00 0.219D+00-0.286D+00-0.296D+00
 Coeff-Com:  0.137D+01
 Coeff:     -0.166D-04 0.573D-04-0.573D-03-0.102D-02 0.176D-02 0.861D-02
 Coeff:      0.200D-02-0.132D+00 0.109D+00 0.219D+00-0.286D+00-0.296D+00
 Coeff:      0.137D+01
 Gap=     0.270 Goal=   None    Shift=    0.000
 RMSDP=1.85D-06 MaxDP=2.42D-05 DE=-7.10D-08 OVMax= 1.01D-04

 Initial convergence to 1.0D-05 achieved.  Increase integral accuracy.
 Cycle  14  Pass 1  IDiag  1:
 E= -306.253763590820     Delta-E=        0.000000101155 Rises=F Damp=F
 DIIS: error= 3.56D-06 at cycle   1 NSaved=   1.
 NSaved= 1 IEnMin= 1 EnMin= -306.253763590820     IErMin= 1 ErrMin= 3.56D-06
 ErrMax= 3.56D-06  0.00D+00 EMaxC= 1.00D-01 BMatC= 1.01D-09 BMatP= 1.01D-09
 IDIUse=1 WtCom= 1.00D+00 WtEn= 0.00D+00
 Coeff-Com:  0.100D+01
 Coeff:      0.100D+01
 Gap=     0.270 Goal=   None    Shift=    0.000
 RMSDP=1.85D-06 MaxDP=2.42D-05 DE= 1.01D-07 OVMax= 5.61D-06

 Cycle  15  Pass 1  IDiag  1:
 RMSU=  9.29D-07    CP:  1.00D+00
 E= -306.253763591425     Delta-E=       -0.000000000604 Rises=F Damp=F
 DIIS: error= 4.20D-07 at cycle   2 NSaved=   2.
 NSaved= 2 IEnMin= 2 EnMin= -306.253763591425     IErMin= 2 ErrMin= 4.20D-07
 ErrMax= 4.20D-07  0.00D+00 EMaxC= 1.00D-01 BMatC= 1.00D-11 BMatP= 1.01D-09
 IDIUse=1 WtCom= 1.00D+00 WtEn= 0.00D+00
 Coeff-Com: -0.310D-01 0.103D+01
 Coeff:     -0.310D-01 0.103D+01
 Gap=     0.270 Goal=   None    Shift=    0.000
 RMSDP=1.39D-07 MaxDP=1.51D-06 DE=-6.04D-10 OVMax= 3.71D-06

 Cycle  16  Pass 1  IDiag  1:
 RMSU=  9.93D-08    CP:  1.00D+00  1.10D+00
 E= -306.253763591462     Delta-E=       -0.000000000038 Rises=F Damp=F
 DIIS: error= 3.36D-07 at cycle   3 NSaved=   3.
 NSaved= 3 IEnMin= 3 EnMin= -306.253763591462     IErMin= 3 ErrMin= 3.36D-07
 ErrMax= 3.36D-07  0.00D+00 EMaxC= 1.00D-01 BMatC= 2.92D-12 BMatP= 1.00D-11
 IDIUse=1 WtCom= 1.00D+00 WtEn= 0.00D+00
 Coeff-Com: -0.648D-02 0.440D-01 0.963D+00
 Coeff:     -0.648D-02 0.440D-01 0.963D+00
 Gap=     0.270 Goal=   None    Shift=    0.000
 RMSDP=6.64D-08 MaxDP=7.31D-07 DE=-3.76D-11 OVMax= 2.76D-06

 Cycle  17  Pass 1  IDiag  1:
 RMSU=  3.83D-08    CP:  1.00D+00  1.13D+00  1.51D+00
 E= -306.253763591479     Delta-E=       -0.000000000016 Rises=F Damp=F
 DIIS: error= 3.09D-07 at cycle   4 NSaved=   4.
 NSaved= 4 IEnMin= 4 EnMin= -306.253763591479     IErMin= 4 ErrMin= 3.09D-07
 ErrMax= 3.09D-07  0.00D+00 EMaxC= 1.00D-01 BMatC= 1.46D-12 BMatP= 2.92D-12
 IDIUse=1 WtCom= 1.00D+00 WtEn= 0.00D+00
 Coeff-Com:  0.118D-01-0.383D+00 0.602D-01 0.131D+01
 Coeff:      0.118D-01-0.383D+00 0.602D-01 0.131D+01
 Gap=     0.270 Goal=   None    Shift=    0.000
 RMSDP=9.00D-08 MaxDP=1.07D-06 DE=-1.63D-11 OVMax= 4.34D-06

 Cycle  18  Pass 1  IDiag  1:
 RMSU=  2.88D-08    CP:  1.00D+00  1.14D+00  2.26D+00  2.00D+00
 E= -306.253763591495     Delta-E=       -0.000000000017 Rises=F Damp=F
 DIIS: error= 2.37D-07 at cycle   5 NSaved=   5.
 NSaved= 5 IEnMin= 5 EnMin= -306.253763591495     IErMin= 5 ErrMin= 2.37D-07
 ErrMax= 2.37D-07  0.00D+00 EMaxC= 1.00D-01 BMatC= 4.42D-13 BMatP= 1.46D-12
 IDIUse=1 WtCom= 1.00D+00 WtEn= 0.00D+00
 Coeff-Com: -0.946D-03 0.853D-01-0.316D+00-0.415D+00 0.165D+01
 Coeff:     -0.946D-03 0.853D-01-0.316D+00-0.415D+00 0.165D+01
 Gap=     0.270 Goal=   None    Shift=    0.000
 RMSDP=8.75D-08 MaxDP=1.10D-06 DE=-1.68D-11 OVMax= 4.66D-06

 Cycle  19  Pass 1  IDiag  1:
 RMSU=  1.65D-08    CP:  1.00D+00  1.15D+00  2.88D+00  3.00D+00  2.26D+00
 E= -306.253763591504     Delta-E=       -0.000000000008 Rises=F Damp=F
 DIIS: error= 1.65D-07 at cycle   6 NSaved=   6.
 NSaved= 6 IEnMin= 6 EnMin= -306.253763591504     IErMin= 6 ErrMin= 1.65D-07
 ErrMax= 1.65D-07  0.00D+00 EMaxC= 1.00D-01 BMatC= 1.89D-13 BMatP= 4.42D-13
 IDIUse=1 WtCom= 1.00D+00 WtEn= 0.00D+00
 Coeff-Com: -0.263D-02 0.947D-01-0.649D-01-0.287D+00 0.361D+00 0.899D+00
 Coeff:     -0.263D-02 0.947D-01-0.649D-01-0.287D+00 0.361D+00 0.899D+00
 Gap=     0.270 Goal=   None    Shift=    0.000
 RMSDP=2.75D-08 MaxDP=3.52D-07 DE=-8.41D-12 OVMax= 1.57D-06

 Cycle  20  Pass 1  IDiag  1:
 RMSU=  9.80D-09    CP:  1.00D+00  1.15D+00  3.00D+00  3.00D+00  2.81D+00
                    CP:  1.95D+00
 E= -306.253763591505     Delta-E=       -0.000000000001 Rises=F Damp=F
 DIIS: error= 1.43D-07 at cycle   7 NSaved=   7.
 NSaved= 7 IEnMin= 7 EnMin= -306.253763591505     IErMin= 7 ErrMin= 1.43D-07
 ErrMax= 1.43D-07  0.00D+00 EMaxC= 1.00D-01 BMatC= 1.20D-13 BMatP= 1.89D-13
 IDIUse=1 WtCom= 1.00D+00 WtEn= 0.00D+00
 Coeff-Com:  0.250D-02-0.128D+00 0.201D+00 0.551D+00-0.147D+01-0.138D+01
 Coeff-Com:  0.322D+01
 Coeff:      0.250D-02-0.128D+00 0.201D+00 0.551D+00-0.147D+01-0.138D+01
 Coeff:      0.322D+01
 Gap=     0.270 Goal=   None    Shift=    0.000
 RMSDP=9.55D-08 MaxDP=1.25D-06 DE=-1.02D-12 OVMax= 5.49D-06

 Cycle  21  Pass 1  IDiag  1:
 RMSU=  7.77D-08    CP:  1.00D+00  1.16D+00  3.00D+00  3.00D+00  3.00D+00
                    CP:  3.00D+00  3.00D+00
 E= -306.253763591511     Delta-E=       -0.000000000006 Rises=F Damp=F
 DIIS: error= 6.01D-08 at cycle   8 NSaved=   8.
 NSaved= 8 IEnMin= 8 EnMin= -306.253763591511     IErMin= 8 ErrMin= 6.01D-08
 ErrMax= 6.01D-08  0.00D+00 EMaxC= 1.00D-01 BMatC= 3.41D-14 BMatP= 1.20D-13
 IDIUse=1 WtCom= 1.00D+00 WtEn= 0.00D+00
 Coeff-Com:  0.294D-03 0.360D-02-0.791D-01 0.724D-02 0.373D+00-0.291D+00
 Coeff-Com: -0.694D+00 0.168D+01
 Coeff:      0.294D-03 0.360D-02-0.791D-01 0.724D-02 0.373D+00-0.291D+00
 Coeff:     -0.694D+00 0.168D+01
 Gap=     0.270 Goal=   None    Shift=    0.000
 RMSDP=5.15D-08 MaxDP=6.65D-07 DE=-5.80D-12 OVMax= 2.93D-06

 Cycle  22  Pass 1  IDiag  1:
 RMSU=  1.62D-08    CP:  1.00D+00  1.17D+00  3.00D+00  3.00D+00  3.00D+00
                    CP:  3.00D+00  3.00D+00  1.63D+00
 E= -306.253763591510     Delta-E=        0.000000000001 Rises=F Damp=F
 DIIS: error= 1.74D-08 at cycle   9 NSaved=   9.
 NSaved= 9 IEnMin= 8 EnMin= -306.253763591511     IErMin= 9 ErrMin= 1.74D-08
 ErrMax= 1.74D-08  0.00D+00 EMaxC= 1.00D-01 BMatC= 4.97D-15 BMatP= 3.41D-14
 IDIUse=1 WtCom= 1.00D+00 WtEn= 0.00D+00
 Coeff-Com: -0.696D-03 0.379D-01-0.823D-01-0.136D+00 0.452D+00 0.299D+00
 Coeff-Com: -0.910D+00 0.153D+00 0.119D+01
 Coeff:     -0.696D-03 0.379D-01-0.823D-01-0.136D+00 0.452D+00 0.299D+00
 Coeff:     -0.910D+00 0.153D+00 0.119D+01
 Gap=     0.270 Goal=   None    Shift=    0.000
 RMSDP=1.87D-08 MaxDP=2.38D-07 DE= 1.02D-12 OVMax= 1.05D-06

 Cycle  23  Pass 1  IDiag  1:
 RMSU=  2.06D-09    CP:  1.00D+00  1.17D+00  3.00D+00  3.00D+00  3.00D+00
                    CP:  3.00D+00  3.00D+00  1.85D+00  1.38D+00
 E= -306.253763591511     Delta-E=       -0.000000000001 Rises=F Damp=F
 DIIS: error= 2.26D-09 at cycle  10 NSaved=  10.
 NSaved=10 IEnMin= 8 EnMin= -306.253763591511     IErMin=10 ErrMin= 2.26D-09
 ErrMax= 2.26D-09  0.00D+00 EMaxC= 1.00D-01 BMatC= 4.17D-16 BMatP= 4.97D-15
 IDIUse=1 WtCom= 1.00D+00 WtEn= 0.00D+00
 Coeff-Com:  0.205D-03-0.136D-01 0.328D-01 0.584D-01-0.212D+00-0.719D-01
 Coeff-Com:  0.413D+00-0.272D+00-0.383D+00 0.145D+01
 Coeff:      0.205D-03-0.136D-01 0.328D-01 0.584D-01-0.212D+00-0.719D-01
 Coeff:      0.413D+00-0.272D+00-0.383D+00 0.145D+01
 Gap=     0.270 Goal=   None    Shift=    0.000
 RMSDP=2.65D-09 MaxDP=2.96D-08 DE=-1.02D-12 OVMax= 1.33D-07

 SCF Done:  E(RHF) =  -306.253763592     A.U. after   23 cycles
            NFock= 23  Conv=0.26D-08     -V/T= 2.0010
 KE= 3.059466344246D+02 PE=-1.387435965173D+03 EE= 4.435684083298D+02
 Leave Link  502 at Tue Jun 10 01:52:47 2025, MaxMem=  2013265920 cpu:              32.9 elap:               1.7
 (Enter /home/user/softwares/g16/g16/l601.exe)
 Copying SCF densities to generalized density rwf, IOpCl= 0 IROHF=0.

 **********************************************************************

            Population analysis using the SCF Density.

 **********************************************************************

 Orbital symmetries:
       Occupied  (A) (A) (A) (A) (A) (A) (A) (A) (A) (A) (A) (A)
                 (A) (A) (A) (A) (A) (A) (A) (A) (A) (A) (A) (A)
                 (A) (A) (A) (A) (A)
       Virtual   (A) (A) (A) (A) (A) (A) (A) (A) (A) (A) (A) (A)
                 (A) (A) (A) (A) (A) (A) (A) (A) (A) (A) (A) (A)
                 (A) (A) (A) (A) (A) (A) (A) (A) (A) (A) (A) (A)
                 (A) (A) (A) (A) (A) (A) (A) (A) (A) (A) (A) (A)
                 (A) (A) (A) (A) (A) (A) (A) (A) (A) (A) (A) (A)
                 (A)
 The electronic state is 1-A.
 Alpha  occ. eigenvalues --  -11.00059 -10.99708 -10.99446 -10.97634 -10.97486
 Alpha  occ. eigenvalues --  -10.97064 -10.96211 -10.82734  -0.92628  -0.87075
 Alpha  occ. eigenvalues --   -0.79959  -0.77318  -0.66671  -0.62750  -0.52339
 Alpha  occ. eigenvalues --   -0.49119  -0.46924  -0.42628  -0.41435  -0.41008
 Alpha  occ. eigenvalues --   -0.38177  -0.34895  -0.31741  -0.29252  -0.27898
 Alpha  occ. eigenvalues --   -0.24411  -0.14513  -0.08660   0.02115
 Alpha virt. eigenvalues --    0.29125   0.38453   0.42837   0.45231   0.47039
 Alpha virt. eigenvalues --    0.49085   0.49947   0.51817   0.53234   0.54616
 Alpha virt. eigenvalues --    0.55804   0.58470   0.60982   0.66917   0.71389
 Alpha virt. eigenvalues --    0.76111   0.80762   0.83696   0.89081   0.91127
 Alpha virt. eigenvalues --    1.07686   1.10813   1.12884   1.14233   1.15482
 Alpha virt. eigenvalues --    1.19691   1.22639   1.23817   1.25450   1.28648
 Alpha virt. eigenvalues --    1.29962   1.30296   1.31515   1.33658   1.36983
 Alpha virt. eigenvalues --    1.39728   1.41151   1.44571   1.46559   1.49879
 Alpha virt. eigenvalues --    1.51189   1.51917   1.53703   1.54796   1.57642
 Alpha virt. eigenvalues --    1.60026   1.62993   1.65606   1.68399   1.77812
 Alpha virt. eigenvalues --    1.80147   1.86538   1.90468   1.93008   1.99608
 Alpha virt. eigenvalues --    2.04034   2.23705   2.33635   2.40326   2.43418
 Alpha virt. eigenvalues --    2.72222
     Molecular Orbital Coefficients:
                           1         2         3         4         5
                           O         O         O         O         O
     Eigenvalues --   -11.00059 -10.99708 -10.99446 -10.97634 -10.97486
   1 1   C  1S         -0.02113  -0.08505   0.98329   0.00109   0.01155
   2        2S         -0.00303  -0.01229   0.09795  -0.00039  -0.00186
   3        2PX        -0.00079   0.00161  -0.00013   0.00016  -0.00047
   4        2PY         0.00028   0.00036  -0.00027  -0.00001   0.00114
   5        2PZ         0.00027   0.00032  -0.00017  -0.00001   0.00021
   6        3S          0.00349   0.03539  -0.08239   0.00854   0.02191
   7        3PX         0.00143  -0.01743   0.00720  -0.00310   0.00679
   8        3PY        -0.00398  -0.00696   0.01223  -0.00449  -0.01502
   9        3PZ        -0.00101  -0.00376   0.00369  -0.00048  -0.00267
  10 2   C  1S         -0.00888   0.98356   0.08413   0.00439   0.00272
  11        2S         -0.00109   0.09838   0.00459   0.00036   0.00029
  12        2PX        -0.00027   0.00022  -0.00130   0.00047  -0.00072
  13        2PY         0.00011  -0.00042   0.00088   0.00086   0.00017
  14        2PZ        -0.00008  -0.00016   0.00008   0.00043   0.00008
  15        3S          0.00025  -0.08440   0.02094  -0.00834  -0.00250
  16        3PX         0.00236  -0.00576   0.01432  -0.00232   0.00300
  17        3PY         0.00059   0.01450  -0.01093   0.00441   0.00444
  18        3PZ         0.00076   0.00270  -0.00073  -0.00090   0.00105
  19 3   C  1S         -0.00020  -0.00748  -0.00220  -0.00463  -0.00221
  20        2S         -0.00010  -0.00414  -0.00010  -0.00505  -0.00058
  21        2PX        -0.00005  -0.00123  -0.00079  -0.00071  -0.00004
  22        2PY        -0.00005  -0.00032  -0.00071   0.00217   0.00008
  23        2PZ         0.00002  -0.00029  -0.00014  -0.00023  -0.00000
  24        3S          0.00108   0.02718  -0.00459   0.03479   0.00485
  25        3PX         0.00096   0.01744  -0.00334   0.00983   0.00301
  26        3PY         0.00132   0.00217   0.00441  -0.01887   0.00047
  27        3PZ         0.00020   0.00462  -0.00041   0.00382   0.00113
  28 4   C  1S         -0.00205  -0.00155  -0.01237   0.01595   0.98714
  29        2S         -0.00135   0.00046  -0.00426   0.00254   0.10004
  30        2PX        -0.00045   0.00029   0.00138  -0.00051   0.00020
  31        2PY        -0.00007  -0.00057  -0.00112   0.00011   0.00010
  32        2PZ        -0.00003   0.00004  -0.00018   0.00022  -0.00017
  33        3S          0.01272  -0.00828   0.02554  -0.01067  -0.08961
  34        3PX         0.01797   0.00666  -0.01852   0.01060   0.00558
  35        3PY         0.00116  -0.00061   0.01068   0.00128   0.00074
  36        3PZ        -0.00196  -0.00035   0.00270  -0.00193  -0.00110
  37 5   C  1S         -0.00036  -0.00414  -0.00162   0.98514  -0.01621
  38        2S         -0.00002  -0.00063  -0.00027   0.09909  -0.00127
  39        2PX        -0.00006  -0.00018  -0.00026   0.00069   0.00011
  40        2PY        -0.00000  -0.00108   0.00032   0.00059  -0.00007
  41        2PZ        -0.00003  -0.00020  -0.00003   0.00018   0.00008
  42        3S         -0.00023  -0.00786   0.00288  -0.08510  -0.00024
  43        3PX        -0.00120  -0.00430  -0.00064  -0.00981  -0.00123
  44        3PY         0.00043  -0.00185   0.00159  -0.01330  -0.00093
  45        3PZ        -0.00017  -0.00140  -0.00044  -0.00786  -0.00050
  46 6   C  1S         -0.00423  -0.00017  -0.00366  -0.06369  -0.00669
  47        2S         -0.00132   0.00007  -0.00061  -0.00981  -0.00463
  48        2PX        -0.00074   0.00031  -0.00010   0.00167  -0.00044
  49        2PY        -0.00036   0.00034  -0.00096  -0.00039  -0.00192
  50        2PZ         0.00014   0.00007  -0.00014   0.00005  -0.00018
  51        3S          0.00230   0.00193  -0.00647   0.01958   0.02734
  52        3PX         0.00142   0.00039   0.00519  -0.00876   0.00439
  53        3PY         0.00391   0.00087  -0.00337   0.00623   0.01546
  54        3PZ        -0.00031  -0.00026  -0.00136   0.00385   0.00121
  55 7   C  1S         -0.00067  -0.00094  -0.00107  -0.00034  -0.00118
  56        2S         -0.00107  -0.00125  -0.00140  -0.00059  -0.00130
  57        2PX        -0.00019  -0.00025   0.00007  -0.00033  -0.00094
  58        2PY        -0.00009  -0.00057  -0.00069   0.00001  -0.00017
  59        2PZ         0.00024   0.00006   0.00006   0.00016  -0.00005
  60        3S          0.00359   0.00471   0.00581   0.01006   0.00101
  61        3PX         0.00138  -0.00058   0.00187  -0.01454   0.00058
  62        3PY         0.00074   0.00251   0.00224   0.00544  -0.00105
  63        3PZ        -0.00172  -0.00207  -0.00219  -0.00398   0.00082
  64 8   H  1S          0.00014   0.00007  -0.00198   0.00014  -0.00064
  65        2S          0.00007   0.00285   0.00935   0.00132   0.00178
  66 9   H  1S         -0.00006  -0.00191  -0.00020  -0.00026  -0.00041
  67        2S          0.00023   0.00899   0.00488   0.00030  -0.00019
  68 10  H  1S         -0.00003  -0.00006  -0.00043  -0.00029   0.00006
  69        2S          0.00007   0.00409  -0.00087   0.00441   0.00072
  70 11  H  1S         -0.00007  -0.00022  -0.00013  -0.00215  -0.00012
  71        2S         -0.00015  -0.00016  -0.00016   0.00833  -0.00063
  72 12  H  1S         -0.00004  -0.00008  -0.00037   0.00032  -0.00072
  73        2S          0.00080  -0.00014  -0.00093   0.00190   0.00184
  74 13  H  1S         -0.00005  -0.00002  -0.00003  -0.00090  -0.00023
  75        2S          0.00055   0.00071   0.00073   0.00189  -0.00081
  76 14  C  1S          0.98729   0.00699   0.02154   0.00025   0.00187
  77        2S          0.10238   0.00050   0.00097   0.00020  -0.00108
  78        2PX         0.00020   0.00020   0.00020   0.00031  -0.00003
  79        2PY         0.00004  -0.00011  -0.00036   0.00012  -0.00000
  80        2PZ        -0.00008  -0.00011  -0.00000  -0.00003  -0.00045
  81        3S         -0.08554  -0.00193   0.00573  -0.00421   0.01322
  82        3PX         0.00640   0.00015  -0.00328   0.00156  -0.00890
  83        3PY         0.00052   0.00115  -0.00060  -0.00052  -0.00046
  84        3PZ        -0.00065   0.00016   0.00042  -0.00020   0.00378
  85 15  H  1S          0.00011   0.00002  -0.00039   0.00013  -0.00121
  86        2S          0.01516   0.00015   0.00024   0.00011   0.00391
  87 16  H  1S          0.00010  -0.00028  -0.00020   0.00018  -0.00097
  88        2S          0.01479   0.00027  -0.00054   0.00037  -0.00047
  89 17  H  1S          0.00016   0.00018  -0.00039  -0.00002  -0.00090
  90        2S          0.01481   0.00038   0.00064   0.00016   0.00001
                           6         7         8         9        10
                           O         O         O         O         O
     Eigenvalues --   -10.97064 -10.96211 -10.82734  -0.92628  -0.87075
   1 1   C  1S          0.00382   0.00186   0.00076  -0.10325  -0.00352
   2        2S          0.00016   0.00049  -0.00095   0.11478   0.00285
   3        2PX        -0.00025   0.00087   0.00042  -0.00620  -0.06469
   4        2PY         0.00091  -0.00008   0.00095  -0.03483   0.03135
   5        2PZ         0.00032   0.00025  -0.00024  -0.01190   0.00145
   6        3S         -0.00547  -0.00780   0.00102   0.20967   0.00774
   7        3PX         0.00586   0.00124   0.00134  -0.01000  -0.00409
   8        3PY         0.00272   0.00672  -0.00088   0.00309   0.00400
   9        3PZ        -0.00042   0.00103   0.00014  -0.00078   0.00015
  10 2   C  1S          0.00070   0.00701   0.00077  -0.08443  -0.08861
  11        2S         -0.00039  -0.00266  -0.00109   0.09456   0.09728
  12        2PX        -0.00004   0.00052   0.00007   0.02063  -0.03593
  13        2PY         0.00006   0.00115   0.00108  -0.02779  -0.03113
  14        2PZ         0.00000   0.00033  -0.00025  -0.00538  -0.01333
  15        3S          0.00863   0.02654   0.00282   0.15850   0.19370
  16        3PX         0.00130  -0.00696  -0.00085  -0.00476  -0.00065
  17        3PY        -0.00421  -0.01708  -0.00271   0.00904   0.00302
  18        3PZ        -0.00014  -0.00424   0.00003  -0.00098  -0.00107
  19 3   C  1S          0.00448   0.98712   0.00115  -0.07237  -0.13128
  20        2S          0.00097   0.09912  -0.00164   0.07929   0.14266
  21        2PX         0.00027   0.00069  -0.00076   0.03038   0.02981
  22        2PY         0.00037  -0.00025   0.00082  -0.01255  -0.03358
  23        2PZ         0.00022   0.00005  -0.00055   0.00784   0.00838
  24        3S         -0.00535  -0.08696   0.00446   0.14050   0.27818
  25        3PX        -0.00693  -0.01542   0.00104   0.00639  -0.00017
  26        3PY         0.00092   0.00821  -0.00695   0.00126   0.00402
  27        3PZ        -0.00270  -0.00470   0.00097   0.00030  -0.00242
  28 4   C  1S          0.00713   0.00203   0.00092  -0.12670   0.08727
  29        2S         -0.00343  -0.00028  -0.00138   0.13618  -0.09251
  30        2PX         0.00164   0.00023   0.00137  -0.02344  -0.02875
  31        2PY         0.00220   0.00009   0.00062  -0.00761   0.02364
  32        2PZ         0.00000  -0.00002  -0.00057   0.00030   0.00592
  33        3S          0.03206   0.00630   0.00442   0.24988  -0.18823
  34        3PX        -0.01882  -0.00549  -0.00859   0.01941  -0.01157
  35        3PY        -0.01869   0.00148  -0.00745   0.01326   0.00420
  36        3PZ         0.00147   0.00105   0.00201  -0.00483   0.00361
  37 5   C  1S          0.06277   0.00361   0.00027  -0.05610  -0.09890
  38        2S          0.00295  -0.00390  -0.00085   0.06313   0.10755
  39        2PX        -0.00158  -0.00047  -0.00026   0.01291  -0.00435
  40        2PY         0.00030  -0.00189   0.00045   0.03503   0.07350
  41        2PZ        -0.00017  -0.00034  -0.00019   0.00558   0.00168
  42        3S          0.00766   0.03063   0.01125   0.10802   0.21686
  43        3PX         0.00816   0.00553   0.01037  -0.00137   0.00021
  44        3PY         0.00047   0.01820  -0.00887   0.01004   0.01303
  45        3PZ         0.00410   0.00317   0.00470  -0.00152   0.00330
  46 6   C  1S          0.98522  -0.00455   0.00016  -0.08483   0.04806
  47        2S          0.09893   0.00007  -0.00059   0.09386  -0.05211
  48        2PX        -0.00033  -0.00022   0.00039   0.01714  -0.04204
  49        2PY         0.00072  -0.00006   0.00037   0.05991  -0.03746
  50        2PZ         0.00013   0.00007  -0.00006   0.00393   0.00262
  51        3S         -0.08683  -0.00234   0.00886   0.17827  -0.10675
  52        3PX         0.00453   0.00159  -0.01244  -0.00245   0.00419
  53        3PY        -0.01756  -0.00231  -0.00674   0.01816  -0.00058
  54        3PZ        -0.00662  -0.00072   0.00180   0.00507  -0.00461
  55 7   C  1S         -0.00021  -0.00148   0.98715  -0.04179  -0.02104
  56        2S         -0.00045  -0.00148   0.09942   0.04558   0.02109
  57        2PX         0.00028   0.00109   0.00032   0.01059  -0.03289
  58        2PY        -0.00004  -0.00062   0.00078   0.01961   0.01533
  59        2PZ         0.00017   0.00020  -0.00115  -0.01631  -0.01034
  60        3S          0.01160  -0.00022  -0.07214   0.05979   0.04356
  61        3PX         0.01432  -0.00013  -0.00136  -0.00638   0.01624
  62        3PY         0.00087  -0.00106  -0.00471  -0.00022  -0.00086
  63        3PZ        -0.00204   0.00127   0.00978  -0.00343  -0.00478
  64 8   H  1S         -0.00041  -0.00046  -0.00020   0.04811  -0.00262
  65        2S         -0.00050  -0.00074   0.00046   0.00051  -0.00602
  66 9   H  1S          0.00001  -0.00016  -0.00008   0.03706   0.04501
  67        2S          0.00107   0.00404   0.00145  -0.00705   0.00272
  68 10  H  1S         -0.00068  -0.00211  -0.00004   0.02951   0.06159
  69        2S         -0.00211   0.00818   0.00270  -0.00170   0.00252
  70 11  H  1S         -0.00000  -0.00033  -0.00096   0.02123   0.04319
  71        2S          0.00275   0.00403   0.00129  -0.00256   0.00135
  72 12  H  1S         -0.00213  -0.00020  -0.00103   0.03468  -0.02535
  73        2S          0.00806  -0.00086   0.00022   0.00240  -0.00494
  74 13  H  1S         -0.00102  -0.00025  -0.00205   0.01498   0.00796
  75        2S          0.00219  -0.00090   0.01046  -0.00053   0.00190
  76 14  C  1S          0.00412   0.00024   0.00035  -0.07664   0.10004
  77        2S         -0.00082  -0.00016  -0.00127   0.07771  -0.09614
  78        2PX         0.00034  -0.00008   0.00010  -0.03423   0.02408
  79        2PY         0.00024   0.00001   0.00007  -0.00156   0.00383
  80        2PZ        -0.00007   0.00002   0.00029   0.00480  -0.00345
  81        3S          0.00659   0.00218   0.00683   0.17604  -0.26859
  82        3PX        -0.00434  -0.00092  -0.00419   0.00724   0.00270
  83        3PY         0.00171  -0.00046   0.00051  -0.00298   0.00055
  84        3PZ         0.00059   0.00001  -0.00120  -0.00273   0.00197
  85 15  H  1S         -0.00031  -0.00009  -0.00060   0.03821  -0.05311
  86        2S          0.00003  -0.00005  -0.00082  -0.00496   0.00043
  87 16  H  1S         -0.00036  -0.00001  -0.00028   0.03906  -0.05298
  88        2S         -0.00016   0.00004   0.00031   0.00246  -0.00431
  89 17  H  1S         -0.00047  -0.00011  -0.00036   0.03816  -0.05435
  90        2S          0.00146  -0.00015   0.00106  -0.00305  -0.00475
                          11        12        13        14        15
                           O         O         O         O         O
     Eigenvalues --    -0.79959  -0.77318  -0.66671  -0.62750  -0.52339
   1 1   C  1S         -0.12855   0.02681  -0.09960  -0.00000   0.01548
   2        2S          0.13654  -0.02901   0.10559  -0.00060  -0.01342
   3        2PX        -0.04722  -0.00171   0.09359  -0.10713   0.08292
   4        2PY         0.03299   0.03216  -0.00994   0.09255  -0.14798
   5        2PZ        -0.00274   0.00204   0.00617   0.01440  -0.02279
   6        3S          0.31261  -0.06883   0.27341   0.00094  -0.04806
   7        3PX        -0.00381   0.00523   0.04539  -0.04275   0.03715
   8        3PY         0.01507   0.01342   0.00098   0.03911  -0.08073
   9        3PZ        -0.00288   0.00135   0.00026   0.00758  -0.00974
  10 2   C  1S         -0.10690  -0.02276   0.08994  -0.05827   0.01140
  11        2S          0.11308   0.02424  -0.09527   0.06043  -0.00965
  12        2PX         0.08100  -0.04317   0.11939   0.06788  -0.12890
  13        2PY         0.02585  -0.00346  -0.01513   0.05402  -0.11343
  14        2PZ         0.01113  -0.00916   0.01665   0.02695  -0.04037
  15        3S          0.26408   0.05934  -0.24819   0.18281  -0.03592
  16        3PX         0.01467  -0.01576   0.05536   0.02992  -0.07450
  17        3PY         0.01229   0.00059  -0.01366   0.02153  -0.06567
  18        3PZ        -0.00016  -0.00424   0.01070   0.01101  -0.02144
  19 3   C  1S          0.04834  -0.05849   0.04634   0.08430  -0.03713
  20        2S         -0.05260   0.06181  -0.04584  -0.08453   0.03907
  21        2PX         0.03114  -0.00262  -0.03380   0.06301   0.06818
  22        2PY         0.09919  -0.00102  -0.14860   0.01920   0.10680
  23        2PZ         0.01214  -0.00046  -0.01808   0.02875   0.03807
  24        3S         -0.10830   0.14428  -0.14741  -0.26617   0.12264
  25        3PX         0.00271  -0.00850  -0.01905   0.02082   0.02971
  26        3PY         0.01080  -0.00481  -0.04122   0.01680   0.04860
  27        3PZ         0.00439  -0.00230  -0.01023   0.01155   0.01564
  28 4   C  1S          0.00549   0.04668  -0.01191   0.09860  -0.02766
  29        2S         -0.00646  -0.05133   0.01133  -0.09934   0.02921
  30        2PX        -0.02701   0.12071  -0.01436   0.02289  -0.04123
  31        2PY         0.09081   0.07037   0.16054  -0.00957   0.12623
  32        2PZ         0.01290  -0.01010   0.02376  -0.00037   0.03232
  33        3S         -0.00679  -0.11196   0.04185  -0.30784   0.09077
  34        3PX         0.00186  -0.00604  -0.01371   0.00576  -0.01347
  35        3PY         0.01620   0.00771   0.06350   0.00666   0.07416
  36        3PZ         0.00519   0.00350   0.01217   0.00141   0.01403
  37 5   C  1S          0.10915  -0.01586  -0.09933  -0.01712   0.06402
  38        2S         -0.11819   0.01607   0.10173   0.01566  -0.06675
  39        2PX        -0.00377  -0.03245  -0.01341   0.08371   0.12517
  40        2PY        -0.03101   0.04499  -0.02045  -0.11262   0.02649
  41        2PZ        -0.00395  -0.01262  -0.00351   0.05032   0.09305
  42        3S         -0.25275   0.04173   0.29384   0.06520  -0.20989
  43        3PX         0.00917  -0.00023   0.00368   0.03501   0.08233
  44        3PY        -0.01780   0.00075   0.01037  -0.02710   0.01164
  45        3PZ         0.00054  -0.00002   0.00719   0.02685   0.06335
  46 6   C  1S          0.06730   0.11898   0.08355  -0.01806   0.04658
  47        2S         -0.07347  -0.12566  -0.08566   0.01567  -0.04975
  48        2PX         0.00617   0.00850  -0.05705  -0.10517  -0.12807
  49        2PY        -0.00513  -0.04282  -0.00235  -0.09244   0.04900
  50        2PZ        -0.00233  -0.01099   0.01485   0.02425   0.07213
  51        3S         -0.14787  -0.29807  -0.23853   0.06925  -0.13953
  52        3PX        -0.01342   0.00223  -0.01381  -0.03027  -0.08497
  53        3PY        -0.00576  -0.02786  -0.00984  -0.01643   0.03724
  54        3PZ         0.00011  -0.00755   0.00069   0.01532   0.05165
  55 7   C  1S          0.06909   0.05978  -0.02904  -0.12883  -0.08520
  56        2S         -0.06464  -0.05567   0.02683   0.11771   0.08161
  57        2PX         0.00855  -0.04410  -0.06054  -0.00566   0.01223
  58        2PY        -0.01191  -0.00447   0.01133  -0.01036   0.01836
  59        2PZ         0.02577   0.01497  -0.00977  -0.01165   0.03503
  60        3S         -0.14751  -0.13298   0.07233   0.33694   0.22578
  61        3PX        -0.00450   0.00261  -0.00115   0.00184   0.00362
  62        3PY        -0.00612  -0.00726   0.00135   0.00045   0.01040
  63        3PZ         0.01939   0.01631  -0.00596  -0.02287   0.01404
  64 8   H  1S          0.08159  -0.00596   0.09719   0.01041  -0.05898
  65        2S          0.02001   0.00367   0.04681   0.00920  -0.04694
  66 9   H  1S          0.06954   0.01809  -0.08882   0.06506  -0.05749
  67        2S          0.01931   0.00581  -0.04349   0.03630  -0.04723
  68 10  H  1S         -0.02640   0.03819  -0.04682  -0.09139   0.01801
  69        2S         -0.00568   0.01110  -0.02940  -0.05514   0.00639
  70 11  H  1S         -0.05983   0.01005   0.08314   0.00842  -0.13650
  71        2S         -0.01330   0.00240   0.04527   0.00687  -0.09381
  72 12  H  1S         -0.03959  -0.05942  -0.07555   0.02176  -0.11412
  73        2S         -0.01030  -0.01523  -0.04104   0.01797  -0.07736
  74 13  H  1S         -0.03059  -0.02736   0.01723   0.08651   0.07901
  75        2S         -0.00860  -0.00962   0.00852   0.04899   0.05683
  76 14  C  1S          0.03829  -0.15322   0.01040  -0.04844  -0.00283
  77        2S         -0.03538   0.14119  -0.00963   0.04454   0.00243
  78        2PX        -0.00320   0.03706  -0.01374   0.09105  -0.00635
  79        2PY         0.01442   0.01256   0.04027   0.00298   0.07119
  80        2PZ         0.00231  -0.00321   0.00801  -0.01096   0.01255
  81        3S         -0.11890   0.48949  -0.03174   0.17492   0.00485
  82        3PX        -0.00052   0.00081  -0.00929   0.04765   0.00169
  83        3PY         0.00459   0.00852   0.02287   0.00023   0.04788
  84        3PZ        -0.00118  -0.00236   0.00472  -0.00415   0.01038
  85 15  H  1S         -0.02326   0.09813  -0.01005   0.04991  -0.00007
  86        2S         -0.00425   0.02175  -0.00482   0.02925  -0.00274
  87 16  H  1S         -0.01669   0.10356   0.01139   0.05049   0.03998
  88        2S          0.00282   0.02677   0.01201   0.02641   0.02922
  89 17  H  1S         -0.02906   0.09447  -0.02796   0.05286  -0.03754
  90        2S         -0.00711   0.02279  -0.01693   0.02664  -0.03369
                          16        17        18        19        20
                           O         O         O         O         O
     Eigenvalues --    -0.49119  -0.46924  -0.42628  -0.41435  -0.41008
   1 1   C  1S          0.03571   0.04552  -0.00106   0.02594  -0.00122
   2        2S         -0.03265  -0.04933   0.00075  -0.02682   0.00623
   3        2PX        -0.15186   0.11516  -0.01196   0.05566  -0.08515
   4        2PY        -0.11552  -0.01828   0.02663   0.00283  -0.12017
   5        2PZ        -0.04485   0.00653   0.04985   0.00095  -0.03643
   6        3S         -0.13282  -0.14917   0.00731  -0.08643  -0.01668
   7        3PX        -0.09686   0.05676   0.01066   0.03036  -0.04225
   8        3PY        -0.07786  -0.01699   0.00762  -0.00250  -0.08818
   9        3PZ        -0.02703   0.00456   0.04340   0.00265  -0.02690
  10 2   C  1S         -0.05177  -0.02345   0.00434  -0.02308  -0.01167
  11        2S          0.05701   0.01882  -0.00502   0.02579   0.01200
  12        2PX         0.04760  -0.15082   0.01649  -0.09466   0.05366
  13        2PY        -0.04555   0.18849   0.01044  -0.04136  -0.00115
  14        2PZ         0.00148   0.02100   0.02659  -0.01568  -0.00943
  15        3S          0.17026   0.09882  -0.00573   0.07568   0.04633
[...]
 -5.4421617,-5.0285641,-2.2075195,-2.2393871,-2.7310408,-0.4255909,-2.3
 134127,-1.7920309,-0.8222183,-2.5368628,-0.2997115,1.4875224,-2.291505
 ,-2.2107608,-0.8389087,-0.8778669,-1.1364817,-0.0234823,1.1157188,0.96
 34064,-3.5759122,1.274525,12.790266,-2.7308984,7.4311475,5.9113583,-3.
 1875388,-0.7026167,5.7946822,4.4901104,7.4931158,3.1802163,1.8285585,-
 4.6837619,-4.896665,-1.4863425,-2.6233643,-0.9911283,-9.3415514,1.5516
 915,-2.4848206,-0.0556718,1.8883619,2.0156942,-2.3865229,0.3465118,0.9
 8861,0.5347965,-2.0734458,-2.5391338,0.7635104,-3.3374798,9.7502918,-2
 .7748123,6.3570359,3.8443761,3.2438383,1.6932762,-13.6671649,-2.183182
 9,-7.3651679,-4.1887492,1.632588,-1.7255497,-4.8326967,2.0533567,-6.96
 27085,-5.6329749,4.7490515,0.7265387,1.9744928,0.852386,-0.1115038,-0.
 8917265,5.471046,2.5454335,2.0290996,0.7584042,0.0122675,-0.933365,3.2
 33578,-0.4403611,-1.193036,0.8810974,3.2323047,3.8866509,-6.7312947,1.
 4928778,-6.4706252,0.896472,-4.659119,-2.8157235,-0.2652108,-3.269396,
 7.4348057,1.7086114,0.4520116,-1.6430127,-0.3155276,0.672854,-2.693339
 2,-3.6059783,3.244552,3.863797,-2.9599041,-2.4786835,-1.8530318,-0.783
 8246,-0.482397,-0.0371484,-1.4827801,-2.9683754,-7.4957885,-1.1252794,
 -2.0155155,-0.6011229,0.1606518,-1.0032761,-1.159622,-0.0333191,-1.530
 9298,-0.9123501,2.6065465,-2.8184431,2.6835394,-1.2077836,1.0096112,0.
 5015436,-1.5510046,3.8944607,-8.1442014,1.3590885,-2.7628325,-1.178804
 6,-0.7692476,1.0304048,-1.897026,1.4182385,-2.6952389,-2.1415623,11.44
 14011,-1.2506658,0.2250128,-1.5771952,0.1370832,0.3214948,-1.3273842,2
 .3692556,-0.4158746,0.5790094,0.0180362,0.0273381,-1.4778101,0.2753105
 ,-0.0504763,1.6056048,-0.7591909,-0.8040377,8.1536893,3.5378114,2.0715
 04,2.6806563,1.3005506,1.102439,2.8662251,3.7184039,3.3635402,1.267355
 4,1.1659926,0.2537093,3.3248112,1.4758941,-0.6846033,2.7621189,1.07665
 08,2.1544432,-4.5469553,3.6770935,-2.6132231,1.0557114,-0.5525174,-0.2
 839729,2.5408906,-3.6654264,5.3090602,-0.2243368,0.8435843,0.4223686,0
 .2050964,0.5247395,-0.08818,-1.4496268,0.9444854,-0.2597786,-0.4440089
 ,1.7060378,0.2435033,1.1180758,-0.0594177,-0.0299056,0.1954441,0.37874
 58,7.0087902,-0.3599067,4.1370205,2.1799725,-0.1330945,-0.5645668,4.67
 02442,0.4637526,4.3000603,4.4854591,-0.5204744,0.973502,3.7298869,-0.6
 606022,0.5993277,0.9643019,1.4139768,6.1480113,2.627999,0.7140124,-1.6
 784918,1.8904351,-2.1684333,0.130932,-2.540406,3.0089728,2.4065058,6.1
 128862,-0.9360206,-0.3013605,-0.6283373,-2.9200323,-0.5486454,-0.89953
 72,-0.6148771,-1.8747685,-1.3338469,-0.6941581,-2.2583882,-0.8354069,-
 1.8661907,-0.6703124,-0.2930305,-3.3769832,-1.8231827,-9.7261695,-3.45
 78706,-3.3593394,-2.0094975,1.9929935,0.3167049,-0.1369441,-2.9468091,
 -4.1475566,-6.300914,0.3453715,1.7295166,-0.9551279,1.7559408,0.943640
 2,1.6416407,-1.9657683,-2.7753064,1.4626863,-5.9245958,2.7871954,-0.86
 51141,0.8902976,0.1031964,-0.1567402,2.490912,-2.7242105,2.8638779,0.3
 045594,0.5913936,0.0901988,1.4138742,0.1690966,0.3317883,-2.0357904,1.
 1156272,0.0648436\HyperPolar=43.2442157,-33.1573083,-126.090423,27.262
 3853,-46.8369296,-22.4374096,68.6406413,-23.7825331,37.4219421,-3.3676
 474\Quadrupole=-1.555769,0.9014257,0.6543433,-0.5224981,0.251946,0.377
 4833\PG=C01 [X(C8H9)]\NImag=0\\0.64062064,0.08886596,0.57841842,0.0152
 2220,0.15931531,0.13642079,-0.26565514,-0.05310107,-0.00704029,0.63886
 711,0.08000984,-0.14056320,-0.03438487,-0.04054567,0.60935234,0.066347
 50,-0.02659520,-0.07898044,-0.06272631,0.17278952,0.26463522,-0.098724
 90,-0.02851973,0.00208423,-0.16460467,-0.10082862,-0.02386424,0.705184
 74,-0.17336934,0.03907523,0.01933089,0.06512350,-0.17146897,-0.0359881
 1,0.00046678,0.40371420,-0.07036810,0.01770895,0.03014193,0.04302323,-
 0.03772243,-0.07826136,-0.06419584,0.17372314,0.18172120,-0.09065188,0
 .04478081,0.00672254,-0.09643346,0.00084969,-0.00358763,0.02712317,0.0
 6484682,0.03232039,0.52333894,-0.04647352,-0.16325564,-0.02826910,0.10
 725347,0.05237522,0.02116401,-0.03462803,-0.09300443,-0.04550529,0.090
 59998,0.75257025,-0.02759886,-0.02460246,-0.06874470,0.04221155,0.0156
 3694,0.00710249,-0.01351865,-0.03104520,-0.02145592,0.09581878,0.23599
 089,0.31305969,-0.05693346,0.01492147,0.00742714,0.07618565,0.00805855
 ,-0.00232796,-0.15540989,-0.03741114,-0.01288647,0.02812375,-0.0374329
 1,-0.01231871,0.85322784,0.11880585,-0.02520932,-0.01323781,-0.1306049
 7,-0.09314419,-0.04498430,0.08106138,-0.09065797,-0.03504270,-0.054343
 46,0.07716321,0.02623808,-0.04448253,0.45057084,0.06789305,-0.01295965
 ,-0.01175887,-0.07543451,-0.04674002,-0.02001048,0.05398448,-0.0355745
 1,-0.09221368,-0.03204318,0.04517959,0.01728424,-0.00609917,0.19393906
 ,0.31114217,-0.02467673,0.04232709,0.01688741,0.04570140,0.02078005,0.
 00625748,-0.01760622,-0.03225674,-0.00780742,-0.13813386,-0.11105581,-
 0.06117160,-0.04017065,0.00730065,-0.00388197,0.60205023,0.05128144,-0
 .03743319,-0.02383115,-0.05872417,-0.02704327,-0.01042449,0.01730284,0
 .04873161,0.02990992,-0.12146650,-0.44818744,-0.17184911,0.03097783,-0
 .02897851,-0.01878148,0.00628849,0.79584207,0.01338350,-0.01153571,0.0
 0855371,-0.01397357,-0.00631616,-0.00283771,0.00083993,0.01706578,0.00
 330549,-0.06222793,-0.16981747,-0.15015153,0.01196538,-0.00649487,0.00
 222473,0.10475166,0.26430015,0.26057837,0.06430949,-0.02459732,-0.0076
 3164,-0.07084616,-0.03307031,-0.01330642,0.02996530,0.07493342,0.03579
 703,-0.03968178,0.04123429,0.00977104,-0.45560203,0.09601977,0.0571277
 1,-0.18849713,-0.04294152,-0.04061095,0.77257954,-0.04515805,0.0074936
 5,0.01163469,0.05867991,0.02884702,0.01068786,0.01437457,-0.06039317,-
 0.04241992,-0.01708440,-0.02813506,-0.02142891,0.13723936,-0.13723821,
 -0.04756242,-0.03845181,-0.09782799,-0.03244173,-0.11827150,0.49984624
 ,-0.03083645,0.00467646,-0.00158610,0.03990966,0.01987644,0.00699163,0
 .01215954,-0.05260678,-0.01345708,-0.00401338,-0.02254336,-0.00738096,
 0.07930827,-0.04386401,-0.10071722,-0.04534365,-0.02082916,-0.08322910
 ,-0.03810972,0.27432035,0.31981427,-0.12368043,-0.10935827,-0.03494731
 ,-0.01718231,-0.03651935,-0.01244179,-0.00431510,0.00081944,0.00116748
 ,0.00793320,0.02185999,0.00692273,-0.00103732,0.00280924,0.00156894,-0
 .00376482,0.00244974,0.00032963,0.00133142,-0.00106836,-0.00078157,0.1
 4020375,-0.10837255,-0.26464839,-0.08308982,0.00325980,-0.00280035,-0.
 00092341,0.00018083,0.00437399,-0.00004056,-0.01775228,-0.02206117,-0.
 00716048,0.00122494,-0.00194983,-0.00103902,0.00559434,-0.00301282,0.0
 0021128,-0.00090090,0.00100924,0.00098516,0.11727390,0.28785500,-0.041
 42401,-0.08727108,-0.04092960,0.00727404,0.00515815,-0.00042629,-0.000
 60481,-0.00583028,0.00333869,-0.00350189,-0.00922934,-0.00685972,-0.00
 144284,0.00382649,0.00181810,0.00071919,0.00083642,0.00030122,0.002265
 91,-0.00010792,-0.00042569,0.03742051,0.09034293,0.04479958,-0.0156411
 0,0.03521596,0.01504896,-0.11617047,0.08893618,0.04127588,0.01072074,-
 0.02051439,-0.00956782,-0.00561179,-0.00269127,0.00221681,-0.00152762,
 -0.00404165,-0.00021399,0.00003408,-0.00035206,-0.00014993,-0.00057252
 ,0.00009602,0.00015560,0.00039368,0.00001639,-0.00139950,0.12773796,0.
 00290839,0.00056248,-0.00424249,0.08454068,-0.24957433,-0.08549295,0.0
 1754941,-0.01735150,-0.01304755,-0.00186139,0.00534237,-0.00276406,-0.
 00433069,-0.00358069,-0.00281813,0.00089950,-0.00139579,-0.00014873,-0
 .00134134,0.00158427,0.00081249,0.00037975,0.00126583,0.00397288,-0.09
 767408,0.26489406,-0.00921393,-0.00631371,0.00814522,0.05301977,-0.079
 03986,-0.09344287,0.00026319,-0.02057284,0.00022197,0.00389933,-0.0050
 5105,0.00776409,-0.00296074,0.00132176,0.01036593,-0.00246900,0.002639
 06,0.00065151,0.00292888,-0.00273425,-0.00180627,-0.00030157,0.0029909
 4,-0.00535269,-0.04569475,0.10294528,0.08036633,0.00010896,-0.00410691
 ,-0.00104863,-0.02365928,0.01014103,0.00581718,-0.33818930,0.04819863,
 0.04965657,0.00102811,-0.00081776,-0.00037337,-0.00716276,-0.00387991,
 -0.00306457,0.00052793,0.00016816,0.00012195,0.00122008,0.00147147,0.0
 0139085,-0.00147142,-0.00042145,0.00012945,0.00157334,-0.00122692,-0.0
 0109335,0.36505823,0.00008523,-0.00239460,-0.00287456,-0.03343691,0.00
 249844,0.00576881,0.05351611,-0.06141982,-0.03160301,0.00004075,-0.000
 36053,-0.00001695,0.03466490,-0.00799642,-0.00360171,-0.00092119,0.000
 40584,0.00021339,-0.00201041,-0.00333835,-0.00332017,-0.00105201,0.000
 18939,-0.00122835,-0.00030986,0.00083714,0.00284492,-0.05130859,0.0719
 4803,-0.00340257,-0.00168084,0.00398806,-0.00842212,0.00414042,-0.0009
 5210,0.04258063,-0.03320251,-0.03065271,0.00212454,-0.00266036,-0.0012
 0589,0.01965793,0.00084047,-0.00489002,-0.00035928,0.00127501,0.000081
 01,0.00033766,-0.00403844,-0.00185787,-0.00041281,-0.00088076,0.002223
 05,-0.00059086,0.00154682,-0.00449934,-0.05261075,0.03426814,0.0361778
 0,-0.00019641,0.00002618,0.00012998,0.00131884,0.00134337,0.00039720,0
 .00572959,0.00542421,0.00318183,0.00010645,0.00047228,0.00008999,-0.23
 510390,-0.09659558,-0.07911655,-0.00172379,0.00404651,0.00339472,-0.03
 037274,-0.01987257,-0.01759040,0.00000678,-0.00018995,-0.00014927,-0.0
 0001382,-0.00000887,-0.00009461,0.00199205,-0.00063643,0.00026558,0.25
 939351,-0.00526579,0.00133344,0.00062079,0.00887694,0.00127852,-0.0045
 5654,-0.02812423,-0.01752294,-0.01599889,0.00305640,-0.00374319,-0.001
 40876,-0.10310223,-0.11868840,-0.05307221,0.00157569,0.00679099,-0.005
 08036,0.01730285,0.00801778,-0.00056740,-0.00024111,-0.00008888,0.0001
 2907,-0.00041203,-0.00159178,0.00022232,0.00110672,-0.00018111,0.00151
 638,0.10543071,0.12631805,0.00698348,-0.00200629,-0.00039883,-0.005109
 32,-0.00695400,-0.00223143,-0.01550809,-0.00255563,0.00362445,-0.00374
 346,0.00535325,0.00149813,-0.07903839,-0.06331934,-0.10180103,0.000430
 66,-0.01027552,0.00697181,0.00472277,0.00265575,0.01313558,-0.00001082
 ,-0.00015641,0.00009067,-0.00072225,-0.00093298,-0.00051822,0.00062812
 ,0.00066445,-0.00003721,0.08946376,0.07111969,0.08679326,0.00453020,-0
 .00155554,-0.00289673,-0.00417942,-0.00223522,-0.00079202,0.00202487,0
 .00369540,0.00141929,0.00246369,-0.00490701,-0.00296681,-0.00181953,-0
 .00633198,-0.00584748,-0.20865817,0.14196296,0.01253218,-0.02376926,0.
 02557718,0.00607079,0.00030760,0.00018873,-0.00001852,-0.00000495,0.00
 004371,0.00047586,-0.00017937,0.00013485,0.00015172,-0.00188699,-0.000
 20287,0.00074604,0.22862444,-0.00051952,-0.00147166,-0.00508274,-0.004
 47733,-0.00219664,-0.00032122,0.00180628,0.00337311,0.00093711,0.02972
 257,-0.02354822,-0.00423976,-0.00015792,-0.00267898,-0.00127280,0.1360
 7560,-0.19248907,-0.02722439,-0.01319281,0.00876851,-0.00039379,0.0008
 8458,-0.00125092,-0.00140107,0.00035679,-0.00030940,0.00039080,0.00018
 485,0.00002815,0.00015419,-0.00032984,-0.00016842,0.00018874,-0.149968
 35,0.21087882,-0.00618496,-0.00193765,0.00805566,0.00148960,0.00128112
 ,-0.00022111,-0.00147439,-0.00065549,0.00092149,0.01268862,-0.01817838
 ,0.00351714,-0.00118300,-0.00010487,-0.00194249,0.00967500,-0.02285015
 ,-0.04253443,-0.00836957,0.00633201,0.00350836,0.00071735,-0.00142264,
 0.00114648,-0.00019576,0.00034244,-0.00072023,0.00003716,-0.00001684,0
 .00006451,-0.00020556,0.00022332,0.00016304,-0.00901863,0.03448930,0.0
 3530479,0.00436049,-0.00054449,-0.00065379,-0.00517874,-0.00235460,-0.
 00084728,-0.00202382,0.00265416,0.00023797,-0.00697153,0.00330916,-0.0
 0062268,-0.00058378,0.03114904,0.02363810,0.00106807,-0.03023200,-0.02
 150054,-0.06678759,0.00315995,-0.00067129,0.00016325,-0.00015933,0.000
 07913,0.00017833,0.00000567,0.00028514,-0.00060212,0.00125177,0.000647
 95,0.00092498,0.00023539,0.00090758,0.00078253,0.00053952,0.00050982,0
 .07544213,-0.00026929,0.00141261,0.00007123,0.00024882,0.00066824,0.00
 044934,0.00226239,0.00545084,-0.00325821,-0.00236808,0.00059669,-0.000
 18625,-0.00216874,-0.01219936,-0.01293576,0.00401217,-0.00882091,-0.00
 612141,0.00619867,-0.22976730,-0.15306018,-0.00008513,-0.00018460,-0.0
 0013286,0.00019501,-0.00024325,0.00034084,0.00038057,-0.00049603,-0.00
 144530,0.00117003,-0.00192836,0.00608181,-0.00133012,0.00139153,-0.000
 18100,-0.00737668,0.24503508,0.00113545,-0.00172703,-0.00008645,-0.001
 08653,-0.00023976,-0.00057569,0.00239555,-0.00334108,0.00662370,-0.003
 05197,0.00279815,-0.00111431,-0.00397305,-0.00928675,-0.00313027,0.003
 35019,-0.00941147,-0.00419158,0.00293064,-0.15302916,-0.14676993,-0.00
 005349,-0.00012977,-0.00001210,-0.00012156,-0.00010804,-0.00058427,0.0
 0039126,-0.00130280,0.00142051,0.00058716,0.00564889,-0.00577475,-0.00
 062329,0.00023685,0.00129578,-0.00198923,0.17051663,0.15291127,-0.0433
 5215,0.00281079,-0.00537532,0.01243868,0.00835245,0.00150204,-0.004448
 89,-0.01111285,-0.00548360,-0.17202517,-0.02133216,-0.02741839,-0.0053
 1624,0.01009398,0.00539582,-0.02097499,-0.00219554,-0.00785981,0.00994
 669,-0.00200099,-0.00372171,0.00044102,-0.00129116,-0.00061561,-0.0004
 6238,0.00018797,0.00007921,-0.00011491,-0.00013640,-0.00026425,0.00006
 400,-0.00056306,0.00084106,0.00055048,0.00176309,0.00196589,0.00001313
 ,-0.00039944,0.00062300,0.51678798,0.03150091,0.00683226,0.00516008,-0
 .00198861,-0.00700933,-0.00059631,0.00193440,0.00246555,-0.00030789,-0
 .00627982,-0.10041486,-0.00568381,-0.00045199,-0.00083822,0.00003515,-
 0.03916373,-0.00696564,-0.01684791,0.00475285,-0.00040574,-0.00452821,
 0.00172575,0.00025480,-0.00020862,0.00132714,-0.00042169,-0.00024673,0
 .00009824,0.00020262,-0.00002537,-0.00009633,-0.00004008,0.00042913,-0
 .00332687,-0.00161938,0.00278559,-0.00142141,-0.00086967,-0.00038425,-
 0.04104301,0.63172893,0.01141259,-0.00214435,0.00497660,-0.00569700,-0
 .00455882,-0.00065738,0.00222834,0.00520261,0.00330469,-0.02461052,-0.
 00456272,-0.09237785,0.00132797,-0.00483246,-0.00338144,-0.01972829,-0
 .01103516,0.00103143,-0.00444893,-0.00360355,0.01300074,0.00057153,-0.
 00049302,0.00132006,0.00028037,-0.00007069,-0.00088372,0.00006013,0.00
 011830,0.00006857,-0.00023324,0.00102316,-0.00125654,0.00144347,0.0037
 5600,-0.00917984,0.00030861,0.00007799,0.00008321,-0.03426985,0.011965
 34,0.58831013,0.00737367,-0.00220796,0.00153162,-0.00706284,-0.0034446
 5,-0.00075194,0.00296810,0.00569986,0.00274723,-0.00486155,-0.00538471
 ,-0.03965706,0.00194891,-0.00473402,-0.00297479,-0.00246066,-0.0009229
 8,-0.00047589,-0.00324244,0.00051485,0.00376920,0.00017378,0.00069112,
 -0.00033115,-0.00009196,-0.00004241,0.00011579,-0.00000949,0.00010957,
 0.00011842,-0.00013118,0.00039232,-0.00050498,0.00038052,0.00011943,-0
 .00138196,-0.00018918,-0.00014495,-0.00009056,-0.05551021,0.00225683,-
 0.00904869,0.06031759,0.00314543,-0.00064891,0.00050577,-0.00210726,-0
 .00083659,-0.00028169,0.00052352,0.00193517,0.00128020,-0.00327224,-0.
 00167797,-0.00979114,0.00105133,-0.00203514,-0.00122044,-0.00046413,-0
 .00007664,-0.00012799,-0.00216482,0.00006894,0.00141728,-0.00001157,-0
 .00020456,0.00037692,-0.00005488,0.00002911,0.00004474,-0.00003335,0.0
 0001326,0.00004936,-0.00010452,0.00014178,-0.00023664,0.00005348,0.000
 57232,-0.00098251,-0.00004932,0.00000067,-0.00013118,0.00187383,-0.063
 77220,-0.04114814,0.00243645,0.06537816,0.00563372,-0.00180745,0.00075
 960,-0.00582692,-0.00222963,-0.00057275,0.00210254,0.00513322,0.002620
 51,-0.00348464,-0.00226353,-0.00891897,0.00229790,-0.00460909,-0.00276
 799,-0.00002350,-0.00026937,0.00005686,-0.00340089,0.00103898,0.001870
 04,0.00014048,0.00094466,-0.00016173,-0.00019195,-0.00001886,0.0002748
 5,-0.00003215,0.00008442,0.00012340,-0.00014983,0.00023252,-0.00036553
 ,0.00003092,0.00027708,-0.00058700,-0.00022262,-0.00009244,-0.00015507
 ,-0.00786570,-0.03998228,-0.31714876,0.01036870,0.04684249,0.35203536,
 0.00503812,-0.00096079,-0.00232587,-0.00452441,-0.00184583,-0.00077545
 ,0.00217996,0.00391375,0.00117467,-0.01534235,-0.03292563,0.01727564,0
 .00129992,-0.00307799,-0.00144674,-0.00393457,0.00072331,-0.00156434,-
 0.00060369,0.00151489,-0.00138596,0.00012019,0.00086929,0.00114002,-0.
 00003284,-0.00009772,0.00044322,-0.00000444,0.00008559,0.00015802,-0.0
 0013517,0.00002047,-0.00001498,-0.00010256,-0.00080491,0.00128061,-0.0
 0059544,-0.00026288,-0.00031231,-0.08707327,-0.07078836,0.04393368,-0.
 00000368,0.00115789,0.00025938,0.09539558,0.00324843,-0.00026775,-0.00
 116872,-0.00257734,-0.00060013,-0.00048954,0.00091913,0.00250960,0.001
 31794,-0.00446412,-0.00643390,0.00110720,0.00138720,-0.00251404,-0.001
 43067,-0.00046460,-0.00009945,0.00014270,-0.00187540,0.00109219,-0.000
 51345,0.00021815,0.00071192,0.00044815,-0.00011908,0.00001189,0.000175
 00,-0.00003625,0.00005417,0.00009833,-0.00012368,0.00003071,-0.0001060
 6,-0.00061521,0.00000559,0.00108941,-0.00026586,-0.00011421,-0.0002098
 0,-0.07114527,-0.23531649,0.10021217,0.00260565,0.00513687,-0.00202230
 ,0.08354250,0.26044781,0.00112855,0.00051151,0.00011242,0.00011622,-0.
 00025433,-0.00014546,-0.00007978,-0.00020889,-0.00017110,-0.00628602,-
 0.01204412,0.00686756,-0.00011605,0.00028333,0.00018984,-0.00134125,0.
 00008780,-0.00034524,0.00034982,0.00022753,-0.00123262,0.00010642,-0.0
 0037457,-0.00031572,0.00006300,-0.00000737,0.00002596,-0.00001690,-0.0
 0001282,-0.00001358,0.00000173,-0.00008078,0.00012111,-0.00031209,-0.0
 0026951,0.00075459,-0.00011670,-0.00008506,-0.00002421,0.04316426,0.09
 943264,-0.11191790,0.01365332,0.03440048,-0.02005269,-0.04564403,-0.11
 293852,0.12137074,-0.00682939,-0.00399618,-0.00313450,0.00098519,0.002
 37308,-0.00017623,-0.00057369,-0.00111151,-0.00041643,-0.02040394,0.03
 291963,0.01133959,-0.00011889,0.00085217,0.00051486,0.00121988,0.00163
 349,0.00104400,0.00062284,-0.00072052,-0.00030978,0.00037671,-0.000211
 71,0.00045936,-0.00050869,0.00006833,0.00031756,-0.00011562,-0.0000769
 8,0.00002018,0.00002780,-0.00008618,-0.00007118,0.00093594,-0.00200205
 ,-0.00035022,-0.00000072,-0.00006237,-0.00011126,-0.15096375,0.1209640
 0,0.03646981,0.00040063,-0.00197984,0.00036455,0.00831866,-0.01023422,
 -0.00467049,0.16662702,-0.00042344,0.00076458,-0.00045751,-0.00041981,
 0.00021720,-0.00020581,0.00020295,0.00018948,0.00006917,-0.00500473,0.
 00277467,0.00120379,0.00001258,-0.00002479,-0.00014498,-0.00207557,0.0
 0056020,0.00022342,-0.00007552,0.00037797,0.00013833,-0.00008474,0.000
 54134,0.00031852,0.00002580,-0.00005876,0.00004279,0.00008147,0.000009
 81,0.00004446,0.00004449,0.00004187,0.00005006,-0.00118315,0.00071464,
 -0.00021365,0.00009905,0.00006803,0.00010058,0.12613776,-0.22381087,-0
 .04990667,0.00205559,-0.00402427,-0.00125843,0.01893643,-0.02465478,-0
 .00866731,-0.13832915,0.24631367,-0.00011114,-0.00163080,0.00133101,-0
 .00172751,-0.00044271,0.00058572,0.00060737,0.00112569,0.00038774,-0.0
 0702358,0.00963880,0.00111650,0.00036179,-0.00067301,-0.00041150,0.000
 05436,0.00050872,-0.00046652,-0.00035333,0.00046913,0.00014222,0.00000
 431,0.00023549,-0.00055432,-0.00019225,0.00003194,-0.00000825,0.000007
 05,0.00001479,-0.00003819,0.00002751,0.00002879,-0.00001450,-0.0003947
 0,-0.00022481,0.00045326,0.00000982,-0.00003936,0.00008417,0.03930294,
 -0.05099655,-0.07529198,0.02291274,-0.03099752,-0.00701013,-0.01219555
 ,0.01428818,0.00477630,-0.04128981,0.05866324,0.07491846\\-0.00002084,
 0.00001175,0.00002615,0.00000136,-0.00001674,-0.00000282,-0.00001292,0
 .00001503,-0.00000680,0.00001027,-0.00005479,-0.00003885,0.00004263,-0
 .00000321,-0.00000113,0.00004413,0.00005356,0.00001004,-0.00005789,0.0
 0001557,0.00000529,0.00000208,-0.00000001,-0.00000467,0.00000065,-0.00
 000142,-0.00000269,0.00000691,-0.00000567,-0.00000318,0.00000228,-0.00
 000898,0.00000649,-0.00000429,-0.00000330,0.00001388,-0.00000387,0.000
 00471,-0.00000399,-0.00000464,-0.00001011,0.00000796,0.00000243,0.0000
 0345,-0.00000378,-0.00000579,-0.00000092,-0.00000403,-0.00000248,0.000
 00107,0.00000214\\\@


  THE LARGE PRINT GIVETH,
  AND THE SMALL PRINT TAKETH AWAY.

                     -- TOM WAITS
 Job cpu time:       0 days  0 hours  2 minutes 22.3 seconds.
 Elapsed time:       0 days  0 hours  0 minutes  7.2 seconds.
 File lengths (MBytes):  RWF=     25 Int=      0 D2E=      0 Chk=      2 Scr=      1
 Normal termination of Gaussian 16 at Tue Jun 10 01:54:02 2025.
