 Entering Gaussian System, Link 0=g16
 Initial command:
 /home/user/softwares/g16/g16/l1.exe "/home/user/scratch/Gau-333918.inp" -scrdir="/home/user/scratch/"
 Entering Link 1 = /home/user/softwares/g16/g16/l1.exe PID=    333920.
  
 Copyright (c) 1988-2017, Gaussian, Inc.  All Rights Reserved.
  
 This is part of the Gaussian(R) 16 program.  It is based on
 the Gaussian(R) 09 system (copyright 2009, Gaussian, Inc.),
 the Gaussian(R) 03 system (copyright 2003, Gaussian, Inc.),
 the Gaussian(R) 98 system (copyright 1998, Gaussian, Inc.),
 the Gaussian(R) 94 system (copyright 1995, Gaussian, Inc.),
 the Gaussian 92(TM) system (copyright 1992, Gaussian, Inc.),
 the Gaussian 90(TM) system (copyright 1990, Gaussian, Inc.),
 the Gaussian 88(TM) system (copyright 1988, Gaussian, Inc.),
 the Gaussian 86(TM) system (copyright 1986, Carnegie Mellon
 University), and the Gaussian 82(TM) system (copyright 1983,
 Carnegie Mellon University). Gaussian is a federally registered
 trademark of Gaussian, Inc.
  
 This software contains proprietary and confidential information,
 including trade secrets, belonging to Gaussian, Inc.
  
 This software is provided under written license and may be
 used, copied, transmitted, or stored only in accord with that
 written license.
  
 The following legend is applicable only to US Government
 contracts under FAR:
  
                    RESTRICTED RIGHTS LEGEND
  
 Use, reproduction and disclosure by the US Government is
 subject to restrictions as set forth in subparagraphs (a)
 and (c) of the Commercial Computer Software - Restricted
 Rights clause in FAR 52.227-19.
  
 Gaussian, Inc.
 340 Quinnipiac St., Bldg. 40, Wallingford CT 06492
  
  
 ---------------------------------------------------------------
 Warning -- This program may not be used in any manner that
 competes with the business of Gaussian, Inc. or will provide
 assistance to any competitor of Gaussian, Inc.  The licensee
 of this program is prohibited from giving any competitor of
 Gaussian, Inc. access to this program.  By using this program,
 the user acknowledges that Gaussian, Inc. is engaged in the
 business of creating and licensing software in the field of
 computational chemistry and represents and warrants to the
 licensee that it is not a competitor of Gaussian, Inc. and that
 it will not use this program in any manner prohibited above.
 ---------------------------------------------------------------
  

 Cite this work as:
 Gaussian 16, Revision B.01,
 M. J. Frisch, G. W. Trucks, H. B. Schlegel, G. E. Scuseria, 
 M. A. Robb, J. R. Cheeseman, G. Scalmani, V. Barone, 
 G. A. Petersson, H. Nakatsuji, X. Li, M. Caricato, A. V. Marenich, 
 J. Bloino, B. G. Janesko, R. Gomperts, B. Mennucci, H. P. Hratchian, 
 J. V. Ortiz, A. F. Izmaylov, J. L. Sonnenberg, D. Williams-Young, 
 F. Ding, F. Lipparini, F. Egidi, J. Goings, B. Peng, A. Petrone, 
 T. Henderson, D. Ranasinghe, V. G. Zakrzewski, J. Gao, N. Rega, 
 G. Zheng, W. Liang, M. Hada, M. Ehara, K. Toyota, R. Fukuda, 
 J. Hasegawa, M. Ishida, T. Nakajima, Y. Honda, O. Kitao, H. Nakai, 
 T. Vreven, K. Throssell, J. A. Montgomery, Jr., J. E. Peralta, 
 F. Ogliaro, M. J. Bearpark, J. J. Heyd, E. N. Brothers, K. N. Kudin, 
 V. N. Staroverov, T. A. Keith, R. Kobayashi, J. Normand, 
 K. Raghavachari, A. P. Rendell, J. C. Burant, S. S. Iyengar, 
 J. Tomasi, M. Cossi, J. M. Millam, M. Klene, C. Adamo, R. Cammi, 
 J. W. Ochterski, R. L. Martin, K. Morokuma, O. Farkas, 
 J. B. Foresman, and D. J. Fox, Gaussian, Inc., Wallingford CT, 2016.
 
 ******************************************
 Gaussian 16:  EM64L-G16RevB.01 20-Dec-2017
                10-Jun-2025 
 ******************************************
 %nproc=20
 Will use up to   20 processors via shared memory.
 %mem=15GB
 %chk=meth_napthalene_isomer.chk
 ---------------------------------------------
 #p hf/3-21g opt freq gfinput gfprint pop=full
 ---------------------------------------------
 1/18=20,19=15,38=1/1,3;
 2/9=110,12=2,17=6,18=5,40=1/2;
 3/5=5,11=9,24=110,25=1,30=1,71=1/1,2,3;
 4//1;
 5/5=2,38=5/2;
 6/7=3,28=1/1;
 7//1,2,3,16;
 1/18=20,19=15/3(2);
 2/9=110/2;
 99//99;
 2/9=110/2;
 3/5=5,11=9,25=1,30=1,71=1/1,2,3;
 4/5=5,16=3,69=1/1;
 5/5=2,38=5/2;
 7//1,2,3,16;
 1/18=20,19=15/3(-5);
 2/9=110/2;
 6/7=3,19=2,28=1/1;
 99/9=1/99;
 Leave Link    1 at Tue Jun 10 01:18:58 2025, MaxMem=  2013265920 cpu:               0.6 elap:               0.0
 (Enter /home/user/softwares/g16/g16/l101.exe)
 --------------------------
 Methyl Napthalene opt+Freq
 --------------------------
 Symbolic Z-matrix:
 Charge =  0 Multiplicity = 1
 C                    -4.15355  -3.16523   2.17158 
 C                    -2.66252  -3.14245   2.55564 
 C                    -1.9786   -1.97309   2.53566 
 C                    -2.70974  -0.6589    2.23232 
 C                    -4.00887  -0.68166   1.84728 
 C                    -4.77769  -2.0159    1.81565 
 H                     0.02936  -2.85504   3.11265 
 H                    -4.69539  -4.08783   2.18232 
 H                    -2.16583  -4.04945   2.83052 
 C                    -0.46613  -1.96077   2.79694 
 C                    -1.97787   0.68718   2.38178 
 H                    -4.50212   0.22729   1.57266 
 H                    -5.80476  -2.03499   1.51622 
 C                    -0.44924   0.51064   2.2483 
 C                     0.24688  -0.82367   2.60169 
 H                     1.31331  -0.85314   2.68392 
 C                     0.30186   1.55604   1.82457 
 H                     1.36263   1.4502    1.73268 
 H                    -0.16589   2.48729   1.5819 
 H                    -2.32848   1.36785   1.63434 
 H                    -2.18622   1.08082   3.35468 
 
 ITRead=  0  0  0  0  0  0  0  0  0  0  0  0  0  0  0  0  0  0  0  0
 ITRead=  0
 MicOpt= -1 -1 -1 -1 -1 -1 -1 -1 -1 -1 -1 -1 -1 -1 -1 -1 -1 -1 -1 -1
 MicOpt= -1
 NAtoms=     21 NQM=       21 NQMF=       0 NMMI=      0 NMMIF=      0
                NMic=       0 NMicF=      0.
                    Isotopes and Nuclear Properties:
 (Nuclear quadrupole moments (NQMom) in fm**2, nuclear magnetic moments (NMagM)
  in nuclear magnetons)

  Atom         1           2           3           4           5           6           7           8           9          10
 IAtWgt=          12          12          12          12          12          12           1           1           1          12
 AtmWgt=  12.0000000  12.0000000  12.0000000  12.0000000  12.0000000  12.0000000   1.0078250   1.0078250   1.0078250  12.0000000
 NucSpn=           0           0           0           0           0           0           1           1           1           0
 AtZEff=  -0.0000000  -0.0000000  -0.0000000  -0.0000000  -0.0000000  -0.0000000  -0.0000000  -0.0000000  -0.0000000  -0.0000000
 NQMom=    0.0000000   0.0000000   0.0000000   0.0000000   0.0000000   0.0000000   0.0000000   0.0000000   0.0000000   0.0000000
 NMagM=    0.0000000   0.0000000   0.0000000   0.0000000   0.0000000   0.0000000   2.7928460   2.7928460   2.7928460   0.0000000
 AtZNuc=   6.0000000   6.0000000   6.0000000   6.0000000   6.0000000   6.0000000   1.0000000   1.0000000   1.0000000   6.0000000

  Atom        11          12          13          14          15          16          17          18          19          20
 IAtWgt=          12           1           1          12          12           1          12           1           1           1
 AtmWgt=  12.0000000   1.0078250   1.0078250  12.0000000  12.0000000   1.0078250  12.0000000   1.0078250   1.0078250   1.0078250
 NucSpn=           0           1           1           0           0           1           0           1           1           1
 AtZEff=  -0.0000000  -0.0000000  -0.0000000  -0.0000000  -0.0000000  -0.0000000  -0.0000000  -0.0000000  -0.0000000  -0.0000000
 NQMom=    0.0000000   0.0000000   0.0000000   0.0000000   0.0000000   0.0000000   0.0000000   0.0000000   0.0000000   0.0000000
 NMagM=    0.0000000   2.7928460   2.7928460   0.0000000   0.0000000   2.7928460   0.0000000   2.7928460   2.7928460   2.7928460
 AtZNuc=   6.0000000   1.0000000   1.0000000   6.0000000   6.0000000   1.0000000   6.0000000   1.0000000   1.0000000   1.0000000

  Atom        21
 IAtWgt=           1
 AtmWgt=   1.0078250
 NucSpn=           1
 AtZEff=  -0.0000000
 NQMom=    0.0000000
 NMagM=    2.7928460
 AtZNuc=   1.0000000
 Leave Link  101 at Tue Jun 10 01:18:59 2025, MaxMem=  2013265920 cpu:              11.8 elap:               0.6
 (Enter /home/user/softwares/g16/g16/l103.exe)

 GradGradGradGradGradGradGradGradGradGradGradGradGradGradGradGradGradGrad
 Berny optimization.
 Initialization pass.
                           ----------------------------
                           !    Initial Parameters    !
                           ! (Angstroms and Degrees)  !
 --------------------------                            --------------------------
 ! Name  Definition              Value          Derivative Info.                !
 --------------------------------------------------------------------------------
 ! R1    R(1,2)                  1.5399         estimate D2E/DX2                !
 ! R2    R(1,6)                  1.3554         estimate D2E/DX2                !
 ! R3    R(1,8)                  1.07           estimate D2E/DX2                !
 ! R4    R(2,3)                  1.3548         estimate D2E/DX2                !
 ! R5    R(2,9)                  1.07           estimate D2E/DX2                !
 ! R6    R(3,4)                  1.5342         estimate D2E/DX2                !
 ! R7    R(3,10)                 1.5349         estimate D2E/DX2                !
 ! R8    R(4,5)                  1.3552         estimate D2E/DX2                !
 ! R9    R(4,11)                 1.5395         estimate D2E/DX2                !
 ! R10   R(5,6)                  1.5402         estimate D2E/DX2                !
 ! R11   R(5,12)                 1.07           estimate D2E/DX2                !
 ! R12   R(6,13)                 1.07           estimate D2E/DX2                !
 ! R13   R(7,10)                 1.07           estimate D2E/DX2                !
 ! R14   R(10,15)                1.3563         estimate D2E/DX2                !
 ! R15   R(11,14)                1.5446         estimate D2E/DX2                !
 ! R16   R(11,20)                1.07           estimate D2E/DX2                !
 ! R17   R(11,21)                1.07           estimate D2E/DX2                !
 ! R18   R(14,15)                1.5459         estimate D2E/DX2                !
 ! R19   R(14,17)                1.3552         estimate D2E/DX2                !
 ! R20   R(15,16)                1.07           estimate D2E/DX2                !
 ! R21   R(17,18)                1.07           estimate D2E/DX2                !
 ! R22   R(17,19)                1.07           estimate D2E/DX2                !
 ! A1    A(2,1,6)              119.922          estimate D2E/DX2                !
 ! A2    A(2,1,8)              120.0384         estimate D2E/DX2                !
 ! A3    A(6,1,8)              120.0393         estimate D2E/DX2                !
 ! A4    A(1,2,3)              119.86           estimate D2E/DX2                !
 ! A5    A(1,2,9)              120.067          estimate D2E/DX2                !
 ! A6    A(3,2,9)              120.0714         estimate D2E/DX2                !
 ! A7    A(2,3,4)              120.112          estimate D2E/DX2                !
 ! A8    A(2,3,10)             120.1215         estimate D2E/DX2                !
 ! A9    A(4,3,10)             119.7609         estimate D2E/DX2                !
 ! A10   A(3,4,5)              119.9107         estimate D2E/DX2                !
 ! A11   A(3,4,11)             120.2156         estimate D2E/DX2                !
 ! A12   A(5,4,11)             119.8688         estimate D2E/DX2                !
 ! A13   A(4,5,6)              119.9273         estimate D2E/DX2                !
 ! A14   A(4,5,12)             120.0378         estimate D2E/DX2                !
 ! A15   A(6,5,12)             120.0333         estimate D2E/DX2                !
 ! A16   A(1,6,5)              119.9538         estimate D2E/DX2                !
 ! A17   A(1,6,13)             120.0233         estimate D2E/DX2                !
 ! A18   A(5,6,13)             120.0225         estimate D2E/DX2                !
 ! A19   A(3,10,7)             119.9882         estimate D2E/DX2                !
 ! A20   A(3,10,15)            120.016          estimate D2E/DX2                !
 ! A21   A(7,10,15)            119.9824         estimate D2E/DX2                !
 ! A22   A(4,11,14)            111.2336         estimate D2E/DX2                !
 ! A23   A(4,11,20)            109.4288         estimate D2E/DX2                !
 ! A24   A(4,11,21)            108.5042         estimate D2E/DX2                !
 ! A25   A(14,11,20)           109.6721         estimate D2E/DX2                !
 ! A26   A(14,11,21)           108.2602         estimate D2E/DX2                !
 ! A27   A(20,11,21)           109.7142         estimate D2E/DX2                !
 ! A28   A(11,14,15)           121.6381         estimate D2E/DX2                !
 ! A29   A(11,14,17)           119.1674         estimate D2E/DX2                !
 ! A30   A(15,14,17)           119.1906         estimate D2E/DX2                !
 ! A31   A(10,15,14)           121.3202         estimate D2E/DX2                !
 ! A32   A(10,15,16)           119.3272         estimate D2E/DX2                !
 ! A33   A(14,15,16)           119.3495         estimate D2E/DX2                !
 ! A34   A(14,17,18)           120.0            estimate D2E/DX2                !
 ! A35   A(14,17,19)           120.0            estimate D2E/DX2                !
 ! A36   A(18,17,19)           120.0            estimate D2E/DX2                !
 ! D1    D(6,1,2,3)             -0.0447         estimate D2E/DX2                !
 ! D2    D(6,1,2,9)           -179.5819         estimate D2E/DX2                !
 ! D3    D(8,1,2,3)            179.7382         estimate D2E/DX2                !
 ! D4    D(8,1,2,9)              0.201          estimate D2E/DX2                !
 ! D5    D(2,1,6,5)             -2.3104         estimate D2E/DX2                !
 ! D6    D(2,1,6,13)           177.9047         estimate D2E/DX2                !
 ! D7    D(8,1,6,5)            177.9067         estimate D2E/DX2                !
 ! D8    D(8,1,6,13)            -1.8782         estimate D2E/DX2                !
 ! D9    D(1,2,3,4)              4.5107         estimate D2E/DX2                !
 ! D10   D(1,2,3,10)          -174.6286         estimate D2E/DX2                !
 ! D11   D(9,2,3,4)           -175.9521         estimate D2E/DX2                !
 ! D12   D(9,2,3,10)             4.9086         estimate D2E/DX2                !
 ! D13   D(2,3,4,5)             -6.8962         estimate D2E/DX2                !
 ! D14   D(2,3,4,11)           172.2966         estimate D2E/DX2                !
 ! D15   D(10,3,4,5)           172.2463         estimate D2E/DX2                !
 ! D16   D(10,3,4,11)           -8.5609         estimate D2E/DX2                !
 ! D17   D(2,3,10,7)            -7.494          estimate D2E/DX2                !
 ! D18   D(2,3,10,15)          171.1729         estimate D2E/DX2                !
 ! D19   D(4,3,10,7)           173.3637         estimate D2E/DX2                !
 ! D20   D(4,3,10,15)           -7.9694         estimate D2E/DX2                !
 ! D21   D(3,4,5,6)              4.5213         estimate D2E/DX2                !
 ! D22   D(3,4,5,12)          -175.942          estimate D2E/DX2                !
 ! D23   D(11,4,5,6)          -174.6743         estimate D2E/DX2                !
 ! D24   D(11,4,5,12)            4.8624         estimate D2E/DX2                !
 ! D25   D(3,4,11,14)           24.1909         estimate D2E/DX2                !
 ! D26   D(3,4,11,20)          145.5239         estimate D2E/DX2                !
 ! D27   D(3,4,11,21)          -94.79           estimate D2E/DX2                !
 ! D28   D(5,4,11,14)         -156.616          estimate D2E/DX2                !
 ! D29   D(5,4,11,20)          -35.2829         estimate D2E/DX2                !
 ! D30   D(5,4,11,21)           84.4031         estimate D2E/DX2                !
 ! D31   D(4,5,6,1)             -0.0668         estimate D2E/DX2                !
 ! D32   D(4,5,6,13)           179.7181         estimate D2E/DX2                !
 ! D33   D(12,5,6,1)          -179.6036         estimate D2E/DX2                !
 ! D34   D(12,5,6,13)            0.1813         estimate D2E/DX2                !
 ! D35   D(3,10,15,14)           5.9415         estimate D2E/DX2                !
 ! D36   D(3,10,15,16)        -173.4136         estimate D2E/DX2                !
 ! D37   D(7,10,15,14)        -175.3915         estimate D2E/DX2                !
 ! D38   D(7,10,15,16)           5.2533         estimate D2E/DX2                !
 ! D39   D(4,11,14,15)         -26.7877         estimate D2E/DX2                !
 ! D40   D(4,11,14,17)         153.9335         estimate D2E/DX2                !
 ! D41   D(20,11,14,15)       -147.9785         estimate D2E/DX2                !
 ! D42   D(20,11,14,17)         32.7428         estimate D2E/DX2                !
 ! D43   D(21,11,14,15)         92.3392         estimate D2E/DX2                !
 ! D44   D(21,11,14,17)        -86.9395         estimate D2E/DX2                !
 ! D45   D(11,14,15,10)         12.6828         estimate D2E/DX2                !
 ! D46   D(11,14,15,16)       -167.9622         estimate D2E/DX2                !
 ! D47   D(17,14,15,10)       -168.0386         estimate D2E/DX2                !
 ! D48   D(17,14,15,16)         11.3164         estimate D2E/DX2                !
 ! D49   D(11,14,17,18)        179.6483         estimate D2E/DX2                !
 ! D50   D(11,14,17,19)         -0.3517         estimate D2E/DX2                !
 ! D51   D(15,14,17,18)          0.3517         estimate D2E/DX2                !
 ! D52   D(15,14,17,19)       -179.6483         estimate D2E/DX2                !
 --------------------------------------------------------------------------------
 Trust Radius=3.00D-01 FncErr=1.00D-07 GrdErr=1.00D-07 EigMax=2.50D+02 EigMin=1.00D-04
 Number of steps in this run=    120 maximum allowed number of steps=    126.
 GradGradGradGradGradGradGradGradGradGradGradGradGradGradGradGradGradGrad

 Leave Link  103 at Tue Jun 10 01:18:59 2025, MaxMem=  2013265920 cpu:               0.3 elap:               0.0
 (Enter /home/user/softwares/g16/g16/l202.exe)
                          Input orientation:                          
 ---------------------------------------------------------------------
 Center     Atomic      Atomic             Coordinates (Angstroms)
 Number     Number       Type             X           Y           Z
 ---------------------------------------------------------------------
      1          6           0       -4.153550   -3.165230    2.171582
      2          6           0       -2.662523   -3.142455    2.555635
      3          6           0       -1.978605   -1.973092    2.535665
      4          6           0       -2.709744   -0.658902    2.232324
      5          6           0       -4.008872   -0.681662    1.847284
      6          6           0       -4.777689   -2.015898    1.815654
      7          1           0        0.029363   -2.855041    3.112651
      8          1           0       -4.695388   -4.087833    2.182324
      9          1           0       -2.165832   -4.049447    2.830521
     10          6           0       -0.466129   -1.960775    2.796936
     11          6           0       -1.977873    0.687184    2.381778
     12          1           0       -4.502121    0.227285    1.572658
     13          1           0       -5.804759   -2.034991    1.516217
     14          6           0       -0.449242    0.510641    2.248303
     15          6           0        0.246880   -0.823669    2.601689
     16          1           0        1.313308   -0.853140    2.683923
     17          6           0        0.301855    1.556045    1.824569
     18          1           0        1.362635    1.450198    1.732682
     19          1           0       -0.165894    2.487292    1.581897
     20          1           0       -2.328484    1.367848    1.634336
     21          1           0       -2.186223    1.080818    3.354682
 ---------------------------------------------------------------------
                    Distance matrix (angstroms):
                    1          2          3          4          5
     1  C    0.000000
     2  C    1.539862   0.000000
     3  C    2.506818   1.354826   0.000000
     4  C    2.893086   2.504954   1.534169   0.000000
     5  C    2.508826   2.893081   2.502727   1.355178   0.000000
     6  C    1.355433   2.508112   2.890522   2.508276   1.540216
     7  H    4.298672   2.763897   2.267748   3.619490   4.757317
     8  H    1.070000   2.272804   3.460909   3.962682   3.490781
     9  H    2.273117   1.070000   2.105528   3.485610   3.963020
    10  C    3.929231   2.505742   1.534926   2.654707   3.884456
    11  C    4.429317   3.894240   2.664723   1.539454   2.506867
    12  H    3.462567   3.963018   3.483845   2.105494   1.070000
    13  H    2.105572   3.490059   3.960121   3.462016   2.272953
    14  C    5.219177   4.282310   2.930948   2.545182   3.775363
    15  C    5.003167   3.720688   2.505656   2.984159   4.324433
    16  H    5.957750   4.589625   3.480368   4.052976   5.390266
    17  C    6.500884   5.603383   4.261568   3.760583   4.856976
    18  H    7.205768   6.162111   4.850523   4.613265   5.780229
    19  H    6.942631   6.235012   4.908219   4.097897   4.988104
    20  H    4.916126   4.615539   3.478029   2.147245   2.658861
    21  H    4.826906   4.324508   3.168637   2.135506   2.949684
                    6          7          8          9         10
     6  C    0.000000
     7  H    5.049169   0.000000
     8  H    2.105738   4.970770   0.000000
     9  H    3.462235   2.514972   2.611567   0.000000
    10  C    4.422161   1.070000   4.773757   2.693079   0.000000
    11  C    3.932699   4.136488   5.497768   4.761552   3.077241
    12  H    2.273072   5.692685   4.362257   5.032982   4.751389
    13  H    1.070000   6.103938   2.426636   4.362020   5.490603
    14  C    5.030511   3.507702   6.259398   4.907144   2.531636
    15  C    5.223558   2.105912   5.937730   4.034748   1.356286
    16  H    6.261481   2.416595   6.842461   4.726763   2.099053
    17  C    6.209720   4.603378   7.546773   6.206687   3.728715
    18  H    7.051545   4.713493   8.220195   6.625815   4.013944
    19  H    6.449962   5.560742   8.006815   6.948940   4.620796
    20  H    4.181055   5.057435   5.972184   5.550171   3.987447
    21  H    4.321337   4.523095   5.863897   5.157013   3.538515
                   11         12         13         14         15
    11  C    0.000000
    12  H    2.690355   0.000000
    13  H    4.775405   2.611120   0.000000
    14  C    1.544570   4.118570   5.974760   0.000000
    15  C    2.698253   4.971561   6.266409   1.545915   0.000000
    16  H    3.646336   6.018426   7.309391   2.270737   1.070000
    17  C    2.502511   4.990717   7.090935   1.355200   2.503992
    18  H    3.487479   5.993036   7.972762   2.105120   2.677789
    19  H    2.676465   4.889845   7.228565   2.105120   3.488957
    20  H    1.070000   2.455481   4.865979   2.154834   3.517246
    21  H    1.070000   3.044259   5.116838   2.136885   3.180261
                   16         17         18         19         20
    16  H    0.000000
    17  C    2.750581   0.000000
    18  H    2.492520   1.070000   0.000000
    19  H    3.815885   1.070000   1.853294   0.000000
    20  H    4.392843   2.643916   3.693347   2.435713   0.000000
    21  H    4.054236   2.959327   3.919402   3.033589   1.749919
                   21
    21  H    0.000000
 Stoichiometry    C11H10
 Framework group  C1[X(C11H10)]
 Deg. of freedom    57
 Full point group                 C1      NOp   1
 Largest Abelian subgroup         C1      NOp   1
 Largest concise Abelian subgroup C1      NOp   1
                         Standard orientation:                         
 ---------------------------------------------------------------------
 Center     Atomic      Atomic             Coordinates (Angstroms)
 Number     Number       Type             X           Y           Z
 ---------------------------------------------------------------------
      1          6           0        2.989844    0.374342   -0.131970
      2          6           0        1.792722    1.333067    0.005583
      3          6           0        0.535101    0.835080    0.082730
      4          6           0        0.309805   -0.681469    0.137478
      5          6           0        1.355591   -1.526554   -0.031845
      6          6           0        2.782455   -0.964454   -0.174566
      7          1           0       -0.517352    2.842132    0.164973
      8          1           0        3.983941    0.764721   -0.197347
      9          1           0        1.953220    2.390614    0.032709
     10          6           0       -0.670209    1.785371    0.095758
     11          6           0       -1.097410   -1.246581    0.402643
     12          1           0        1.191173   -2.583499   -0.058927
     13          1           0        3.609819   -1.630537   -0.303798
     14          6           0       -2.192006   -0.235382   -0.003597
     15          6           0       -1.927666    1.287760   -0.007674
     16          1           0       -2.752157    1.962877   -0.104261
     17          6           0       -3.418867   -0.694228   -0.351215
     18          1           0       -4.188706   -0.005153   -0.629467
     19          1           0       -3.617699   -1.745585   -0.347426
     20          1           0       -1.225177   -2.155810   -0.146790
     21          1           0       -1.193219   -1.441481    1.450372
 ---------------------------------------------------------------------
 Rotational constants (GHZ):           2.4751147           0.8270034           0.6311383
 Leave Link  202 at Tue Jun 10 01:18:59 2025, MaxMem=  2013265920 cpu:               0.0 elap:               0.0
 (Enter /home/user/softwares/g16/g16/l301.exe)
 Standard basis: 3-21G (6D, 7F)
 Ernie: Thresh=  0.10000D-02 Tol=  0.10000D-05 Strict=F.
 AO basis set in the form of general basis input (Overlap normalization):
      1 0
 S   3 1.00       0.000000000000
      0.1722560000D+03  0.6176690738D-01
      0.2591090000D+02  0.3587940429D+00
      0.5533350000D+01  0.7007130837D+00
 SP   2 1.00       0.000000000000
      0.3664980000D+01 -0.3958951621D+00  0.2364599466D+00
      0.7705450000D+00  0.1215834356D+01  0.8606188057D+00
 SP   1 1.00       0.000000000000
      0.1958570000D+00  0.1000000000D+01  0.1000000000D+01
 ****
      2 0
 S   3 1.00       0.000000000000
      0.1722560000D+03  0.6176690738D-01
      0.2591090000D+02  0.3587940429D+00
      0.5533350000D+01  0.7007130837D+00
 SP   2 1.00       0.000000000000
      0.3664980000D+01 -0.3958951621D+00  0.2364599466D+00
      0.7705450000D+00  0.1215834356D+01  0.8606188057D+00
 SP   1 1.00       0.000000000000
      0.1958570000D+00  0.1000000000D+01  0.1000000000D+01
 ****
      3 0
 S   3 1.00       0.000000000000
      0.1722560000D+03  0.6176690738D-01
      0.2591090000D+02  0.3587940429D+00
      0.5533350000D+01  0.7007130837D+00
 SP   2 1.00       0.000000000000
      0.3664980000D+01 -0.3958951621D+00  0.2364599466D+00
      0.7705450000D+00  0.1215834356D+01  0.8606188057D+00
 SP   1 1.00       0.000000000000
      0.1958570000D+00  0.1000000000D+01  0.1000000000D+01
 ****
      4 0
 S   3 1.00       0.000000000000
      0.1722560000D+03  0.6176690738D-01
      0.2591090000D+02  0.3587940429D+00
      0.5533350000D+01  0.7007130837D+00
 SP   2 1.00       0.000000000000
      0.3664980000D+01 -0.3958951621D+00  0.2364599466D+00
      0.7705450000D+00  0.1215834356D+01  0.8606188057D+00
 SP   1 1.00       0.000000000000
      0.1958570000D+00  0.1000000000D+01  0.1000000000D+01
 ****
      5 0
 S   3 1.00       0.000000000000
      0.1722560000D+03  0.6176690738D-01
      0.2591090000D+02  0.3587940429D+00
      0.5533350000D+01  0.7007130837D+00
 SP   2 1.00       0.000000000000
      0.3664980000D+01 -0.3958951621D+00  0.2364599466D+00
      0.7705450000D+00  0.1215834356D+01  0.8606188057D+00
 SP   1 1.00       0.000000000000
      0.1958570000D+00  0.1000000000D+01  0.1000000000D+01
 ****
      6 0
 S   3 1.00       0.000000000000
      0.1722560000D+03  0.6176690738D-01
      0.2591090000D+02  0.3587940429D+00
      0.5533350000D+01  0.7007130837D+00
 SP   2 1.00       0.000000000000
      0.3664980000D+01 -0.3958951621D+00  0.2364599466D+00
      0.7705450000D+00  0.1215834356D+01  0.8606188057D+00
 SP   1 1.00       0.000000000000
      0.1958570000D+00  0.1000000000D+01  0.1000000000D+01
 ****
      7 0
 S   2 1.00       0.000000000000
      0.5447178000D+01  0.1562849787D+00
      0.8245472400D+00  0.9046908767D+00
 S   1 1.00       0.000000000000
      0.1831915800D+00  0.1000000000D+01
 ****
      8 0
 S   2 1.00       0.000000000000
      0.5447178000D+01  0.1562849787D+00
      0.8245472400D+00  0.9046908767D+00
 S   1 1.00       0.000000000000
      0.1831915800D+00  0.1000000000D+01
 ****
      9 0
 S   2 1.00       0.000000000000
      0.5447178000D+01  0.1562849787D+00
      0.8245472400D+00  0.9046908767D+00
 S   1 1.00       0.000000000000
      0.1831915800D+00  0.1000000000D+01
 ****
     10 0
 S   3 1.00       0.000000000000
      0.1722560000D+03  0.6176690738D-01
      0.2591090000D+02  0.3587940429D+00
      0.5533350000D+01  0.7007130837D+00
 SP   2 1.00       0.000000000000
      0.3664980000D+01 -0.3958951621D+00  0.2364599466D+00
      0.7705450000D+00  0.1215834356D+01  0.8606188057D+00
 SP   1 1.00       0.000000000000
      0.1958570000D+00  0.1000000000D+01  0.1000000000D+01
 ****
     11 0
 S   3 1.00       0.000000000000
      0.1722560000D+03  0.6176690738D-01
      0.2591090000D+02  0.3587940429D+00
      0.5533350000D+01  0.7007130837D+00
 SP   2 1.00       0.000000000000
      0.3664980000D+01 -0.3958951621D+00  0.2364599466D+00
      0.7705450000D+00  0.1215834356D+01  0.8606188057D+00
 SP   1 1.00       0.000000000000
      0.1958570000D+00  0.1000000000D+01  0.1000000000D+01
 ****
     12 0
 S   2 1.00       0.000000000000
      0.5447178000D+01  0.1562849787D+00
      0.8245472400D+00  0.9046908767D+00
 S   1 1.00       0.000000000000
      0.1831915800D+00  0.1000000000D+01
 ****
     13 0
 S   2 1.00       0.000000000000
      0.5447178000D+01  0.1562849787D+00
      0.8245472400D+00  0.9046908767D+00
 S   1 1.00       0.000000000000
      0.1831915800D+00  0.1000000000D+01
 ****
     14 0
 S   3 1.00       0.000000000000
      0.1722560000D+03  0.6176690738D-01
      0.2591090000D+02  0.3587940429D+00
      0.5533350000D+01  0.7007130837D+00
 SP   2 1.00       0.000000000000
      0.3664980000D+01 -0.3958951621D+00  0.2364599466D+00
      0.7705450000D+00  0.1215834356D+01  0.8606188057D+00
 SP   1 1.00       0.000000000000
      0.1958570000D+00  0.1000000000D+01  0.1000000000D+01
 ****
     15 0
 S   3 1.00       0.000000000000
      0.1722560000D+03  0.6176690738D-01
      0.2591090000D+02  0.3587940429D+00
      0.5533350000D+01  0.7007130837D+00
 SP   2 1.00       0.000000000000
      0.3664980000D+01 -0.3958951621D+00  0.2364599466D+00
      0.7705450000D+00  0.1215834356D+01  0.8606188057D+00
 SP   1 1.00       0.000000000000
      0.1958570000D+00  0.1000000000D+01  0.1000000000D+01
 ****
     16 0
 S   2 1.00       0.000000000000
      0.5447178000D+01  0.1562849787D+00
      0.8245472400D+00  0.9046908767D+00
 S   1 1.00       0.000000000000
      0.1831915800D+00  0.1000000000D+01
 ****
     17 0
 S   3 1.00       0.000000000000
      0.1722560000D+03  0.6176690738D-01
      0.2591090000D+02  0.3587940429D+00
      0.5533350000D+01  0.7007130837D+00
 SP   2 1.00       0.000000000000
      0.3664980000D+01 -0.3958951621D+00  0.2364599466D+00
      0.7705450000D+00  0.1215834356D+01  0.8606188057D+00
 SP   1 1.00       0.000000000000
      0.1958570000D+00  0.1000000000D+01  0.1000000000D+01
 ****
     18 0
 S   2 1.00       0.000000000000
      0.5447178000D+01  0.1562849787D+00
      0.8245472400D+00  0.9046908767D+00
 S   1 1.00       0.000000000000
      0.1831915800D+00  0.1000000000D+01
 ****
     19 0
 S   2 1.00       0.000000000000
      0.5447178000D+01  0.1562849787D+00
      0.8245472400D+00  0.9046908767D+00
 S   1 1.00       0.000000000000
      0.1831915800D+00  0.1000000000D+01
 ****
     20 0
 S   2 1.00       0.000000000000
      0.5447178000D+01  0.1562849787D+00
      0.8245472400D+00  0.9046908767D+00
 S   1 1.00       0.000000000000
      0.1831915800D+00  0.1000000000D+01
 ****
     21 0
 S   2 1.00       0.000000000000
      0.5447178000D+01  0.1562849787D+00
      0.8245472400D+00  0.9046908767D+00
 S   1 1.00       0.000000000000
      0.1831915800D+00  0.1000000000D+01
 ****

 AO basis set (Overlap normalization):
 Atom C1       Shell     1 S   3     bf    1 -     1          5.649985635214          0.707403785579         -0.249386758206
      0.1722560000D+03  0.6176690738D-01
      0.2591090000D+02  0.3587940429D+00
      0.5533350000D+01  0.7007130837D+00
 Atom C1       Shell     2 SP   2    bf    2 -     5          5.649985635214          0.707403785579         -0.249386758206
      0.3664980000D+01 -0.3958951621D+00  0.2364599466D+00
      0.7705450000D+00  0.1215834356D+01  0.8606188057D+00
 Atom C1       Shell     3 SP   1    bf    6 -     9          5.649985635214          0.707403785579         -0.249386758206
      0.1958570000D+00  0.1000000000D+01  0.1000000000D+01
 Atom C2       Shell     4 S   3     bf   10 -    10          3.387754241769          2.519131920643          0.010550997338
      0.1722560000D+03  0.6176690738D-01
      0.2591090000D+02  0.3587940429D+00
      0.5533350000D+01  0.7007130837D+00
 Atom C2       Shell     5 SP   2    bf   11 -    14          3.387754241769          2.519131920643          0.010550997338
      0.3664980000D+01 -0.3958951621D+00  0.2364599466D+00
      0.7705450000D+00  0.1215834356D+01  0.8606188057D+00
 Atom C2       Shell     6 SP   1    bf   15 -    18          3.387754241769          2.519131920643          0.010550997338
      0.1958570000D+00  0.1000000000D+01  0.1000000000D+01
 Atom C3       Shell     7 S   3     bf   19 -    19          1.011195121160          1.578071882650          0.156337683429
      0.1722560000D+03  0.6176690738D-01
      0.2591090000D+02  0.3587940429D+00
      0.5533350000D+01  0.7007130837D+00
 Atom C3       Shell     8 SP   2    bf   20 -    23          1.011195121160          1.578071882650          0.156337683429
      0.3664980000D+01 -0.3958951621D+00  0.2364599466D+00
      0.7705450000D+00  0.1215834356D+01  0.8606188057D+00
 Atom C3       Shell     9 SP   1    bf   24 -    27          1.011195121160          1.578071882650          0.156337683429
      0.1958570000D+00  0.1000000000D+01  0.1000000000D+01
 Atom C4       Shell    10 S   3     bf   28 -    28          0.585446358128         -1.287788988020          0.259796429965
      0.1722560000D+03  0.6176690738D-01
      0.2591090000D+02  0.3587940429D+00
      0.5533350000D+01  0.7007130837D+00
 Atom C4       Shell    11 SP   2    bf   29 -    32          0.585446358128         -1.287788988020          0.259796429965
      0.3664980000D+01 -0.3958951621D+00  0.2364599466D+00
      0.7705450000D+00  0.1215834356D+01  0.8606188057D+00
 Atom C4       Shell    12 SP   1    bf   33 -    36          0.585446358128         -1.287788988020          0.259796429965
      0.1958570000D+00  0.1000000000D+01  0.1000000000D+01
 Atom C5       Shell    13 S   3     bf   37 -    37          2.561695932504         -2.884768233516         -0.060178342532
      0.1722560000D+03  0.6176690738D-01
      0.2591090000D+02  0.3587940429D+00
      0.5533350000D+01  0.7007130837D+00
 Atom C5       Shell    14 SP   2    bf   38 -    41          2.561695932504         -2.884768233516         -0.060178342532
      0.3664980000D+01 -0.3958951621D+00  0.2364599466D+00
      0.7705450000D+00  0.1215834356D+01  0.8606188057D+00
 Atom C5       Shell    15 SP   1    bf   42 -    45          2.561695932504         -2.884768233516         -0.060178342532
      0.1958570000D+00  0.1000000000D+01  0.1000000000D+01
 Atom C6       Shell    16 S   3     bf   46 -    46          5.258077723661         -1.822553587664         -0.329881459884
      0.1722560000D+03  0.6176690738D-01
      0.2591090000D+02  0.3587940429D+00
      0.5533350000D+01  0.7007130837D+00
 Atom C6       Shell    17 SP   2    bf   47 -    50          5.258077723661         -1.822553587664         -0.329881459884
      0.3664980000D+01 -0.3958951621D+00  0.2364599466D+00
      0.7705450000D+00  0.1215834356D+01  0.8606188057D+00
 Atom C6       Shell    18 SP   1    bf   51 -    54          5.258077723661         -1.822553587664         -0.329881459884
      0.1958570000D+00  0.1000000000D+01  0.1000000000D+01
 Atom H7       Shell    19 S   2     bf   55 -    55         -0.977653117843          5.370851659376          0.311754442026
      0.5447178000D+01  0.1562849787D+00
      0.8245472400D+00  0.9046908767D+00
 Atom H7       Shell    20 S   1     bf   56 -    56         -0.977653117843          5.370851659376          0.311754442026
      0.1831915800D+00  0.1000000000D+01
 Atom H8       Shell    21 S   2     bf   57 -    57          7.528557805965          1.445113156905         -0.372932620972
      0.5447178000D+01  0.1562849787D+00
      0.8245472400D+00  0.9046908767D+00
 Atom H8       Shell    22 S   1     bf   58 -    58          7.528557805965          1.445113156905         -0.372932620972
      0.1831915800D+00  0.1000000000D+01
 Atom H9       Shell    23 S   2     bf   59 -    59          3.691049939143          4.517605379489          0.061811960313
      0.5447178000D+01  0.1562849787D+00
      0.8245472400D+00  0.9046908767D+00
 Atom H9       Shell    24 S   1     bf   60 -    60          3.691049939143          4.517605379489          0.061811960313
      0.1831915800D+00  0.1000000000D+01
 Atom C10      Shell    25 S   3     bf   61 -    61         -1.266512397728          3.373862842462          0.180956481396
      0.1722560000D+03  0.6176690738D-01
      0.2591090000D+02  0.3587940429D+00
      0.5533350000D+01  0.7007130837D+00
 Atom C10      Shell    26 SP   2    bf   62 -    65         -1.266512397728          3.373862842462          0.180956481396
      0.3664980000D+01 -0.3958951621D+00  0.2364599466D+00
      0.7705450000D+00  0.1215834356D+01  0.8606188057D+00
 Atom C10      Shell    27 SP   1    bf   66 -    69         -1.266512397728          3.373862842462          0.180956481396
      0.1958570000D+00  0.1000000000D+01  0.1000000000D+01
 Atom C11      Shell    28 S   3     bf   70 -    70         -2.073804509157         -2.355696831151          0.760885923223
      0.1722560000D+03  0.6176690738D-01
      0.2591090000D+02  0.3587940429D+00
      0.5533350000D+01  0.7007130837D+00
 Atom C11      Shell    29 SP   2    bf   71 -    74         -2.073804509157         -2.355696831151          0.760885923223
      0.3664980000D+01 -0.3958951621D+00  0.2364599466D+00
      0.7705450000D+00  0.1215834356D+01  0.8606188057D+00
 Atom C11      Shell    30 SP   1    bf   75 -    78         -2.073804509157         -2.355696831151          0.760885923223
      0.1958570000D+00  0.1000000000D+01  0.1000000000D+01
 Atom H12      Shell    31 S   2     bf   79 -    79          2.250990715752         -4.882105262146         -0.111356224836
      0.5447178000D+01  0.1562849787D+00
      0.8245472400D+00  0.9046908767D+00
 Atom H12      Shell    32 S   1     bf   80 -    80          2.250990715752         -4.882105262146         -0.111356224836
      0.1831915800D+00  0.1000000000D+01
 Atom H13      Shell    33 S   2     bf   81 -    81          6.821569812579         -3.081268832869         -0.574095549124
      0.5447178000D+01  0.1562849787D+00
      0.8245472400D+00  0.9046908767D+00
 Atom H13      Shell    34 S   1     bf   82 -    82          6.821569812579         -3.081268832869         -0.574095549124
      0.1831915800D+00  0.1000000000D+01
 Atom C14      Shell    35 S   3     bf   83 -    83         -4.142290880294         -0.444807046226         -0.006797639243
      0.1722560000D+03  0.6176690738D-01
      0.2591090000D+02  0.3587940429D+00
      0.5533350000D+01  0.7007130837D+00
 Atom C14      Shell    36 SP   2    bf   84 -    87         -4.142290880294         -0.444807046226         -0.006797639243
      0.3664980000D+01 -0.3958951621D+00  0.2364599466D+00
      0.7705450000D+00  0.1215834356D+01  0.8606188057D+00
 Atom C14      Shell    37 SP   1    bf   88 -    91         -4.142290880294         -0.444807046226         -0.006797639243
      0.1958570000D+00  0.1000000000D+01  0.1000000000D+01
 Atom C15      Shell    38 S   3     bf   92 -    92         -3.642760248187          2.433512809571         -0.014500944163
      0.1722560000D+03  0.6176690738D-01
      0.2591090000D+02  0.3587940429D+00
      0.5533350000D+01  0.7007130837D+00
 Atom C15      Shell    39 SP   2    bf   93 -    96         -3.642760248187          2.433512809571         -0.014500944163
      0.3664980000D+01 -0.3958951621D+00  0.2364599466D+00
      0.7705450000D+00  0.1215834356D+01  0.8606188057D+00
 Atom C15      Shell    40 SP   1    bf   97 -   100         -3.642760248187          2.433512809571         -0.014500944163
      0.1958570000D+00  0.1000000000D+01  0.1000000000D+01
 Atom H16      Shell    41 S   2     bf  101 -   101         -5.200823915522          3.709300648283         -0.197025122647
      0.5447178000D+01  0.1562849787D+00
      0.8245472400D+00  0.9046908767D+00
 Atom H16      Shell    42 S   1     bf  102 -   102         -5.200823915522          3.709300648283         -0.197025122647
      0.1831915800D+00  0.1000000000D+01
 Atom C17      Shell    43 S   3     bf  103 -   103         -6.460723223821         -1.311899870174         -0.663700593679
      0.1722560000D+03  0.6176690738D-01
      0.2591090000D+02  0.3587940429D+00
      0.5533350000D+01  0.7007130837D+00
 Atom C17      Shell    44 SP   2    bf  104 -   107         -6.460723223821         -1.311899870174         -0.663700593679
      0.3664980000D+01 -0.3958951621D+00  0.2364599466D+00
      0.7705450000D+00  0.1215834356D+01  0.8606188057D+00
 Atom C17      Shell    45 SP   1    bf  108 -   111         -6.460723223821         -1.311899870174         -0.663700593679
      0.1958570000D+00  0.1000000000D+01  0.1000000000D+01
 Atom H18      Shell    46 S   2     bf  112 -   112         -7.915507742423         -0.009737252530         -1.189520532473
      0.5447178000D+01  0.1562849787D+00
      0.8245472400D+00  0.9046908767D+00
 Atom H18      Shell    47 S   1     bf  113 -   113         -7.915507742423         -0.009737252530         -1.189520532473
      0.1831915800D+00  0.1000000000D+01
 Atom H19      Shell    48 S   2     bf  114 -   114         -6.836460100835         -3.298676814144         -0.656539282601
      0.5447178000D+01  0.1562849787D+00
      0.8245472400D+00  0.9046908767D+00
 Atom H19      Shell    49 S   1     bf  115 -   115         -6.836460100835         -3.298676814144         -0.656539282601
      0.1831915800D+00  0.1000000000D+01
 Atom H20      Shell    50 S   2     bf  116 -   116         -2.315249719620         -4.073891276676         -0.277393511952
      0.5447178000D+01  0.1562849787D+00
      0.8245472400D+00  0.9046908767D+00
 Atom H20      Shell    51 S   1     bf  117 -   117         -2.315249719620         -4.073891276676         -0.277393511952
      0.1831915800D+00  0.1000000000D+01
 Atom H21      Shell    52 S   2     bf  118 -   118         -2.254856196697         -2.724003510608          2.740805776404
      0.5447178000D+01  0.1562849787D+00
      0.8245472400D+00  0.9046908767D+00
 Atom H21      Shell    53 S   1     bf  119 -   119         -2.254856196697         -2.724003510608          2.740805776404
      0.1831915800D+00  0.1000000000D+01
 There are   119 symmetry adapted cartesian basis functions of A   symmetry.
 There are   119 symmetry adapted basis functions of A   symmetry.
   119 basis functions,   195 primitive gaussians,   119 cartesian basis functions
    38 alpha electrons       38 beta electrons
       nuclear repulsion energy       530.5457654919 Hartrees.
 IExCor=    0 DFT=F Ex=HF Corr=None ExCW=0 ScaHFX=  1.000000
 ScaDFX=  1.000000  1.000000  1.000000  1.000000 ScalE2=  1.000000  1.000000
 IRadAn=      5 IRanWt=     -1 IRanGd=            0 ICorTp=0 IEmpDi=  4
 NAtoms=   21 NActive=   21 NUniq=   21 SFac= 1.00D+00 NAtFMM=   60 NAOKFM=F Big=F
 Integral buffers will be    131072 words long.
 Raffenetti 1 integral format.
 Two-electron integral symmetry is turned on.
 Leave Link  301 at Tue Jun 10 01:18:59 2025, MaxMem=  2013265920 cpu:               1.9 elap:               0.1
 (Enter /home/user/softwares/g16/g16/l302.exe)
 NPDir=0 NMtPBC=     1 NCelOv=     1 NCel=       1 NClECP=     1 NCelD=      1
         NCelK=      1 NCelE2=     1 NClLst=     1 CellRange=     0.0.
 One-electron integrals computed using PRISM.
 One-electron integral symmetry used in STVInt
 NBasis=   119 RedAO= T EigKep=  1.83D-03  NBF=   119
 NBsUse=   119 1.00D-06 EigRej= -1.00D+00 NBFU=   119
 Leave Link  302 at Tue Jun 10 01:18:59 2025, MaxMem=  2013265920 cpu:               5.6 elap:               0.3
 (Enter /home/user/softwares/g16/g16/l303.exe)
 DipDrv:  MaxL=1.
 Leave Link  303 at Tue Jun 10 01:19:00 2025, MaxMem=  2013265920 cpu:               1.4 elap:               0.1
 (Enter /home/user/softwares/g16/g16/l401.exe)
 ExpMin= 1.83D-01 ExpMax= 1.72D+02 ExpMxC= 1.72D+02 IAcc=3 IRadAn=         5 AccDes= 0.00D+00
 Harris functional with IExCor=  205 and IRadAn=       5 diagonalized for initial guess.
 HarFok:  IExCor=  205 AccDes= 0.00D+00 IRadAn=         5 IDoV= 1 UseB2=F ITyADJ=14
 ICtDFT=  3500011 ScaDFX=  1.000000  1.000000  1.000000  1.000000
 FoFCou: FMM=F IPFlag=           0 FMFlag=      100000 FMFlg1=           0
         NFxFlg=           0 DoJE=T BraDBF=F KetDBF=T FulRan=T
         wScrn=  0.000000 ICntrl=       500 IOpCl=  0 I1Cent=   200000004 NGrid=           0
         NMat0=    1 NMatS0=      1 NMatT0=    0 NMatD0=    1 NMtDS0=    0 NMtDT0=    0
 Petite list used in FoFCou.
 Harris En= -420.564914197493    
 JPrj=0 DoOrth=F DoCkMO=F.
 Leave Link  401 at Tue Jun 10 01:19:00 2025, MaxMem=  2013265920 cpu:              12.2 elap:               0.6
 (Enter /home/user/softwares/g16/g16/l502.exe)
 Integral symmetry usage will be decided dynamically.
 Closed shell SCF:
 Using DIIS extrapolation, IDIIS=  1040.
 NGot=  2013265920 LenX=  2013233515 LenY=  2013218913
 Requested convergence on RMS density matrix=1.00D-08 within 128 cycles.
 Requested convergence on MAX density matrix=1.00D-06.
 Requested convergence on             energy=1.00D-06.
 No special actions if energy rises.
 Fock matrices will be formed incrementally for  20 cycles.
 Integral accuracy reduced to 1.0D-05 until final iterations.

 Cycle   1  Pass 0  IDiag  1:
 FoFJK:  IHMeth= 1 ICntrl=       0 DoSepK=F KAlg= 0 I1Cent=           0 FoldK=F
 IRaf= 890000000 NMat=       1 IRICut=       1 DoRegI=T DoRafI=F ISym2E= 0 IDoP0=0 IntGTp=1.
 FoFCou: FMM=F IPFlag=           0 FMFlag=      100000 FMFlg1=           0
         NFxFlg=           0 DoJE=F BraDBF=F KetDBF=F FulRan=T
         wScrn=  0.000000 ICntrl=         0 IOpCl=  0 I1Cent=           0 NGrid=           0
         NMat0=    1 NMatS0=      1 NMatT0=    0 NMatD0=    1 NMtDS0=    0 NMtDT0=    0
 Symmetry not used in FoFCou.
 E= -419.635094169985    
 DIIS: error= 4.02D-02 at cycle   1 NSaved=   1.
 NSaved= 1 IEnMin= 1 EnMin= -419.635094169985     IErMin= 1 ErrMin= 4.02D-02
 ErrMax= 4.02D-02  0.00D+00 EMaxC= 1.00D-01 BMatC= 4.07D-01 BMatP= 4.07D-01
 IDIUse=3 WtCom= 5.98D-01 WtEn= 4.02D-01
 Coeff-Com:  0.100D+01
 Coeff-En:   0.100D+01
 Coeff:      0.100D+01
 Gap=     0.382 Goal=   None    Shift=    0.000
 GapD=    0.382 DampG=1.000 DampE=0.500 DampFc=0.5000 IDamp=-1.
 Damping current iteration by 5.00D-01
 RMSDP=6.28D-03 MaxDP=8.65D-02              OVMax= 1.13D-01

 Cycle   2  Pass 0  IDiag  1:
 RMSU=  3.04D-03    CP:  9.80D-01
 E= -419.803520600399     Delta-E=       -0.168426430414 Rises=F Damp=T
 DIIS: error= 1.96D-02 at cycle   2 NSaved=   2.
 NSaved= 2 IEnMin= 2 EnMin= -419.803520600399     IErMin= 2 ErrMin= 1.96D-02
 ErrMax= 1.96D-02  0.00D+00 EMaxC= 1.00D-01 BMatC= 8.70D-02 BMatP= 4.07D-01
 IDIUse=3 WtCom= 8.04D-01 WtEn= 1.96D-01
 Coeff-Com: -0.733D+00 0.173D+01
 Coeff-En:   0.000D+00 0.100D+01
 Coeff:     -0.590D+00 0.159D+01
 Gap=     0.384 Goal=   None    Shift=    0.000
 RMSDP=3.02D-03 MaxDP=4.47D-02 DE=-1.68D-01 OVMax= 2.52D-02

 Cycle   3  Pass 0  IDiag  1:
 RMSU=  1.50D-03    CP:  9.63D-01  1.84D+00
 E= -419.953871296591     Delta-E=       -0.150350696192 Rises=F Damp=F
 DIIS: error= 2.33D-03 at cycle   3 NSaved=   3.
 NSaved= 3 IEnMin= 3 EnMin= -419.953871296591     IErMin= 3 ErrMin= 2.33D-03
 ErrMax= 2.33D-03  0.00D+00 EMaxC= 1.00D-01 BMatC= 3.71D-04 BMatP= 8.70D-02
 IDIUse=3 WtCom= 9.77D-01 WtEn= 2.33D-02
 Coeff-Com: -0.296D-02-0.286D-01 0.103D+01
 Coeff-En:   0.000D+00 0.000D+00 0.100D+01
 Coeff:     -0.290D-02-0.279D-01 0.103D+01
 Gap=     0.385 Goal=   None    Shift=    0.000
 RMSDP=3.75D-04 MaxDP=5.06D-03 DE=-1.50D-01 OVMax= 1.31D-02

 Cycle   4  Pass 0  IDiag  1:
 RMSU=  2.65D-04    CP:  9.63D-01  1.89D+00  1.13D+00
 E= -419.954382150722     Delta-E=       -0.000510854131 Rises=F Damp=F
 DIIS: error= 1.20D-03 at cycle   4 NSaved=   4.
 NSaved= 4 IEnMin= 4 EnMin= -419.954382150722     IErMin= 4 ErrMin= 1.20D-03
 ErrMax= 1.20D-03  0.00D+00 EMaxC= 1.00D-01 BMatC= 1.02D-04 BMatP= 3.71D-04
 IDIUse=3 WtCom= 9.88D-01 WtEn= 1.20D-02
 Coeff-Com:  0.139D-01-0.427D-01 0.349D+00 0.680D+00
 Coeff-En:   0.000D+00 0.000D+00 0.000D+00 0.100D+01
 Coeff:      0.137D-01-0.422D-01 0.345D+00 0.684D+00
 Gap=     0.386 Goal=   None    Shift=    0.000
 RMSDP=1.25D-04 MaxDP=1.14D-03 DE=-5.11D-04 OVMax= 4.19D-03

 Cycle   5  Pass 0  IDiag  1:
 RMSU=  1.07D-04    CP:  9.63D-01  1.89D+00  1.14D+00  7.62D-01
 E= -419.954507188906     Delta-E=       -0.000125038184 Rises=F Damp=F
 DIIS: error= 3.65D-04 at cycle   5 NSaved=   5.
 NSaved= 5 IEnMin= 5 EnMin= -419.954507188906     IErMin= 5 ErrMin= 3.65D-04
 ErrMax= 3.65D-04  0.00D+00 EMaxC= 1.00D-01 BMatC= 5.93D-06 BMatP= 1.02D-04
 IDIUse=3 WtCom= 9.96D-01 WtEn= 3.65D-03
 Coeff-Com:  0.990D-03 0.295D-02-0.140D+00-0.340D-01 0.117D+01
 Coeff-En:   0.000D+00 0.000D+00 0.000D+00 0.000D+00 0.100D+01
 Coeff:      0.986D-03 0.294D-02-0.139D+00-0.339D-01 0.117D+01
 Gap=     0.387 Goal=   None    Shift=    0.000
 RMSDP=6.07D-05 MaxDP=7.46D-04 DE=-1.25D-04 OVMax= 2.60D-03

 Cycle   6  Pass 0  IDiag  1:
 RMSU=  2.99D-05    CP:  9.63D-01  1.90D+00  1.16D+00  8.96D-01  1.22D+00
 E= -419.954530285491     Delta-E=       -0.000023096585 Rises=F Damp=F
 DIIS: error= 1.39D-04 at cycle   6 NSaved=   6.
 NSaved= 6 IEnMin= 6 EnMin= -419.954530285491     IErMin= 6 ErrMin= 1.39D-04
 ErrMax= 1.39D-04  0.00D+00 EMaxC= 1.00D-01 BMatC= 7.77D-07 BMatP= 5.93D-06
 IDIUse=3 WtCom= 9.99D-01 WtEn= 1.39D-03
 Coeff-Com: -0.502D-03 0.246D-02-0.376D-01-0.619D-01 0.178D+00 0.920D+00
 Coeff-En:   0.000D+00 0.000D+00 0.000D+00 0.000D+00 0.000D+00 0.100D+01
 Coeff:     -0.501D-03 0.245D-02-0.375D-01-0.618D-01 0.178D+00 0.920D+00
 Gap=     0.387 Goal=   None    Shift=    0.000
 RMSDP=1.67D-05 MaxDP=3.04D-04 DE=-2.31D-05 OVMax= 8.30D-04

 Cycle   7  Pass 0  IDiag  1:
 RMSU=  9.55D-06    CP:  9.63D-01  1.90D+00  1.16D+00  9.08D-01  1.33D+00
                    CP:  1.19D+00
 E= -419.954533082097     Delta-E=       -0.000002796606 Rises=F Damp=F
 DIIS: error= 5.42D-05 at cycle   7 NSaved=   7.
 NSaved= 7 IEnMin= 7 EnMin= -419.954533082097     IErMin= 7 ErrMin= 5.42D-05
 ErrMax= 5.42D-05  0.00D+00 EMaxC= 1.00D-01 BMatC= 1.52D-07 BMatP= 7.77D-07
 IDIUse=1 WtCom= 1.00D+00 WtEn= 0.00D+00
 Coeff-Com: -0.156D-03-0.971D-03 0.362D-01 0.243D-02-0.265D+00-0.604D-01
 Coeff-Com:  0.129D+01
 Coeff:     -0.156D-03-0.971D-03 0.362D-01 0.243D-02-0.265D+00-0.604D-01
 Coeff:      0.129D+01
 Gap=     0.387 Goal=   None    Shift=    0.000
 RMSDP=1.23D-05 MaxDP=2.55D-04 DE=-2.80D-06 OVMax= 7.52D-04

 Cycle   8  Pass 0  IDiag  1:
 RMSU=  4.04D-06    CP:  9.63D-01  1.90D+00  1.16D+00  9.11D-01  1.38D+00
                    CP:  1.48D+00  1.54D+00
 E= -419.954534001023     Delta-E=       -0.000000918926 Rises=F Damp=F
 DIIS: error= 1.66D-05 at cycle   8 NSaved=   8.
 NSaved= 8 IEnMin= 8 EnMin= -419.954534001023     IErMin= 8 ErrMin= 1.66D-05
 ErrMax= 1.66D-05  0.00D+00 EMaxC= 1.00D-01 BMatC= 1.06D-08 BMatP= 1.52D-07
 IDIUse=1 WtCom= 1.00D+00 WtEn= 0.00D+00
 Coeff-Com:  0.600D-04-0.205D-03 0.230D-02 0.569D-02-0.505D-02-0.719D-01
 Coeff-Com: -0.102D+00 0.117D+01
 Coeff:      0.600D-04-0.205D-03 0.230D-02 0.569D-02-0.505D-02-0.719D-01
 Coeff:     -0.102D+00 0.117D+01
 Gap=     0.387 Goal=   None    Shift=    0.000
 RMSDP=3.44D-06 MaxDP=7.15D-05 DE=-9.19D-07 OVMax= 1.96D-04

 Initial convergence to 1.0D-05 achieved.  Increase integral accuracy.
 Cycle   9  Pass 1  IDiag  1:
 E= -419.954531058569     Delta-E=        0.000002942453 Rises=F Damp=F
 DIIS: error= 1.04D-05 at cycle   1 NSaved=   1.
 NSaved= 1 IEnMin= 1 EnMin= -419.954531058569     IErMin= 1 ErrMin= 1.04D-05
 ErrMax= 1.04D-05  0.00D+00 EMaxC= 1.00D-01 BMatC= 1.17D-08 BMatP= 1.17D-08
 IDIUse=1 WtCom= 1.00D+00 WtEn= 0.00D+00
 Coeff-Com:  0.100D+01
 Coeff:      0.100D+01
 Gap=     0.387 Goal=   None    Shift=    0.000
 RMSDP=3.44D-06 MaxDP=7.15D-05 DE= 2.94D-06 OVMax= 3.81D-05

 Cycle  10  Pass 1  IDiag  1:
 RMSU=  5.73D-06    CP:  1.00D+00
 E= -419.954531073738     Delta-E=       -0.000000015169 Rises=F Damp=F
 DIIS: error= 2.84D-06 at cycle   2 NSaved=   2.
 NSaved= 2 IEnMin= 2 EnMin= -419.954531073738     IErMin= 2 ErrMin= 2.84D-06
 ErrMax= 2.84D-06  0.00D+00 EMaxC= 1.00D-01 BMatC= 5.30D-10 BMatP= 1.17D-08
 IDIUse=1 WtCom= 1.00D+00 WtEn= 0.00D+00
 Coeff-Com: -0.151D-01 0.102D+01
 Coeff:     -0.151D-01 0.102D+01
 Gap=     0.387 Goal=   None    Shift=    0.000
 RMSDP=5.64D-07 MaxDP=6.77D-06 DE=-1.52D-08 OVMax= 2.62D-05

 Cycle  11  Pass 1  IDiag  1:
 RMSU=  3.95D-07    CP:  1.00D+00  1.07D+00
 E= -419.954531075686     Delta-E=       -0.000000001948 Rises=F Damp=F
 DIIS: error= 1.49D-06 at cycle   3 NSaved=   3.
 NSaved= 3 IEnMin= 3 EnMin= -419.954531075686     IErMin= 3 ErrMin= 1.49D-06
 ErrMax= 1.49D-06  0.00D+00 EMaxC= 1.00D-01 BMatC= 2.09D-10 BMatP= 5.30D-10
 IDIUse=1 WtCom= 1.00D+00 WtEn= 0.00D+00
 Coeff-Com: -0.436D-01 0.248D+00 0.796D+00
 Coeff:     -0.436D-01 0.248D+00 0.796D+00
 Gap=     0.387 Goal=   None    Shift=    0.000
 RMSDP=2.15D-07 MaxDP=3.30D-06 DE=-1.95D-09 OVMax= 1.23D-05

 Cycle  12  Pass 1  IDiag  1:
 RMSU=  1.88D-07    CP:  1.00D+00  1.08D+00  1.23D+00
 E= -419.954531076288     Delta-E=       -0.000000000602 Rises=F Damp=F
 DIIS: error= 8.85D-07 at cycle   4 NSaved=   4.
 NSaved= 4 IEnMin= 4 EnMin= -419.954531076288     IErMin= 4 ErrMin= 8.85D-07
 ErrMax= 8.85D-07  0.00D+00 EMaxC= 1.00D-01 BMatC= 5.04D-11 BMatP= 2.09D-10
 IDIUse=1 WtCom= 1.00D+00 WtEn= 0.00D+00
 Coeff-Com:  0.184D-01-0.390D+00-0.371D+00 0.174D+01
 Coeff:      0.184D-01-0.390D+00-0.371D+00 0.174D+01
 Gap=     0.387 Goal=   None    Shift=    0.000
 RMSDP=2.91D-07 MaxDP=5.17D-06 DE=-6.02D-10 OVMax= 1.69D-05

 Cycle  13  Pass 1  IDiag  1:
 RMSU=  7.15D-08    CP:  1.00D+00  1.08D+00  1.82D+00  1.84D+00
 E= -419.954531076681     Delta-E=       -0.000000000393 Rises=F Damp=F
 DIIS: error= 2.85D-07 at cycle   5 NSaved=   5.
 NSaved= 5 IEnMin= 5 EnMin= -419.954531076681     IErMin= 5 ErrMin= 2.85D-07
 ErrMax= 2.85D-07  0.00D+00 EMaxC= 1.00D-01 BMatC= 5.33D-12 BMatP= 5.04D-11
 IDIUse=1 WtCom= 1.00D+00 WtEn= 0.00D+00
 Coeff-Com:  0.880D-02-0.126D+00-0.178D+00 0.467D+00 0.828D+00
 Coeff:      0.880D-02-0.126D+00-0.178D+00 0.467D+00 0.828D+00
 Gap=     0.387 Goal=   None    Shift=    0.000
 RMSDP=5.33D-08 MaxDP=8.42D-07 DE=-3.93D-10 OVMax= 3.05D-06

 Cycle  14  Pass 1  IDiag  1:
 RMSU=  2.56D-08    CP:  1.00D+00  1.08D+00  1.88D+00  2.03D+00  1.12D+00
 E= -419.954531076700     Delta-E=       -0.000000000019 Rises=F Damp=F
 DIIS: error= 1.41D-07 at cycle   6 NSaved=   6.
 NSaved= 6 IEnMin= 6 EnMin= -419.954531076700     IErMin= 6 ErrMin= 1.41D-07
 ErrMax= 1.41D-07  0.00D+00 EMaxC= 1.00D-01 BMatC= 8.87D-13 BMatP= 5.33D-12
 IDIUse=1 WtCom= 1.00D+00 WtEn= 0.00D+00
 Coeff-Com: -0.481D-02 0.945D-01 0.999D-01-0.416D+00-0.106D+00 0.133D+01
 Coeff:     -0.481D-02 0.945D-01 0.999D-01-0.416D+00-0.106D+00 0.133D+01
 Gap=     0.387 Goal=   None    Shift=    0.000
 RMSDP=2.81D-08 MaxDP=5.01D-07 DE=-1.93D-11 OVMax= 1.25D-06

 Cycle  15  Pass 1  IDiag  1:
 RMSU=  1.25D-08    CP:  1.00D+00  1.08D+00  1.91D+00  2.08D+00  1.37D+00
                    CP:  1.45D+00
 E= -419.954531076713     Delta-E=       -0.000000000013 Rises=F Damp=F
 DIIS: error= 4.60D-08 at cycle   7 NSaved=   7.
 NSaved= 7 IEnMin= 7 EnMin= -419.954531076713     IErMin= 7 ErrMin= 4.60D-08
 ErrMax= 4.60D-08  0.00D+00 EMaxC= 1.00D-01 BMatC= 1.18D-13 BMatP= 8.87D-13
 IDIUse=1 WtCom= 1.00D+00 WtEn= 0.00D+00
 Coeff-Com: -0.148D-02 0.230D-01 0.326D-01-0.911D-01-0.114D+00 0.105D+00
 Coeff-Com:  0.105D+01
 Coeff:     -0.148D-02 0.230D-01 0.326D-01-0.911D-01-0.114D+00 0.105D+00
 Coeff:      0.105D+01
 Gap=     0.387 Goal=   None    Shift=    0.000
 RMSDP=8.68D-09 MaxDP=1.74D-07 DE=-1.33D-11 OVMax= 4.51D-07

 SCF Done:  E(RHF) =  -419.954531077     A.U. after   15 cycles
            NFock= 15  Conv=0.87D-08     -V/T= 2.0045
 KE= 4.180712478006D+02 PE=-2.036640943093D+03 EE= 6.680693987234D+02
 Leave Link  502 at Tue Jun 10 01:19:02 2025, MaxMem=  2013265920 cpu:              27.6 elap:               1.4
 (Enter /home/user/softwares/g16/g16/l601.exe)
 Copying SCF densities to generalized density rwf, IOpCl= 0 IROHF=0.

 **********************************************************************

            Population analysis using the SCF Density.

 **********************************************************************

 Orbital symmetries:
       Occupied  (A) (A) (A) (A) (A) (A) (A) (A) (A) (A) (A) (A)
                 (A) (A) (A) (A) (A) (A) (A) (A) (A) (A) (A) (A)
                 (A) (A) (A) (A) (A) (A) (A) (A) (A) (A) (A) (A)
                 (A) (A)
       Virtual   (A) (A) (A) (A) (A) (A) (A) (A) (A) (A) (A) (A)
                 (A) (A) (A) (A) (A) (A) (A) (A) (A) (A) (A) (A)
                 (A) (A) (A) (A) (A) (A) (A) (A) (A) (A) (A) (A)
                 (A) (A) (A) (A) (A) (A) (A) (A) (A) (A) (A) (A)
                 (A) (A) (A) (A) (A) (A) (A) (A) (A) (A) (A) (A)
                 (A) (A) (A) (A) (A) (A) (A) (A) (A) (A) (A) (A)
                 (A) (A) (A) (A) (A) (A) (A) (A) (A)
 The electronic state is 1-A.
 Alpha  occ. eigenvalues --  -11.20580 -11.20310 -11.20281 -11.19240 -11.19153
 Alpha  occ. eigenvalues --  -11.18988 -11.18887 -11.18777 -11.18615 -11.18306
 Alpha  occ. eigenvalues --  -11.16377  -1.14557  -1.09231  -1.05131  -1.01796
 Alpha  occ. eigenvalues --   -0.98413  -0.92613  -0.82688  -0.80323  -0.78517
 Alpha  occ. eigenvalues --   -0.71038  -0.68286  -0.65520  -0.63534  -0.62122
 Alpha  occ. eigenvalues --   -0.60558  -0.58371  -0.57026  -0.55886  -0.54300
 Alpha  occ. eigenvalues --   -0.50210  -0.48872  -0.47066  -0.45511  -0.42775
 Alpha  occ. eigenvalues --   -0.35840  -0.32991  -0.28859
 Alpha virt. eigenvalues --    0.09842   0.14303   0.17318   0.25904   0.27047
 Alpha virt. eigenvalues --    0.28395   0.28713   0.31578   0.32575   0.33634
 Alpha virt. eigenvalues --    0.34397   0.34499   0.36352   0.37250   0.38289
 Alpha virt. eigenvalues --    0.40548   0.41947   0.47418   0.48709   0.49852
 Alpha virt. eigenvalues --    0.53067   0.55795   0.58056   0.64173   0.65842
 Alpha virt. eigenvalues --    0.73044   0.81423   0.83564   0.88511   0.94110
 Alpha virt. eigenvalues --    0.95438   0.95833   0.97559   0.97775   1.00091
 Alpha virt. eigenvalues --    1.02957   1.03743   1.05407   1.06795   1.08510
 Alpha virt. eigenvalues --    1.09250   1.09739   1.10396   1.11379   1.13142
 Alpha virt. eigenvalues --    1.15035   1.16409   1.17403   1.20694   1.26720
 Alpha virt. eigenvalues --    1.30252   1.31335   1.31853   1.33745   1.36831
 Alpha virt. eigenvalues --    1.38585   1.40554   1.42818   1.44180   1.45755
 Alpha virt. eigenvalues --    1.48188   1.53931   1.55726   1.56683   1.60285
 Alpha virt. eigenvalues --    1.66943   1.69450   1.71996   1.74739   1.77062
 Alpha virt. eigenvalues --    1.78554   1.81327   1.84680   1.86794   1.98558
 Alpha virt. eigenvalues --    2.05784   2.14341   2.18468   2.32794   2.59770
 Alpha virt. eigenvalues --    2.69254
     Molecular Orbital Coefficients:
                           1         2         3         4         5
                           O         O         O         O         O
     Eigenvalues --   -11.20580 -11.20310 -11.20281 -11.19240 -11.19153
   1 1   C  1S         -0.00246   0.00109  -0.00379  -0.00500  -0.00229
   2        2S          0.00006   0.00034  -0.00096  -0.00055  -0.00041
   3        2PX         0.00050  -0.00005   0.00025   0.00030  -0.00004
   4        2PY        -0.00040  -0.00002  -0.00010  -0.00019  -0.00008
   5        2PZ        -0.00001   0.00000  -0.00006  -0.00006   0.00001
   6        3S         -0.00691  -0.00296   0.00732  -0.00219   0.00217
   7        3PX         0.00505   0.00206  -0.00368   0.00067  -0.00127
   8        3PY         0.00395   0.00014  -0.00108   0.00015   0.00220
   9        3PZ        -0.00039  -0.00009   0.00030   0.00003   0.00012
  10 2   C  1S         -0.00802  -0.00004  -0.00599  -0.03862  -0.03171
  11        2S         -0.00523  -0.00011  -0.00115  -0.00473  -0.00376
  12        2PX         0.00170  -0.00014   0.00049   0.00016   0.00047
  13        2PY         0.00107  -0.00004   0.00046  -0.00002  -0.00022
  14        2PZ        -0.00009   0.00001  -0.00012   0.00009  -0.00009
  15        3S          0.03183   0.00190   0.00142   0.01274   0.00502
  16        3PX        -0.01470   0.00101  -0.00425  -0.00334  -0.00595
  17        3PY        -0.01161  -0.00328   0.00418  -0.00567   0.00222
  18        3PZ         0.00072  -0.00014   0.00059   0.00005   0.00072
  19 3   C  1S          0.98566  -0.01039   0.05745   0.01215   0.00647
  20        2S          0.09986  -0.00045   0.00341  -0.00102   0.00059
  21        2PX         0.00030   0.00020   0.00026   0.00103   0.00100
  22        2PY        -0.00011  -0.00019   0.00091   0.00004   0.00005
  23        2PZ        -0.00003   0.00007   0.00000  -0.00007   0.00012
  24        3S         -0.09299  -0.00450   0.01392   0.01840  -0.00628
  25        3PX        -0.00672  -0.00262  -0.00180  -0.02503  -0.00089
  26        3PY         0.00459   0.00786  -0.01868   0.00512  -0.00465
  27        3PZ         0.00052   0.00001   0.00034   0.00069  -0.00034
  28 4   C  1S         -0.05854  -0.32783   0.92964   0.00401   0.00150
  29        2S         -0.00840  -0.03353   0.09399   0.00070   0.00009
  30        2PX        -0.00017   0.00067   0.00049  -0.00003   0.00010
  31        2PY        -0.00074  -0.00018  -0.00012  -0.00061  -0.00002
  32        2PZ         0.00004   0.00032   0.00011   0.00000  -0.00008
  33        3S          0.02567   0.02735  -0.08626  -0.00583   0.00051
  34        3PX         0.00643   0.00216  -0.00808   0.00638  -0.00211
  35        3PY         0.01761   0.00216  -0.00092  -0.00171  -0.00268
  36        3PZ        -0.00122  -0.00116   0.00123  -0.00049   0.00101
  37 5   C  1S         -0.00287   0.00098  -0.00807  -0.00772  -0.00361
  38        2S         -0.00020   0.00125  -0.00512  -0.00121  -0.00053
  39        2PX         0.00029  -0.00031   0.00123   0.00005   0.00005
  40        2PY        -0.00038   0.00048  -0.00153  -0.00038  -0.00007
  41        2PZ         0.00005  -0.00012  -0.00026  -0.00004   0.00001
  42        3S         -0.00444  -0.00881   0.03056  -0.00121   0.00090
  43        3PX        -0.00384   0.00123  -0.01069   0.00058   0.00103
  44        3PY        -0.00567  -0.00442   0.01486   0.00078   0.00116
  45        3PZ         0.00019   0.00048   0.00211  -0.00013  -0.00036
  46 6   C  1S         -0.00336   0.00067  -0.00372  -0.00371  -0.00056
  47        2S         -0.00104  -0.00010  -0.00018  -0.00044  -0.00004
  48        2PX         0.00020  -0.00016   0.00063   0.00016  -0.00002
  49        2PY        -0.00005  -0.00003   0.00026   0.00000   0.00002
  50        2PZ         0.00001   0.00008  -0.00009  -0.00002  -0.00001
  51        3S          0.00883   0.00288  -0.00545   0.00042   0.00012
  52        3PX        -0.00410  -0.00186   0.00296  -0.00008   0.00128
  53        3PY         0.00308   0.00095  -0.00471   0.00049   0.00053
  54        3PZ         0.00057  -0.00009  -0.00051   0.00003  -0.00001
  55 7   H  1S         -0.00035  -0.00017  -0.00057  -0.00243  -0.00063
  56        2S          0.00132  -0.00016  -0.00100   0.00580   0.00494
  57 8   H  1S         -0.00051  -0.00007  -0.00001   0.00002  -0.00010
  58        2S         -0.00106  -0.00050   0.00104   0.00020  -0.00003
  59 9   H  1S         -0.00052   0.00027  -0.00051   0.00033  -0.00054
  60        2S          0.00254   0.00092  -0.00098   0.00065  -0.00081
  61 10  C  1S         -0.01374  -0.00290  -0.00654   0.97495   0.14882
  62        2S         -0.00361  -0.00022  -0.00085   0.09870   0.01030
  63        2PX        -0.00009   0.00060  -0.00008  -0.00053   0.00159
  64        2PY         0.00049   0.00023   0.00035  -0.00141   0.00112
  65        2PZ        -0.00002   0.00011   0.00007  -0.00009   0.00010
  66        3S          0.01695  -0.00411   0.00117  -0.09210   0.02251
  67        3PX         0.00662  -0.00316   0.00463   0.00728  -0.01110
  68        3PY        -0.00897   0.00328   0.00266   0.02406  -0.01262
  69        3PZ        -0.00012  -0.00029  -0.00010   0.00163  -0.00095
  70 11  C  1S         -0.00240  -0.00239  -0.00544  -0.00300  -0.00539
  71        2S         -0.00042  -0.00124  -0.00240  -0.00099  -0.00032
  72        2PX        -0.00024  -0.00013  -0.00011   0.00003   0.00038
  73        2PY        -0.00030  -0.00012  -0.00049   0.00011  -0.00066
  74        2PZ        -0.00006   0.00019   0.00046   0.00004  -0.00001
  75        3S          0.00159   0.00995   0.01666   0.00604  -0.00348
  76        3PX         0.00228  -0.00828   0.00540   0.00228  -0.00313
  77        3PY        -0.00192   0.00544   0.00658   0.00262  -0.00226
  78        3PZ         0.00010  -0.00303  -0.00458  -0.00130   0.00044
  79 12  H  1S         -0.00050  -0.00003  -0.00055   0.00013   0.00011
  80        2S         -0.00148  -0.00046   0.00264   0.00058   0.00043
  81 13  H  1S          0.00008   0.00011  -0.00049   0.00001  -0.00009
  82        2S          0.00133   0.00032  -0.00086   0.00015  -0.00021
  83 14  C  1S         -0.00953   0.93126   0.32775   0.00270   0.01474
  84        2S         -0.00123   0.09374   0.03259   0.00114  -0.00063
  85        2PX        -0.00005   0.00024  -0.00077  -0.00041  -0.00067
  86        2PY        -0.00002  -0.00010   0.00008  -0.00052  -0.00050
  87        2PZ        -0.00002  -0.00004   0.00022  -0.00010  -0.00014
  88        3S          0.00370  -0.07680  -0.02924  -0.01279   0.01487
  89        3PX         0.00066   0.00187   0.00216  -0.00342   0.01092
  90        3PY         0.00081  -0.00047   0.00085  -0.00654   0.01624
  91        3PZ         0.00052   0.00107  -0.00004   0.00020   0.00166
  92 15  C  1S         -0.00441  -0.01366  -0.00625  -0.15099   0.97521
  93        2S         -0.00058  -0.00348  -0.00143  -0.01978   0.09692
  94        2PX        -0.00069  -0.00024  -0.00004  -0.00212   0.00068
  95        2PY        -0.00010   0.00031   0.00021   0.00006  -0.00070
  96        2PZ         0.00006  -0.00010   0.00002  -0.00021   0.00008
  97        3S         -0.00312   0.01702   0.00897   0.04946  -0.07742
  98        3PX        -0.00117   0.00023   0.00111   0.02359  -0.01345
  99        3PY         0.00276  -0.01248  -0.00300  -0.00514   0.00965
 100        3PZ        -0.00039   0.00035   0.00031   0.00194  -0.00149
 101 16  H  1S         -0.00023  -0.00034  -0.00032   0.00020  -0.00237
 102        2S         -0.00010   0.00153   0.00034   0.00321   0.00791
 103 17  C  1S         -0.00029  -0.00140  -0.00112  -0.00144  -0.00410
 104        2S         -0.00008  -0.00363  -0.00166  -0.00066  -0.00141
 105        2PX        -0.00008  -0.00147  -0.00055   0.00001  -0.00023
 106        2PY         0.00003  -0.00059  -0.00017  -0.00033  -0.00034
 107        2PZ        -0.00003  -0.00035  -0.00031  -0.00008   0.00006
 108        3S         -0.00012   0.02364   0.01036   0.00073   0.00824
 109        3PX         0.00022   0.01071   0.00539   0.00023   0.00464
 110        3PY        -0.00042   0.00469   0.00154   0.00404  -0.00067
 111        3PZ        -0.00000   0.00271   0.00215  -0.00008   0.00136
 112 18  H  1S          0.00007  -0.00103  -0.00034  -0.00062   0.00003
 113        2S          0.00023  -0.00025   0.00055  -0.00068   0.00073
 114 19  H  1S         -0.00006  -0.00085  -0.00056   0.00034  -0.00046
 115        2S         -0.00008   0.00022   0.00036   0.00178  -0.00015
 116 20  H  1S         -0.00016  -0.00054  -0.00100  -0.00021  -0.00003
 117        2S         -0.00018   0.00017   0.00061  -0.00006   0.00006
 118 21  H  1S          0.00002  -0.00086  -0.00166  -0.00019   0.00010
 119        2S         -0.00040   0.00225   0.00472   0.00039  -0.00024
                           6         7         8         9        10
                           O         O         O         O         O
     Eigenvalues --   -11.18988 -11.18887 -11.18777 -11.18615 -11.18306
   1 1   C  1S         -0.09616  -0.14045   0.97166   0.04033   0.00703
   2        2S         -0.01272  -0.01897   0.09642   0.00390   0.00033
   3        2PX         0.00061   0.00112  -0.00086   0.00032   0.00019
   4        2PY         0.00037   0.00182  -0.00034   0.00104   0.00016
   5        2PZ        -0.00004  -0.00003   0.00006   0.00001  -0.00003
   6        3S          0.03574   0.05102  -0.07687  -0.01246   0.00134
   7        3PX        -0.02163  -0.01831   0.01425   0.00733  -0.00113
   8        3PY        -0.00100  -0.02037   0.00926   0.00177  -0.00053
   9        3PZ         0.00179   0.00079  -0.00077  -0.00061   0.00019
  10 2   C  1S          0.98088   0.01613   0.09709   0.02112   0.00820
  11        2S          0.09891   0.00271   0.00668   0.00110   0.00041
  12        2PX        -0.00020  -0.00057  -0.00013  -0.00013   0.00041
  13        2PY        -0.00129   0.00044   0.00057   0.00033   0.00031
  14        2PZ        -0.00005   0.00008   0.00003   0.00004   0.00004
  15        3S         -0.09326  -0.01945   0.01860   0.00982  -0.00491
  16        3PX         0.00871   0.00272   0.00448  -0.00095   0.00059
  17        3PY         0.02487   0.01265  -0.01485  -0.00721   0.00148
  18        3PZ         0.00028   0.00014  -0.00095  -0.00025  -0.00029
  19 3   C  1S          0.00778   0.00275   0.00407   0.00412   0.00306
  20        2S         -0.00394  -0.00064   0.00014   0.00060   0.00010
  21        2PX        -0.00254  -0.00036  -0.00092  -0.00003  -0.00021
  22        2PY        -0.00027   0.00034   0.00008   0.00064   0.00059
  23        2PZ         0.00013   0.00001   0.00009   0.00007  -0.00021
  24        3S          0.03917   0.01258  -0.00781  -0.01030  -0.00044
  25        3PX         0.03023   0.01113  -0.00429  -0.00807   0.00997
  26        3PY        -0.00327  -0.00525   0.00119   0.00451  -0.00301
  27        3PZ        -0.00185  -0.00055   0.00030   0.00053  -0.00012
  28 4   C  1S          0.00494   0.00283   0.00419   0.00742   0.00402
  29        2S          0.00095   0.00108   0.00008  -0.00378  -0.00169
  30        2PX        -0.00002  -0.00039  -0.00046  -0.00257   0.00060
  31        2PY        -0.00064   0.00018  -0.00038   0.00095   0.00008
  32        2PZ        -0.00010   0.00005   0.00005   0.00039  -0.00008
  33        3S         -0.01219  -0.01770   0.00331   0.03609   0.02133
  34        3PX        -0.01131  -0.01194   0.00595   0.02921  -0.02607
  35        3PY        -0.00182  -0.00076   0.00129  -0.00531  -0.00499
  36        3PZ         0.00181   0.00160  -0.00093  -0.00442   0.00386
  37 5   C  1S         -0.01589  -0.07229  -0.05281   0.98232   0.03900
  38        2S         -0.00253  -0.01054  -0.00529   0.09856   0.00289
  39        2PX        -0.00009  -0.00006  -0.00078   0.00007   0.00039
  40        2PY        -0.00024  -0.00063  -0.00057   0.00111   0.00010
  41        2PZ        -0.00001  -0.00002   0.00004   0.00009  -0.00005
  42        3S          0.01364   0.03758  -0.00279  -0.08856   0.00494
  43        3PX         0.00056   0.00871   0.00143   0.00255  -0.00048
  44        3PY         0.00882   0.01991  -0.00482  -0.02361   0.00569
  45        3PZ         0.00028  -0.00012  -0.00026  -0.00146   0.00024
  46 6   C  1S         -0.03085   0.97465   0.13365   0.07691   0.01006
  47        2S         -0.00225   0.09861   0.00880   0.00434   0.00055
  48        2PX        -0.00003  -0.00089   0.00026   0.00033   0.00047
  49        2PY        -0.00078   0.00115  -0.00194  -0.00056  -0.00003
  50        2PZ        -0.00003   0.00016  -0.00012  -0.00006  -0.00004
  51        3S         -0.01412  -0.09313   0.02271   0.02253  -0.00180
  52        3PX         0.00779   0.01673  -0.00472  -0.01785  -0.00069
  53        3PY        -0.00684  -0.02055   0.01879   0.00564  -0.00020
  54        3PZ        -0.00113  -0.00292   0.00134   0.00234   0.00002
  55 7   H  1S          0.00008   0.00006  -0.00029   0.00012  -0.00013
  56        2S          0.00138   0.00061  -0.00032   0.00072   0.00115
  57 8   H  1S          0.00048   0.00034  -0.00245  -0.00060  -0.00003
  58        2S          0.00434   0.00448   0.00786  -0.00057   0.00061
  59 9   H  1S         -0.00256  -0.00068  -0.00023   0.00014  -0.00009
  60        2S          0.00556  -0.00241   0.00475   0.00230   0.00020
  61 10  C  1S          0.04162   0.00292   0.00941   0.00925   0.00417
  62        2S          0.00310   0.00002   0.00061   0.00049  -0.00042
  63        2PX        -0.00022   0.00020  -0.00047  -0.00026  -0.00004
  64        2PY        -0.00003  -0.00001   0.00000   0.00038  -0.00006
  65        2PZ         0.00006   0.00001  -0.00001  -0.00003  -0.00014
  66        3S          0.00557   0.00463  -0.00254  -0.00256   0.01268
  67        3PX         0.00244   0.00081   0.00370  -0.00064  -0.00115
  68        3PY        -0.00498  -0.00263   0.00129  -0.00061  -0.00532
  69        3PZ         0.00002   0.00001   0.00013   0.00002  -0.00001
  70 11  C  1S         -0.00694  -0.00632  -0.00726  -0.04050   0.98738
  71        2S         -0.00099  -0.00094  -0.00129  -0.00558   0.10668
  72        2PX        -0.00027  -0.00041   0.00007  -0.00023   0.00002
  73        2PY        -0.00028  -0.00001  -0.00001   0.00014   0.00027
  74        2PZ         0.00008   0.00008   0.00000   0.00001  -0.00004
  75        3S         -0.00261  -0.00215   0.00491   0.01285  -0.11033
  76        3PX        -0.00149   0.00082   0.00112   0.00336  -0.00284
  77        3PY        -0.00049  -0.00166   0.00119   0.00294  -0.01308
  78        3PZ         0.00026   0.00017  -0.00053  -0.00082   0.00455
  79 12  H  1S          0.00034   0.00039  -0.00041  -0.00258   0.00028
  80        2S          0.00217   0.00431  -0.00104   0.00645   0.00169
  81 13  H  1S         -0.00043  -0.00250  -0.00046  -0.00000  -0.00002
  82        2S         -0.00221   0.00551   0.00573   0.00574   0.00086
  83 14  C  1S          0.00237   0.00040   0.00047   0.00169   0.00357
  84        2S          0.00002  -0.00007   0.00005   0.00002  -0.00161
  85        2PX        -0.00033   0.00006  -0.00002  -0.00038  -0.00059
  86        2PY        -0.00021   0.00005  -0.00005  -0.00006   0.00023
  87        2PZ        -0.00003  -0.00004   0.00001  -0.00009  -0.00015
  88        3S         -0.00013   0.00158  -0.00063  -0.00240   0.02041
  89        3PX         0.00207   0.00018  -0.00079   0.00158   0.02257
  90        3PY         0.00207  -0.00069   0.00102   0.00210  -0.01243
  91        3PZ         0.00032   0.00050  -0.00026   0.00013   0.00673
  92 15  C  1S          0.02494  -0.00003   0.00373   0.00273   0.00530
  93        2S          0.00200  -0.00000   0.00014   0.00018   0.00068
  94        2PX        -0.00039  -0.00009   0.00000  -0.00014   0.00016
  95        2PY        -0.00005  -0.00008  -0.00004   0.00010   0.00035
  96        2PZ        -0.00006   0.00001  -0.00000   0.00000  -0.00016
  97        3S         -0.00230  -0.00090   0.00290  -0.00100  -0.00409
  98        3PX         0.00053  -0.00073   0.00206   0.00011  -0.00993
  99        3PY         0.00141   0.00037   0.00127   0.00052   0.00029
 100        3PZ         0.00004  -0.00022   0.00025  -0.00006  -0.00118
 101 16  H  1S         -0.00014  -0.00007  -0.00010  -0.00002  -0.00091
 102        2S          0.00061  -0.00013   0.00015   0.00007  -0.00242
 103 17  C  1S         -0.00073  -0.00004  -0.00029  -0.00057  -0.00619
 104        2S         -0.00029   0.00000  -0.00010  -0.00026  -0.00162
 105        2PX         0.00001  -0.00004  -0.00004   0.00003  -0.00045
 106        2PY        -0.00002   0.00000  -0.00003   0.00005   0.00025
 107        2PZ        -0.00000  -0.00001  -0.00003  -0.00004  -0.00010
 108        3S          0.00215  -0.00035  -0.00002   0.00229   0.00848
 109        3PX         0.00110  -0.00015   0.00033   0.00151   0.00262
 110        3PY         0.00018   0.00007  -0.00024  -0.00019   0.00544
 111        3PZ         0.00039  -0.00018   0.00017   0.00066   0.00060
 112 18  H  1S         -0.00005   0.00000   0.00001   0.00002  -0.00066
 113        2S          0.00015  -0.00004   0.00028   0.00041  -0.00073
 114 19  H  1S         -0.00008   0.00002  -0.00006  -0.00021   0.00031
 115        2S         -0.00002   0.00006   0.00003   0.00007   0.00115
 116 20  H  1S          0.00005  -0.00022  -0.00015  -0.00034   0.00110
 117        2S          0.00000  -0.00005  -0.00014  -0.00065   0.01491
 118 21  H  1S          0.00003   0.00001  -0.00017  -0.00049   0.00146
 119        2S         -0.00015  -0.00019  -0.00009  -0.00057   0.01518
                          11        12        13        14        15
                           O         O         O         O         O
     Eigenvalues --   -11.16377  -1.14557  -1.09231  -1.05131  -1.01796
   1 1   C  1S          0.00024  -0.05834   0.08305  -0.00556  -0.11594
   2        2S         -0.00005   0.06606  -0.09074   0.00602   0.12511
   3        2PX         0.00002  -0.02877   0.02532  -0.01239  -0.00299
   4        2PY        -0.00002  -0.02160   0.03749   0.03082  -0.06108
   5        2PZ        -0.00000   0.00152  -0.00047   0.00213  -0.00267
   6        3S          0.00071   0.10401  -0.17513   0.00574   0.26556
   7        3PX        -0.00030  -0.00009   0.00842   0.00614  -0.00113
   8        3PY         0.00007  -0.00567   0.00540  -0.00176  -0.01115
   9        3PZ         0.00002  -0.00035  -0.00063  -0.00044  -0.00056
  10 2   C  1S          0.00058  -0.07480   0.06130  -0.07282  -0.02215
  11        2S         -0.00009   0.08484  -0.06600   0.07922   0.02194
  12        2PX         0.00010  -0.03747   0.00112  -0.05185   0.05657
  13        2PY         0.00000  -0.03372   0.03152  -0.00235  -0.01589
  14        2PZ        -0.00001   0.00149   0.00100   0.00302  -0.00538
  15        3S          0.00001   0.14010  -0.12917   0.15619   0.06173
  16        3PX        -0.00066   0.00510   0.00757   0.00036   0.00269
  17        3PY         0.00020  -0.01181   0.00862  -0.01048  -0.00847
[...]
 0.00056909,-0.04267121,0.07953302,-0.07888212,0.00013455,0.00009537,0.
 00006462,0.00190565,-0.00001474,-0.00508104,0.07016900,-0.16374072,0.2
 2733020,-0.00002277,0.00023583,0.00024115,-0.00249407,0.00342734,-0.00
 261459,0.01552916,0.01381759,0.00166508,-0.12679928,-0.03405205,-0.010
 78460,-0.01573066,-0.03848546,-0.00424609,-0.00464464,0.00180546,-0.00
 427606,-0.00002554,-0.00037266,-0.00005416,-0.00002590,-0.00005335,0.0
 0035885,0.00048337,0.00110857,-0.00004016,0.00064510,-0.00139231,0.002
 28116,0.52205172,0.00123467,-0.00127218,0.00049961,0.00198599,-0.00217
 050,0.00071111,-0.01532890,-0.03090327,-0.00234014,-0.03200575,-0.1772
 2767,-0.00609742,-0.00602611,0.00054255,-0.00077376,0.00308156,0.00292
 332,0.00200016,-0.00057280,0.00044855,0.00010123,0.00004754,0.00002982
 ,-0.00018763,-0.00055883,-0.00058110,-0.00012043,-0.00262067,-0.000177
 02,-0.00081969,-0.05044535,0.57782888,0.00061146,-0.00182628,-0.000419
 99,-0.00457904,0.00229078,0.00650406,0.00426675,0.00695026,0.00719525,
 -0.01001623,-0.00565372,-0.08445918,-0.00684590,-0.00969170,0.00476642
 ,-0.00189483,0.00291506,0.00695811,0.00003636,-0.00009408,-0.00054277,
 0.00032170,-0.00003664,-0.00097369,0.00028253,0.00048742,-0.00004373,-
 0.00056026,-0.00003432,-0.00507364,0.02670758,-0.05315168,0.60853182,-
 0.00101020,-0.00379356,-0.00209338,-0.00071879,-0.00096367,0.00007552,
 -0.00536438,-0.00171481,-0.00341575,-0.01284244,0.03405108,-0.00832793
 ,-0.14106650,0.12067877,-0.03459309,0.01376422,-0.01889748,0.00359235,
 -0.00054119,-0.00001656,-0.00004946,0.00043177,-0.00078413,0.00021731,
 -0.00004505,0.00012509,0.00028349,-0.00005007,0.00164460,-0.00015170,0
 .00106567,0.00172028,0.00076546,0.14588994,-0.00452622,-0.00351018,-0.
 00002421,-0.00086404,0.00052229,-0.00035615,-0.00131733,0.00134753,0.0
 0037808,-0.00343483,0.00341804,-0.00046448,0.12144431,-0.28880290,0.05
 379325,0.01980069,-0.02189696,0.00763417,0.00000474,0.00001917,-0.0000
 0139,0.00079008,-0.00114606,0.00036405,0.00010594,-0.00008297,-0.00007
 728,-0.00038326,0.00009085,-0.00015382,-0.00058637,0.00086643,-0.00050
 241,-0.13110406,0.30698309,-0.00184968,0.00003331,0.00790307,-0.000092
 99,-0.00048091,-0.00070112,-0.00361108,0.00034173,0.00774556,-0.003964
 35,0.00922641,0.00507008,-0.03544598,0.05356627,-0.06572430,0.00014510
 ,-0.00190008,0.00674717,-0.00010084,-0.00004663,-0.00020820,0.00004720
 ,-0.00010115,0.00000761,0.00026817,-0.00007410,-0.00108235,0.00012396,
 0.00045506,-0.00018377,0.00206669,-0.00085342,-0.00413322,0.04157239,-
 0.05971416,0.04966487,-0.01156911,-0.00461217,-0.00434839,0.00104246,0
 .00279203,-0.00226153,0.00091118,0.00000077,0.00045527,0.00100101,-0.0
 0310565,-0.00168186,-0.01208823,0.00407478,-0.00527642,-0.35518675,-0.
 00443393,-0.07884770,-0.00001039,0.00001036,-0.00000826,0.00058142,0.0
 0065641,0.00148370,-0.00068858,-0.00012215,-0.00014692,0.00000361,0.00
 002309,0.00031626,-0.00057852,0.00051770,-0.00005915,0.00061946,-0.000
 36733,0.00156648,0.37616887,0.03369741,0.00663069,0.00882409,0.0022613
 1,-0.00539091,0.00196357,-0.00001150,-0.00125658,0.00008004,-0.0025825
 5,-0.00552108,0.00045620,-0.03438630,0.00529574,-0.00879666,-0.0043642
 6,-0.07436776,0.00118360,-0.00009149,0.00002376,-0.00002841,-0.0004467
 1,0.00097703,-0.00074534,0.00147217,0.00008956,0.00035324,0.00005382,0
 .00011460,-0.00012756,-0.00122665,0.00062229,-0.00018398,0.00067663,0.
 00099112,-0.00040176,0.00503224,0.07224422,-0.00808814,-0.00118006,0.0
 0487721,-0.00215059,0.00213875,0.00787158,0.00046396,0.00004538,-0.000
 79592,-0.00138735,0.00057584,0.00795957,-0.00178078,0.00117749,0.00612
 662,-0.07886898,0.00120997,-0.07199038,-0.00001391,0.00002572,0.000029
 60,0.00158483,-0.00044340,-0.00488839,-0.00033587,-0.00004675,-0.00014
 852,0.00035496,-0.00013075,-0.00112084,-0.00004461,-0.00012240,-0.0001
 4030,0.00146222,-0.00070178,-0.00476495,0.08892257,-0.00251496,0.05686
 132,0.00092176,0.00083864,0.00019944,-0.00104181,-0.00019786,-0.000353
 72,0.00011004,0.00341552,0.00099996,-0.02035720,-0.00637917,0.00098358
 ,0.00068006,-0.00099207,0.00049684,-0.00093087,0.00062787,-0.00045429,
 -0.00259393,-0.00496213,-0.00157893,0.00000887,0.00000908,-0.00005486,
 0.00022775,0.00054011,0.00004502,0.02165613,-0.02265456,0.00836803,-0.
 19131335,0.01254380,0.01252895,-0.00017262,0.00011614,0.00001763,0.000
 05409,0.00006635,0.00001937,0.68366113,0.00088554,-0.00089654,0.000539
 85,-0.00106440,-0.00137299,-0.00065135,0.00697184,0.00027908,-0.001113
 80,-0.04063378,0.00958133,0.00457981,-0.00163329,-0.00738766,0.0003520
 6,-0.00095974,0.00103078,-0.00145425,-0.00322333,-0.00038621,0.0030531
 5,0.00010811,0.00001787,0.00009680,-0.00004114,0.00009085,-0.00004391,
 0.00134301,-0.04634802,0.01978687,0.01106994,-0.10781439,0.00631764,-0
 .00009479,0.00006523,0.00035658,-0.00024260,-0.00048147,-0.00004524,0.
 15269939,0.75132973,-0.00017859,0.00007281,0.00013883,0.00009805,0.000
 45211,-0.00001356,0.00047608,-0.00138315,-0.00771774,-0.00484303,0.002
 44718,-0.00166352,-0.00110115,-0.00146430,0.00056530,-0.00019369,-0.00
 011975,-0.00002325,-0.00191975,0.00266053,0.01275156,-0.00004807,-0.00
 004644,0.00002241,0.00001428,-0.00010754,-0.00002076,0.00059534,0.0135
 3700,0.00403922,0.01492728,0.00292526,-0.08762224,0.00032668,-0.000169
 20,0.00003345,-0.00007992,-0.00011417,0.00000163,-0.11165657,-0.230971
 26,0.31164033,-0.00205334,-0.00044413,-0.00070269,-0.00349509,0.005406
 43,-0.00204290,-0.03420367,-0.04280790,0.00169137,0.00168480,-0.002340
 62,-0.00014686,0.00066189,-0.00053800,0.00018315,-0.00001893,-0.001248
 81,0.00020704,0.01372552,0.01753331,-0.00268799,-0.00056834,-0.0000991
 9,-0.00007492,0.00014440,-0.00055198,0.00019674,-0.28164593,-0.2119215
 8,0.01963713,-0.01911114,0.03378235,-0.01322530,0.00022622,0.00008971,
 0.00005424,-0.00002843,0.00004518,-0.00004258,-0.15056586,0.04873451,-
 0.02109003,0.82988670,-0.00171305,0.00100313,-0.00065552,0.00608658,0.
 00315278,0.00142338,-0.02269496,0.00659752,-0.00305782,0.00484555,-0.0
 0534054,0.00292230,-0.00207334,-0.00090530,-0.00101642,0.00133509,0.00
 023814,0.00038007,-0.02288011,-0.02250169,0.00543611,0.00017730,0.0000
 0745,-0.00001417,0.00011522,0.00026193,0.00020964,-0.19879837,-0.45180
 386,0.05784685,0.00639086,0.00115620,0.00364548,0.00012151,0.00008802,
 0.00007757,-0.00004275,-0.00000939,0.00002075,0.04672587,-0.19006281,0
 .03929199,0.17642339,0.76783840,-0.00053830,0.00043398,-0.00031416,-0.
 00200468,0.00092005,0.00069064,-0.00505229,-0.00717970,0.01053923,-0.0
 0210702,-0.00039276,-0.00005642,0.00156321,0.00030766,-0.00028369,-0.0
 0071700,-0.00100143,-0.00015365,0.00620822,0.01130210,0.00846633,-0.00
 016326,-0.00005912,-0.00014063,-0.00005684,-0.00004723,0.00012820,0.02
 251345,0.06139575,-0.08693206,-0.00119530,-0.00049575,0.00580956,-0.00
 018197,0.00006814,0.00000189,-0.00004489,0.00004197,0.00010906,-0.0185
 5737,0.03966677,-0.09764193,0.05237819,-0.13739074,0.21415334,-0.00016
 951,-0.00035453,0.00006962,-0.00083975,0.00052226,-0.00024634,0.001524
 30,-0.00338113,-0.00077364,0.00066622,0.00019602,0.00026457,-0.0000077
 8,0.00002107,0.00010270,0.00008978,-0.00007646,0.00000778,0.00097147,-
 0.00012127,0.00153999,-0.00009741,-0.00001162,-0.00001801,0.00002635,-
 0.00007069,-0.00001131,-0.01579082,0.00436518,-0.00524029,0.00125759,0
 .00146881,-0.00170346,0.00000755,0.00001548,0.00000168,-0.00002854,-0.
 00001109,-0.00001630,-0.01220980,-0.00256742,-0.00048739,-0.36447107,0
 .00236801,-0.04982920,0.38745017,0.00006587,-0.00028187,-0.00024828,-0
 .00122748,0.00051806,-0.00045045,-0.00137744,-0.00384498,0.00420399,-0
 .00042146,-0.00045796,-0.00021714,0.00014567,0.00013017,-0.00021649,-0
 .00010724,0.00002759,0.00001201,0.00053317,0.00043451,-0.00244665,-0.0
 0014065,-0.00000882,-0.00002587,0.00002492,-0.00001221,0.00013389,-0.0
 3616606,0.00447752,-0.00450705,0.00039021,-0.00470139,0.00340743,-0.00
 013768,0.00003875,-0.00004495,-0.00001817,0.00002554,0.00002050,0.0329
 2622,0.00025911,0.00494475,0.00643670,-0.06692297,0.00795375,-0.002519
 34,0.06924310,0.00052969,0.00004403,-0.00076563,0.00046518,-0.00058617
 ,0.00010712,-0.00195128,0.00434717,0.01171647,0.00043078,0.00045818,-0
 .00064642,-0.00000584,-0.00025214,-0.00081344,-0.00011140,0.00027765,0
 .00007018,0.00168542,-0.00241364,-0.00826845,0.00007090,-0.00000579,0.
 00001420,-0.00010311,0.00002145,0.00035112,0.00375589,0.00032463,0.010
 65359,-0.00052957,0.00149579,0.00103525,0.00003358,0.00000414,0.000010
 21,-0.00001808,-0.00000096,0.00008500,-0.01081108,-0.00327063,0.004892
 49,-0.04988505,0.00988422,-0.06047215,0.05592356,-0.01074894,0.0426468
 7,-0.00053245,-0.00040990,-0.00011129,0.00087258,0.00045135,0.00016179
 ,-0.00257160,-0.00076828,-0.00084695,-0.00488129,0.00406120,0.00130405
 ,-0.00070986,-0.00212698,-0.00031398,0.00021187,0.00002131,-0.00021680
 ,0.00081852,0.00116460,0.00030478,0.00003094,-0.00002776,0.00002080,-0
 .00006507,-0.00024967,0.00000433,-0.00144162,0.00800310,-0.00280517,-0
 .02571189,-0.03117782,0.01873376,0.00013244,0.00002413,0.00020058,-0.0
 0013240,-0.00019134,0.00002427,-0.29059346,-0.19560339,0.10091388,0.01
 802068,0.00699675,-0.00300219,0.00121250,0.00124315,0.00030958,0.79609
 548,-0.00029236,0.00057051,-0.00014013,0.00011395,0.00058618,-0.000005
 70,-0.00107372,0.00040265,0.00014902,0.00279814,-0.00183885,-0.0002485
 1,0.00043768,0.00073513,-0.00015712,-0.00023844,-0.00031578,0.00011306
 ,-0.00047197,-0.00123533,-0.00062363,-0.00007415,-0.00002912,-0.000027
 73,0.00007004,0.00013245,-0.00002698,0.00966187,0.00045105,0.00136332,
 0.00087681,0.00875938,0.00183246,-0.00017384,0.00005618,-0.00010714,0.
 00000273,0.00008137,0.00000580,-0.20141680,-0.39104578,0.15466178,-0.0
 2422294,-0.04450639,0.02229708,-0.00052483,0.00128864,0.00001206,0.078
 66826,0.77713580,0.00025959,-0.00024779,0.00009801,-0.00021662,-0.0002
 7753,-0.00002587,0.00074320,0.00005296,0.00024447,0.00024558,-0.000596
 18,0.00020771,-0.00014595,0.00020275,0.00026762,0.00017363,0.00023520,
 -0.00002037,0.00032268,0.00030257,-0.00028254,0.00002986,0.00001511,-0
 .00000337,-0.00001545,-0.00002932,-0.00001846,-0.00387191,0.00005641,0
 .00073621,0.00590203,0.00547560,0.00568101,0.00003746,-0.00002049,0.00
 000615,0.00002426,0.00000610,-0.00004250,0.10187392,0.15374261,-0.1502
 2568,0.01021089,0.02035854,0.00299281,0.00073113,-0.00158360,-0.000990
 97,-0.09371880,-0.27775604,0.27185045,-0.00006758,-0.00009014,-0.00001
 519,0.00012246,-0.00000015,-0.00000924,-0.00012543,-0.00004523,-0.0001
 0003,-0.00053513,0.00075323,0.00043141,-0.00008230,-0.00035474,0.00005
 868,0.00003887,-0.00000071,-0.00004205,-0.00004952,-0.00007306,0.00011
 711,-0.00000202,-0.00001544,0.00001097,-0.00001060,-0.00005653,0.00001
 743,0.00031733,-0.00028051,0.00012922,0.00110148,-0.00244704,0.0012271
 0,0.00004934,0.00000853,0.00003720,-0.00002750,-0.00003719,-0.00001438
 ,-0.01893337,0.00592881,0.00009411,0.00108213,0.00123206,-0.00147976,0
 .00077121,-0.00096141,0.00037434,-0.36722533,0.02122772,0.01978667,0.3
 9304818,-0.00014268,-0.00002686,-0.00004526,0.00017846,0.00008755,0.00
 007582,-0.00030878,0.00000356,-0.00022656,-0.00029845,0.00022649,-0.00
 003892,-0.00001875,-0.00011340,0.00010789,0.00004680,-0.00010081,-0.00
 000734,-0.00003941,0.00007011,0.00031572,0.00000904,-0.00000010,-0.000
 00190,-0.00001275,-0.00003060,0.00001958,0.00043692,0.00018626,0.00007
 927,0.00011910,-0.00082927,0.00590869,0.00002560,-0.00000488,0.0000296
 9,-0.00000299,-0.00002021,-0.00002038,-0.03212345,0.00700920,0.0034816
 5,-0.00159189,-0.00098702,-0.00402291,0.00026627,-0.00015057,0.0005279
 6,0.02982488,-0.06915385,0.00746229,-0.02385141,0.06255545,-0.00033452
 ,0.00015855,-0.00011308,0.00030461,0.00026415,0.00007294,-0.00048745,-
 0.00049607,-0.00046458,0.00192123,-0.00131913,-0.00035890,0.00037387,0
 .00088688,0.00038105,0.00011160,-0.00041452,0.00014904,-0.00020955,0.0
 0009599,0.00072471,-0.00000461,0.00001215,-0.00000667,0.00000085,0.000
 02553,0.00003289,0.00074532,-0.00001872,0.00034222,0.00150674,0.008017
 37,0.00984617,0.00000472,-0.00001160,-0.00002113,0.00005203,0.00004032
 ,-0.00006306,0.01618880,0.00150204,0.00536618,0.00023290,-0.00524160,-
 0.00770177,-0.00084176,0.00049455,0.00034309,0.01593372,0.00783164,-0.
 05021519,-0.02263015,-0.01242424,0.03613145,0.00002091,0.00001841,0.00
 000352,-0.00004398,-0.00001082,-0.00001098,0.00024726,0.00015488,0.000
 16851,-0.00000212,0.00006141,-0.00002441,0.00002129,0.00004626,-0.0000
 0980,-0.00001754,0.00001074,-0.00001304,-0.00009963,-0.00028288,-0.000
 18773,-0.00000169,0.00000615,0.00000208,-0.00000101,0.00002300,-0.0000
 1166,0.00079535,-0.00088662,0.00020231,0.00136363,-0.00125811,-0.00006
 682,-0.00002993,-0.00000449,-0.00000438,0.00000734,0.00000803,0.000005
 37,0.01213425,-0.02153887,0.00897575,-0.00254579,-0.00135244,0.0018675
 7,0.00030996,-0.00037342,0.00025004,-0.12297448,0.11171198,-0.04094728
 ,-0.00950728,0.02884065,-0.01098912,0.12025724,0.00010843,0.00006835,0
 .00003800,-0.00024554,-0.00003522,-0.00006443,0.00050902,0.00037831,0.
 00046389,-0.00058383,0.00022847,-0.00042876,-0.00003700,-0.00017265,-0
 .00006837,-0.00016471,0.00007495,-0.00008066,-0.00010329,-0.00043709,-
 0.00069924,-0.00002203,-0.00001019,0.00000107,0.00003127,0.00005003,-0
 .00001313,0.00085172,-0.00095444,0.00040725,0.00108732,-0.00099209,-0.
 00302220,-0.00005279,0.00002235,0.00000464,-0.00002000,0.00000143,0.00
 001605,0.01633535,-0.02029380,0.01146466,-0.00387019,0.00125380,0.0055
 4209,0.00024525,0.00011284,-0.00024952,0.10305242,-0.28294695,0.092791
 76,-0.00093076,0.00144528,0.00131404,-0.11509714,0.30127934,0.00027121
 ,-0.00010955,0.00010044,-0.00023119,-0.00024229,-0.00008903,0.00017825
 ,0.00023165,0.00070506,-0.00047627,0.00051098,0.00038818,-0.00023911,-
 0.00046683,-0.00029627,-0.00004711,0.00031534,-0.00008722,0.00046370,-
 0.00001995,-0.00133014,0.00000326,-0.00000600,0.00001031,-0.00000539,-
 0.00002095,-0.00002996,-0.00136307,0.00057734,-0.00065504,-0.00157519,
 -0.00456508,-0.00706362,-0.00000977,0.00000781,0.00002847,-0.00002583,
 -0.00001354,0.00004409,-0.00767637,0.01274600,0.00475832,0.00293768,0.
 00631000,0.01085451,0.00035766,-0.00028829,-0.00022269,-0.03710316,0.0
 9224983,-0.08230736,0.00179130,-0.00130956,0.00500004,0.04101143,-0.10
 685278,0.07073836,-0.00012593,-0.00032214,0.00004509,0.00059384,-0.000
 33954,-0.00047518,-0.00188007,-0.00282982,-0.00065799,0.00667131,-0.01
 360484,0.01419151,0.00079888,-0.00130471,-0.00002801,0.00036599,0.0002
 6981,0.00035768,0.00011727,0.00003666,-0.00012059,0.00000191,0.0000218
 8,-0.00005732,-0.00009650,-0.00019493,0.00001431,-0.00031064,-0.000390
 00,0.00022962,-0.09705284,0.06817360,-0.06817198,-0.00026412,0.0000180
 1,-0.00037696,-0.00000834,0.00004558,0.00001696,-0.01633835,0.02837262
 ,-0.02582299,-0.00674962,-0.00148370,0.00127832,-0.00061404,0.00158733
 ,-0.00052933,0.00165466,0.00158804,0.00029322,0.00058681,0.00009752,0.
 00075073,-0.00014174,-0.00156083,-0.00012710,0.11030219,-0.00047169,0.
 00040187,-0.00005941,0.00163034,-0.00063411,-0.00035022,-0.00496698,-0
 .00364372,-0.00074558,0.01287390,-0.02600746,0.02159806,0.00291420,0.0
 0166443,-0.00032810,0.00008306,-0.00066123,-0.00077196,0.00007513,-0.0
 0005878,0.00001109,-0.00010913,0.00004129,0.00009362,-0.00019027,-0.00
 041450,-0.00004002,-0.00051293,0.00066113,0.00024332,0.06842042,-0.183
 28427,0.12380600,-0.00130280,0.00080616,0.00044143,-0.00005947,0.00001
 004,0.00004136,0.00131860,-0.00324854,0.00092247,0.00061972,0.00106850
 ,0.00031015,0.00011993,-0.00012935,0.00012205,-0.00182351,0.00046736,-
 0.00054627,-0.00002275,-0.00018572,-0.00068486,-0.00008516,0.00089860,
 0.00073313,-0.07300726,0.20239440,0.00037585,-0.00010582,0.00013066,-0
 .00013715,-0.00060391,-0.00006780,-0.00119294,-0.00058580,-0.00027312,
 0.00234391,-0.00684716,0.00466185,0.00015876,-0.00035019,0.00049581,0.
 00024776,0.00025367,0.00011099,0.00001428,0.00002048,-0.00006775,0.000
 02164,-0.00002240,-0.00000988,-0.00001331,-0.00009141,-0.00004698,0.00
 012840,0.00007150,0.00024151,-0.07010029,0.12733129,-0.17694186,0.0004
 4837,0.00000892,0.00013798,0.00001756,0.00003638,-0.00001245,0.0046808
 4,-0.00508920,0.00420526,0.00185772,-0.00023127,0.00030881,0.00009381,
 -0.00025451,0.00023661,0.00004234,-0.00101739,0.00055722,-0.00004522,-
 0.00024710,0.00018108,-0.00021751,-0.00028879,0.00014099,0.07524235,-0
 .13720675,0.18946160,0.00073400,-0.00111810,0.00021334,-0.00141380,-0.
 00028484,0.00048169,-0.00045173,0.00119271,0.00015719,0.00309534,-0.01
 041611,-0.01938043,-0.00116243,-0.00162213,0.00057609,0.00031089,0.001
 28981,0.00096010,0.00001419,0.00006035,0.00018416,0.00002336,-0.000017
 66,-0.00011177,-0.00000431,-0.00007288,0.00002942,0.00036363,0.0002503
 8,-0.00093157,-0.05998713,0.01788508,0.04164132,-0.00008131,0.00017016
 ,-0.00065507,-0.00004262,-0.00000967,-0.00011104,-0.01440343,0.0114889
 6,0.04099972,0.00002486,-0.00177948,-0.00087886,-0.00005839,0.00009713
 ,0.00011576,-0.00221022,0.00133183,-0.00171810,-0.00055174,-0.00145467
 ,-0.00262997,0.00020796,0.00046735,0.00186505,0.00248933,-0.00550336,-
 0.01396715,0.07310354,-0.00061262,-0.00030708,-0.00028157,-0.00035948,
 0.00039115,0.00149025,-0.00171958,-0.00119093,0.00017381,0.00151157,-0
 .01823807,-0.03430279,0.00114955,0.00004262,0.00102885,-0.00006092,-0.
 00073062,0.00159345,0.00009175,-0.00002841,-0.00003062,0.00003500,-0.0
 0002401,-0.00016376,0.00000452,-0.00016986,-0.00003749,-0.00075790,0.0
 0016185,-0.00063080,0.01786476,-0.08322429,-0.08336419,-0.00000739,0.0
 0012872,-0.00080836,-0.00008289,-0.00005999,-0.00007189,0.00056309,-0.
 00032496,-0.00248638,0.00056595,0.00037411,0.00035015,0.00005009,-0.00
 004571,0.00000845,-0.00113251,0.00040533,0.00035531,0.00001673,0.00001
 938,-0.00003247,0.00000843,0.00002869,0.00021272,-0.00517328,0.0098539
 1,0.02521947,-0.01195486,0.09293815,-0.00023989,0.00039397,-0.00017964
 ,0.00030265,-0.00003033,0.00010245,-0.00127745,0.00064347,0.00005306,-
 0.00245278,-0.00437112,-0.00209473,0.00063094,0.00008846,0.00091251,-0
 .00042980,-0.00071268,0.00035724,0.00000553,-0.00001904,0.00001060,-0.
 00000289,-0.00001967,-0.00005100,-0.00002799,-0.00005408,0.00000724,0.
 00106714,-0.00017340,0.00000225,0.03980408,-0.07903003,-0.28891341,0.0
 0000351,-0.00006157,-0.00053748,-0.00003919,-0.00005818,0.00000164,0.0
 0474083,-0.00010053,-0.00348629,0.00031128,-0.00019936,-0.00035792,0.0
 0007520,-0.00013864,0.00001754,0.00016444,-0.00040565,0.00149064,0.000
 26046,0.00033560,0.00037353,-0.00000385,-0.00027558,-0.00068744,0.0039
 4768,-0.00758950,-0.02345054,-0.04683989,0.09177786,0.31642975\\0.0000
 2937,0.00001172,-0.00002028,-0.00003176,0.00001880,0.00002741,-0.00001
 181,-0.00000190,-0.00001774,-0.00001125,-0.00002805,-0.00002334,0.0000
 0476,-0.00002939,-0.00000675,0.00001764,0.00002006,0.00004656,-0.00000
 067,-0.00000153,-0.00000571,0.00000361,-0.00000107,-0.00000812,0.00000
 017,-0.00000153,-0.00000284,0.00000730,-0.00000265,0.00000851,0.000004
 22,0.00002260,0.00001823,-0.00000228,0.00000036,-0.00000015,0.00000313
 ,0.00000180,-0.00000751,0.00000057,-0.00001399,-0.00001268,-0.00001468
 ,-0.00000464,0.00000545,0.00000516,-0.00000041,0.00000112,-0.00000122,
 0.00001444,-0.00001195,-0.00000027,-0.00000114,0.00000844,-0.00000085,
 -0.00000243,0.00000225,-0.00000112,-0.00000322,-0.00000016,-0.00000003
 ,0.00000216,-0.00000077\\\@


 THE SCIENTIFIC THEORIST IS NOT TO BE ENVIED. FOR NATURE, OR MORE
 PRECISELY EXPERIMENT, IS AN INEXORABLE AND NOT VERY FRIENDLY JUDGE OF HIS
 WORK.  IT NEVER SAYS "YES" TO A THEORY. IN THE MOST FAVORABLE CASES
 IT SAYS "MAYBE", AND IN THE GREAT MAJORITY OF CASES SIMPLY "NO"...
 PROBABLY EVERY THEORY WILL SOME DAY EXPERIENCE ITS "NO" - MOST
 THEORIES, SOON AFTER CONCEPTION.  -- A.EINSTEIN, NOV 11, 1922.
 Job cpu time:       0 days  0 hours  3 minutes 53.7 seconds.
 Elapsed time:       0 days  0 hours  0 minutes 11.8 seconds.
 File lengths (MBytes):  RWF=     48 Int=      0 D2E=      0 Chk=      3 Scr=      1
 Normal termination of Gaussian 16 at Tue Jun 10 01:19:48 2025.
