 Entering Gaussian System, Link 0=g16
 Input=/home/gaussian/Documents/Summer_Internship/Acid_Base_adduct/Base/pyridine/pyridine_sp.com
 Output=/home/gaussian/Documents/Summer_Internship/Acid_Base_adduct/Base/pyridine/pyridine_sp.log
 Initial command:
 /usr/local/g16/l1.exe "/home/gaussian/tmp/Gau-72498.inp" -scrdir="/home/gaussian/tmp/"
 Entering Link 1 = /usr/local/g16/l1.exe PID=     72501.
  
 Copyright (c) 1988-2017, Gaussian, Inc.  All Rights Reserved.
  
 This is part of the Gaussian(R) 16 program.  It is based on
 the Gaussian(R) 09 system (copyright 2009, Gaussian, Inc.),
 the Gaussian(R) 03 system (copyright 2003, Gaussian, Inc.),
 the Gaussian(R) 98 system (copyright 1998, Gaussian, Inc.),
 the Gaussian(R) 94 system (copyright 1995, Gaussian, Inc.),
 the Gaussian 92(TM) system (copyright 1992, Gaussian, Inc.),
 the Gaussian 90(TM) system (copyright 1990, Gaussian, Inc.),
 the Gaussian 88(TM) system (copyright 1988, Gaussian, Inc.),
 the Gaussian 86(TM) system (copyright 1986, Carnegie Mellon
 University), and the Gaussian 82(TM) system (copyright 1983,
 Carnegie Mellon University). Gaussian is a federally registered
 trademark of Gaussian, Inc.
  
 This software contains proprietary and confidential information,
 including trade secrets, belonging to Gaussian, Inc.
  
 This software is provided under written license and may be
 used, copied, transmitted, or stored only in accord with that
 written license.
  
 The following legend is applicable only to US Government
 contracts under FAR:
  
                    RESTRICTED RIGHTS LEGEND
  
 Use, reproduction and disclosure by the US Government is
 subject to restrictions as set forth in subparagraphs (a)
 and (c) of the Commercial Computer Software - Restricted
 Rights clause in FAR 52.227-19.
  
 Gaussian, Inc.
 340 Quinnipiac St., Bldg. 40, Wallingford CT 06492
  
  
 ---------------------------------------------------------------
 Warning -- This program may not be used in any manner that
 competes with the business of Gaussian, Inc. or will provide
 assistance to any competitor of Gaussian, Inc.  The licensee
 of this program is prohibited from giving any competitor of
 Gaussian, Inc. access to this program.  By using this program,
 the user acknowledges that Gaussian, Inc. is engaged in the
 business of creating and licensing software in the field of
 computational chemistry and represents and warrants to the
 licensee that it is not a competitor of Gaussian, Inc. and that
 it will not use this program in any manner prohibited above.
 ---------------------------------------------------------------
  

 Cite this work as:
 Gaussian 16, Revision B.01,
 M. J. Frisch, G. W. Trucks, H. B. Schlegel, G. E. Scuseria, 
 M. A. Robb, J. R. Cheeseman, G. Scalmani, V. Barone, 
 G. A. Petersson, H. Nakatsuji, X. Li, M. Caricato, A. V. Marenich, 
 J. Bloino, B. G. Janesko, R. Gomperts, B. Mennucci, H. P. Hratchian, 
 J. V. Ortiz, A. F. Izmaylov, J. L. Sonnenberg, D. Williams-Young, 
 F. Ding, F. Lipparini, F. Egidi, J. Goings, B. Peng, A. Petrone, 
 T. Henderson, D. Ranasinghe, V. G. Zakrzewski, J. Gao, N. Rega, 
 G. Zheng, W. Liang, M. Hada, M. Ehara, K. Toyota, R. Fukuda, 
 J. Hasegawa, M. Ishida, T. Nakajima, Y. Honda, O. Kitao, H. Nakai, 
 T. Vreven, K. Throssell, J. A. Montgomery, Jr., J. E. Peralta, 
 F. Ogliaro, M. J. Bearpark, J. J. Heyd, E. N. Brothers, K. N. Kudin, 
 V. N. Staroverov, T. A. Keith, R. Kobayashi, J. Normand, 
 K. Raghavachari, A. P. Rendell, J. C. Burant, S. S. Iyengar, 
 J. Tomasi, M. Cossi, J. M. Millam, M. Klene, C. Adamo, R. Cammi, 
 J. W. Ochterski, R. L. Martin, K. Morokuma, O. Farkas, 
 J. B. Foresman, and D. J. Fox, Gaussian, Inc., Wallingford CT, 2016.
 
 ******************************************
 Gaussian 16:  EM64L-G16RevB.01 20-Dec-2017
                16-Jun-2025 
 ******************************************
 %chk=pyridine_sp.chk
 -------------------------------------
 # hf/3-21g pop=full geom=connectivity
 -------------------------------------
 1/38=1,57=2,172=1/1;
 2/12=2,17=6,18=5,40=1/2;
 3/5=5,11=9,25=1,30=1/1,2,3;
 4//1;
 5/5=2,38=5/2;
 6/7=3,28=1/1;
 99/5=1,9=1/99;
 -----------
 pyridine sp
 -----------
 Symbolic Z-matrix:
 Charge =  0 Multiplicity = 1
 C                    -1.14532  -0.71727  -0.00018 
 C                    -1.19258   0.66444  -0.00012 
 C                    -0.00009   1.36678   0.00006 
 C                     1.1925    0.66459   0.00021 
 C                     1.14541  -0.71713   0.0001 
 N                     0.00009  -1.39458  -0.0001 
 H                    -0.00015   2.43846   0.00017 
 H                    -2.04613  -1.2956   -0.00036 
 H                    -2.13466   1.17295  -0.00019 
 H                     2.13451   1.17321   0.00041 
 H                     2.04629  -1.29536   0.00022 
 
                          Input orientation:                          
 ---------------------------------------------------------------------
 Center     Atomic      Atomic             Coordinates (Angstroms)
 Number     Number       Type             X           Y           Z
 ---------------------------------------------------------------------
      1          6           0       -1.145320   -0.717270   -0.000184
      2          6           0       -1.192580    0.664441   -0.000115
      3          6           0       -0.000085    1.366776    0.000060
      4          6           0        1.192496    0.664585    0.000208
      5          6           0        1.145412   -0.717133    0.000100
      6          7           0        0.000086   -1.394579   -0.000096
      7          1           0       -0.000153    2.438456    0.000171
      8          1           0       -2.046132   -1.295602   -0.000355
      9          1           0       -2.134658    1.172948   -0.000191
     10          1           0        2.134512    1.173205    0.000411
     11          1           0        2.046294   -1.295356    0.000220
 ---------------------------------------------------------------------
                    Distance matrix (angstroms):
                    1          2          3          4          5
     1  C    0.000000
     2  C    1.382519   0.000000
     3  C    2.377985   1.383950   0.000000
     4  C    2.715678   2.385076   1.383951   0.000000
     5  C    2.290732   2.715687   2.377991   1.382520   0.000000
     6  N    1.330677   2.379499   2.761355   2.379495   1.330678
     7  H    3.357084   2.137525   1.071680   2.137529   3.357091
     8  H    1.070481   2.137831   3.357762   3.785637   3.243544
     9  H    2.133475   1.070556   2.143355   3.365767   3.785666
    10  H    3.785656   3.365766   2.143356   1.070555   2.133471
    11  H    3.243545   3.785645   3.357769   2.137835   1.070481
                    6          7          8          9         10
     6  N    0.000000
     7  H    3.833035   0.000000
     8  H    2.048610   4.257842   0.000000
     9  H    3.339061   2.481456   2.470137   0.000000
    10  H    3.339055   2.481462   4.855182   4.269170   0.000000
    11  H    2.048612   4.257851   4.092426   4.855191   2.470137
                   11
    11  H    0.000000
 Stoichiometry    C5H5N
 Framework group  C1[X(C5H5N)]
 Deg. of freedom    27
 Full point group                 C1      NOp   1
 Largest Abelian subgroup         C1      NOp   1
 Largest concise Abelian subgroup C1      NOp   1
                         Standard orientation:                         
 ---------------------------------------------------------------------
 Center     Atomic      Atomic             Coordinates (Angstroms)
 Number     Number       Type             X           Y           Z
 ---------------------------------------------------------------------
      1          6           0        1.145321    0.717268   -0.000184
      2          6           0        1.192579   -0.664443   -0.000115
      3          6           0        0.000083   -1.366776    0.000060
      4          6           0       -1.192497   -0.664584    0.000208
      5          6           0       -1.145411    0.717134    0.000100
      6          7           0       -0.000084    1.394579   -0.000096
      7          1           0        0.000150   -2.438456    0.000171
      8          1           0        2.046134    1.295599   -0.000355
      9          1           0        2.134657   -1.172951   -0.000191
     10          1           0       -2.134513   -1.173202    0.000411
     11          1           0       -2.046292    1.295359    0.000220
 ---------------------------------------------------------------------
 Rotational constants (GHZ):           6.0713508           5.9679121           3.0095935
 Standard basis: 3-21G (6D, 7F)
 There are    64 symmetry adapted cartesian basis functions of A   symmetry.
 There are    64 symmetry adapted basis functions of A   symmetry.
    64 basis functions,   105 primitive gaussians,    64 cartesian basis functions
    21 alpha electrons       21 beta electrons
       nuclear repulsion energy       207.6442596357 Hartrees.
 NAtoms=   11 NActive=   11 NUniq=   11 SFac= 1.00D+00 NAtFMM=   60 NAOKFM=F Big=F
 Integral buffers will be    131072 words long.
 Raffenetti 1 integral format.
 Two-electron integral symmetry is turned on.
 One-electron integrals computed using PRISM.
 NBasis=    64 RedAO= T EigKep=  2.97D-03  NBF=    64
 NBsUse=    64 1.00D-06 EigRej= -1.00D+00 NBFU=    64
 ExpMin= 1.83D-01 ExpMax= 2.43D+02 ExpMxC= 2.43D+02 IAcc=3 IRadAn=         5 AccDes= 0.00D+00
 Harris functional with IExCor=  205 and IRadAn=       5 diagonalized for initial guess.
 HarFok:  IExCor=  205 AccDes= 0.00D+00 IRadAn=         5 IDoV= 1 UseB2=F ITyADJ=14
 ICtDFT=  3500011 ScaDFX=  1.000000  1.000000  1.000000  1.000000
 FoFCou: FMM=F IPFlag=           0 FMFlag=      100000 FMFlg1=           0
         NFxFlg=           0 DoJE=T BraDBF=F KetDBF=T FulRan=T
         wScrn=  0.000000 ICntrl=       500 IOpCl=  0 I1Cent=   200000004 NGrid=           0
         NMat0=    1 NMatS0=      1 NMatT0=    0 NMatD0=    1 NMtDS0=    0 NMtDT0=    0
 Petite list used in FoFCou.
 Keep R1 ints in memory in canonical form, NReq=2987486.
 Requested convergence on RMS density matrix=1.00D-08 within 128 cycles.
 Requested convergence on MAX density matrix=1.00D-06.
 Requested convergence on             energy=1.00D-06.
 No special actions if energy rises.
 SCF Done:  E(RHF) =  -245.312006164     A.U. after   13 cycles
            NFock= 13  Conv=0.99D-09     -V/T= 2.0018

 **********************************************************************

            Population analysis using the SCF Density.

 **********************************************************************

 Orbital symmetries:
       Occupied  (A) (A) (A) (A) (A) (A) (A) (A) (A) (A) (A) (A)
                 (A) (A) (A) (A) (A) (A) (A) (A) (A)
       Virtual   (A) (A) (A) (A) (A) (A) (A) (A) (A) (A) (A) (A)
                 (A) (A) (A) (A) (A) (A) (A) (A) (A) (A) (A) (A)
                 (A) (A) (A) (A) (A) (A) (A) (A) (A) (A) (A) (A)
                 (A) (A) (A) (A) (A) (A) (A)
 The electronic state is 1-A.
 Alpha  occ. eigenvalues --  -15.49158 -11.21746 -11.21700 -11.20138 -11.18761
 Alpha  occ. eigenvalues --  -11.18751  -1.27548  -1.09505  -1.04146  -0.86258
 Alpha  occ. eigenvalues --   -0.85970  -0.73336  -0.66716  -0.65487  -0.61046
 Alpha  occ. eigenvalues --   -0.57708  -0.54836  -0.52084  -0.40036  -0.38423
 Alpha  occ. eigenvalues --   -0.35599
 Alpha virt. eigenvalues --    0.12996   0.13918   0.26212   0.31580   0.33832
 Alpha virt. eigenvalues --    0.36208   0.36267   0.36536   0.44649   0.49596
 Alpha virt. eigenvalues --    0.53319   0.54527   0.73763   0.75135   0.91403
 Alpha virt. eigenvalues --    0.93864   0.94287   0.99995   1.03369   1.03818
 Alpha virt. eigenvalues --    1.03909   1.09051   1.09147   1.11535   1.12545
 Alpha virt. eigenvalues --    1.13623   1.28455   1.29402   1.36257   1.38743
 Alpha virt. eigenvalues --    1.48749   1.50632   1.54794   1.62064   1.65095
 Alpha virt. eigenvalues --    1.68036   1.69582   1.74263   1.83113   1.97182
 Alpha virt. eigenvalues --    2.24375   2.29480   3.25640
     Molecular Orbital Coefficients:
                           1         2         3         4         5
                           O         O         O         O         O
     Eigenvalues --   -15.49158 -11.21746 -11.21700 -11.20138 -11.18761
   1 1   C  1S         -0.00022  -0.69767   0.69780   0.00814  -0.00211
   2        2S         -0.00106  -0.07011   0.06660   0.00007   0.00221
   3        2PX        -0.00107   0.00193   0.00015   0.00039  -0.00001
   4        2PY         0.00086   0.00069  -0.00003   0.00111  -0.00088
   5        2PZ         0.00000  -0.00000  -0.00000  -0.00000   0.00000
   6        3S          0.03487   0.05079  -0.03664  -0.00776  -0.01962
   7        3PX        -0.02836  -0.00617  -0.00926   0.00265   0.00532
   8        3PY        -0.00449  -0.01707   0.00212   0.00179   0.00918
   9        3PZ         0.00000   0.00000   0.00000  -0.00000  -0.00000
  10 2   C  1S          0.00056   0.00251  -0.00259  -0.01346  -0.69781
  11        2S          0.00267   0.00274  -0.00173  -0.00548  -0.07050
  12        2PX        -0.00071   0.00008  -0.00002   0.00151   0.00165
  13        2PY        -0.00047   0.00086  -0.00149   0.00014  -0.00020
  14        2PZ         0.00000  -0.00000   0.00000  -0.00000  -0.00000
  15        3S         -0.02702  -0.02232   0.00551   0.03467   0.05651
  16        3PX         0.02485   0.00157   0.00815  -0.02102  -0.01204
  17        3PY        -0.00797  -0.01596   0.00644  -0.00010   0.00442
  18        3PZ        -0.00000   0.00000  -0.00000   0.00000   0.00000
  19 3   C  1S         -0.00039  -0.00001  -0.01187   0.98702   0.00001
  20        2S         -0.00178  -0.00000  -0.00314   0.09948  -0.00000
  21        2PX        -0.00000   0.00122  -0.00000  -0.00000   0.00143
  22        2PY         0.00023  -0.00000  -0.00094   0.00137  -0.00000
  23        2PZ         0.00000  -0.00000   0.00000   0.00000  -0.00000
  24        3S          0.03423   0.00001   0.01343  -0.09095   0.00002
  25        3PX        -0.00000  -0.00517   0.00000   0.00000  -0.01573
  26        3PY         0.01902   0.00000   0.00855  -0.02346   0.00001
  27        3PZ        -0.00000   0.00000  -0.00000   0.00000   0.00000
  28 4   C  1S          0.00056  -0.00251  -0.00259  -0.01346   0.69825
  29        2S          0.00267  -0.00274  -0.00173  -0.00548   0.07055
  30        2PX         0.00071   0.00008   0.00002  -0.00151   0.00165
  31        2PY        -0.00047  -0.00086  -0.00149   0.00014   0.00020
  32        2PZ        -0.00000   0.00000   0.00000   0.00000  -0.00000
  33        3S         -0.02702   0.02233   0.00548   0.03467  -0.05655
  34        3PX        -0.02485   0.00156  -0.00815   0.02102  -0.01206
  35        3PY        -0.00797   0.01597   0.00642  -0.00010  -0.00443
  36        3PZ         0.00000  -0.00000   0.00000  -0.00000   0.00000
  37 5   C  1S         -0.00022   0.69835   0.69712   0.00814   0.00211
  38        2S         -0.00106   0.07017   0.06653   0.00007  -0.00221
  39        2PX         0.00107   0.00193  -0.00016  -0.00039  -0.00002
  40        2PY         0.00086  -0.00069  -0.00003   0.00111   0.00088
  41        2PZ        -0.00000  -0.00000   0.00000   0.00000  -0.00000
  42        3S          0.03487  -0.05082  -0.03659  -0.00776   0.01964
  43        3PX         0.02836  -0.00616   0.00927  -0.00265   0.00533
  44        3PY        -0.00448   0.01707   0.00211   0.00179  -0.00918
  45        3PZ        -0.00000  -0.00000  -0.00000   0.00000  -0.00000
  46 6   N  1S          0.98670   0.00000   0.00029  -0.00007   0.00000
  47        2S          0.10587   0.00000   0.00128  -0.00064   0.00000
  48        2PX         0.00000   0.00005  -0.00000  -0.00000   0.00034
  49        2PY        -0.00544   0.00000   0.00013   0.00012   0.00000
  50        2PZ         0.00000  -0.00000  -0.00000  -0.00000  -0.00000
  51        3S         -0.09005  -0.00000  -0.00127   0.00440  -0.00000
  52        3PX        -0.00000   0.00288  -0.00000   0.00000   0.00228
  53        3PY         0.02546   0.00000   0.00338  -0.00131   0.00000
  54        3PZ        -0.00000  -0.00000  -0.00000   0.00000  -0.00000
  55 7   H  1S          0.00042   0.00000   0.00017  -0.00238  -0.00000
  56        2S          0.00410   0.00000   0.00340   0.00629   0.00000
  57 8   H  1S          0.00080   0.00221  -0.00057  -0.00016   0.00027
  58        2S          0.00694  -0.00328   0.01195   0.00073  -0.00195
  59 9   H  1S         -0.00180   0.00045  -0.00124  -0.00012   0.00157
  60        2S         -0.00720  -0.00170  -0.00164   0.00434  -0.00455
  61 10  H  1S         -0.00180  -0.00045  -0.00124  -0.00012  -0.00157
  62        2S         -0.00720   0.00170  -0.00164   0.00434   0.00455
  63 11  H  1S          0.00080  -0.00221  -0.00057  -0.00016  -0.00027
  64        2S          0.00694   0.00329   0.01195   0.00073   0.00195
                           6         7         8         9        10
                           O         O         O         O         O
     Eigenvalues --   -11.18751  -1.27548  -1.09505  -1.04146  -0.86258
   1 1   C  1S          0.00251  -0.10182   0.00557  -0.12409   0.07440
   2        2S         -0.00246   0.11741  -0.00267   0.13684  -0.08360
   3        2PX         0.00004  -0.08971   0.04655  -0.00271  -0.10805
   4        2PY         0.00137   0.01134  -0.09052  -0.04745   0.11077
   5        2PZ        -0.00000   0.00001  -0.00000   0.00000   0.00001
   6        3S          0.03038   0.09015  -0.00336   0.27416  -0.21620
   7        3PX        -0.01049   0.06586  -0.01484   0.00730  -0.04310
   8        3PY        -0.01640   0.01286  -0.01258  -0.05132   0.04783
   9        3PZ         0.00000  -0.00001   0.00000   0.00000   0.00000
  10 2   C  1S          0.69831  -0.05193  -0.11000  -0.11457   0.04849
  11        2S          0.07084   0.05130   0.12241   0.12381  -0.05114
  12        2PX        -0.00026  -0.02689  -0.06949   0.00091  -0.09988
  13        2PY         0.00091   0.03312  -0.02654   0.06051  -0.14571
  14        2PZ        -0.00000   0.00000   0.00001  -0.00000   0.00002
  15        3S         -0.07511   0.14930   0.21748   0.24970  -0.15327
  16        3PX         0.02119  -0.08158   0.00591  -0.02142  -0.02397
  17        3PY        -0.01235   0.02566   0.00208  -0.01095  -0.04704
  18        3PZ        -0.00000   0.00001  -0.00000   0.00000   0.00000
  19 3   C  1S          0.01791  -0.03963  -0.15373   0.00000  -0.12176
  20        2S         -0.00422   0.05079   0.16785  -0.00000   0.12586
  21        2PX        -0.00000  -0.00000  -0.00000   0.09929   0.00000
  22        2PY        -0.00160   0.03300   0.06312   0.00001  -0.05431
  23        2PZ         0.00000  -0.00000   0.00000  -0.00001   0.00001
  24        3S          0.05206  -0.03228   0.35200  -0.00000   0.38867
  25        3PX         0.00000   0.00000  -0.00000  -0.00868   0.00000
  26        3PY         0.02920  -0.04840   0.03294  -0.00000  -0.00061
  27        3PZ        -0.00000   0.00000   0.00000   0.00000   0.00000
  28 4   C  1S          0.69787  -0.05193  -0.11000   0.11457   0.04849
  29        2S          0.07079   0.05130   0.12241  -0.12381  -0.05114
  30        2PX         0.00026   0.02689   0.06949   0.00091   0.09990
  31        2PY         0.00091   0.03313  -0.02653  -0.06051  -0.14569
  32        2PZ        -0.00000  -0.00001  -0.00001   0.00000  -0.00001
  33        3S         -0.07507   0.14930   0.21747  -0.24970  -0.15328
  34        3PX        -0.02118   0.08157  -0.00591  -0.02142   0.02398
  35        3PY        -0.01235   0.02567   0.00208   0.01094  -0.04704
  36        3PZ         0.00000  -0.00002   0.00000   0.00000  -0.00000
  37 5   C  1S          0.00250  -0.10182   0.00558   0.12409   0.07440
  38        2S         -0.00246   0.11741  -0.00267  -0.13684  -0.08360
  39        2PX        -0.00004   0.08971  -0.04654  -0.00271   0.10803
  40        2PY         0.00137   0.01135  -0.09052   0.04745   0.11079
  41        2PZ        -0.00000  -0.00001   0.00001  -0.00000  -0.00002
  42        3S          0.03037   0.09015  -0.00336  -0.27416  -0.21619
  43        3PX         0.01049  -0.06586   0.01484   0.00729   0.04309
  44        3PY        -0.01639   0.01285  -0.01258   0.05132   0.04783
  45        3PZ        -0.00000   0.00001  -0.00000  -0.00001  -0.00001
  46 6   N  1S          0.00035  -0.17347   0.09802  -0.00000  -0.07686
  47        2S          0.00208   0.14860  -0.08741   0.00000   0.07139
  48        2PX        -0.00000   0.00001  -0.00000   0.12009  -0.00000
  49        2PY        -0.00001  -0.10111   0.02627   0.00001  -0.00173
  50        2PZ        -0.00000   0.00001  -0.00000  -0.00002   0.00000
  51        3S         -0.01505   0.57220  -0.33284   0.00000   0.28813
  52        3PX        -0.00000   0.00001  -0.00000   0.08948   0.00000
  53        3PY         0.00795  -0.13802   0.05005   0.00000  -0.02423
  54        3PZ        -0.00000   0.00001  -0.00000  -0.00001   0.00000
  55 7   H  1S         -0.00007   0.00979   0.06733  -0.00000   0.11531
  56        2S          0.00720  -0.01679   0.00705  -0.00000   0.05352
  57 8   H  1S          0.00007   0.02567  -0.00317   0.06555  -0.07157
  58        2S          0.00443  -0.02928   0.00215   0.01623  -0.02660
  59 9   H  1S         -0.00216   0.01763   0.04606   0.05968  -0.04480
  60        2S          0.00294   0.02035  -0.00412   0.01156  -0.01949
  61 10  H  1S         -0.00216   0.01763   0.04606  -0.05968  -0.04481
  62        2S          0.00294   0.02035  -0.00412  -0.01156  -0.01949
  63 11  H  1S          0.00007   0.02567  -0.00317  -0.06555  -0.07157
  64        2S          0.00443  -0.02928   0.00215  -0.01623  -0.02660
                          11        12        13        14        15
                           O         O         O         O         O
     Eigenvalues --    -0.85970  -0.73336  -0.66716  -0.65487  -0.61046
   1 1   C  1S          0.08690   0.02340   0.01206   0.05353   0.01628
   2        2S         -0.09244  -0.02017  -0.01224  -0.05768  -0.02115
   3        2PX         0.03496  -0.13459  -0.15909  -0.11861   0.16827
   4        2PY        -0.12967  -0.12367   0.19210  -0.03837   0.16596
   5        2PZ         0.00001   0.00002   0.00001   0.00002  -0.00004
   6        3S         -0.27166  -0.10391  -0.04962  -0.19408  -0.01249
   7        3PX         0.00419  -0.09398  -0.07806  -0.10311   0.13748
   8        3PY         0.01254  -0.08646   0.06893  -0.03199   0.11476
   9        3PZ        -0.00000   0.00002   0.00001   0.00002  -0.00003
  10 2   C  1S         -0.09838  -0.00276  -0.00882  -0.05510   0.01711
  11        2S          0.09960   0.00726   0.01038   0.05438  -0.02092
  12        2PX        -0.00105  -0.13330  -0.10295   0.17111   0.17286
  13        2PY        -0.08127   0.08880  -0.21259  -0.08001  -0.15140
  14        2PZ         0.00000   0.00001   0.00002  -0.00001  -0.00002
  15        3S          0.33133  -0.01437   0.01743   0.21094  -0.03295
  16        3PX        -0.00361  -0.08883  -0.05692   0.15152   0.14491
  17        3PY         0.00757   0.05292  -0.13309  -0.06884  -0.11218
  18        3PZ         0.00000   0.00001   0.00001  -0.00001  -0.00001
  19 3   C  1S          0.00000   0.02779   0.00000   0.06025  -0.00000
  20        2S         -0.00000  -0.02438  -0.00000  -0.06548   0.00000
  21        2PX         0.17534  -0.00001   0.24266  -0.00000  -0.05976
  22        2PY         0.00001   0.20325   0.00001  -0.01475  -0.00001
  23        2PZ        -0.00002  -0.00002  -0.00003   0.00000   0.00000
  24        3S         -0.00000  -0.12175  -0.00000  -0.18296   0.00000
  25        3PX         0.07582  -0.00001   0.12487  -0.00000  -0.02899
  26        3PY         0.00000   0.13327   0.00001   0.02012  -0.00000
  27        3PZ        -0.00001  -0.00001  -0.00002  -0.00000  -0.00000
  28 4   C  1S          0.09838  -0.00276   0.00882  -0.05510  -0.01710
  29        2S         -0.09960   0.00726  -0.01037   0.05438   0.02092
  30        2PX        -0.00106   0.13329  -0.10298  -0.17109   0.17285
  31        2PY         0.08128   0.08881   0.21257  -0.08004   0.15143
  32        2PZ        -0.00001  -0.00003   0.00000   0.00004  -0.00005
  33        3S         -0.33133  -0.01437  -0.01742   0.21093   0.03294
  34        3PX        -0.00361   0.08883  -0.05694  -0.15151   0.14490
  35        3PY        -0.00757   0.05293   0.13308  -0.06887   0.11220
  36        3PZ         0.00000  -0.00002   0.00000   0.00003  -0.00004
  37 5   C  1S         -0.08690   0.02340  -0.01205   0.05353  -0.01628
  38        2S          0.09245  -0.02017   0.01224  -0.05768   0.02115
  39        2PX         0.03495   0.13460  -0.15906   0.11863   0.16829
  40        2PY         0.12968  -0.12365  -0.19212  -0.03835  -0.16595
  41        2PZ        -0.00001  -0.00001   0.00004  -0.00001  -0.00002
  42        3S          0.27166  -0.10391   0.04961  -0.19409   0.01250
  43        3PX         0.00419   0.09399  -0.07804   0.10312   0.13750
  44        3PY        -0.01254  -0.08645  -0.06894  -0.03198  -0.11475
  45        3PZ         0.00000  -0.00001   0.00002  -0.00001  -0.00002
  46 6   N  1S          0.00000   0.02355  -0.00000  -0.04921   0.00000
  47        2S         -0.00000  -0.02231   0.00000   0.04574  -0.00000
  48        2PX        -0.21549   0.00001   0.24658  -0.00000  -0.05436
  49        2PY        -0.00001  -0.11533   0.00001  -0.03144  -0.00000
  50        2PZ         0.00003   0.00001  -0.00003   0.00000  -0.00000
  51        3S         -0.00000  -0.08403   0.00000   0.19175  -0.00000
  52        3PX        -0.16304   0.00000   0.20668  -0.00000  -0.04956
  53        3PY        -0.00001  -0.08656   0.00001  -0.02448  -0.00000
  54        3PZ         0.00002   0.00000  -0.00002   0.00000  -0.00000
  55 7   H  1S         -0.00000  -0.13750  -0.00000  -0.05144   0.00000
  56        2S         -0.00000  -0.07881  -0.00000  -0.02058   0.00000
  57 8   H  1S         -0.08284  -0.11592  -0.03069  -0.12778   0.13424
  58        2S         -0.04262  -0.05779  -0.01354  -0.07267   0.09399
  59 9   H  1S          0.08951  -0.08560   0.01587   0.17166   0.13246
  60        2S          0.04261  -0.05114   0.00815   0.10349   0.09819
  61 10  H  1S         -0.08951  -0.08560  -0.01586   0.17165  -0.13246
  62        2S         -0.04261  -0.05114  -0.00814   0.10348  -0.09820
  63 11  H  1S          0.08285  -0.11592   0.03068  -0.12779  -0.13423
  64        2S          0.04262  -0.05779   0.01354  -0.07267  -0.09399
                          16        17        18        19        20
                           O         O         O         O         O
     Eigenvalues --    -0.57708  -0.54836  -0.52084  -0.40036  -0.38423
   1 1   C  1S          0.02945   0.00000  -0.00250   0.02223   0.00000
   2        2S         -0.03591  -0.00000   0.00248  -0.02539  -0.00000
   3        2PX         0.07561   0.00003   0.18613   0.04763   0.00002
   4        2PY         0.12855   0.00002   0.02018  -0.16661  -0.00000
   5        2PZ        -0.00003   0.19254  -0.00002   0.00001   0.09828
   6        3S         -0.06980  -0.00000   0.00948  -0.10447  -0.00000
   7        3PX         0.05452   0.00002   0.19390  -0.02088   0.00002
   8        3PY         0.12676   0.00002   0.07427   0.01171   0.00001
   9        3PZ        -0.00002   0.19008  -0.00003   0.00001   0.13477
  10 2   C  1S         -0.02548   0.00000   0.00034  -0.02268  -0.00000
  11        2S          0.02697  -0.00000  -0.00011   0.01917   0.00000
  12        2PX        -0.07565   0.00003  -0.21519  -0.00642  -0.00002
  13        2PY        -0.13719  -0.00000  -0.04060   0.16157  -0.00000
  14        2PZ         0.00001   0.15890   0.00003   0.00001  -0.16245
  15        3S          0.08032   0.00000   0.00429   0.19763   0.00001
  16        3PX         0.00001   0.00003  -0.22348  -0.01041  -0.00003
  17        3PY        -0.08753   0.00000   0.02229   0.20156  -0.00000
  18        3PZ        -0.00000   0.14687   0.00003   0.00001  -0.19635
  19 3   C  1S         -0.00523   0.00000  -0.00000   0.00447  -0.00000
  20        2S          0.00737  -0.00000   0.00000  -0.00346   0.00000
  21        2PX        -0.00002   0.00001   0.25052   0.00000  -0.00004
  22        2PY         0.31966   0.00003   0.00002  -0.05939  -0.00002
  23        2PZ        -0.00003   0.14848  -0.00003   0.00002  -0.27760
  24        3S          0.02019  -0.00001   0.00000  -0.00846   0.00001
  25        3PX        -0.00002   0.00001   0.16685   0.00001  -0.00004
  26        3PY         0.31758   0.00002   0.00001  -0.13864  -0.00003
  27        3PZ        -0.00003   0.14149  -0.00002   0.00003  -0.31472
  28 4   C  1S         -0.02548  -0.00000  -0.00034  -0.02268  -0.00000
  29        2S          0.02697   0.00000   0.00011   0.01917   0.00000
  30        2PX         0.07567   0.00005  -0.21519   0.00640  -0.00003
  31        2PY        -0.13717   0.00001   0.04058   0.16157  -0.00000
  32        2PZ        -0.00001   0.15890   0.00004  -0.00001  -0.16245
  33        3S          0.08032   0.00001  -0.00429   0.19763   0.00001
  34        3PX         0.00001   0.00004  -0.22347   0.01039  -0.00003
  35        3PY        -0.08752   0.00001  -0.02232   0.20156  -0.00001
  36        3PZ         0.00000   0.14687   0.00005  -0.00002  -0.19634
  37 5   C  1S          0.02945   0.00000   0.00250   0.02223   0.00000
  38        2S         -0.03591  -0.00000  -0.00248  -0.02539  -0.00000
  39        2PX        -0.07562   0.00003   0.18613  -0.04762   0.00002
  40        2PY         0.12854   0.00001  -0.02015  -0.16661  -0.00000
  41        2PZ        -0.00000   0.19254  -0.00002   0.00001   0.09828
  42        3S         -0.06980  -0.00001  -0.00948  -0.10446  -0.00001
  43        3PX        -0.05453   0.00002   0.19391   0.02088   0.00002
  44        3PY         0.12675   0.00002  -0.07424   0.01171   0.00001
  45        3PZ        -0.00001   0.19007  -0.00002  -0.00002   0.13477
  46 6   N  1S         -0.03754  -0.00000  -0.00000  -0.07414  -0.00000
  47        2S          0.03917   0.00000   0.00000   0.07273   0.00000
  48        2PX        -0.00001   0.00003  -0.18301  -0.00002   0.00003
  49        2PY         0.18342   0.00002  -0.00001   0.40512   0.00003
  50        2PZ        -0.00002   0.22922   0.00003  -0.00004   0.26280
  51        3S          0.13797  -0.00000   0.00000   0.28423   0.00001
  52        3PX        -0.00001   0.00003  -0.16896  -0.00003   0.00004
  53        3PY         0.16968   0.00002  -0.00001   0.49322   0.00004
  54        3PZ        -0.00002   0.23654   0.00003  -0.00005   0.31807
  55 7   H  1S         -0.22420  -0.00001  -0.00000   0.05510   0.00000
  56        2S         -0.16074  -0.00001  -0.00000   0.03471   0.00000
  57 8   H  1S          0.05632   0.00000   0.13390  -0.09098  -0.00000
  58        2S          0.03892   0.00001   0.09088  -0.11132  -0.00001
  59 9   H  1S          0.02763   0.00001  -0.13527  -0.05131  -0.00000
  60        2S          0.00572   0.00001  -0.09914  -0.06292  -0.00000
  61 10  H  1S          0.02763  -0.00001   0.13527  -0.05131  -0.00000
  62        2S          0.00572  -0.00001   0.09914  -0.06293   0.00000
  63 11  H  1S          0.05632   0.00000  -0.13390  -0.09098  -0.00001
  64        2S          0.03892  -0.00000  -0.09088  -0.11132  -0.00001
                          21        22        23        24        25
                           O         V         V         V         V
     Eigenvalues --    -0.35599   0.12996   0.13918   0.26212   0.31580
   1 1   C  1S          0.00000   0.00000  -0.00000   0.03911   0.02734
   2        2S         -0.00000   0.00000   0.00000  -0.02556  -0.00089
   3        2PX        -0.00003  -0.00002   0.00003  -0.05777  -0.14446
   4        2PY        -0.00002  -0.00001   0.00002  -0.02526  -0.07308
   5        2PZ        -0.23667  -0.14792   0.24735   0.00001   0.00002
   6        3S         -0.00001  -0.00000   0.00001  -0.43502  -0.58857
   7        3PX        -0.00004  -0.00004   0.00007  -0.23449  -0.46120
   8        3PY        -0.00002  -0.00002   0.00005  -0.10347  -0.31120
   9        3PZ        -0.27115  -0.25138   0.52436   0.00004   0.00009
  10 2   C  1S         -0.00000  -0.00000   0.00000   0.04447   0.04031
  11        2S          0.00000   0.00000  -0.00000  -0.01761  -0.00431
  12        2PX        -0.00002  -0.00002  -0.00002  -0.09599  -0.15452
  13        2PY        -0.00000  -0.00001  -0.00001   0.07539   0.06396
  14        2PZ        -0.23655  -0.12945  -0.23058   0.00001   0.00002
  15        3S          0.00000  -0.00000  -0.00001  -0.61740  -0.77916
  16        3PX        -0.00003  -0.00002  -0.00005  -0.35172  -0.54371
  17        3PY        -0.00001  -0.00002  -0.00001   0.22647   0.30868
  18        3PZ        -0.28920  -0.31366  -0.51967   0.00003   0.00005
  19 3   C  1S          0.00000   0.00000   0.00000   0.05498   0.00000
  20        2S         -0.00000  -0.00000  -0.00000  -0.02286   0.00000
  21        2PX        -0.00001   0.00004   0.00000  -0.00001  -0.02615
  22        2PY        -0.00000   0.00002   0.00000   0.14374  -0.00000
  23        2PZ         0.00000   0.28426  -0.00001  -0.00002  -0.00000
  24        3S          0.00000  -0.00002  -0.00000  -0.75589  -0.00001
  25        3PX        -0.00000   0.00009   0.00002  -0.00003   0.06872
  26        3PY        -0.00000   0.00006  -0.00000   0.52136   0.00000
  27        3PZ         0.00000   0.63935  -0.00001  -0.00006  -0.00003
  28 4   C  1S         -0.00000  -0.00000  -0.00000   0.04447  -0.04031
  29        2S          0.00000   0.00000  -0.00000  -0.01761   0.00431
  30        2PX         0.00005  -0.00002   0.00004   0.09598  -0.15451
  31        2PY         0.00002  -0.00001   0.00001   0.07541  -0.06398
  32        2PZ         0.23655  -0.12944   0.23059  -0.00002   0.00004
  33        3S          0.00001  -0.00001   0.00001  -0.61739   0.77916
  34        3PX         0.00005  -0.00005   0.00010   0.35169  -0.54367
  35        3PY         0.00003  -0.00003   0.00003   0.22651  -0.30874
  36        3PZ         0.28920  -0.31364   0.51968  -0.00008   0.00013
  37 5   C  1S          0.00000  -0.00000  -0.00000   0.03911  -0.02734
  38        2S         -0.00000   0.00000   0.00000  -0.02556   0.00089
  39        2PX         0.00003  -0.00002  -0.00004   0.05777  -0.14447
  40        2PY         0.00001  -0.00001  -0.00001  -0.02525   0.07307
  41        2PZ         0.23667  -0.14793  -0.24735  -0.00001   0.00001
  42        3S         -0.00001   0.00002   0.00002  -0.43503   0.58860
  43        3PX         0.00004  -0.00005  -0.00008   0.23450  -0.46126
  44        3PY         0.00002  -0.00002  -0.00003  -0.10344   0.31116
  45        3PZ         0.27115  -0.25140  -0.52435  -0.00003   0.00005
  46 6   N  1S         -0.00000   0.00000   0.00000   0.00914   0.00000
  47        2S          0.00000  -0.00000  -0.00000  -0.00713  -0.00000
  48        2PX         0.00000   0.00003   0.00000  -0.00000  -0.03435
  49        2PY         0.00001   0.00002   0.00000   0.05283  -0.00000
  50        2PZ        -0.00000   0.26868  -0.00001  -0.00000   0.00001
  51        3S          0.00001  -0.00000  -0.00001  -0.07849  -0.00000
  52        3PX         0.00000   0.00006   0.00000  -0.00001  -0.00314
  53        3PY         0.00002   0.00003   0.00000   0.14047  -0.00000
  54        3PZ        -0.00000   0.49605  -0.00001  -0.00001   0.00000
  55 7   H  1S          0.00000   0.00001   0.00000   0.05145  -0.00000
  56        2S          0.00000   0.00002   0.00000   1.10375   0.00000
  57 8   H  1S         -0.00000   0.00000  -0.00000   0.02590   0.01982
  58        2S         -0.00001   0.00001  -0.00002   0.57139   0.97694
  59 9   H  1S          0.00000  -0.00000   0.00000   0.04096   0.01708
  60        2S          0.00000  -0.00001   0.00001   0.90126   1.12925
  61 10  H  1S         -0.00000  -0.00000   0.00000   0.04096  -0.01708
  62        2S         -0.00001  -0.00001   0.00001   0.90125  -1.12924
  63 11  H  1S         -0.00000  -0.00000  -0.00000   0.02590  -0.01982
  64        2S         -0.00000  -0.00002  -0.00001   0.57139  -0.97698
                          26        27        28        29        30
                           V         V         V         V         V
     Eigenvalues --     0.33832   0.36208   0.36267   0.36536   0.44649
   1 1   C  1S          0.07929   0.03605   0.00024   0.07670   0.04769
   2        2S         -0.03630  -0.03582  -0.00021  -0.03950  -0.00954
   3        2PX        -0.07455  -0.04064  -0.00032  -0.10532   0.11422
   4        2PY        -0.12221  -0.00433  -0.00004  -0.01255   0.03967
   5        2PZ         0.00002   0.00112  -0.21204   0.00017  -0.00002
   6        3S         -1.08815  -0.08638  -0.00120  -1.06333  -0.59125
   7        3PX        -0.49687  -0.49566  -0.00320  -0.73317   0.75682
   8        3PY        -0.45292  -0.22766  -0.00124  -0.02866  -0.29718
   9        3PZ         0.00011   0.00313  -0.58034   0.00052  -0.00008
  10 2   C  1S          0.00362  -0.07562  -0.00045  -0.08206   0.02855
  11        2S          0.00546   0.06117   0.00034   0.03204   0.02065
  12        2PX         0.03143   0.05119   0.00035   0.07184   0.04260
  13        2PY         0.02179  -0.06513  -0.00034  -0.01466   0.02529
  14        2PZ        -0.00001  -0.00113   0.21399  -0.00016  -0.00000
  15        3S         -0.12228   0.63105   0.00424   1.27209  -0.91491
  16        3PX         0.33155   0.78968   0.00463   0.56231   0.79084
  17        3PY         0.21488  -0.63720  -0.00335  -0.06675   0.29613
  18        3PZ        -0.00007  -0.00331   0.62353  -0.00051  -0.00009
  19 3   C  1S         -0.06436   0.09821   0.00051   0.00001  -0.08057
  20        2S          0.00566  -0.07258  -0.00038  -0.00001   0.02287
  21        2PX         0.00001   0.00000  -0.00008  -0.07062  -0.00001
  22        2PY        -0.14286   0.07652   0.00039   0.00000   0.21471
  23        2PZ         0.00002   0.00104  -0.20129   0.00015  -0.00002
  24        3S          1.33331  -0.89864  -0.00473  -0.00008   1.52674
  25        3PX         0.00003  -0.00003  -0.00035  -0.40016  -0.00008
  26        3PY        -0.50482   1.06819   0.00554   0.00007   1.42111
  27        3PZ         0.00007   0.00312  -0.61716   0.00049  -0.00009
  28 4   C  1S          0.00362  -0.07564  -0.00034   0.08205   0.02855
  29        2S          0.00546   0.06118   0.00029  -0.03203   0.02065
  30        2PX        -0.03144  -0.05119  -0.00018   0.07183  -0.04260
  31        2PY         0.02178  -0.06514  -0.00031   0.01465   0.02528
  32        2PZ         0.00001  -0.00111   0.21399  -0.00016   0.00001
  33        3S         -0.12227   0.63129   0.00247  -1.27199  -0.91490
  34        3PX        -0.33158  -0.78970  -0.00362   0.56217  -0.79089
  35        3PY         0.21483  -0.63730  -0.00323   0.06672   0.29602
  36        3PZ         0.00004  -0.00307   0.62353  -0.00054   0.00013
  37 5   C  1S          0.07929   0.03607   0.00013  -0.07669   0.04769
  38        2S         -0.03630  -0.03583  -0.00016   0.03949  -0.00954
  39        2PX         0.07456   0.04065   0.00011  -0.10531  -0.11423
  40        2PY        -0.12220  -0.00432  -0.00002   0.01254   0.03965
  41        2PZ        -0.00001   0.00111  -0.21204   0.00017   0.00001
  42        3S         -1.08813  -0.08656   0.00029   1.06331  -0.59125
  43        3PX         0.49690   0.49582   0.00202  -0.73310  -0.75677
  44        3PY        -0.45285  -0.22760  -0.00118   0.02853  -0.29729
  45        3PZ        -0.00008   0.00298  -0.58034   0.00054   0.00011
  46 6   N  1S         -0.04660   0.00298   0.00002  -0.00000  -0.12688
  47        2S          0.03073   0.03059   0.00016   0.00000   0.03254
  48        2PX         0.00000  -0.00000   0.00008   0.05829   0.00001
  49        2PY        -0.04179  -0.03330  -0.00016   0.00000  -0.13725
  50        2PZ         0.00001  -0.00128   0.24396  -0.00018   0.00001
  51        3S          0.36208  -0.30514  -0.00165  -0.00002   1.67644
  52        3PX        -0.00000  -0.00001   0.00011   0.04591   0.00003
  53        3PY         0.02816   0.13308   0.00074   0.00001  -0.60118
  54        3PZ         0.00001  -0.00282   0.53536  -0.00040   0.00006
  55 7   H  1S          0.01195   0.00890   0.00004   0.00000   0.00332
  56        2S         -1.13597   1.46281   0.00768   0.00013   0.91242
  57 8   H  1S          0.01118   0.02366   0.00013   0.00300   0.00212
  58        2S          1.26255   0.62667   0.00410   1.16572  -0.27513
  59 9   H  1S         -0.01042  -0.01512  -0.00007   0.01521  -0.02815
  60        2S         -0.15328  -1.30939  -0.00764  -1.05026  -0.21216
  61 10  H  1S         -0.01042  -0.01512  -0.00008  -0.01521  -0.02815
  62        2S         -0.15331  -1.30958  -0.00611   1.05005  -0.21218
  63 11  H  1S          0.01118   0.02366   0.00012  -0.00300   0.00212
  64        2S          1.26252   0.62686   0.00247  -1.16562  -0.27511
                          31        32        33        34        35
                           V         V         V         V         V
     Eigenvalues --     0.49596   0.53319   0.54527   0.73763   0.75135
   1 1   C  1S         -0.02308   0.02446   0.10277  -0.00562  -0.08362
   2        2S          0.01288  -0.00057  -0.02090  -0.04130  -0.11232
   3        2PX        -0.06807  -0.09481   0.11651   0.01042   0.03262
   4        2PY        -0.12382   0.20885   0.06414  -0.07208  -0.10463
   5        2PZ         0.00002   0.00000  -0.00002   0.00000   0.00002
   6        3S          0.25596  -0.90870  -2.10045  -0.11354   2.15470
   7        3PX        -0.23440  -0.67775   0.84402  -1.40315  -1.20457
   8        3PY        -1.29058   1.34612   0.63899   1.99161  -1.25706
   9        3PZ         0.00011   0.00001  -0.00013   0.00004   0.00020
  10 2   C  1S          0.09132  -0.02002  -0.02601   0.02184   0.13628
  11        2S         -0.00512  -0.01369   0.01942  -0.01880  -0.06873
  12        2PX         0.14795   0.11871  -0.06502   0.14115   0.13640
  13        2PY        -0.00296   0.11607   0.11882   0.21835  -0.19144
  14        2PZ        -0.00002  -0.00002   0.00000  -0.00002  -0.00000
  15        3S         -2.18927   0.70121   0.18024  -0.26502  -2.95399
  16        3PX         1.11056   0.87969   0.02436   1.23919   2.08283
  17        3PY        -0.30365   1.40528   1.65143   1.81559  -1.08325
  18        3PZ        -0.00011  -0.00019  -0.00008  -0.00022  -0.00018
  19 3   C  1S         -0.00000  -0.06938   0.00000  -0.00000  -0.11284
  20        2S         -0.00000  -0.01074   0.00000  -0.00000  -0.02783
  21        2PX         0.13396   0.00000   0.20892   0.05769  -0.00000
  22        2PY         0.00001   0.01014   0.00001   0.00000   0.08465
  23        2PZ        -0.00002   0.00000  -0.00003  -0.00001  -0.00001
  24        3S          0.00005   2.00344  -0.00006   0.00003   3.05785
  25        3PX         1.80611  -0.00005   1.10428   2.66027  -0.00017
  26        3PY         0.00011   0.49116   0.00004   0.00018   2.40611
  27        3PZ        -0.00023   0.00002  -0.00015  -0.00037  -0.00010
  28 4   C  1S         -0.09132  -0.02001   0.02601  -0.02184   0.13628
  29        2S          0.00512  -0.01369  -0.01942   0.01880  -0.06873
  30        2PX         0.14794  -0.11874  -0.06499   0.14118  -0.13638
  31        2PY         0.00299   0.11605  -0.11883  -0.21834  -0.19145
  32        2PZ        -0.00003   0.00001   0.00002  -0.00001   0.00004
  33        3S          2.18929   0.70111  -0.18026   0.26496  -2.95398
  34        3PX         1.11048  -0.87992   0.02462   1.23937  -2.08272
  35        3PY         0.30384   1.40510  -1.65149  -1.81546  -1.08347
  36        3PZ        -0.00024   0.00002   0.00010  -0.00008   0.00041
  37 5   C  1S          0.02308   0.02445  -0.10277   0.00562  -0.08362
  38        2S         -0.01288  -0.00056   0.02090   0.04130  -0.11232
  39        2PX        -0.06808   0.09479   0.11651   0.01041  -0.03261
  40        2PY         0.12382   0.20885  -0.06414   0.07208  -0.10464
  41        2PZ         0.00001  -0.00002  -0.00001  -0.00001   0.00002
  42        3S         -0.25599  -0.90860   2.10048   0.11359   2.15470
  43        3PX        -0.23455   0.67763   0.84407  -1.40287   1.20478
  44        3PY         1.29060   1.34613  -0.63894  -1.99180  -1.25686
  45        3PZ        -0.00003  -0.00018  -0.00006   0.00034  -0.00008
  46 6   N  1S          0.00000   0.09074  -0.00000   0.00000   0.08266
  47        2S         -0.00000  -0.00946   0.00000  -0.00000  -0.03549
  48        2PX         0.10388   0.00001   0.24126  -0.24020  -0.00000
  49        2PY         0.00001  -0.03822   0.00001  -0.00001   0.13688
  50        2PZ        -0.00002  -0.00000  -0.00003   0.00003  -0.00001
  51        3S         -0.00001  -1.42509   0.00003  -0.00003  -1.48171
  52        3PX         0.51785   0.00001   0.96177  -1.53269  -0.00003
  53        3PY         0.00003   0.06764   0.00005  -0.00007   0.89500
  54        3PZ        -0.00007  -0.00002  -0.00012   0.00018  -0.00006
  55 7   H  1S          0.00000   0.14482  -0.00000   0.00000  -0.08571
  56        2S         -0.00001  -0.03878  -0.00000   0.00000   0.89016
  57 8   H  1S         -0.06047  -0.03924  -0.06894  -0.07977  -0.09779
  58        2S          0.70779  -0.02384  -0.28296  -0.00543   0.56716
  59 9   H  1S         -0.07287   0.09422  -0.08839  -0.00262   0.12991
  60        2S         -0.47507  -0.24871   0.54091  -0.06851  -0.96845
  61 10  H  1S          0.07288   0.09422   0.08839   0.00263   0.12991
  62        2S          0.47506  -0.24875  -0.54088   0.06849  -0.96844
  63 11  H  1S          0.06047  -0.03924   0.06894   0.07977  -0.09779
  64        2S         -0.70780  -0.02380   0.28297   0.00544   0.56717
                          36        37        38        39        40
                           V         V         V         V         V
     Eigenvalues --     0.91403   0.93864   0.94287   0.99995   1.03369
   1 1   C  1S         -0.04979   0.00001  -0.04239   0.02689  -0.00000
   2        2S          0.00294  -0.00003   0.09433   0.09220   0.00002
   3        2PX        -0.26726   0.00019  -0.39765   0.15146  -0.00001
   4        2PY         0.20798   0.00005  -0.06110  -0.32096  -0.00021
   5        2PZ         0.00002   0.53591   0.00022   0.00002  -0.56410
   6        3S          0.07507  -0.00008   0.24634  -0.04335   0.00001
   7        3PX        -0.29743  -0.00009   0.15134  -0.13011   0.00008
   8        3PY         0.21690  -0.00011   0.27816   0.51201   0.00008
   9        3PZ         0.00001  -0.44452  -0.00018  -0.00003   0.49717
  10 2   C  1S          0.03591  -0.00000   0.00568   0.03409   0.00002
  11        2S         -0.03215   0.00000  -0.00083   0.01077   0.00003
  12        2PX        -0.09391   0.00011  -0.18816   0.30447  -0.00004
  13        2PY        -0.40848   0.00000   0.07400   0.48608  -0.00005
  14        2PZ         0.00004   0.43588   0.00016  -0.00009  -0.53207
  15        3S         -0.14750   0.00001   0.02831   0.13507   0.00005
  16        3PX         0.63093  -0.00021   0.52739  -0.15260  -0.00006
  17        3PY         0.96470  -0.00000  -0.05400  -0.36680  -0.00010
  18        3PZ        -0.00012  -0.23180  -0.00013   0.00005   0.42760
  19 3   C  1S          0.00000   0.00001  -0.02518  -0.08813   0.00000
  20        2S         -0.00000  -0.00002   0.04070   0.02948  -0.00000
  21        2PX         0.58198   0.00006  -0.00001  -0.00002   0.00017
  22        2PY         0.00003  -0.00006   0.26881   0.26027  -0.00001
  23        2PZ        -0.00009   0.44557   0.00013  -0.00003  -0.00002
  24        3S         -0.00001  -0.00021   0.57869   0.05739  -0.00001
  25        3PX         0.18981  -0.00005   0.00003   0.00002  -0.00032
  26        3PY         0.00000   0.00000  -0.09892  -0.09097   0.00002
  27        3PZ        -0.00002  -0.30153  -0.00008   0.00004   0.00002
  28 4   C  1S         -0.03591  -0.00000   0.00568   0.03409  -0.00002
  29        2S          0.03214   0.00001  -0.00082   0.01077  -0.00004
  30        2PX        -0.09395   0.00002   0.18815  -0.30452   0.00010
  31        2PY         0.40846   0.00001   0.07403   0.48604   0.00003
  32        2PZ        -0.00001   0.43588   0.00011   0.00001   0.53205
  33        3S          0.14751   0.00000   0.02833   0.13508  -0.00008
  34        3PX         0.63106   0.00013  -0.52735   0.15266  -0.00015
  35        3PY        -0.96461   0.00001  -0.05410  -0.36680   0.00010
  36        3PZ        -0.00004  -0.23180   0.00001   0.00001  -0.42758
  37 5   C  1S          0.04979   0.00001  -0.04239   0.02689   0.00000
  38        2S         -0.00295  -0.00003   0.09433   0.09220  -0.00004
  39        2PX        -0.26725  -0.00004   0.39764  -0.15142   0.00017
  40        2PY        -0.20800   0.00006  -0.06106  -0.32098   0.00021
  41        2PZ         0.00006   0.53591   0.00012   0.00008   0.56414
  42        3S         -0.07507  -0.00009   0.24633  -0.04335   0.00000
  43        3PX        -0.29740  -0.00002  -0.15139   0.13004  -0.00008
  44        3PY        -0.21694  -0.00012   0.27814   0.51201  -0.00010
  45        3PZ         0.00005  -0.44452  -0.00013  -0.00009  -0.49721
  46 6   N  1S         -0.00000  -0.00002   0.05802  -0.02482   0.00000
  47        2S          0.00000   0.00002  -0.05313   0.06220  -0.00000
  48        2PX        -0.22073   0.00001  -0.00000   0.00001   0.00005
  49        2PY        -0.00001   0.00002  -0.06437  -0.20168   0.00001
  50        2PZ         0.00003   0.06514   0.00002   0.00001   0.00000
  51        3S          0.00000   0.00012  -0.36263  -0.23292   0.00002
  52        3PX        -0.62174   0.00002  -0.00002  -0.00000   0.00009
  53        3PY        -0.00004  -0.00003   0.10991  -0.10678  -0.00000
  54        3PZ         0.00008   0.11258   0.00002   0.00002   0.00001
  55 7   H  1S          0.00000   0.00013  -0.37195  -0.42769   0.00001
  56        2S         -0.00000  -0.00005   0.16342   0.17185   0.00001
  57 8   H  1S         -0.12727   0.00013  -0.41548   0.13759  -0.00000
  58        2S          0.05949  -0.00005   0.13753  -0.11069   0.00001
  59 9   H  1S          0.12613   0.00010  -0.31490   0.10452   0.00011
  60        2S         -0.11432   0.00003  -0.05553  -0.08592  -0.00004
  61 10  H  1S         -0.12613   0.00010  -0.31490   0.10452  -0.00010
  62        2S          0.11432   0.00002  -0.05552  -0.08591   0.00004
  63 11  H  1S          0.12728   0.00014  -0.41547   0.13760   0.00000
  64        2S         -0.05949  -0.00004   0.13752  -0.11069   0.00000
                          41        42        43        44        45
                           V         V         V         V         V
     Eigenvalues --     1.03818   1.03909   1.09051   1.09147   1.11535
   1 1   C  1S          0.00739   0.00001  -0.01355  -0.00001  -0.03229
   2        2S         -0.08214  -0.00006   0.11924   0.00006  -0.21592
   3        2PX        -0.25039  -0.00022   0.11645   0.00010   0.17074
   4        2PY         0.57438   0.00031  -0.49141  -0.00017  -0.28642
   5        2PZ         0.00013  -0.50711  -0.00023   0.53984  -0.00005
   6        3S         -0.01906  -0.00004  -0.31654  -0.00013   0.25265
   7        3PX        -0.01680   0.00006  -0.08673  -0.00013   0.01581
   8        3PY        -0.19722  -0.00003   0.78005   0.00031   0.46230
   9        3PZ        -0.00019   0.59315   0.00032  -0.74326   0.00005
  10 2   C  1S         -0.05997  -0.00004   0.01474   0.00000  -0.00772
  11        2S         -0.10078  -0.00007   0.27247   0.00012  -0.14893
  12        2PX        -0.03975   0.00002  -0.32190  -0.00022  -0.17305
  13        2PY         0.03578   0.00003  -0.22292  -0.00013  -0.38967
  14        2PZ        -0.00029   0.23969   0.00036  -0.57684   0.00013
  15        3S         -0.22017  -0.00008   0.27886   0.00011   0.40885
  16        3PX         0.27772   0.00011   0.19790   0.00021   0.11813
  17        3PY         0.42510   0.00030   0.46805   0.00026   0.13739
  18        3PZ         0.00021  -0.23266  -0.00047   0.76059  -0.00017
  19 3   C  1S          0.00000  -0.00000   0.02633   0.00001   0.00000
  20        2S         -0.00000   0.00000   0.36406   0.00017   0.00001
  21        2PX        -0.55920  -0.00026  -0.00001  -0.00003  -0.40817
  22        2PY        -0.00004   0.00010   0.26297   0.00012  -0.00002
  23        2PZ        -0.00042   0.76055  -0.00011  -0.00000  -0.00005
  24        3S         -0.00001  -0.00002  -0.07442  -0.00002  -0.00002
  25        3PX         1.06742   0.00060   0.00002   0.00005   0.01080
  26        3PY         0.00005  -0.00013  -0.28011  -0.00011  -0.00001
  27        3PZ         0.00028  -0.66610   0.00014   0.00000   0.00017
  28 4   C  1S          0.05997   0.00004   0.01474   0.00001   0.00773
  29        2S          0.10078   0.00007   0.27246   0.00014   0.14895
  30        2PX        -0.03975   0.00000   0.32194   0.00025  -0.17309
  31        2PY        -0.03578  -0.00000  -0.22289  -0.00004   0.38963
  32        2PZ        -0.00001   0.23972  -0.00025   0.57684   0.00007
  33        3S          0.22019   0.00018   0.27888   0.00010  -0.40886
  34        3PX         0.27779   0.00016  -0.19796  -0.00022   0.11816
  35        3PY        -0.42505  -0.00027   0.46803   0.00012  -0.13736
  36        3PZ         0.00003  -0.23269   0.00026  -0.76059  -0.00012
  37 5   C  1S         -0.00738  -0.00000  -0.01355  -0.00001   0.03228
  38        2S          0.08213   0.00006   0.11923   0.00008   0.21595
  39        2PX        -0.25033  -0.00027  -0.11640  -0.00014   0.17073
  40        2PY        -0.57441  -0.00043  -0.49144  -0.00026   0.28642
  41        2PZ         0.00060  -0.50707   0.00029  -0.53984  -0.00005
  42        3S          0.01905  -0.00001  -0.31653  -0.00014  -0.25267
  43        3PX        -0.01682   0.00012   0.08663   0.00017   0.01583
  44        3PY         0.19722   0.00020   0.78009   0.00037  -0.46228
  45        3PZ        -0.00057   0.59312  -0.00037   0.74325   0.00005
  46 6   N  1S         -0.00000  -0.00000  -0.01551  -0.00001   0.00000
  47        2S          0.00000   0.00000   0.02732   0.00001  -0.00000
  48        2PX        -0.17020  -0.00012   0.00001  -0.00001  -0.08478
  49        2PY        -0.00001  -0.00002  -0.20814  -0.00009   0.00000
  50        2PZ         0.00005  -0.05237   0.00001   0.00000   0.00001
  51        3S         -0.00000  -0.00002  -0.26809  -0.00014   0.00001
  52        3PX        -0.30891  -0.00023   0.00001  -0.00002   0.01957
  53        3PY        -0.00002  -0.00002  -0.12187  -0.00005  -0.00001
  54        3PZ         0.00015  -0.17070   0.00000   0.00000  -0.00002
  55 7   H  1S          0.00000  -0.00001   0.44045   0.00020   0.00001
  56        2S         -0.00001  -0.00002  -0.29970  -0.00013  -0.00001
  57 8   H  1S          0.02531   0.00001  -0.05553  -0.00003  -0.55660
  58        2S         -0.01173  -0.00001  -0.11983  -0.00006   0.13989
  59 9   H  1S         -0.35971  -0.00022   0.29998   0.00011  -0.29397
  60        2S          0.14055   0.00010  -0.12860  -0.00005   0.10187
  61 10  H  1S          0.35971   0.00025   0.29996   0.00017   0.29400
  62        2S         -0.14053  -0.00009  -0.12859  -0.00008  -0.10188
  63 11  H  1S         -0.02531  -0.00001  -0.05555   0.00000   0.55661
  64        2S          0.01172   0.00001  -0.11983  -0.00006  -0.13991
                          46        47        48        49        50
                           V         V         V         V         V
     Eigenvalues --     1.12545   1.13623   1.28455   1.29402   1.36257
   1 1   C  1S          0.00000  -0.03196   0.00586   0.02852   0.01921
   2        2S          0.00006   0.40124   0.01310  -0.06058  -0.13947
   3        2PX        -0.00012  -0.55566   0.03815  -0.45421  -0.24480
   4        2PY         0.00008   0.06294   0.10754  -0.37771  -0.44275
   5        2PZ        -0.20061   0.00008  -0.00003   0.00009   0.00007
   6        3S          0.00003  -0.17266   0.86941  -0.37750  -0.45316
   7        3PX         0.00015   0.85186  -0.62392   1.26543   0.60716
   8        3PY        -0.00018  -0.36866  -0.60430   1.07288   1.21801
   9        3PZ         0.46419  -0.00012   0.00013  -0.00023  -0.00016
  10 2   C  1S          0.00000   0.01360   0.01829  -0.02351  -0.01251
  11        2S          0.00002   0.16293   0.03985   0.03914   0.01173
  12        2PX         0.00013   0.12312  -0.57167   0.43146   0.11207
  13        2PY         0.00015   0.10307   0.32969  -0.27702  -0.36756
  14        2PZ         0.59896  -0.00007   0.00004  -0.00003   0.00001
  15        3S         -0.00020  -0.26239  -1.28383   0.53214   0.43345
  16        3PX        -0.00017  -0.66302   1.95979  -1.19148  -0.17155
  17        3PY        -0.00023  -0.27761  -1.01446   0.81394   1.01023
  18        3PZ        -1.00821   0.00018  -0.00014   0.00009  -0.00004
  19 3   C  1S         -0.00001  -0.02177  -0.02636  -0.00000  -0.02837
  20        2S          0.00000   0.22226   0.08733   0.00000   0.10107
  21        2PX        -0.00004   0.00000   0.00004  -0.00533   0.00004
  22        2PY        -0.00009   0.10519  -0.70230   0.00001  -0.57630
  23        2PZ        -0.66734   0.00007   0.00009  -0.00001   0.00005
  24        3S         -0.00003  -0.85457   1.43849  -0.00002  -0.00849
  25        3PX         0.00015   0.00002  -0.00015  -0.11968  -0.00006
  26        3PY         0.00022  -0.11683   2.56624  -0.00003   0.82224
  27        3PZ         1.16324  -0.00014  -0.00023   0.00002  -0.00006
  28 4   C  1S         -0.00000   0.01360   0.01829   0.02350  -0.01251
  29        2S         -0.00002   0.16292   0.03986  -0.03914   0.01173
  30        2PX         0.00009  -0.12313   0.57164   0.43141  -0.11203
  31        2PY         0.00005   0.10304   0.32977   0.27705  -0.36758
  32        2PZ         0.59896  -0.00007  -0.00013  -0.00010   0.00005
  33        3S         -0.00008  -0.26236  -1.28385  -0.53212   0.43344
  34        3PX        -0.00017   0.66306  -1.95969  -1.19132   0.17142
  35        3PY        -0.00018  -0.27753  -1.01472  -0.81405   1.01027
  36        3PZ        -1.00821   0.00004   0.00044   0.00027  -0.00011
  37 5   C  1S         -0.00001  -0.03196   0.00586  -0.02852   0.01921
  38        2S          0.00001   0.40124   0.01310   0.06058  -0.13947
  39        2PX         0.00001   0.55564  -0.03819  -0.45426   0.24486
  40        2PY         0.00000   0.06298   0.10755   0.37765  -0.44272
  41        2PZ        -0.20061  -0.00007  -0.00000   0.00005  -0.00002
  42        3S          0.00010  -0.17265   0.86941   0.37746  -0.45317
  43        3PX         0.00001  -0.85182   0.62403   1.26554  -0.60732
  44        3PY        -0.00003  -0.36874  -0.60426  -1.07270   1.21795
  45        3PZ         0.46419   0.00010  -0.00006  -0.00013   0.00004
  46 6   N  1S          0.00000   0.01025   0.00995  -0.00000  -0.00717
  47        2S         -0.00000  -0.01344   0.03990  -0.00000  -0.03604
  48        2PX         0.00000  -0.00002   0.00000   0.00849  -0.00001
  49        2PY         0.00005   0.39971  -0.05677   0.00000   0.08513
  50        2PZ        -0.11301  -0.00002   0.00001   0.00000  -0.00001
  51        3S          0.00009   0.90081  -0.53188   0.00001   0.14180
  52        3PX        -0.00001   0.00001  -0.00002   0.01077   0.00003
  53        3PY        -0.00001  -0.25339   0.31130  -0.00001  -0.45628
  54        3PZ        -0.09722   0.00003  -0.00003   0.00000   0.00003
  55 7   H  1S         -0.00002   0.16749  -0.35303   0.00000  -0.52290
  56        2S          0.00006  -0.03503   1.44597  -0.00001   1.03821
  57 8   H  1S          0.00012   0.24736   0.07145   0.34789   0.34787
  58        2S         -0.00004  -0.29522   0.23800  -1.15762  -0.93461
  59 9   H  1S          0.00004   0.36998   0.29303  -0.35998  -0.22121
  60        2S         -0.00003  -0.01851  -1.22024   1.01686   0.50447
  61 10  H  1S         -0.00003   0.36997   0.29304   0.35998  -0.22121
  62        2S         -0.00000  -0.01850  -1.22026  -1.01682   0.50448
  63 11  H  1S         -0.00004   0.24734   0.07144  -0.34790   0.34787
  64        2S          0.00000  -0.29522   0.23804   1.15762  -0.93462
                          51        52        53        54        55
                           V         V         V         V         V
     Eigenvalues --     1.38743   1.48749   1.50632   1.54794   1.62064
   1 1   C  1S          0.02647  -0.00269   0.01951   0.00000   0.00327
   2        2S         -0.15603   0.28909  -0.30463  -0.00004  -0.53553
   3        2PX        -0.29844   0.42207  -0.12563  -0.00001  -0.35908
   4        2PY        -0.25382   0.07708  -0.00801  -0.00001  -0.12839
   5        2PZ         0.00006  -0.00005   0.00001   0.07649   0.00006
   6        3S          0.04373  -1.64476   0.62128   0.00011   2.01537
   7        3PX         0.15805  -1.46867  -1.02009  -0.00008   1.08122
   8        3PY         0.85242   0.20685  -0.16286   0.00000  -0.42995
   9        3PZ        -0.00009   0.00013   0.00017  -0.49344  -0.00015
  10 2   C  1S          0.02287  -0.00388   0.01637   0.00000   0.01675
  11        2S         -0.13884   0.23847  -0.29890  -0.00008  -0.35975
  12        2PX        -0.57513   0.13786  -0.33946  -0.00008   0.14533
  13        2PY        -0.06192  -0.53151   0.04792   0.00003   0.21091
  14        2PZ         0.00006   0.00001   0.00004  -0.04676  -0.00004
  15        3S         -0.08698  -1.69837   0.02510   0.00040  -0.49479
  16        3PX         1.39020   0.53962   1.57159   0.00013  -0.40178
  17        3PY         0.81108   2.55327   0.02109  -0.00018  -1.45964
  18        3PZ        -0.00018  -0.00016  -0.00021   0.26419   0.00018
  19 3   C  1S         -0.00000  -0.00000   0.00474   0.00000   0.00876
  20        2S         -0.00000  -0.00000  -0.35070  -0.00007  -0.04088
  21        2PX        -0.45928  -0.45915  -0.00003   0.00009   0.00002
  22        2PY        -0.00002  -0.00003   0.56027   0.00005  -0.29657
  23        2PZ         0.00006   0.00007  -0.00005   0.06022   0.00004
  24        3S          0.00000  -0.00000   2.31975   0.00017  -1.33750
  25        3PX         1.76734   3.21768   0.00001  -0.00046  -0.00014
  26        3PY         0.00010   0.00021  -0.41304  -0.00023   1.58893
  27        3PZ        -0.00024  -0.00047   0.00009  -0.21364  -0.00019
  28 4   C  1S         -0.02287   0.00388   0.01637   0.00000   0.01675
  29        2S          0.13883  -0.23847  -0.29890   0.00001  -0.35974
  30        2PX        -0.57514   0.13780   0.33946  -0.00001  -0.14535
  31        2PY         0.06185   0.53153   0.04795  -0.00007   0.21089
  32        2PZ         0.00010  -0.00006  -0.00006  -0.04676  -0.00000
  33        3S          0.08699   1.69836   0.02509  -0.00012  -0.49482
  34        3PX         1.39030   0.53991  -1.57160   0.00010   0.40193
  35        3PY        -0.81092  -2.55323   0.02092   0.00048  -1.45954
  36        3PZ        -0.00019   0.00008   0.00025   0.26419   0.00008
  37 5   C  1S         -0.02647   0.00269   0.01951   0.00000   0.00327
  38        2S          0.15603  -0.28910  -0.30464  -0.00000  -0.53551
  39        2PX        -0.29846   0.42209   0.12563  -0.00001   0.35909
  40        2PY         0.25378  -0.07704  -0.00800   0.00002  -0.12835
  41        2PZ         0.00003  -0.00006  -0.00001   0.07649  -0.00005
  42        3S         -0.04372   1.64478   0.62126  -0.00030   2.01532
  43        3PX         0.15816  -1.46864   1.02010  -0.00003  -1.08112
  44        3PY        -0.85240  -0.20702  -0.16273   0.00005  -0.43007
  45        3PZ         0.00003   0.00022  -0.00014  -0.49344   0.00020
  46 6   N  1S          0.00000   0.00000   0.03764  -0.00000   0.00358
  47        2S         -0.00000   0.00000  -0.05911   0.00000  -0.02609
  48        2PX         0.07336   0.18560  -0.00000  -0.00015   0.00003
  49        2PY         0.00000   0.00001   0.01123  -0.00005  -0.46967
  50        2PZ        -0.00002  -0.00014   0.00006  -1.07790  -0.00000
  51        3S         -0.00001  -0.00000  -1.07280  -0.00002   0.42056
  52        3PX        -0.35628  -0.23965  -0.00003   0.00014  -0.00003
  53        3PY        -0.00002  -0.00001   0.46532   0.00006   0.46944
  54        3PZ         0.00005   0.00015  -0.00010   1.30784   0.00001
  55 7   H  1S          0.00000   0.00000   0.11558  -0.00005   0.69345
  56        2S         -0.00000   0.00001  -0.78800  -0.00011   0.47828
  57 8   H  1S          0.36144   0.30083   0.67803   0.00002  -0.10230
  58        2S         -0.76221   0.66784  -0.20336  -0.00005  -0.71494
  59 9   H  1S          0.38179   0.17504  -0.15243  -0.00005   0.08021
  60        2S         -0.87416   0.56814  -0.71149  -0.00013  -0.24575
  61 10  H  1S         -0.38180  -0.17505  -0.15242   0.00011   0.08021
  62        2S          0.87417  -0.56815  -0.71149   0.00007  -0.24575
  63 11  H  1S         -0.36143  -0.30083   0.67803   0.00003  -0.10229
  64        2S          0.76219  -0.66785  -0.20336   0.00002  -0.71492
                          56        57        58        59        60
                           V         V         V         V         V
     Eigenvalues --     1.65095   1.68036   1.69582   1.74263   1.83113
   1 1   C  1S          0.00488  -0.00274  -0.00547  -0.01060   0.00160
   2        2S         -0.36090   0.02553  -0.05090   0.94350  -0.97014
   3        2PX         0.02347  -0.29241   0.12876  -0.04283  -0.07683
   4        2PY        -0.22634   0.04356  -0.10627  -0.14385   0.19633
   5        2PZ         0.00002   0.00004  -0.00001   0.00001   0.00000
   6        3S         -0.60588  -0.59101   0.90734  -1.81330   1.91065
   7        3PX         0.94746   2.18521  -0.60857   0.07736   0.31065
   8        3PY         1.35033  -0.19245  -0.15304  -0.09052  -0.66751
   9        3PZ        -0.00019  -0.00031   0.00004   0.00003  -0.00001
  10 2   C  1S         -0.00340  -0.00437   0.00303  -0.00733  -0.00243
  11        2S         -0.40590   0.52514   0.04814   0.37485   0.61529
  12        2PX        -0.07879   0.26190  -0.01905  -0.28471   0.03199
  13        2PY         0.05068   0.03114   0.29512   0.03786   0.02332
  14        2PZ         0.00001  -0.00004  -0.00003   0.00004  -0.00000
  15        3S          1.72550  -1.32107  -0.70290   0.00626  -1.00275
  16        3PX        -0.68024  -1.78533   1.42501   0.95908  -0.91354
  17        3PY         0.68089   0.43359  -1.39209  -0.09694  -0.36079
  18        3PZ         0.00002   0.00022  -0.00001  -0.00013   0.00012
  19 3   C  1S          0.01805  -0.00000  -0.01894   0.00000   0.00030
  20        2S         -0.64468   0.00004   0.85448  -0.00000   0.75313
  21        2PX         0.00000  -0.39645   0.00004   0.00173  -0.00002
  22        2PY         0.04958  -0.00003  -0.15437   0.00000   0.26745
  23        2PZ        -0.00002   0.00005   0.00005  -0.00000  -0.00002
  24        3S         -0.01145  -0.00001  -0.46595  -0.00003  -1.56692
  25        3PX         0.00005   0.78136  -0.00023   0.07491   0.00010
  26        3PY        -0.87235   0.00021   2.41029  -0.00001  -1.46131
  27        3PZ         0.00010  -0.00013  -0.00027   0.00001   0.00010
  28 4   C  1S         -0.00340   0.00437   0.00303   0.00733  -0.00243
  29        2S         -0.40588  -0.52516   0.04821  -0.37485   0.61529
  30        2PX         0.07877   0.26191   0.01897  -0.28472  -0.03199
  31        2PY         0.05070  -0.03107   0.29512  -0.03790   0.02332
  32        2PZ        -0.00001  -0.00005  -0.00004   0.00005   0.00001
  33        3S          1.72546   1.32102  -0.70311  -0.00627  -1.00272
  34        3PX         0.68022  -1.78547  -1.42460   0.95912   0.91357
  35        3PY         0.68097  -0.43396  -1.39217   0.09704  -0.36070
  36        3PZ        -0.00020   0.00035   0.00041  -0.00018  -0.00014
  37 5   C  1S          0.00488   0.00273  -0.00547   0.01060   0.00160
  38        2S         -0.36089  -0.02555  -0.05090  -0.94352  -0.97013
  39        2PX        -0.02343  -0.29243  -0.12871  -0.04284   0.07681
  40        2PY        -0.22634  -0.04362  -0.10627   0.14384   0.19634
  41        2PZ         0.00000   0.00005   0.00003  -0.00001  -0.00002
  42        3S         -0.60591   0.59110   0.90725   1.81335   1.91063
  43        3PX        -0.94770   2.18525   0.60830   0.07731  -0.31057
  44        3PY         1.35021   0.19273  -0.15298   0.09052  -0.66756
  45        3PZ         0.00010  -0.00039  -0.00012   0.00003   0.00010
  46 6   N  1S         -0.06163  -0.00000   0.00016  -0.00000   0.00648
  47        2S          0.21188   0.00001   0.03574  -0.00000  -0.03085
  48        2PX        -0.00003  -0.35862  -0.00001  -0.55412   0.00000
  49        2PY         0.67828   0.00002   0.48837  -0.00004   0.07993
  50        2PZ         0.00000  -0.00003  -0.00008   0.00010  -0.00000
  51        3S          0.38966  -0.00004  -0.67372   0.00001  -0.16053
  52        3PX         0.00007   1.26417  -0.00005   1.18558  -0.00002
  53        3PY        -1.53624   0.00002  -0.45991   0.00007   0.11770
  54        3PZ         0.00003  -0.00003   0.00010  -0.00020  -0.00001
  55 7   H  1S         -0.04645   0.00004   0.62865  -0.00000  -0.30095
  56        2S         -0.49693   0.00006   0.98606  -0.00001  -0.33634
  57 8   H  1S         -0.30680  -0.40423   0.02270   0.13263  -0.06154
  58        2S         -0.55405  -0.55213   0.18393   0.26716  -0.30378
  59 9   H  1S          0.29562   0.59774  -0.54045  -0.27305   0.21736
  60        2S         -0.06211   0.73504  -0.52225  -0.30271   0.39342
  61 10  H  1S          0.29564  -0.59781  -0.54036   0.27306   0.21736
  62        2S         -0.06209  -0.73511  -0.52215   0.30272   0.39341
  63 11  H  1S         -0.30682   0.40423   0.02265  -0.13263  -0.06153
  64        2S         -0.55406   0.55214   0.18385  -0.26718  -0.30377
                          61        62        63        64
                           V         V         V         V
     Eigenvalues --     1.97182   2.24375   2.29480   3.25640
   1 1   C  1S          0.00625   0.02926  -0.01729   0.03659
   2        2S          0.07014   0.98467  -0.13624   0.08548
   3        2PX         0.12123  -0.29475  -0.01800   0.14916
   4        2PY         0.01769  -0.03298  -0.13556  -0.08692
   5        2PZ        -0.00002   0.00004   0.00000  -0.00001
   6        3S         -2.00495  -1.99144   2.16118  -2.79427
   7        3PX         0.82031   1.08615  -0.47347   1.95852
   8        3PY        -0.69128   2.11405  -1.04391   0.75428
   9        3PZ        -0.00003  -0.00029   0.00011  -0.00028
  10 2   C  1S         -0.00579  -0.02666   0.05176  -0.04981
  11        2S         -1.02192  -0.69958   1.09322  -0.45637
  12        2PX         0.23741   0.13353  -0.00633   0.05456
  13        2PY        -0.04942   0.03005   0.20948   0.00079
  14        2PZ        -0.00003  -0.00002  -0.00002  -0.00000
  15        3S          1.75824   2.71873  -5.09655   3.13853
  16        3PX        -1.29867  -1.06097   2.52928  -2.30016
  17        3PY         0.15087   1.31637  -1.33761   0.89930
  18        3PZ         0.00014   0.00008  -0.00019   0.00021
  19 3   C  1S         -0.00000   0.00000  -0.06380   0.04175
  20        2S          0.00000   0.00001  -1.44005   0.36136
  21        2PX        -0.05683  -0.20935   0.00001  -0.00000
  22        2PY        -0.00000  -0.00001  -0.21007   0.00389
  23        2PZ         0.00001   0.00003   0.00002  -0.00001
  24        3S         -0.00001  -0.00007   6.01706  -3.65594
  25        3PX        -0.76215   0.02723  -0.00024   0.00013
  26        3PY        -0.00005  -0.00003   3.82354  -2.14465
  27        3PZ         0.00011  -0.00001  -0.00022   0.00011
  28 4   C  1S          0.00579   0.02666   0.05176  -0.04981
  29        2S          1.02192   0.69954   1.09324  -0.45636
  30        2PX         0.23740   0.13353   0.00631  -0.05456
  31        2PY         0.04945  -0.03004   0.20948   0.00078
  32        2PZ        -0.00004  -0.00002  -0.00002   0.00001
  33        3S         -1.75825  -2.71861  -5.09662   3.13854
  34        3PX        -1.29866  -1.06074  -2.52916   2.30004
  35        3PY        -0.15103  -1.31646  -1.33792   0.89957
  36        3PZ         0.00021   0.00028   0.00053  -0.00045
  37 5   C  1S         -0.00625  -0.02926  -0.01729   0.03659
  38        2S         -0.07015  -0.98467  -0.13626   0.08548
  39        2PX         0.12123  -0.29475   0.01801  -0.14915
  40        2PY        -0.01768   0.03295  -0.13555  -0.08694
  41        2PZ        -0.00002   0.00004   0.00000   0.00002
  42        3S          2.00496   1.99138   2.16122  -2.79425
  43        3PX         0.82024   1.08641   0.47366  -1.95861
  44        3PY         0.69136  -2.11390  -1.04389   0.75406
  45        3PZ        -0.00016  -0.00003   0.00000   0.00023
  46 6   N  1S         -0.00000  -0.00000   0.02932  -0.05450
  47        2S          0.00000   0.00001  -0.38754  -2.03757
  48        2PX        -0.69436   0.63065   0.00000  -0.00001
  49        2PY        -0.00004   0.00004   0.08305   0.22633
  50        2PZ         0.00008  -0.00009  -0.00002  -0.00001
  51        3S         -0.00000  -0.00001  -0.16867   5.04102
  52        3PX         2.32447  -1.44192  -0.00002   0.00011
  53        3PY         0.00014  -0.00009   0.20504  -1.75557
  54        3PZ        -0.00028   0.00021   0.00000   0.00012
  55 7   H  1S         -0.00000  -0.00000   0.32091  -0.09548
  56        2S          0.00000  -0.00000   0.66662  -0.43264
  57 8   H  1S          0.18324  -0.34231   0.03116  -0.11971
  58        2S          0.09946  -0.49622   0.06854  -0.47181
  59 9   H  1S          0.19091   0.11713  -0.18673   0.20884
  60        2S          0.12416   0.28791  -0.44670   0.56930
  61 10  H  1S         -0.19091  -0.11712  -0.18673   0.20883
  62        2S         -0.12417  -0.28790  -0.44671   0.56930
  63 11  H  1S         -0.18323   0.34231   0.03117  -0.11971
  64        2S         -0.09945   0.49623   0.06856  -0.47182
     Density Matrix:
                           1         2         3         4         5
   1 1   C  1S          2.03564
   2        2S          0.09298   0.12737
   3        2PX        -0.00473  -0.00174   0.30312
   4        2PY         0.00163  -0.00747   0.00499   0.33113
   5        2PZ         0.00000   0.00000  -0.00001  -0.00001   0.20548
   6        3S         -0.32377   0.20897   0.07847   0.03405  -0.00001
   7        3PX        -0.03694   0.03363   0.19570   0.06837  -0.00000
   8        3PY         0.05150  -0.02716   0.08277   0.13480  -0.00000
   9        3PZ         0.00000  -0.00000  -0.00000  -0.00000   0.22803
  10 2   C  1S          0.01881  -0.03116  -0.00110   0.07720  -0.00000
  11        2S         -0.02762   0.02528   0.00021  -0.07798   0.00000
  12        2PX         0.00087  -0.00327   0.01393   0.00170   0.00001
  13        2PY        -0.07630   0.08224   0.00836  -0.24989   0.00002
  14        2PZ         0.00000  -0.00000   0.00001   0.00002   0.14123
  15        3S          0.01838   0.03258   0.01816  -0.24177   0.00002
  16        3PX         0.04285  -0.03893  -0.00916   0.02585   0.00002
  17        3PY         0.01495   0.02264   0.02725  -0.19616   0.00002
  18        3PZ        -0.00001   0.00000   0.00002   0.00002   0.15485
  19 3   C  1S         -0.00451   0.00242  -0.00226  -0.01214   0.00000
  20        2S         -0.00039  -0.00221   0.00228   0.01296  -0.00000
  21        2PX         0.00678  -0.00758   0.00767   0.02860  -0.00000
  22        2PY         0.00873  -0.01007   0.00316   0.03013  -0.00000
  23        2PZ        -0.00000   0.00000  -0.00000  -0.00000   0.00261
  24        3S          0.06135  -0.04800   0.03286   0.07381  -0.00001
  25        3PX         0.02384  -0.01674   0.01795   0.02626  -0.00000
  26        3PY         0.04275  -0.03395   0.00600   0.08621  -0.00001
  27        3PZ        -0.00001   0.00000  -0.00000  -0.00001  -0.00738
  28 4   C  1S         -0.00343   0.00306  -0.00602  -0.00264   0.00000
  29        2S          0.00713  -0.00552   0.00836   0.00286  -0.00000
  30        2PX         0.00653  -0.00758   0.00756   0.01695  -0.00002
  31        2PY         0.00410  -0.00350   0.01724  -0.01342  -0.00001
  32        2PZ        -0.00000   0.00000  -0.00001  -0.00001  -0.08271
  33        3S         -0.03336   0.00968   0.00477  -0.01413   0.00000
  34        3PX        -0.02881   0.01631  -0.02371   0.01457  -0.00002
  35        3PY        -0.02372   0.01070   0.00041  -0.01931  -0.00001
  36        3PZ         0.00001  -0.00000  -0.00001  -0.00001  -0.11893
  37 5   C  1S         -0.00672  -0.00079  -0.01426   0.00519   0.00000
  38        2S         -0.00079  -0.00382   0.01781  -0.00601  -0.00000
  39        2PX         0.01426  -0.01781   0.05488  -0.01812  -0.00001
  40        2PY         0.00520  -0.00601   0.01813  -0.00456  -0.00000
  41        2PZ        -0.00000   0.00000  -0.00001   0.00000  -0.01856
  42        3S          0.05172  -0.03070   0.08882  -0.00937  -0.00001
  43        3PX         0.05520  -0.03529   0.09132  -0.02502  -0.00002
  44        3PY        -0.03595   0.01304  -0.00807  -0.00351   0.00000
  45        3PZ        -0.00000   0.00000  -0.00002   0.00000  -0.02866
  46 6   N  1S          0.01527  -0.01927   0.04734  -0.02401  -0.00000
  47        2S         -0.00948   0.01248  -0.04245   0.02304   0.00000
  48        2PX        -0.06225   0.06806  -0.18060   0.11380   0.00003
  49        2PY         0.04086  -0.04903   0.12580  -0.06433  -0.00000
  50        2PZ         0.00000  -0.00000   0.00003  -0.00000   0.13992
  51        3S         -0.04174   0.04499  -0.17065   0.08371   0.00002
  52        3PX        -0.05036   0.05044  -0.15722   0.08993   0.00003
  53        3PY         0.05502  -0.05919   0.13635  -0.11492   0.00000
  54        3PZ         0.00000  -0.00000   0.00003   0.00001   0.15361
  55 7   H  1S         -0.00658   0.00746   0.00015  -0.02447   0.00000
  56        2S          0.00252   0.00282  -0.00280  -0.02158  -0.00000
  57 8   H  1S         -0.06734   0.06661   0.17057   0.12201  -0.00003
  58        2S          0.00103   0.02227   0.10595   0.09923  -0.00002
  59 9   H  1S          0.00772  -0.01143  -0.01247   0.03005  -0.00000
  60        2S          0.00775  -0.00859  -0.01926   0.04362  -0.00000
  61 10  H  1S         -0.00325   0.00244  -0.00269  -0.00140   0.00000
  62        2S         -0.01387   0.01010  -0.01218   0.00446   0.00000
  63 11  H  1S         -0.00574   0.00924  -0.02671   0.01514   0.00000
  64        2S          0.01015   0.00311  -0.02742   0.02087  -0.00000
                           6         7         8         9        10
   6        3S          0.55461
   7        3PX         0.09382   0.18605
   8        3PY        -0.05487   0.08396   0.10843
   9        3PZ        -0.00001   0.00000  -0.00000   0.25562
  10 2   C  1S          0.06225  -0.01615  -0.02072   0.00000   2.03859
  11        2S          0.02116  -0.01010  -0.02146   0.00000   0.10315
  12        2PX         0.01474  -0.03086  -0.02227   0.00002  -0.00070
  13        2PY         0.16882  -0.02815  -0.13206   0.00002  -0.00151
  14        2PZ        -0.00001   0.00002   0.00002   0.14490  -0.00000
  15        3S         -0.09546  -0.01350  -0.01950   0.00001  -0.42314
  16        3PX        -0.05117  -0.06351  -0.00602   0.00002   0.04750
  17        3PY         0.01353  -0.00702  -0.06445   0.00001  -0.02907
  18        3PZ         0.00001   0.00003   0.00002   0.15974  -0.00000
  19 3   C  1S          0.00377  -0.00347  -0.01578   0.00000   0.01789
  20        2S         -0.01791   0.01067   0.01981  -0.00000  -0.03142
  21        2PX        -0.05859   0.04576   0.05114  -0.00001  -0.06539
  22        2PY        -0.03976   0.00937   0.03957  -0.00000  -0.03794
  23        2PZ         0.00001  -0.00001  -0.00001  -0.01838   0.00001
[...]
  36        3PZ         0.00000   0.13081   0.00000   0.00000   0.00000
  37 5   C  1S         -0.00110  -0.00000   0.00091  -0.00016   0.00165
  38        2S          0.01366   0.00000   0.00878   0.00064   0.01099
  39        2PX         0.00009   0.00000   0.00013  -0.00165   0.00036
  40        2PY         0.06182   0.00000   0.05036   0.00034   0.04061
  41        2PZ         0.00000   0.00791   0.00000   0.00000   0.00000
  42        3S          0.03517   0.00000  -0.04892   0.00103   0.00802
  43        3PX        -0.00037   0.00000  -0.00027  -0.03250  -0.00016
  44        3PY         0.02734   0.00000   0.01155  -0.00014   0.01108
  45        3PZ         0.00000   0.02612   0.00000   0.00000   0.00000
  46 6   N  1S          0.00000   0.00000  -0.00028  -0.00037  -0.00031
  47        2S         -0.00000  -0.00000   0.00075   0.00027   0.00083
  48        2PX        -0.00001  -0.00000  -0.00091  -0.00031  -0.00251
  49        2PY        -0.00005  -0.00000  -0.00351   0.00071  -0.00611
  50        2PZ        -0.00000  -0.00000  -0.00000  -0.00000  -0.00000
  51        3S         -0.00041  -0.00000   0.01529   0.00545   0.01104
  52        3PX        -0.00079  -0.00000  -0.00498  -0.00057  -0.01047
  53        3PY        -0.00508  -0.00000  -0.03173   0.00444  -0.03657
  54        3PZ        -0.00000  -0.00028  -0.00000  -0.00000  -0.00000
  55 7   H  1S         -0.00010  -0.00000  -0.00174  -0.00012  -0.00523
  56        2S         -0.00174  -0.00000  -0.00804  -0.00156  -0.00934
  57 8   H  1S         -0.00000  -0.00000  -0.00000  -0.00000  -0.00001
  58        2S         -0.00001  -0.00000  -0.00032  -0.00020  -0.00041
  59 9   H  1S          0.00000   0.00000   0.00002   0.00012   0.00001
  60        2S          0.00000   0.00000   0.00011   0.00188   0.00013
  61 10  H  1S          0.01434   0.00000   0.06188   0.07206   0.02232
  62        2S          0.00795   0.00000   0.03947   0.05682   0.01990
  63 11  H  1S         -0.00015   0.00000  -0.00397  -0.00210  -0.00683
  64        2S         -0.00424   0.00000  -0.01990  -0.00219  -0.02067
                          36        37        38        39        40
  36        3PZ         0.28752
  37 5   C  1S         -0.00000   2.03564
  38        2S          0.00000   0.01780   0.12737
  39        2PX         0.00000   0.00000   0.00000   0.30312
  40        2PY         0.00000   0.00000   0.00000   0.00000   0.33113
  41        2PZ         0.02792   0.00000   0.00000   0.00000   0.00000
  42        3S          0.00000  -0.05838   0.15910   0.00000   0.00000
  43        3PX         0.00000   0.00000   0.00000   0.10353   0.00000
  44        3PY         0.00000   0.00000   0.00000   0.00000   0.07129
  45        3PZ         0.08187   0.00000   0.00000   0.00000   0.00000
  46 6   N  1S         -0.00000   0.00000  -0.00010  -0.00058  -0.00017
  47        2S          0.00000  -0.00001   0.00091   0.00504   0.00162
  48        2PX        -0.00000  -0.00025   0.00688   0.02451   0.01180
  49        2PY        -0.00000  -0.00010   0.00293   0.01305   0.00140
  50        2PZ        -0.00045  -0.00000   0.00000   0.00000   0.00000
  51        3S          0.00000  -0.00175   0.01108   0.03549   0.01030
  52        3PX        -0.00000  -0.00466   0.02028   0.02739   0.01887
  53        3PY        -0.00000  -0.00301   0.01408   0.02862  -0.00649
  54        3PZ        -0.00511  -0.00000   0.00000   0.00000   0.00000
  55 7   H  1S          0.00000  -0.00000   0.00000  -0.00000   0.00000
  56        2S          0.00000   0.00000   0.00001   0.00000   0.00007
  57 8   H  1S         -0.00000  -0.00000   0.00000   0.00000   0.00000
  58        2S         -0.00000   0.00000   0.00001   0.00013   0.00002
  59 9   H  1S          0.00000  -0.00000   0.00000   0.00000   0.00000
  60        2S          0.00000  -0.00000   0.00000   0.00001  -0.00000
  61 10  H  1S          0.00000   0.00000  -0.00002  -0.00003  -0.00012
  62        2S          0.00000   0.00007  -0.00060  -0.00068  -0.00296
  63 11  H  1S         -0.00000  -0.00142   0.01374   0.04410   0.02024
  64        2S          0.00000   0.00009   0.00913   0.02104   0.01264
                          41        42        43        44        45
  41        2PZ         0.20548
  42        3S          0.00000   0.55461
  43        3PX         0.00000   0.00000   0.18607
  44        3PY         0.00000   0.00000   0.00000   0.10841
  45        3PZ         0.12062   0.00000   0.00000   0.00000   0.25562
  46 6   N  1S         -0.00000   0.00443   0.00557  -0.00165   0.00000
  47        2S          0.00000  -0.00669  -0.00214   0.00521   0.00000
  48        2PX         0.00000   0.01954   0.00937  -0.00284   0.00000
  49        2PY         0.00000   0.00681   0.00214   0.00436   0.00000
  50        2PZ         0.00554   0.00000   0.00000   0.00000   0.02061
  51        3S          0.00000  -0.07594  -0.02406   0.03010   0.00000
  52        3PX         0.00000   0.05094   0.00436  -0.00630   0.00000
  53        3PY         0.00000   0.02924  -0.00001   0.01816   0.00000
  54        3PZ         0.02773   0.00000   0.00000   0.00000   0.08097
  55 7   H  1S          0.00000   0.00002   0.00000   0.00009   0.00000
  56        2S          0.00000   0.00030   0.00015   0.00117  -0.00000
  57 8   H  1S          0.00000   0.00006   0.00019  -0.00000   0.00000
  58        2S          0.00000   0.00090   0.00226  -0.00016   0.00000
  59 9   H  1S         -0.00000   0.00000  -0.00001   0.00000  -0.00000
  60        2S          0.00000   0.00013  -0.00018   0.00009  -0.00000
  61 10  H  1S         -0.00000  -0.00216  -0.00175  -0.00171  -0.00000
  62        2S         -0.00000  -0.00585  -0.00271  -0.00319  -0.00000
  63 11  H  1S          0.00000   0.07074   0.06885   0.01965   0.00000
  64        2S          0.00000   0.06555   0.04718   0.01551   0.00000
                          46        47        48        49        50
  46 6   N  1S          2.05814
  47        2S          0.02144   0.11090
  48        2PX         0.00000   0.00000   0.31621
  49        2PY         0.00000   0.00000   0.00000   0.44600
  50        2PZ         0.00000   0.00000   0.00000   0.00000   0.24321
  51        3S         -0.10337   0.24348   0.00000   0.00000   0.00000
  52        3PX         0.00000   0.00000   0.13463   0.00000   0.00000
  53        3PY         0.00000   0.00000   0.00000   0.26508   0.00000
  54        3PZ         0.00000   0.00000   0.00000   0.00000   0.14222
  55 7   H  1S          0.00000  -0.00000   0.00000   0.00000  -0.00000
  56        2S          0.00000  -0.00000   0.00000   0.00000  -0.00000
  57 8   H  1S          0.00000  -0.00001  -0.00005   0.00000  -0.00000
  58        2S          0.00043  -0.00170  -0.00152   0.00014  -0.00000
  59 9   H  1S         -0.00000   0.00000   0.00000   0.00000   0.00000
  60        2S         -0.00000   0.00001   0.00002   0.00006  -0.00000
  61 10  H  1S         -0.00000   0.00000   0.00000   0.00000   0.00000
  62        2S         -0.00000   0.00001   0.00002   0.00006   0.00000
  63 11  H  1S          0.00000  -0.00001  -0.00005   0.00000  -0.00000
  64        2S          0.00043  -0.00170  -0.00152   0.00014  -0.00000
                          51        52        53        54        55
  51        3S          1.34646
  52        3PX         0.00000   0.21664
  53        3PY         0.00000   0.00000   0.60602
  54        3PZ         0.00000   0.00000   0.00000   0.31425
  55 7   H  1S          0.00000  -0.00000  -0.00000  -0.00000   0.18557
  56        2S         -0.00004   0.00000   0.00002  -0.00000   0.07274
  57 8   H  1S         -0.00243  -0.00321   0.00023  -0.00000  -0.00000
  58        2S         -0.02230  -0.00850   0.00104  -0.00000  -0.00000
  59 9   H  1S          0.00000   0.00001   0.00002   0.00000  -0.00000
  60        2S          0.00035   0.00030   0.00144  -0.00000  -0.00025
  61 10  H  1S          0.00000   0.00001   0.00002   0.00000  -0.00000
  62        2S          0.00035   0.00030   0.00144   0.00000  -0.00025
  63 11  H  1S         -0.00243  -0.00321   0.00023  -0.00000  -0.00000
  64        2S         -0.02230  -0.00850   0.00104  -0.00000  -0.00000
                          56        57        58        59        60
  56        2S          0.07398
  57 8   H  1S         -0.00000   0.19012
  58        2S         -0.00003   0.07652   0.08736
  59 9   H  1S         -0.00025  -0.00000  -0.00014   0.18462
  60        2S         -0.00069  -0.00012   0.00028   0.07443   0.07944
  61 10  H  1S         -0.00025   0.00000   0.00000  -0.00000  -0.00000
  62        2S         -0.00069   0.00000   0.00000  -0.00000  -0.00002
  63 11  H  1S         -0.00000  -0.00000  -0.00000   0.00000   0.00000
  64        2S         -0.00003  -0.00000   0.00004   0.00000   0.00000
                          61        62        63        64
  61 10  H  1S          0.18462
  62        2S          0.07443   0.07944
  63 11  H  1S         -0.00000  -0.00012   0.19012
  64        2S         -0.00014   0.00028   0.07652   0.08736
     Gross orbital populations:
                           1
   1 1   C  1S          1.98723
   2        2S          0.40831
   3        2PX         0.58659
   4        2PY         0.62252
   5        2PZ         0.39324
   6        3S          0.74757
   7        3PX         0.29437
   8        3PY         0.27287
   9        3PZ         0.56158
  10 2   C  1S          1.98834
  11        2S          0.39632
  12        2PX         0.60022
  13        2PY         0.61948
  14        2PZ         0.41238
  15        3S          0.92142
  16        3PX         0.46765
  17        3PY         0.31420
  18        3PZ         0.61485
  19 3   C  1S          1.98824
  20        2S          0.40130
  21        2PX         0.63033
  22        2PY         0.59923
  23        2PZ         0.38204
  24        3S          0.87920
  25        3PX         0.25118
  26        3PY         0.48351
  27        3PZ         0.56003
  28 4   C  1S          1.98834
  29        2S          0.39632
  30        2PX         0.60022
  31        2PY         0.61948
  32        2PZ         0.41238
  33        3S          0.92142
  34        3PX         0.46762
  35        3PY         0.31423
  36        3PZ         0.61485
  37 5   C  1S          1.98723
  38        2S          0.40831
  39        2PX         0.58659
  40        2PY         0.62252
  41        2PZ         0.39324
  42        3S          0.74758
  43        3PX         0.29440
  44        3PY         0.27283
  45        3PZ         0.56158
  46 6   N  1S          1.99042
  47        2S          0.38341
  48        2PX         0.57816
  49        2PY         0.75471
  50        2PZ         0.43645
  51        3S          1.45538
  52        3PX         0.51491
  53        3PY         0.89865
  54        3PZ         0.65739
  55 7   H  1S          0.47820
  56        2S          0.26686
  57 8   H  1S          0.48425
  58        2S          0.25984
  59 9   H  1S          0.47646
  60        2S          0.27552
  61 10  H  1S          0.47646
  62        2S          0.27552
  63 11  H  1S          0.48425
  64        2S          0.25984
          Condensed to atoms (all electrons):
               1          2          3          4          5          6
     1  C    4.935385   0.373221  -0.106555  -0.005117  -0.135848   0.422591
     2  C    0.373221   5.418829   0.414629  -0.091002  -0.005117  -0.074323
     3  C   -0.106555   0.414629   5.236386   0.414631  -0.106553  -0.020450
     4  C   -0.005117  -0.091002   0.414631   5.418825   0.373223  -0.074324
     5  C   -0.135848  -0.005117  -0.106553   0.373223   4.935385   0.422589
     6  N    0.422591  -0.074323  -0.020450  -0.074324   0.422589   7.064778
     7  H    0.001816  -0.029920   0.398699  -0.029919   0.001816  -0.000014
     8  H    0.407035  -0.061444   0.003358  -0.000944   0.003409  -0.037889
     9  H   -0.021713   0.388560  -0.031223   0.002367   0.000051   0.002206
    10  H    0.000051   0.002367  -0.031223   0.388559  -0.021713   0.002206
    11  H    0.003409  -0.000944   0.003358  -0.061442   0.407035  -0.037889
               7          8          9         10         11
     1  C    0.001816   0.407035  -0.021713   0.000051   0.003409
     2  C   -0.029920  -0.061444   0.388560   0.002367  -0.000944
     3  C    0.398699   0.003358  -0.031223  -0.031223   0.003358
     4  C   -0.029919  -0.000944   0.002367   0.388559  -0.061442
     5  C    0.001816   0.003409   0.000051  -0.021713   0.407035
     6  N   -0.000014  -0.037889   0.002206   0.002206  -0.037889
     7  H    0.405040  -0.000027  -0.001201  -0.001201  -0.000027
     8  H   -0.000027   0.430529   0.000017   0.000004   0.000041
     9  H   -0.001201   0.000017   0.412928  -0.000018   0.000004
    10  H   -0.001201   0.000004  -0.000018   0.412929   0.000017
    11  H   -0.000027   0.000041   0.000004   0.000017   0.430527
 Mulliken charges:
               1
     1  C    0.125725
     2  C   -0.334856
     3  C   -0.175057
     4  C   -0.334856
     5  C    0.125724
     6  N   -0.669483
     7  H    0.254937
     8  H    0.255911
     9  H    0.248021
    10  H    0.248021
    11  H    0.255912
 Sum of Mulliken charges =  -0.00000
 Mulliken charges with hydrogens summed into heavy atoms:
               1
     1  C    0.381636
     2  C   -0.086835
     3  C    0.079880
     4  C   -0.086835
     5  C    0.381636
     6  N   -0.669483
 Electronic spatial extent (au):  <R**2>=            429.8847
 Charge=             -0.0000 electrons
 Dipole moment (field-independent basis, Debye):
    X=              0.0001    Y=             -2.3968    Z=              0.0003  Tot=              2.3968
 Quadrupole moment (field-independent basis, Debye-Ang):
   XX=            -28.9047   YY=            -36.6710   ZZ=            -38.8281
   XY=              0.0004   XZ=             -0.0015   YZ=             -0.0002
 Traceless Quadrupole moment (field-independent basis, Debye-Ang):
   XX=              5.8965   YY=             -1.8697   ZZ=             -4.0268
   XY=              0.0004   XZ=             -0.0015   YZ=             -0.0002
 Octapole moment (field-independent basis, Debye-Ang**2):
  XXX=             -0.0005  YYY=            -15.8898  ZZZ=             -0.0003  XYY=              0.0013
  XXY=              2.5646  XXZ=              0.0003  XZZ=             -0.0001  YZZ=              1.9574
  YYZ=              0.0017  XYZ=             -0.0001
 Hexadecapole moment (field-independent basis, Debye-Ang**3):
 XXXX=           -238.3998 YYYY=           -268.7392 ZZZZ=            -39.3764 XXXY=             -0.0007
 XXXZ=              0.0079 YYYX=              0.0026 YYYZ=              0.0059 ZZZX=              0.0177
 ZZZY=              0.0075 XXYY=            -75.6724 XXZZ=            -57.6991 YYZZ=            -54.4581
 XXYZ=              0.0008 YYXZ=              0.0025 ZZXY=             -0.0001
 N-N= 2.076442596357D+02 E-N=-9.865974813560D+02  KE= 2.448639826606D+02
 Orbital energies and kinetic energies (alpha):
                                 1                 2
   1         O               -15.491584         21.928610
   2         O               -11.217458         15.872440
   3         O               -11.217000         15.866665
   4         O               -11.201378         15.874572
   5         O               -11.187608         15.871326
   6         O               -11.187507         15.876889
   7         O                -1.275481          1.825875
   8         O                -1.095053          1.693228
   9         O                -1.041461          1.642623
  10         O                -0.862581          1.549880
  11         O                -0.859701          1.564304
  12         O                -0.733361          0.995374
  13         O                -0.667162          1.548694
  14         O                -0.654873          1.267103
  15         O                -0.610459          1.208448
  16         O                -0.577081          1.369167
  17         O                -0.548360          0.992212
  18         O                -0.520838          1.416243
  19         O                -0.400358          1.840205
  20         O                -0.384226          1.175612
  21         O                -0.355987          1.052522
  22         V                 0.129961          1.399349
  23         V                 0.139185          1.243831
  24         V                 0.262119          0.922491
  25         V                 0.315803          0.950746
  26         V                 0.338317          1.136822
  27         V                 0.362085          1.158395
  28         V                 0.362673          1.620344
  29         V                 0.365359          1.203392
  30         V                 0.446488          1.753157
  31         V                 0.495957          1.497525
  32         V                 0.533195          1.644205
  33         V                 0.545266          1.886988
  34         V                 0.737632          1.538518
  35         V                 0.751346          2.757895
  36         V                 0.914030          2.534537
  37         V                 0.938638          2.560729
  38         V                 0.942866          2.282269
  39         V                 0.999946          2.863052
  40         V                 1.033693          2.633071
  41         V                 1.038175          3.035556
  42         V                 1.039088          2.673651
  43         V                 1.090506          2.819543
  44         V                 1.091474          2.764031
  45         V                 1.115345          2.801571
  46         V                 1.125453          2.801311
  47         V                 1.136233          3.178173
  48         V                 1.284549          3.400639
  49         V                 1.294020          3.275772
  50         V                 1.362568          3.254060
  51         V                 1.387426          3.315531
  52         V                 1.487488          2.993542
  53         V                 1.506323          2.923005
  54         V                 1.547941          3.920312
  55         V                 1.620635          3.040157
  56         V                 1.650947          3.286277
  57         V                 1.680360          2.897460
  58         V                 1.695824          2.983967
  59         V                 1.742631          3.433363
  60         V                 1.831132          3.189700
  61         V                 1.971819          3.562057
  62         V                 2.243749          3.658425
  63         V                 2.294805          3.492991
  64         V                 3.256400          5.051634
 Total kinetic energy from orbitals= 2.448639826606D+02
 1\1\GINC-IISERK51\SP\RHF\3-21G\C5H5N1\GAUSSIAN\16-Jun-2025\0\\# hf/3-2
 1g pop=full geom=connectivity\\pyridine sp\\0,1\C,0,-1.14532,-0.71727,
 -0.000184\C,0,-1.19258,0.664441,-0.000115\C,0,-0.000085,1.366776,0.000
 06\C,0,1.192496,0.664585,0.000208\C,0,1.145412,-0.717133,0.0001\N,0,0.
 000086,-1.394579,-0.000096\H,0,-0.000153,2.438456,0.000171\H,0,-2.0461
 32,-1.295602,-0.000355\H,0,-2.134658,1.172948,-0.000191\H,0,2.134512,1
 .173205,0.000411\H,0,2.046294,-1.295356,0.00022\\Version=EM64L-G16RevB
 .01\State=1-A\HF=-245.3120062\RMSD=9.897e-10\Dipole=-0.0000561,0.94297
 44,0.0000996\Quadrupole=4.3839124,-1.3900752,-2.9938372,0.0003116,0.00
 10848,0.0001708\PG=C01 [X(C5H5N1)]\\@


 WHERE THERE IS MUCH DESIRE TO LEARN, THERE OF NECESSITY WILL BE
 MUCH ARGUING, MUCH WRITING, MANY OPINIONS; FOR OPINION IN GOOD MEN
 IS BUT KNOWLEDGE IN THE MAKING. -- JOHN MILTON.
 Job cpu time:       0 days  0 hours  0 minutes  0.7 seconds.
 Elapsed time:       0 days  0 hours  0 minutes  0.7 seconds.
 File lengths (MBytes):  RWF=      6 Int=      0 D2E=      0 Chk=      1 Scr=      1
 Normal termination of Gaussian 16 at Mon Jun 16 15:49:45 2025.
