 Entering Gaussian System, Link 0=g16
 Input=/home/gaussian/Documents/Summer_Internship/Acid_Base_adduct/Base/pyridine/pyridine_ion_sp.com
 Output=/home/gaussian/Documents/Summer_Internship/Acid_Base_adduct/Base/pyridine/pyridine_ion_sp.log
 Initial command:
 /usr/local/g16/l1.exe "/home/gaussian/tmp/Gau-72770.inp" -scrdir="/home/gaussian/tmp/"
 Entering Link 1 = /usr/local/g16/l1.exe PID=     72773.
  
 Copyright (c) 1988-2017, Gaussian, Inc.  All Rights Reserved.
  
 This is part of the Gaussian(R) 16 program.  It is based on
 the Gaussian(R) 09 system (copyright 2009, Gaussian, Inc.),
 the Gaussian(R) 03 system (copyright 2003, Gaussian, Inc.),
 the Gaussian(R) 98 system (copyright 1998, Gaussian, Inc.),
 the Gaussian(R) 94 system (copyright 1995, Gaussian, Inc.),
 the Gaussian 92(TM) system (copyright 1992, Gaussian, Inc.),
 the Gaussian 90(TM) system (copyright 1990, Gaussian, Inc.),
 the Gaussian 88(TM) system (copyright 1988, Gaussian, Inc.),
 the Gaussian 86(TM) system (copyright 1986, Carnegie Mellon
 University), and the Gaussian 82(TM) system (copyright 1983,
 Carnegie Mellon University). Gaussian is a federally registered
 trademark of Gaussian, Inc.
  
 This software contains proprietary and confidential information,
 including trade secrets, belonging to Gaussian, Inc.
  
 This software is provided under written license and may be
 used, copied, transmitted, or stored only in accord with that
 written license.
  
 The following legend is applicable only to US Government
 contracts under FAR:
  
                    RESTRICTED RIGHTS LEGEND
  
 Use, reproduction and disclosure by the US Government is
 subject to restrictions as set forth in subparagraphs (a)
 and (c) of the Commercial Computer Software - Restricted
 Rights clause in FAR 52.227-19.
  
 Gaussian, Inc.
 340 Quinnipiac St., Bldg. 40, Wallingford CT 06492
  
  
 ---------------------------------------------------------------
 Warning -- This program may not be used in any manner that
 competes with the business of Gaussian, Inc. or will provide
 assistance to any competitor of Gaussian, Inc.  The licensee
 of this program is prohibited from giving any competitor of
 Gaussian, Inc. access to this program.  By using this program,
 the user acknowledges that Gaussian, Inc. is engaged in the
 business of creating and licensing software in the field of
 computational chemistry and represents and warrants to the
 licensee that it is not a competitor of Gaussian, Inc. and that
 it will not use this program in any manner prohibited above.
 ---------------------------------------------------------------
  

 Cite this work as:
 Gaussian 16, Revision B.01,
 M. J. Frisch, G. W. Trucks, H. B. Schlegel, G. E. Scuseria, 
 M. A. Robb, J. R. Cheeseman, G. Scalmani, V. Barone, 
 G. A. Petersson, H. Nakatsuji, X. Li, M. Caricato, A. V. Marenich, 
 J. Bloino, B. G. Janesko, R. Gomperts, B. Mennucci, H. P. Hratchian, 
 J. V. Ortiz, A. F. Izmaylov, J. L. Sonnenberg, D. Williams-Young, 
 F. Ding, F. Lipparini, F. Egidi, J. Goings, B. Peng, A. Petrone, 
 T. Henderson, D. Ranasinghe, V. G. Zakrzewski, J. Gao, N. Rega, 
 G. Zheng, W. Liang, M. Hada, M. Ehara, K. Toyota, R. Fukuda, 
 J. Hasegawa, M. Ishida, T. Nakajima, Y. Honda, O. Kitao, H. Nakai, 
 T. Vreven, K. Throssell, J. A. Montgomery, Jr., J. E. Peralta, 
 F. Ogliaro, M. J. Bearpark, J. J. Heyd, E. N. Brothers, K. N. Kudin, 
 V. N. Staroverov, T. A. Keith, R. Kobayashi, J. Normand, 
 K. Raghavachari, A. P. Rendell, J. C. Burant, S. S. Iyengar, 
 J. Tomasi, M. Cossi, J. M. Millam, M. Klene, C. Adamo, R. Cammi, 
 J. W. Ochterski, R. L. Martin, K. Morokuma, O. Farkas, 
 J. B. Foresman, and D. J. Fox, Gaussian, Inc., Wallingford CT, 2016.
 
 ******************************************
 Gaussian 16:  EM64L-G16RevB.01 20-Dec-2017
                16-Jun-2025 
 ******************************************
 %chk=pyridine_ion_sp.chk
 -------------------------------------
 # hf/3-21g pop=full geom=connectivity
 -------------------------------------
 1/38=1,57=2,172=1/1;
 2/12=2,17=6,18=5,40=1/2;
 3/5=5,11=9,25=1,30=1/1,2,3;
 4//1;
 5/5=2,38=5/2;
 6/7=3,28=1/1;
 99/5=1,9=1/99;
 ------------
 pyridine+ sp
 ------------
 Symbolic Z-matrix:
 Charge =  1 Multiplicity = 1
 C                     0.6588   -1.17931  -0.00021 
 C                    -0.71009  -1.20423  -0.00012 
 C                    -1.40263   0.        0.0001 
 C                    -0.71009   1.20422   0.00021 
 C                     0.6588    1.17931   0.00012 
 N                     1.30364   0.       -0.00009 
 H                    -2.47348   0.        0.00017 
 H                     1.25815  -2.06399  -0.00037 
 H                    -1.22358  -2.14133  -0.00021 
 H                    -1.22359   2.14133   0.00038 
 H                     1.25815   2.06399   0.0002 
 H                     2.31021   0.       -0.00016 
 
                          Input orientation:                          
 ---------------------------------------------------------------------
 Center     Atomic      Atomic             Coordinates (Angstroms)
 Number     Number       Type             X           Y           Z
 ---------------------------------------------------------------------
      1          6           0        0.658801   -1.179314   -0.000208
      2          6           0       -0.710093   -1.204225   -0.000118
      3          6           0       -1.402634    0.000000    0.000096
      4          6           0       -0.710093    1.204224    0.000214
      5          6           0        0.658801    1.179314    0.000118
      6          7           0        1.303636    0.000000   -0.000089
      7          1           0       -2.473477    0.000000    0.000169
      8          1           0        1.258147   -2.063994   -0.000371
      9          1           0       -1.223584   -2.141329   -0.000212
     10          1           0       -1.223585    2.141329    0.000379
     11          1           0        1.258147    2.063994    0.000199
     12          1           0        2.310207    0.000000   -0.000159
 ---------------------------------------------------------------------
                    Distance matrix (angstroms):
                    1          2          3          4          5
     1  C    0.000000
     2  C    1.369121   0.000000
     3  C    2.374931   1.389162   0.000000
     4  C    2.748659   2.408449   1.389161   0.000000
     5  C    2.358628   2.748659   2.374931   1.369121   0.000000
     6  N    1.344096   2.346330   2.706270   2.346329   1.344096
     7  H    3.346931   2.135341   1.070843   2.135340   3.346931
     8  H    1.068585   2.147829   3.367466   3.815130   3.298221
     9  H    2.113965   1.068568   2.148802   3.384730   3.817073
    10  H    3.817073   3.384731   2.148802   1.068569   2.113965
    11  H    3.298221   3.815131   3.367466   2.147830   1.068585
    12  H    2.029267   3.251518   3.712841   3.251518   2.029267
                    6          7          8          9         10
     6  N    0.000000
     7  H    3.777113   0.000000
     8  H    2.064495   4.264398   0.000000
     9  H    3.312421   2.479420   2.482936   0.000000
    10  H    3.312421   2.479419   4.883005   4.282658   0.000000
    11  H    2.064495   4.264398   4.127988   4.883004   2.482937
    12  H    1.006571   4.783684   2.316657   4.131945   4.131946
                   11         12
    11  H    0.000000
    12  H    2.316657   0.000000
 Stoichiometry    C5H6N(1+)
 Framework group  C1[X(C5H6N)]
 Deg. of freedom    30
 Full point group                 C1      NOp   1
 Largest Abelian subgroup         C1      NOp   1
 Largest concise Abelian subgroup C1      NOp   1
                         Standard orientation:                         
 ---------------------------------------------------------------------
 Center     Atomic      Atomic             Coordinates (Angstroms)
 Number     Number       Type             X           Y           Z
 ---------------------------------------------------------------------
      1          6           0        0.658799   -1.179315   -0.000208
      2          6           0       -0.710095   -1.204223   -0.000118
      3          6           0       -1.402634    0.000003    0.000096
      4          6           0       -0.710091    1.204226    0.000214
      5          6           0        0.658803    1.179313    0.000118
      6          7           0        1.303636   -0.000003   -0.000089
      7          1           0       -2.473477    0.000005    0.000169
      8          1           0        1.258143   -2.063996   -0.000371
      9          1           0       -1.223588   -2.141326   -0.000212
     10          1           0       -1.223581    2.141332    0.000379
     11          1           0        1.258151    2.063992    0.000199
     12          1           0        2.310207   -0.000005   -0.000159
 ---------------------------------------------------------------------
 Rotational constants (GHZ):           5.8757028           5.7640727           2.9096762
 Standard basis: 3-21G (6D, 7F)
 There are    66 symmetry adapted cartesian basis functions of A   symmetry.
 There are    66 symmetry adapted basis functions of A   symmetry.
    66 basis functions,   108 primitive gaussians,    66 cartesian basis functions
    21 alpha electrons       21 beta electrons
       nuclear repulsion energy       217.8444703700 Hartrees.
 NAtoms=   12 NActive=   12 NUniq=   12 SFac= 1.00D+00 NAtFMM=   60 NAOKFM=F Big=F
 Integral buffers will be    131072 words long.
 Raffenetti 1 integral format.
 Two-electron integral symmetry is turned on.
 One-electron integrals computed using PRISM.
 NBasis=    66 RedAO= T EigKep=  2.71D-03  NBF=    66
 NBsUse=    66 1.00D-06 EigRej= -1.00D+00 NBFU=    66
 ExpMin= 1.83D-01 ExpMax= 2.43D+02 ExpMxC= 2.43D+02 IAcc=3 IRadAn=         5 AccDes= 0.00D+00
 Harris functional with IExCor=  205 and IRadAn=       5 diagonalized for initial guess.
 HarFok:  IExCor=  205 AccDes= 0.00D+00 IRadAn=         5 IDoV= 1 UseB2=F ITyADJ=14
 ICtDFT=  3500011 ScaDFX=  1.000000  1.000000  1.000000  1.000000
 FoFCou: FMM=F IPFlag=           0 FMFlag=      100000 FMFlg1=           0
         NFxFlg=           0 DoJE=T BraDBF=F KetDBF=T FulRan=T
         wScrn=  0.000000 ICntrl=       500 IOpCl=  0 I1Cent=   200000004 NGrid=           0
         NMat0=    1 NMatS0=      1 NMatT0=    0 NMatD0=    1 NMtDS0=    0 NMtDT0=    0
 Petite list used in FoFCou.
 Keep R1 ints in memory in canonical form, NReq=3271461.
 Requested convergence on RMS density matrix=1.00D-08 within 128 cycles.
 Requested convergence on MAX density matrix=1.00D-06.
 Requested convergence on             energy=1.00D-06.
 No special actions if energy rises.
 SCF Done:  E(RHF) =  -245.696413244     A.U. after   12 cycles
            NFock= 12  Conv=0.98D-08     -V/T= 2.0024

 **********************************************************************

            Population analysis using the SCF Density.

 **********************************************************************

 Orbital symmetries:
       Occupied  (A) (A) (A) (A) (A) (A) (A) (A) (A) (A) (A) (A)
                 (A) (A) (A) (A) (A) (A) (A) (A) (A)
       Virtual   (A) (A) (A) (A) (A) (A) (A) (A) (A) (A) (A) (A)
                 (A) (A) (A) (A) (A) (A) (A) (A) (A) (A) (A) (A)
                 (A) (A) (A) (A) (A) (A) (A) (A) (A) (A) (A) (A)
                 (A) (A) (A) (A) (A) (A) (A) (A) (A)
 The electronic state is 1-A.
 Alpha  occ. eigenvalues --  -15.80332 -11.46187 -11.46139 -11.41590 -11.39181
 Alpha  occ. eigenvalues --  -11.39171  -1.54971  -1.32193  -1.27489  -1.10457
 Alpha  occ. eigenvalues --   -1.09478  -1.00305  -0.89993  -0.89284  -0.85061
 Alpha  occ. eigenvalues --   -0.83557  -0.80728  -0.73560  -0.73534  -0.61553
 Alpha  occ. eigenvalues --   -0.56931
 Alpha virt. eigenvalues --   -0.11546  -0.06315   0.04178   0.11767   0.13042
 Alpha virt. eigenvalues --    0.13967   0.14680   0.18540   0.19789   0.26242
 Alpha virt. eigenvalues --    0.28601   0.31273   0.31611   0.50549   0.54901
 Alpha virt. eigenvalues --    0.70002   0.70096   0.72704   0.76416   0.81966
 Alpha virt. eigenvalues --    0.82045   0.83559   0.85334   0.88838   0.89322
 Alpha virt. eigenvalues --    0.89981   0.93085   1.09066   1.09497   1.13218
 Alpha virt. eigenvalues --    1.19102   1.19839   1.24043   1.28016   1.32019
 Alpha virt. eigenvalues --    1.42087   1.44118   1.49736   1.51191   1.62800
 Alpha virt. eigenvalues --    1.71963   1.87913   1.99982   2.09501   2.95446
     Molecular Orbital Coefficients:
                           1         2         3         4         5
                           O         O         O         O         O
     Eigenvalues --   -15.80332 -11.46187 -11.46139 -11.41590 -11.39181
   1 1   C  1S         -0.00031  -0.69790   0.69763   0.00282  -0.00052
   2        2S         -0.00150  -0.06981   0.06654  -0.00050   0.00249
   3        2PX         0.00082   0.00050   0.00019   0.00114  -0.00106
   4        2PY         0.00086  -0.00223   0.00005  -0.00041   0.00004
   5        2PZ         0.00000  -0.00000  -0.00000  -0.00000   0.00000
   6        3S          0.03265   0.05035  -0.03726  -0.00760  -0.02042
   7        3PX        -0.00552  -0.01673   0.00088   0.00190   0.00955
   8        3PY         0.02624   0.00569   0.00827  -0.00308  -0.00581
   9        3PZ         0.00000   0.00000   0.00000  -0.00000  -0.00000
  10 2   C  1S          0.00050   0.00092  -0.00085  -0.00832  -0.69794
  11        2S          0.00238   0.00269  -0.00174  -0.00495  -0.07053
  12        2PX        -0.00055   0.00101  -0.00165   0.00013  -0.00045
  13        2PY         0.00059  -0.00009  -0.00005  -0.00151  -0.00181
  14        2PZ         0.00000  -0.00000   0.00000  -0.00000  -0.00000
  15        3S         -0.02610  -0.02236   0.00554   0.03408   0.05700
  16        3PX        -0.00809  -0.01612   0.00617   0.00041   0.00497
  17        3PY        -0.02242  -0.00107  -0.00717   0.02129   0.01206
  18        3PZ        -0.00000   0.00000  -0.00000   0.00000   0.00000
  19 3   C  1S         -0.00037  -0.00000  -0.00428   0.98721   0.00000
  20        2S         -0.00175  -0.00000  -0.00235   0.09935  -0.00000
  21        2PX         0.00004  -0.00000  -0.00102   0.00158  -0.00000
  22        2PY         0.00000  -0.00122   0.00000  -0.00000  -0.00134
  23        2PZ        -0.00000  -0.00000   0.00000  -0.00000  -0.00000
  24        3S          0.03097   0.00000   0.01154  -0.09042   0.00001
  25        3PX         0.01764   0.00000   0.00803  -0.02321   0.00000
  26        3PY        -0.00000   0.00537  -0.00000   0.00000   0.01572
  27        3PZ        -0.00000   0.00000  -0.00000   0.00000   0.00000
  28 4   C  1S          0.00050  -0.00092  -0.00085  -0.00832   0.69808
  29        2S          0.00238  -0.00269  -0.00174  -0.00495   0.07055
  30        2PX        -0.00055  -0.00101  -0.00165   0.00013   0.00045
  31        2PY        -0.00059  -0.00009   0.00005   0.00151  -0.00181
  32        2PZ        -0.00000   0.00000   0.00000   0.00000  -0.00000
  33        3S         -0.02610   0.02236   0.00554   0.03409  -0.05702
  34        3PX        -0.00809   0.01612   0.00617   0.00041  -0.00497
  35        3PY         0.02242  -0.00107   0.00717  -0.02129   0.01206
  36        3PZ         0.00000  -0.00000   0.00000  -0.00000   0.00000
  37 5   C  1S         -0.00031   0.69806   0.69746   0.00282   0.00052
  38        2S         -0.00150   0.06983   0.06652  -0.00050  -0.00250
  39        2PX         0.00082  -0.00050   0.00019   0.00114   0.00106
  40        2PY        -0.00086  -0.00223  -0.00005   0.00041   0.00004
  41        2PZ        -0.00000  -0.00000  -0.00000  -0.00000  -0.00000
  42        3S          0.03265  -0.05036  -0.03725  -0.00760   0.02042
  43        3PX        -0.00552   0.01673   0.00087   0.00190  -0.00956
  44        3PY        -0.02624   0.00568  -0.00827   0.00308  -0.00581
  45        3PZ        -0.00000  -0.00000  -0.00000   0.00000  -0.00000
  46 6   N  1S          0.98651   0.00000   0.00021  -0.00008   0.00000
  47        2S          0.10564   0.00000   0.00085  -0.00071   0.00000
  48        2PX        -0.00226  -0.00000  -0.00012   0.00023   0.00000
  49        2PY         0.00000   0.00012  -0.00000  -0.00000  -0.00032
  50        2PZ         0.00000   0.00000   0.00000  -0.00000  -0.00000
  51        3S         -0.08669   0.00000   0.00139   0.00456  -0.00000
  52        3PX         0.01892   0.00000   0.00406  -0.00158   0.00000
  53        3PY        -0.00000  -0.00287   0.00000   0.00000  -0.00267
  54        3PZ        -0.00000  -0.00000  -0.00000   0.00000  -0.00000
  55 7   H  1S          0.00041   0.00000   0.00017  -0.00232   0.00000
  56        2S          0.00392   0.00000   0.00346   0.00631   0.00000
  57 8   H  1S          0.00077   0.00218  -0.00055  -0.00020   0.00024
  58        2S          0.00654  -0.00345   0.01208   0.00043  -0.00214
  59 9   H  1S         -0.00161   0.00048  -0.00116  -0.00007   0.00154
  60        2S         -0.00635  -0.00169  -0.00120   0.00463  -0.00448
  61 10  H  1S         -0.00161  -0.00048  -0.00116  -0.00007  -0.00154
  62        2S         -0.00635   0.00169  -0.00120   0.00463   0.00448
  63 11  H  1S          0.00077  -0.00218  -0.00055  -0.00020  -0.00024
  64        2S          0.00654   0.00345   0.01208   0.00043   0.00214
  65 12  H  1S          0.00033  -0.00000  -0.00149  -0.00003  -0.00000
  66        2S          0.00380   0.00000   0.00026   0.00028   0.00000
                           6         7         8         9        10
                           O         O         O         O         O
     Eigenvalues --   -11.39171  -1.54971  -1.32193  -1.27489  -1.10457
   1 1   C  1S          0.00062  -0.08938  -0.02553  -0.13332   0.08803
   2        2S         -0.00284   0.10752   0.03317   0.15064  -0.10217
   3        2PX         0.00146   0.02123  -0.09823  -0.03468   0.08756
   4        2PY        -0.00012   0.08626  -0.02209   0.01726   0.03829
   5        2PZ        -0.00000   0.00001   0.00000   0.00000  -0.00000
   6        3S          0.03196   0.04891   0.04402   0.27724  -0.22690
   7        3PX        -0.01798   0.02906  -0.01056  -0.04830   0.02622
   8        3PY         0.01147  -0.08087   0.00619  -0.01273   0.03296
   9        3PZ         0.00000  -0.00001   0.00000   0.00000   0.00000
  10 2   C  1S          0.69827  -0.03560  -0.11550  -0.10089   0.01662
  11        2S          0.07104   0.03255   0.12889   0.11055  -0.01655
  12        2PX         0.00111   0.02981  -0.00024   0.06772  -0.15127
  13        2PY         0.00042   0.01784   0.07051   0.00209   0.08082
  14        2PZ        -0.00000   0.00000   0.00001  -0.00000   0.00002
  15        3S         -0.07727   0.13493   0.23575   0.21115  -0.08034
  16        3PX        -0.01388   0.03211   0.01505  -0.01039  -0.04892
  17        3PY        -0.02192   0.08804   0.01362   0.03230  -0.00870
  18        3PZ        -0.00000   0.00001   0.00000   0.00001   0.00000
  19 3   C  1S          0.01066  -0.02289  -0.14292  -0.00000  -0.13450
  20        2S         -0.00492   0.03304   0.16144   0.00000   0.14272
  21        2PX        -0.00159   0.02251   0.07205  -0.00000  -0.03568
  22        2PY         0.00000  -0.00000   0.00000  -0.08139   0.00000
  23        2PZ         0.00000  -0.00000  -0.00000  -0.00001   0.00000
  24        3S          0.05293  -0.07329   0.29531   0.00000   0.42834
  25        3PX         0.02982  -0.05690   0.02476   0.00000   0.02263
  26        3PY        -0.00000   0.00000  -0.00000   0.01985   0.00000
  27        3PZ        -0.00000   0.00000  -0.00000   0.00000  -0.00000
  28 4   C  1S          0.69812  -0.03560  -0.11550   0.10089   0.01662
  29        2S          0.07103   0.03255   0.12889  -0.11055  -0.01655
  30        2PX         0.00111   0.02981  -0.00024  -0.06772  -0.15127
  31        2PY        -0.00042  -0.01784  -0.07051   0.00209  -0.08082
  32        2PZ        -0.00000  -0.00000  -0.00001   0.00000  -0.00000
  33        3S         -0.07726   0.13493   0.23575  -0.21115  -0.08033
  34        3PX        -0.01388   0.03211   0.01505   0.01039  -0.04892
  35        3PY         0.02192  -0.08804  -0.01362   0.03230   0.00870
  36        3PZ         0.00000  -0.00001  -0.00000   0.00000   0.00000
  37 5   C  1S          0.00062  -0.08938  -0.02553   0.13332   0.08803
  38        2S         -0.00284   0.10752   0.03317  -0.15064  -0.10217
  39        2PX         0.00146   0.02123  -0.09823   0.03468   0.08756
  40        2PY         0.00012  -0.08626   0.02209   0.01726  -0.03829
  41        2PZ        -0.00000  -0.00001   0.00001   0.00000  -0.00001
  42        3S          0.03195   0.04891   0.04402  -0.27724  -0.22691
  43        3PX        -0.01798   0.02906  -0.01056   0.04830   0.02622
  44        3PY        -0.01147   0.08087  -0.00619  -0.01273  -0.03296
  45        3PZ        -0.00000   0.00001  -0.00000  -0.00000  -0.00001
  46 6   N  1S          0.00032  -0.19929   0.08215   0.00000  -0.06066
  47        2S          0.00185   0.17488  -0.07467  -0.00000   0.05782
  48        2PX         0.00001  -0.04269  -0.05259  -0.00000   0.15920
  49        2PY         0.00000   0.00000   0.00000  -0.16752  -0.00000
  50        2PZ         0.00000   0.00000   0.00000  -0.00002  -0.00001
  51        3S         -0.01514   0.66795  -0.28981  -0.00000   0.23611
  52        3PX         0.00779  -0.10191  -0.03011  -0.00000   0.14407
  53        3PY         0.00000   0.00000   0.00000  -0.14954  -0.00000
  54        3PZ        -0.00000   0.00001   0.00000  -0.00002  -0.00001
  55 7   H  1S          0.00000   0.00416   0.05594   0.00000   0.10729
  56        2S          0.00728  -0.01711  -0.00299   0.00000   0.03537
  57 8   H  1S          0.00022   0.02157   0.00481   0.06925  -0.05670
  58        2S          0.00505  -0.03758  -0.00426   0.01060  -0.00236
  59 9   H  1S         -0.00217   0.01228   0.04361   0.04678  -0.01087
  60        2S          0.00251   0.02311  -0.00315   0.00598  -0.01000
  61 10  H  1S         -0.00217   0.01228   0.04361  -0.04678  -0.01087
  62        2S          0.00251   0.02311  -0.00315  -0.00598  -0.01000
  63 11  H  1S          0.00022   0.02157   0.00481  -0.06925  -0.05670
  64        2S          0.00505  -0.03758  -0.00426  -0.01060  -0.00236
  65 12  H  1S         -0.00055   0.08168  -0.06613  -0.00000   0.12104
  66        2S          0.00039   0.01239  -0.01230   0.00000   0.03698
                          11        12        13        14        15
                           O         O         O         O         O
     Eigenvalues --    -1.09478  -1.00305  -0.89993  -0.89284  -0.85061
   1 1   C  1S          0.06103  -0.02642  -0.03345  -0.05359  -0.02627
   2        2S         -0.06514   0.02609   0.03615   0.05704   0.02911
   3        2PX        -0.16076   0.01976  -0.14395   0.15075   0.01499
   4        2PY        -0.05184  -0.18854  -0.17702  -0.06109  -0.09948
   5        2PZ         0.00000  -0.00003  -0.00001  -0.00002  -0.00001
   6        3S         -0.16769   0.13677   0.18018   0.17666   0.11335
   7        3PX        -0.00917   0.03028  -0.04175   0.11320   0.03545
   8        3PY         0.00824  -0.06847  -0.06695  -0.09362  -0.06860
   9        3PZ         0.00000  -0.00001  -0.00001  -0.00002  -0.00001
  10 2   C  1S         -0.11075  -0.04022   0.02435   0.05760   0.03395
  11        2S          0.11597   0.04104  -0.02459  -0.06361  -0.03267
  12        2PX        -0.04041  -0.00791   0.20039  -0.04768   0.07729
  13        2PY         0.00109  -0.10857  -0.09988  -0.00517   0.21536
  14        2PZ         0.00000  -0.00001  -0.00003   0.00000   0.00002
  15        3S          0.34088   0.12763  -0.08971  -0.16098  -0.14643
  16        3PX         0.01864  -0.01589   0.09886  -0.00922   0.07199
  17        3PY        -0.00026  -0.07291  -0.06285   0.02398   0.17612
  18        3PZ        -0.00000  -0.00001  -0.00002   0.00000   0.00002
  19 3   C  1S         -0.00000   0.01359   0.00000  -0.06384  -0.03915
  20        2S          0.00000  -0.01529  -0.00000   0.06563   0.04714
  21        2PX        -0.00000  -0.04947   0.00000  -0.21744   0.18999
  22        2PY        -0.16548   0.00000   0.24773   0.00000  -0.00000
  23        2PZ        -0.00002   0.00000   0.00003   0.00001  -0.00001
  24        3S          0.00000  -0.03205  -0.00000   0.23284   0.08300
  25        3PX         0.00000  -0.03738   0.00000  -0.17478   0.12406
  26        3PY        -0.06220   0.00000   0.11605   0.00000  -0.00000
  27        3PZ        -0.00001   0.00000   0.00002   0.00001  -0.00001
  28 4   C  1S          0.11075  -0.04022  -0.02435   0.05760   0.03395
  29        2S         -0.11597   0.04104   0.02459  -0.06361  -0.03268
  30        2PX         0.04041  -0.00790  -0.20039  -0.04768   0.07729
  31        2PY         0.00109   0.10857  -0.09988   0.00517  -0.21536
  32        2PZ        -0.00000   0.00002  -0.00000   0.00000  -0.00004
  33        3S         -0.34088   0.12763   0.08971  -0.16098  -0.14643
  34        3PX        -0.01864  -0.01589  -0.09886  -0.00923   0.07198
  35        3PY        -0.00026   0.07291  -0.06285  -0.02398  -0.17611
  36        3PZ         0.00000   0.00001  -0.00000  -0.00000  -0.00003
  37 5   C  1S         -0.06103  -0.02642   0.03345  -0.05359  -0.02627
  38        2S          0.06514   0.02609  -0.03615   0.05704   0.02911
  39        2PX         0.16076   0.01976   0.14395   0.15075   0.01499
  40        2PY        -0.05184   0.18854  -0.17702   0.06109   0.09948
  41        2PZ        -0.00002   0.00002  -0.00003  -0.00000   0.00001
  42        3S          0.16768   0.13677  -0.18018   0.17666   0.11335
  43        3PX         0.00917   0.03028   0.04175   0.11320   0.03546
  44        3PY         0.00824   0.06847  -0.06695   0.09362   0.06860
  45        3PZ         0.00000   0.00001  -0.00001   0.00001   0.00001
  46 6   N  1S         -0.00000   0.01253   0.00000   0.02231   0.03590
  47        2S          0.00000  -0.00893  -0.00000  -0.02402  -0.03096
  48        2PX         0.00000   0.28580   0.00000  -0.17653   0.13279
  49        2PY         0.24569  -0.00000   0.23964   0.00000  -0.00000
  50        2PZ         0.00003  -0.00002   0.00003   0.00001  -0.00001
  51        3S          0.00000  -0.08044  -0.00000  -0.08104  -0.16589
  52        3PX         0.00000   0.29829   0.00000  -0.21022   0.14114
  53        3PY         0.23627  -0.00000   0.26391   0.00000  -0.00000
  54        3PZ         0.00003  -0.00002   0.00004   0.00001  -0.00001
  55 7   H  1S          0.00000   0.01314  -0.00000   0.17805  -0.07436
  56        2S          0.00000   0.00097  -0.00000   0.07471  -0.04388
  57 8   H  1S         -0.06457   0.10603   0.07052   0.12680   0.08565
  58        2S         -0.02578   0.05055   0.03036   0.04201   0.04399
  59 9   H  1S          0.08309   0.07723  -0.02742  -0.03581  -0.16445
  60        2S          0.02514   0.02274  -0.01613  -0.00397  -0.07666
  61 10  H  1S         -0.08309   0.07723   0.02742  -0.03581  -0.16445
  62        2S         -0.02514   0.02274   0.01613  -0.00397  -0.07666
  63 11  H  1S          0.06457   0.10603  -0.07052   0.12680   0.08566
  64        2S          0.02578   0.05055  -0.03036   0.04201   0.04400
  65 12  H  1S          0.00000   0.15049   0.00000  -0.13450   0.05766
  66        2S          0.00000   0.05173   0.00000  -0.07298   0.03209
                          16        17        18        19        20
                           O         O         O         O         O
     Eigenvalues --    -0.83557  -0.80728  -0.73560  -0.73534  -0.61553
   1 1   C  1S          0.01358   0.00000   0.01570   0.01263   0.00000
   2        2S         -0.01795  -0.00000  -0.02170  -0.01469  -0.00000
   3        2PX         0.19305   0.00001   0.21640  -0.01814  -0.00000
   4        2PY        -0.18461  -0.00003  -0.01406   0.12886   0.00000
   5        2PZ        -0.00004   0.18581  -0.00002   0.00002  -0.00256
   6        3S         -0.00898  -0.00000  -0.03948  -0.06069  -0.00000
   7        3PX         0.17370   0.00001   0.16309  -0.08460   0.00000
   8        3PY        -0.15844  -0.00002  -0.04817   0.13348  -0.00000
   9        3PZ        -0.00003   0.15827  -0.00002   0.00002   0.00105
  10 2   C  1S          0.00550  -0.00000  -0.01543  -0.00161  -0.00000
  11        2S         -0.01030   0.00000   0.01525   0.00132   0.00000
  12        2PX        -0.18039   0.00001  -0.21735   0.01726  -0.00001
  13        2PY        -0.11791  -0.00001   0.01596  -0.25951   0.00003
  14        2PZ        -0.00000   0.10462   0.00002  -0.00004  -0.21114
  15        3S          0.04281  -0.00000   0.05228   0.00278   0.00000
  16        3PX        -0.09792   0.00001  -0.15940  -0.04972  -0.00002
  17        3PY        -0.09880  -0.00001  -0.05056  -0.26473   0.00003
  18        3PZ        -0.00001   0.08714   0.00000  -0.00003  -0.23366
  19 3   C  1S         -0.00000  -0.00000   0.00305  -0.00000   0.00000
  20        2S          0.00000   0.00000  -0.00448   0.00000  -0.00000
  21        2PX         0.00000   0.00001   0.27023  -0.00021  -0.00002
  22        2PY        -0.02610  -0.00001   0.00021   0.26950   0.00004
  23        2PZ        -0.00000   0.07950  -0.00002   0.00004  -0.27879
  24        3S          0.00000   0.00000  -0.00705   0.00001  -0.00000
  25        3PX         0.00000   0.00001   0.32969  -0.00026  -0.00002
  26        3PY        -0.02414  -0.00001   0.00013   0.16507   0.00004
  27        3PZ        -0.00000   0.06943  -0.00002   0.00002  -0.28731
  28 4   C  1S         -0.00550  -0.00000  -0.01543   0.00163  -0.00000
  29        2S          0.01030   0.00000   0.01524  -0.00134   0.00000
  30        2PX         0.18039   0.00001  -0.21738  -0.01692  -0.00001
  31        2PY        -0.11792  -0.00001  -0.01636  -0.25949   0.00003
  32        2PZ        -0.00003   0.10462   0.00001  -0.00003  -0.21114
  33        3S         -0.04281  -0.00000   0.05228  -0.00286   0.00000
  34        3PX         0.09792   0.00001  -0.15932   0.04997  -0.00002
  35        3PY        -0.09880  -0.00001   0.05015  -0.26480   0.00003
  36        3PZ        -0.00002   0.08714   0.00002  -0.00004  -0.23366
  37 5   C  1S         -0.01358   0.00000   0.01568  -0.01266   0.00000
  38        2S          0.01795  -0.00000  -0.02168   0.01472   0.00000
  39        2PX        -0.19305   0.00001   0.21642   0.01780  -0.00000
  40        2PY        -0.18461  -0.00003   0.01426   0.12884   0.00000
  41        2PZ        -0.00001   0.18581  -0.00001   0.00002  -0.00256
  42        3S          0.00898   0.00000  -0.03939   0.06075  -0.00000
  43        3PX        -0.17370   0.00001   0.16322   0.08434   0.00000
  44        3PY        -0.15844  -0.00002   0.04838   0.13341  -0.00000
  45        3PZ        -0.00001   0.15827  -0.00000   0.00001   0.00105
  46 6   N  1S          0.00000  -0.00000  -0.00464   0.00000  -0.00000
  47        2S         -0.00000   0.00000   0.00363  -0.00000   0.00000
  48        2PX         0.00000   0.00002  -0.11510   0.00009   0.00002
  49        2PY         0.06884  -0.00005  -0.00012  -0.15024  -0.00003
  50        2PZ         0.00001   0.35209   0.00001  -0.00002   0.24228
  51        3S         -0.00000   0.00000   0.03341  -0.00003   0.00000
  52        3PX         0.00000   0.00003  -0.15732   0.00012   0.00002
  53        3PY         0.07085  -0.00005  -0.00014  -0.17750  -0.00004
  54        3PZ         0.00001   0.38924   0.00001  -0.00002   0.31851
  55 7   H  1S         -0.00000  -0.00000  -0.19753   0.00015   0.00000
  56        2S         -0.00000  -0.00000  -0.10004   0.00008  -0.00000
  57 8   H  1S          0.14873   0.00000   0.07624  -0.10590  -0.00000
  58        2S          0.07042   0.00000   0.04549  -0.05184  -0.00000
  59 9   H  1S          0.10899  -0.00000   0.08298   0.15729  -0.00000
  60        2S          0.06090  -0.00000   0.04324   0.08355   0.00000
  61 10  H  1S         -0.10899  -0.00000   0.08273  -0.15742  -0.00000
  62        2S         -0.06090  -0.00000   0.04311  -0.08361   0.00000
  63 11  H  1S         -0.14873   0.00000   0.07640   0.10578  -0.00000
  64        2S         -0.07042   0.00000   0.04557   0.05177  -0.00000
  65 12  H  1S          0.00000   0.00000  -0.08926   0.00007  -0.00000
  66        2S          0.00000   0.00000  -0.07098   0.00006   0.00000
                          21        22        23        24        25
                           O         V         V         V         V
     Eigenvalues --    -0.56931  -0.11546  -0.06315   0.04178   0.11767
   1 1   C  1S         -0.00000   0.00000  -0.00000   0.03170   0.03168
   2        2S          0.00000  -0.00000   0.00000  -0.01977  -0.02610
   3        2PX         0.00002  -0.00001  -0.00002  -0.04026   0.00314
   4        2PY        -0.00003   0.00003   0.00003   0.09512  -0.00956
   5        2PZ         0.25235  -0.21683  -0.24090   0.00002  -0.00000
   6        3S         -0.00000   0.00000   0.00000  -0.45900  -0.27024
   7        3PX         0.00002  -0.00003  -0.00003  -0.16194  -0.11819
   8        3PY        -0.00004   0.00005   0.00007   0.28772   0.01603
   9        3PZ         0.28486  -0.36915  -0.50641   0.00005   0.00001
  10 2   C  1S          0.00000  -0.00000   0.00000   0.02477   0.04024
  11        2S         -0.00000  -0.00000  -0.00000  -0.02210  -0.01191
  12        2PX         0.00002  -0.00001   0.00002   0.00679   0.08795
  13        2PY        -0.00003   0.00001  -0.00003   0.03327   0.07818
  14        2PZ         0.23131  -0.07657   0.24519   0.00000   0.00001
  15        3S         -0.00000   0.00000  -0.00000  -0.24667  -0.68557
  16        3PX         0.00002  -0.00001   0.00004   0.05128   0.23581
  17        3PY        -0.00004   0.00002  -0.00007   0.19876   0.22777
  18        3PZ         0.26100  -0.16138   0.52816   0.00002   0.00002
  19 3   C  1S         -0.00000  -0.00000   0.00000   0.03638   0.03252
  20        2S         -0.00000   0.00000  -0.00000  -0.02479  -0.01727
  21        2PX         0.00000   0.00002  -0.00000   0.01622   0.16970
  22        2PY         0.00000  -0.00004  -0.00000  -0.00000  -0.00000
  23        2PZ         0.00000   0.28665   0.00000  -0.00000  -0.00001
  24        3S          0.00000   0.00000  -0.00000  -0.43953  -0.46043
  25        3PX         0.00000   0.00004   0.00000   0.08567   0.65046
  26        3PY         0.00000  -0.00008  -0.00000  -0.00000  -0.00000
  27        3PZ         0.00000   0.54705   0.00000  -0.00001  -0.00005
  28 4   C  1S         -0.00000  -0.00000  -0.00000   0.02477   0.04024
  29        2S          0.00000   0.00000   0.00000  -0.02210  -0.01191
  30        2PX        -0.00002  -0.00001  -0.00002   0.00679   0.08795
  31        2PY         0.00003   0.00001   0.00003  -0.03327  -0.07818
  32        2PZ        -0.23131  -0.07657  -0.24519  -0.00001  -0.00002
  33        3S          0.00000   0.00000   0.00000  -0.24667  -0.68558
  34        3PX        -0.00002  -0.00001  -0.00004   0.05128   0.23582
  35        3PY         0.00004   0.00002   0.00007  -0.19876  -0.22778
  36        3PZ        -0.26100  -0.16137  -0.52816  -0.00003  -0.00005
  37 5   C  1S          0.00000   0.00000  -0.00000   0.03170   0.03168
  38        2S         -0.00000  -0.00000  -0.00000  -0.01977  -0.02610
  39        2PX        -0.00002  -0.00001   0.00002  -0.04026   0.00314
  40        2PY         0.00003   0.00003  -0.00003  -0.09512   0.00956
  41        2PZ        -0.25235  -0.21683   0.24090  -0.00001   0.00000
  42        3S         -0.00000  -0.00000   0.00000  -0.45900  -0.27024
  43        3PX        -0.00002  -0.00002   0.00003  -0.16194  -0.11820
  44        3PY         0.00004   0.00005  -0.00007  -0.28772  -0.01603
  45        3PZ        -0.28486  -0.36916   0.50640  -0.00003   0.00001
  46 6   N  1S         -0.00000  -0.00000   0.00000   0.08019  -0.06047
  47        2S          0.00000   0.00000  -0.00000  -0.03724   0.02061
  48        2PX        -0.00000   0.00002   0.00000  -0.14027   0.14173
  49        2PY        -0.00000  -0.00003  -0.00000   0.00000  -0.00000
  50        2PZ        -0.00000   0.25324   0.00000   0.00001  -0.00001
  51        3S         -0.00000   0.00000  -0.00000  -0.81528   0.71574
  52        3PX         0.00000   0.00003   0.00000  -0.43588   0.42690
  53        3PY        -0.00000  -0.00007  -0.00000   0.00000  -0.00000
  54        3PZ        -0.00000   0.47560   0.00000   0.00003  -0.00003
  55 7   H  1S          0.00000  -0.00000   0.00000   0.03555   0.05762
  56        2S          0.00000  -0.00000   0.00000   0.37040   1.09714
  57 8   H  1S          0.00000  -0.00000  -0.00000   0.03847   0.02651
  58        2S         -0.00000  -0.00000  -0.00000   0.66079   0.26819
  59 9   H  1S          0.00000  -0.00000   0.00000   0.04425   0.03106
  60        2S         -0.00000  -0.00000   0.00000   0.42191   0.77695
  61 10  H  1S         -0.00000  -0.00000  -0.00000   0.04425   0.03106
  62        2S          0.00000  -0.00000  -0.00000   0.42191   0.77696
  63 11  H  1S          0.00000   0.00000  -0.00000   0.03847   0.02651
  64        2S          0.00000   0.00000  -0.00000   0.66079   0.26820
  65 12  H  1S         -0.00000  -0.00000   0.00000   0.10080  -0.03491
  66        2S         -0.00000  -0.00000   0.00000   1.11378  -0.90987
                          26        27        28        29        30
                           V         V         V         V         V
     Eigenvalues --     0.13042   0.13967   0.14680   0.18540   0.19789
   1 1   C  1S          0.04840   0.00000   0.08439  -0.07603   0.02989
   2        2S         -0.01935  -0.00000  -0.04729   0.04433  -0.03609
   3        2PX        -0.07533   0.00001  -0.13067   0.00523   0.00072
   4        2PY         0.17849  -0.00003  -0.00388  -0.02794   0.03702
   5        2PZ         0.00003   0.19661   0.00001  -0.00000   0.00001
   6        3S         -0.81813   0.00000  -0.99569   1.07445  -0.02998
   7        3PX        -0.26954   0.00004  -0.65809  -0.21318  -0.15459
   8        3PY         0.66615  -0.00007   0.17156  -0.40170   0.50195
   9        3PZ         0.00011   0.52511   0.00007  -0.00004   0.00008
  10 2   C  1S          0.01242   0.00000   0.00417   0.09632  -0.08242
  11        2S          0.00202  -0.00000   0.01842  -0.03628   0.06642
  12        2PX         0.05424  -0.00002   0.00397   0.01640  -0.05799
  13        2PY         0.11939   0.00003  -0.03740   0.11089  -0.03616
  14        2PZ         0.00001  -0.24072  -0.00001   0.00001  -0.00000
  15        3S         -0.31656  -0.00000  -0.33884  -1.56278   0.77884
  16        3PX         0.24245  -0.00005   0.03913  -0.02976  -0.61919
  17        3PY         0.32068   0.00009  -0.43820   0.62148  -0.60966
  18        3PZ         0.00003  -0.66589  -0.00006   0.00009  -0.00004
  19 3   C  1S          0.00000   0.00000  -0.06842   0.00000   0.11190
  20        2S         -0.00000  -0.00000   0.01531  -0.00000  -0.07875
  21        2PX         0.00000   0.00002  -0.08338   0.00000   0.07343
  22        2PY         0.06191  -0.00003  -0.00000  -0.05496   0.00000
  23        2PZ         0.00001   0.24845   0.00001  -0.00001  -0.00000
  24        3S         -0.00000   0.00000   1.30373  -0.00001  -1.18989
  25        3PX         0.00001   0.00005  -0.12704   0.00001   0.86794
  26        3PY         0.08554  -0.00010  -0.00000  -0.33819   0.00000
  27        3PZ         0.00001   0.69991   0.00001  -0.00005  -0.00006
  28 4   C  1S         -0.01242   0.00000   0.00417  -0.09632  -0.08242
  29        2S         -0.00202  -0.00000   0.01842   0.03628   0.06642
  30        2PX        -0.05424  -0.00002   0.00397  -0.01640  -0.05799
  31        2PY         0.11939   0.00003   0.03740   0.11089   0.03616
  32        2PZ         0.00002  -0.24072   0.00000   0.00002   0.00001
  33        3S          0.31655  -0.00000  -0.33884   1.56279   0.77882
  34        3PX        -0.24245  -0.00004   0.03913   0.02975  -0.61918
  35        3PY         0.32067   0.00009   0.43821   0.62148   0.60965
  36        3PZ         0.00006  -0.66589   0.00006   0.00008   0.00013
  37 5   C  1S         -0.04840   0.00000   0.08439   0.07603   0.02989
  38        2S          0.01935  -0.00000  -0.04729  -0.04433  -0.03609
  39        2PX         0.07533   0.00001  -0.13067  -0.00523   0.00072
  40        2PY         0.17849  -0.00003   0.00388  -0.02794  -0.03702
  41        2PZ         0.00002   0.19661   0.00001  -0.00000  -0.00001
  42        3S          0.81812  -0.00000  -0.99570  -1.07445  -0.02997
  43        3PX         0.26954   0.00003  -0.65809   0.21317  -0.15460
  44        3PY         0.66615  -0.00007  -0.17156  -0.40171  -0.50194
  45        3PZ         0.00007   0.52511   0.00002  -0.00007  -0.00006
  46 6   N  1S         -0.00000  -0.00000  -0.10470   0.00000  -0.00235
  47        2S          0.00000   0.00000   0.05518   0.00000   0.03171
  48        2PX         0.00000  -0.00001  -0.05038   0.00000   0.01410
  49        2PY         0.02633   0.00002   0.00000   0.08072  -0.00000
  50        2PZ         0.00000  -0.18173   0.00000   0.00001  -0.00000
  51        3S          0.00001   0.00000   1.08527  -0.00000  -0.25404
  52        3PX         0.00000  -0.00003  -0.03141   0.00000   0.27672
  53        3PY         0.06878   0.00005   0.00000   0.14313  -0.00000
  54        3PZ         0.00001  -0.38291   0.00000   0.00002  -0.00002
  55 7   H  1S          0.00000   0.00000  -0.01298   0.00000   0.02279
  56        2S          0.00001   0.00000  -0.77778   0.00001   1.41374
  57 8   H  1S          0.03697   0.00000   0.04071   0.00227   0.02761
  58        2S          1.26202  -0.00000   1.08694  -0.71331   0.56236
  59 9   H  1S          0.03392  -0.00000  -0.02958   0.00907  -0.02780
  60        2S          0.72145  -0.00000  -0.29895   1.25167  -1.21425
  61 10  H  1S         -0.03392  -0.00000  -0.02958  -0.00907  -0.02780
  62        2S         -0.72144   0.00000  -0.29895  -1.25168  -1.21423
  63 11  H  1S         -0.03697   0.00000   0.04071  -0.00227   0.02761
  64        2S         -1.26202   0.00000   1.08695   0.71332   0.56235
  65 12  H  1S         -0.00000   0.00000   0.00326  -0.00000  -0.03551
  66        2S         -0.00001  -0.00000  -0.30026  -0.00000  -0.25479
                          31        32        33        34        35
                           V         V         V         V         V
     Eigenvalues --     0.26242   0.28601   0.31273   0.31611   0.50549
   1 1   C  1S          0.01939   0.01602   0.04777   0.10071   0.00361
   2        2S         -0.00642   0.00686  -0.01449  -0.02552   0.04016
   3        2PX         0.02130  -0.12617   0.17010   0.04668   0.08433
   4        2PY        -0.16940   0.00287   0.08099  -0.16945  -0.00817
   5        2PZ        -0.00002   0.00001  -0.00000  -0.00003  -0.00001
   6        3S         -0.07246  -0.41474  -1.24560  -2.04329   0.29553
   7        3PX        -0.34686  -1.20947   1.26567   0.93846  -1.80952
   8        3PY        -0.94202  -0.21530   0.48855  -1.03506  -1.25033
   9        3PZ        -0.00011   0.00005  -0.00002  -0.00021  -0.00005
  10 2   C  1S          0.02910   0.07572  -0.02200  -0.04573  -0.03290
  11        2S          0.00990   0.00242  -0.00632   0.01244   0.02083
  12        2PX        -0.03772   0.01456   0.15364   0.12897  -0.20648
  13        2PY        -0.04637  -0.10299  -0.12580   0.12879   0.14141
  14        2PZ        -0.00000  -0.00002  -0.00003   0.00001   0.00003
  15        3S         -0.81984  -1.92042   0.70663   0.84774   0.48718
  16        3PX        -0.09653  -0.02107   1.45775   1.54225  -1.84475
  17        3PY        -0.58060  -0.82736  -0.97986   0.53195   1.38926
  18        3PZ        -0.00007  -0.00011  -0.00023  -0.00003   0.00032
  19 3   C  1S         -0.04586  -0.00000  -0.08293   0.00000   0.00000
  20        2S          0.01617  -0.00000  -0.00269   0.00000  -0.00000
  21        2PX         0.23324  -0.00000   0.04986  -0.00000   0.00000
  22        2PY        -0.00000  -0.19699  -0.00000  -0.12662   0.12633
  23        2PZ        -0.00002  -0.00003  -0.00000  -0.00002   0.00002
  24        3S          0.73353   0.00001   2.16285  -0.00003   0.00000
  25        3PX         1.38460  -0.00000   0.58881  -0.00001   0.00000
  26        3PY        -0.00001  -1.65139   0.00000  -0.28419   2.85054
  27        3PZ        -0.00009  -0.00023  -0.00004  -0.00004   0.00039
  28 4   C  1S          0.02910  -0.07572  -0.02200   0.04573   0.03290
  29        2S          0.00990  -0.00242  -0.00632  -0.01244  -0.02083
  30        2PX        -0.03772  -0.01456   0.15364  -0.12898   0.20648
  31        2PY         0.04637  -0.10299   0.12581   0.12879   0.14141
  32        2PZ         0.00001  -0.00001   0.00001   0.00003   0.00001
  33        3S         -0.81984   1.92043   0.70659  -0.84776  -0.48717
  34        3PX        -0.09653   0.02107   1.45771  -1.54229   1.84477
  35        3PY         0.58060  -0.82735   0.97987   0.53192   1.38924
  36        3PZ         0.00009  -0.00011   0.00004   0.00018   0.00007
  37 5   C  1S          0.01939  -0.01602   0.04777  -0.10071  -0.00361
  38        2S         -0.00642  -0.00686  -0.01449   0.02552  -0.04016
  39        2PX         0.02130   0.12617   0.17010  -0.04668  -0.08433
  40        2PY         0.16940   0.00286  -0.08100  -0.16945  -0.00816
  41        2PZ         0.00002  -0.00001  -0.00002  -0.00002   0.00000
  42        3S         -0.07246   0.41473  -1.24555   2.04333  -0.29554
  43        3PX        -0.34685   1.20948   1.26564  -0.93850   1.80952
  44        3PY         0.94203  -0.21532  -0.48858  -1.03504  -1.25033
  45        3PZ         0.00015  -0.00011  -0.00015  -0.00008  -0.00030
  46 6   N  1S         -0.07945   0.00000   0.03688  -0.00000  -0.00000
  47        2S          0.01536   0.00000   0.00832  -0.00000   0.00000
  48        2PX        -0.22122  -0.00000  -0.01247  -0.00000  -0.00000
  49        2PY         0.00000  -0.21778  -0.00000  -0.18486  -0.23116
  50        2PZ         0.00002  -0.00003   0.00000  -0.00003  -0.00003
  51        3S          1.17021  -0.00001  -0.78802   0.00001   0.00000
  52        3PX        -0.90117  -0.00000  -0.00946  -0.00000  -0.00001
  53        3PY         0.00000  -0.96523  -0.00001  -0.92494  -1.29742
  54        3PZ         0.00006  -0.00013   0.00000  -0.00013  -0.00018
  55 7   H  1S         -0.01292   0.00000   0.12344  -0.00000   0.00000
  56        2S          1.14388  -0.00000   0.04454   0.00000  -0.00000
  57 8   H  1S          0.00874  -0.05590  -0.06326  -0.04236   0.12126
  58        2S         -0.61621   0.61606   0.04265  -0.55943  -0.01611
  59 9   H  1S         -0.02759  -0.08812   0.06122  -0.04639   0.02740
  60        2S         -0.30851  -0.23832  -0.28604   0.82258   0.07222
  61 10  H  1S         -0.02759   0.08813   0.06122   0.04639  -0.02740
  62        2S         -0.30850   0.23831  -0.28606  -0.82257  -0.07221
  63 11  H  1S          0.00874   0.05589  -0.06326   0.04236  -0.12126
  64        2S         -0.61621  -0.61605   0.04267   0.55943   0.01610
  65 12  H  1S          0.04543  -0.00000  -0.12329   0.00000  -0.00000
  66        2S          0.81183  -0.00000  -0.04770   0.00000   0.00000
                          36        37        38        39        40
                           V         V         V         V         V
     Eigenvalues --     0.54901   0.70002   0.70096   0.72704   0.76416
   1 1   C  1S         -0.08708  -0.04252   0.03981  -0.00000  -0.02342
   2        2S         -0.09720   0.10065   0.00465  -0.00000   0.04850
   3        2PX        -0.01166  -0.16432  -0.34279   0.00004   0.44691
   4        2PY         0.02215   0.37274  -0.31432  -0.00008   0.37277
   5        2PZ         0.00000   0.00006  -0.00002   0.59227   0.00002
   6        3S          2.14598   0.38420   0.11138   0.00000  -0.26899
   7        3PX        -1.37246   0.08961  -0.01650  -0.00004  -0.45679
   8        3PY         1.38428  -0.15343  -0.15810   0.00007  -0.50247
   9        3PZ         0.00029  -0.00003  -0.00002  -0.52990  -0.00004
  10 2   C  1S          0.12651   0.02348  -0.01978   0.00000  -0.04578
  11        2S         -0.06861   0.03139   0.04106  -0.00000  -0.00894
  12        2PX        -0.18724   0.06899   0.36352   0.00003  -0.30666
  13        2PY        -0.17564   0.18771  -0.09034  -0.00005   0.20937
  14        2PZ        -0.00001   0.00002  -0.00004   0.38303   0.00005
  15        3S         -2.92553  -0.31447   0.17041  -0.00000   0.13074
  16        3PX        -1.11686  -0.26528  -0.97384  -0.00001   0.38988
  17        3PY        -2.04815  -0.60159   0.59446   0.00002   0.14807
  18        3PZ        -0.00021  -0.00007   0.00015  -0.17198  -0.00001
  19 3   C  1S         -0.10682  -0.03419   0.00001  -0.00000   0.06749
  20        2S         -0.03933   0.08328  -0.00001   0.00000  -0.03705
  21        2PX         0.06744   0.31285  -0.00005   0.00003  -0.21178
  22        2PY        -0.00000   0.00008   0.49519  -0.00005   0.00000
  23        2PZ        -0.00000  -0.00002   0.00007   0.37656   0.00001
  24        3S          2.97076   0.63222  -0.00010   0.00000  -0.31085
  25        3PX         2.32252   0.11592  -0.00002  -0.00002  -0.14758
  26        3PY         0.00000   0.00005   0.28453   0.00004  -0.00000
  27        3PZ        -0.00016  -0.00001   0.00004  -0.25679   0.00001
  28 4   C  1S          0.12651   0.02348   0.01977   0.00000  -0.04578
  29        2S         -0.06861   0.03137  -0.04107  -0.00000  -0.00894
  30        2PX        -0.18724   0.06886  -0.36355   0.00003  -0.30666
  31        2PY         0.17564  -0.18775  -0.09028  -0.00005  -0.20937
  32        2PZ         0.00004  -0.00003   0.00001   0.38303  -0.00001
  33        3S         -2.92553  -0.31453  -0.17031  -0.00000   0.13074
  34        3PX        -1.11685  -0.26496   0.97393  -0.00001   0.38987
  35        3PY         2.04816   0.60179   0.59426   0.00002  -0.14807
  36        3PZ         0.00036   0.00010   0.00002  -0.17198  -0.00005
  37 5   C  1S         -0.08708  -0.04253  -0.03979  -0.00000  -0.02342
  38        2S         -0.09720   0.10065  -0.00468   0.00000   0.04850
  39        2PX        -0.01166  -0.16421   0.34284   0.00004   0.44691
  40        2PY        -0.02215  -0.37284  -0.31420  -0.00008  -0.37277
  41        2PZ        -0.00000  -0.00004  -0.00007   0.59227  -0.00008
  42        3S          2.14598   0.38416  -0.11150   0.00000  -0.26899
  43        3PX        -1.37246   0.08962   0.01647  -0.00004  -0.45679
  44        3PY        -1.38429   0.15338  -0.15816   0.00007   0.50247
  45        3PZ        -0.00010   0.00002  -0.00002  -0.52990   0.00010
  46 6   N  1S          0.09426   0.02533  -0.00000  -0.00000   0.05041
  47        2S         -0.05462  -0.02518   0.00000   0.00000  -0.09163
  48        2PX         0.15748   0.00723  -0.00000   0.00001   0.10866
  49        2PY        -0.00000  -0.00004  -0.21695  -0.00001   0.00000
  50        2PZ        -0.00001  -0.00000  -0.00003   0.09913  -0.00001
  51        3S         -1.50476  -0.14033   0.00002  -0.00000   0.48556
  52        3PX         1.02070   0.18627  -0.00003   0.00001  -0.10771
  53        3PY        -0.00001  -0.00008  -0.46053  -0.00002   0.00000
  54        3PZ        -0.00007  -0.00001  -0.00006   0.11900   0.00001
  55 7   H  1S         -0.04045  -0.32516   0.00005  -0.00000   0.26720
  56        2S          0.82143   0.25901  -0.00004   0.00000  -0.16623
  57 8   H  1S         -0.07998  -0.40182   0.12423  -0.00000  -0.05863
  58        2S          0.74788   0.19754  -0.10177   0.00000  -0.01985
  59 9   H  1S          0.13677  -0.23476  -0.06751   0.00000  -0.11085
  60        2S         -1.00900  -0.13796   0.08253  -0.00000   0.16158
  61 10  H  1S          0.13677  -0.23474   0.06758   0.00000  -0.11085
  62        2S         -1.00900  -0.13798  -0.08248  -0.00000   0.16159
  63 11  H  1S         -0.07998  -0.40186  -0.12409  -0.00000  -0.05863
  64        2S          0.74788   0.19757   0.10170   0.00000  -0.01985
  65 12  H  1S          0.12208  -0.26744   0.00004  -0.00000   0.34615
  66        2S         -0.39198   0.05747  -0.00001  -0.00000  -0.04714
                          41        42        43        44        45
                           V         V         V         V         V
     Eigenvalues --     0.81966   0.82045   0.83559   0.85334   0.88838
   1 1   C  1S         -0.00000  -0.02498   0.00000   0.00303   0.00000
   2        2S          0.00000   0.04436   0.00000   0.32003   0.00000
   3        2PX         0.00001  -0.57200  -0.00003   0.14546   0.00003
   4        2PY        -0.00011  -0.19949   0.00006   0.40201  -0.00005
   5        2PZ         0.67423  -0.00003  -0.44902   0.00005   0.38684
   6        3S          0.00001   0.18487  -0.00000  -0.28537  -0.00000
   7        3PX        -0.00002   0.32189   0.00004  -0.10421  -0.00004
   8        3PY         0.00009   0.01145  -0.00008  -0.64996   0.00008
   9        3PZ        -0.65798   0.00002   0.56319  -0.00008  -0.60240
  10 2   C  1S          0.00000   0.06229  -0.00000   0.00306   0.00000
  11        2S          0.00000   0.06282   0.00000   0.01229  -0.00000
  12        2PX         0.00001  -0.20280   0.00002   0.39217  -0.00005
  13        2PY        -0.00005   0.00526  -0.00004  -0.34351   0.00009
  14        2PZ         0.37499  -0.00001   0.32250  -0.00007  -0.68602
  15        3S          0.00002   0.33674  -0.00000   0.13011  -0.00000
  16        3PX        -0.00004  -0.28675  -0.00002  -0.32574   0.00006
  17        3PY         0.00005   0.22212   0.00004   0.68101  -0.00012
  18        3PZ        -0.23237   0.00007  -0.31516   0.00012   0.84611
  19 3   C  1S         -0.00000  -0.00000  -0.00000  -0.06017  -0.00000
  20        2S         -0.00000  -0.00000  -0.00000   0.01628  -0.00000
  21        2PX         0.00000  -0.00000   0.00005   0.13280  -0.00000
  22        2PY        -0.00004  -0.57826  -0.00011   0.00000  -0.00000
  23        2PZ        -0.00000  -0.00008   0.76795  -0.00001  -0.00000
  24        3S         -0.00000  -0.00000  -0.00000  -0.59962   0.00000
  25        3PX        -0.00000  -0.00000  -0.00004  -0.26967   0.00000
  26        3PY         0.00008   1.17598   0.00009  -0.00000   0.00000
  27        3PZ         0.00000   0.00016  -0.63411   0.00002   0.00000
  28 4   C  1S         -0.00000  -0.06229  -0.00000   0.00307  -0.00000
  29        2S         -0.00000  -0.06282  -0.00000   0.01229  -0.00000
  30        2PX        -0.00001   0.20280   0.00002   0.39216   0.00005
  31        2PY         0.00005   0.00526  -0.00004   0.34351  -0.00010
  32        2PZ        -0.37499   0.00001   0.32250   0.00002   0.68602
  33        3S         -0.00002  -0.33674  -0.00000   0.13012   0.00000
  34        3PX         0.00003   0.28674  -0.00002  -0.32574  -0.00006
  35        3PY        -0.00002   0.22210   0.00004  -0.68100   0.00012
  36        3PZ         0.23237  -0.00000  -0.31516  -0.00007  -0.84611
  37 5   C  1S          0.00000   0.02498   0.00000   0.00303  -0.00000
  38        2S         -0.00000  -0.04436   0.00000   0.32003  -0.00000
  39        2PX        -0.00001   0.57200  -0.00003   0.14545  -0.00003
  40        2PY         0.00008  -0.19950   0.00006  -0.40201   0.00005
  41        2PZ        -0.67423  -0.00002  -0.44902  -0.00006  -0.38683
  42        3S         -0.00001  -0.18487  -0.00000  -0.28537   0.00000
  43        3PX         0.00002  -0.32189   0.00004  -0.10420   0.00004
  44        3PY        -0.00009   0.01146  -0.00008   0.64996  -0.00008
  45        3PZ         0.65798  -0.00002   0.56319   0.00009   0.60240
  46 6   N  1S          0.00000   0.00000   0.00000   0.02877   0.00000
  47        2S         -0.00000  -0.00000  -0.00000  -0.01918  -0.00000
  48        2PX         0.00000   0.00000  -0.00000   0.01786  -0.00000
  49        2PY        -0.00001  -0.08382   0.00001  -0.00000  -0.00000
  50        2PZ         0.00000  -0.00001  -0.05952  -0.00000   0.00000
  51        3S          0.00000   0.00000   0.00000   0.55272  -0.00000
  52        3PX        -0.00000  -0.00000  -0.00001  -0.29758   0.00000
  53        3PY        -0.00001  -0.12808   0.00002   0.00000   0.00000
  54        3PZ        -0.00000  -0.00002  -0.14698   0.00002   0.00000
  55 7   H  1S         -0.00000  -0.00000  -0.00000  -0.28480  -0.00000
  56        2S          0.00000   0.00000   0.00000   0.07690   0.00000
  57 8   H  1S         -0.00001  -0.11197   0.00000   0.30799   0.00000
  58        2S         -0.00000  -0.01587  -0.00000  -0.32313  -0.00000
  59 9   H  1S          0.00002   0.31496   0.00000   0.09062   0.00000
  60        2S         -0.00001  -0.11692   0.00000   0.09151   0.00000
  61 10  H  1S         -0.00002  -0.31496  -0.00000   0.09062  -0.00000
  62        2S          0.00001   0.11693   0.00000   0.09151   0.00000
  63 11  H  1S          0.00001   0.11197   0.00000   0.30799  -0.00000
  64        2S          0.00000   0.01586  -0.00000  -0.32313   0.00000
  65 12  H  1S          0.00000   0.00000   0.00000   0.43972   0.00000
  66        2S         -0.00000   0.00000   0.00000  -0.08001   0.00000
                          46        47        48        49        50
                           V         V         V         V         V
     Eigenvalues --     0.89322   0.89981   0.93085   1.09066   1.09497
   1 1   C  1S         -0.03190  -0.02395  -0.00000   0.00230  -0.02787
   2        2S         -0.23273   0.30876   0.00000   0.04455   0.09421
   3        2PX        -0.18828  -0.37117  -0.00001   0.16263   0.38792
   4        2PY        -0.11298   0.17546   0.00002  -0.10258  -0.51063
   5        2PZ        -0.00000   0.00005  -0.15126  -0.00002  -0.00010
   6        3S          0.26670  -0.45448  -0.00000   0.98496   0.30875
   7        3PX         0.32694   0.53675   0.00003  -0.82935  -1.13905
   8        3PY        -0.09668  -0.38165  -0.00006   0.90027   1.34737
   9        3PZ        -0.00004  -0.00009   0.39885   0.00018   0.00026
  10 2   C  1S         -0.01565   0.01886   0.00000   0.02268   0.02047
  11        2S         -0.16228   0.30576   0.00000   0.07859  -0.00796
  12        2PX        -0.37120  -0.18645   0.00004   0.38512   0.27360
  13        2PY         0.19729   0.18731  -0.00008   0.57719   0.34225
  14        2PZ         0.00005   0.00003   0.59066   0.00005   0.00003
  15        3S          0.33715   0.14367   0.00000  -1.47834  -0.57139
  16        3PX         0.11197   0.37273  -0.00007  -1.19438  -0.84225
  17        3PY        -0.12649   0.17490   0.00014  -2.11065  -1.02999
  18        3PZ        -0.00002   0.00001  -0.99910  -0.00021  -0.00008
  19 3   C  1S         -0.00000   0.01188   0.00000  -0.02654  -0.00000
  20        2S          0.00000   0.41530   0.00000   0.09535   0.00001
  21        2PX         0.00000   0.22985  -0.00005  -0.55522  -0.00003
  22        2PY         0.50021  -0.00000   0.00010   0.00000  -0.07159
  23        2PZ         0.00007  -0.00001  -0.69248   0.00004  -0.00001
  24        3S          0.00000  -0.45491  -0.00000   1.60807   0.00009
  25        3PX         0.00000  -0.21748   0.00008   2.44104   0.00014
  26        3PY        -0.11756   0.00000  -0.00017  -0.00000   0.01631
  27        3PZ        -0.00002   0.00001   1.19229  -0.00017   0.00000
  28 4   C  1S          0.01565   0.01886   0.00000   0.02269  -0.02047
  29        2S          0.16228   0.30576   0.00000   0.07858   0.00797
  30        2PX         0.37121  -0.18645   0.00004   0.38515  -0.27355
  31        2PY         0.19729  -0.18731  -0.00008  -0.57724   0.34218
  32        2PZ         0.00000  -0.00001   0.59066  -0.00011   0.00007
  33        3S         -0.33715   0.14368   0.00000  -1.47841   0.57122
  34        3PX        -0.11197   0.37273  -0.00007  -1.19447   0.84211
  35        3PY        -0.12648  -0.17490   0.00014   2.11078  -1.02975
  36        3PZ        -0.00001  -0.00005  -0.99910   0.00037  -0.00020
  37 5   C  1S          0.03190  -0.02395  -0.00000   0.00230   0.02788
  38        2S          0.23273   0.30876   0.00000   0.04455  -0.09420
  39        2PX         0.18828  -0.37117  -0.00001   0.16268  -0.38791
  40        2PY        -0.11298  -0.17546   0.00002   0.10264  -0.51062
  41        2PZ        -0.00003   0.00000  -0.15126   0.00000  -0.00004
  42        3S         -0.26670  -0.45448  -0.00000   0.98499  -0.30864
  43        3PX        -0.32694   0.53675   0.00003  -0.82948   1.13896
  44        3PY        -0.09668   0.38164  -0.00005  -0.90042   1.34727
  45        3PZ         0.00001   0.00002   0.39885  -0.00007   0.00011
  46 6   N  1S          0.00000  -0.00450   0.00000   0.01537   0.00000
  47        2S          0.00000   0.01925   0.00000   0.02751   0.00000
  48        2PX         0.00000   0.02713  -0.00001  -0.15924  -0.00001
  49        2PY         0.14041  -0.00000   0.00002   0.00000  -0.03002
  50        2PZ         0.00002  -0.00000  -0.14411   0.00001  -0.00000
  51        3S          0.00000   0.24130   0.00000  -0.65924  -0.00004
  52        3PX        -0.00000  -0.30869  -0.00000   0.49760   0.00003
  53        3PY        -0.07120   0.00000   0.00000  -0.00000   0.04756
  54        3PZ        -0.00001   0.00002  -0.02344  -0.00003   0.00001
  55 7   H  1S         -0.00000   0.49097   0.00000  -0.28727  -0.00002
  56        2S          0.00000  -0.24284  -0.00000   1.28769   0.00008
  57 8   H  1S         -0.54992   0.15789   0.00000   0.02703  -0.38329
  58        2S          0.13475  -0.34081  -0.00000   0.47589   1.29358
  59 9   H  1S         -0.32174   0.45526   0.00000   0.31091   0.32312
  60        2S          0.10003  -0.10201  -0.00000  -1.33060  -0.89450
  61 10  H  1S          0.32175   0.45526   0.00000   0.31095  -0.32308
  62        2S         -0.10004  -0.10202  -0.00000  -1.33071   0.89434
  63 11  H  1S          0.54992   0.15788   0.00000   0.02699   0.38330
  64        2S         -0.13476  -0.34081  -0.00000   0.47603  -1.29352
  65 12  H  1S          0.00000   0.12655   0.00000   0.06392   0.00000
  66        2S         -0.00000  -0.03028  -0.00000  -0.12680  -0.00001
                          51        52        53        54        55
                           V         V         V         V         V
     Eigenvalues --     1.13218   1.19102   1.19839   1.24043   1.28016
   1 1   C  1S          0.01280   0.01524  -0.01977   0.00000   0.00041
   2        2S         -0.09047  -0.18496   0.15333  -0.00000  -0.19718
   3        2PX        -0.23779  -0.36423   0.19065   0.00001  -0.06524
   4        2PY         0.29619   0.01356  -0.24116  -0.00001   0.43165
   5        2PZ         0.00006   0.00003  -0.00005   0.09585   0.00006
   6        3S         -0.12082  -0.26828  -0.12820   0.00000   1.41316
   7        3PX         0.43729   1.32173  -0.67433  -0.00004  -0.32469
   8        3PY        -0.95446   0.34805  -0.05580   0.00007  -1.66503
   9        3PZ        -0.00016  -0.00004   0.00004  -0.53189  -0.00021
  10 2   C  1S          0.00184  -0.01007  -0.02687   0.00000   0.00125
  11        2S         -0.06681  -0.00649   0.13596  -0.00000  -0.14749
  12        2PX        -0.18177  -0.25943   0.02542  -0.00000   0.55053
  13        2PY        -0.05970   0.06505  -0.62045   0.00001   0.13199
  14        2PZ         0.00000   0.00003  -0.00009  -0.06065  -0.00002
  15        3S         -0.04065   0.59246   0.20127   0.00000   1.54892
  16        3PX         0.24922   1.02562  -0.69263   0.00002  -2.55264
  17        3PY         0.14938  -0.55509   1.59359  -0.00004   0.74047
  18        3PZ         0.00000  -0.00015   0.00027   0.30125   0.00028
  19 3   C  1S         -0.02476  -0.02091  -0.00000  -0.00000  -0.00000
  20        2S          0.01161   0.05435   0.00000  -0.00000   0.00000
  21        2PX        -0.67550  -0.21618  -0.00001   0.00001  -0.00000
  22        2PY         0.00000   0.00001  -0.43163  -0.00001  -0.40218
  23        2PZ         0.00005   0.00002  -0.00006   0.08753  -0.00006
  24        3S         -0.24185   0.85631   0.00002   0.00000   0.00000
  25        3PX         1.30983   0.33891   0.00001  -0.00002   0.00001
  26        3PY        -0.00001  -0.00004   1.81759   0.00004   3.17800
  27        3PZ        -0.00009  -0.00002   0.00025  -0.26308   0.00044
  28 4   C  1S          0.00184  -0.01007   0.02687  -0.00000  -0.00125
  29        2S         -0.06681  -0.00648  -0.13596   0.00000   0.14749
  30        2PX        -0.18177  -0.25943  -0.02543  -0.00001  -0.55053
  31        2PY         0.05970  -0.06502  -0.62046   0.00001   0.13199
  32        2PZ         0.00002   0.00001  -0.00008  -0.06065   0.00006
  33        3S         -0.04065   0.59246  -0.20124  -0.00000  -1.54893
  34        3PX         0.24922   1.02559   0.69270   0.00003   2.55264
  35        3PY        -0.14938   0.55501   1.59361  -0.00004   0.74047
  36        3PZ        -0.00004   0.00001   0.00017   0.30125  -0.00007
  37 5   C  1S          0.01280   0.01524   0.01977  -0.00000  -0.00041
  38        2S         -0.09047  -0.18495  -0.15334   0.00000   0.19718
  39        2PX        -0.23779  -0.36422  -0.19067   0.00001   0.06524
  40        2PY        -0.29618  -0.01355  -0.24116  -0.00001   0.43165
  41        2PZ        -0.00002   0.00002  -0.00002   0.09585   0.00005
  42        3S         -0.12082  -0.26828   0.12818  -0.00000  -1.41316
  43        3PX         0.43729   1.32169   0.67440  -0.00004   0.32468
  44        3PY         0.95445  -0.34806  -0.05581   0.00007  -1.66503
  45        3PZ         0.00010  -0.00014  -0.00005  -0.53189  -0.00025
  46 6   N  1S         -0.03505   0.04373   0.00000   0.00000   0.00000
  47        2S          0.02991  -0.09583  -0.00000  -0.00000   0.00000
  48        2PX         0.48866  -0.45012  -0.00001  -0.00007   0.00000
  49        2PY        -0.00000  -0.00000   0.07206   0.00015   0.28054
  50        2PZ        -0.00003   0.00003   0.00001  -1.05812   0.00004
  51        3S          0.58678  -0.66307  -0.00001  -0.00000  -0.00000
  52        3PX        -0.73405   0.19140   0.00000   0.00009  -0.00000
  53        3PY         0.00000   0.00001  -0.38820  -0.00018  -0.60099
  54        3PZ         0.00005  -0.00001  -0.00005   1.32465  -0.00009
  55 7   H  1S         -0.39606  -0.45551  -0.00001   0.00000   0.00000
  56        2S          1.17610   0.55088   0.00001  -0.00000   0.00000
  57 8   H  1S          0.29003   0.19858  -0.32697   0.00000  -0.32247
  58        2S         -0.86090  -0.43816   0.59844  -0.00000  -0.65059
  59 9   H  1S          0.01067  -0.28361  -0.43329   0.00000  -0.09060
  60        2S          0.12814   0.20077   1.02989  -0.00000  -0.53932
  61 10  H  1S          0.01067  -0.28363   0.43327  -0.00000   0.09060
  62        2S          0.12814   0.20082  -1.02987   0.00000   0.53931
  63 11  H  1S          0.29003   0.19856   0.32698   0.00000   0.32247
  64        2S         -0.86090  -0.43813  -0.59847   0.00000   0.65059
  65 12  H  1S         -0.54426   0.82679   0.00002  -0.00000  -0.00000
  66        2S          0.73103  -0.97870  -0.00002   0.00000   0.00000
                          56        57        58        59        60
                           V         V         V         V         V
     Eigenvalues --     1.32019   1.42087   1.44118   1.49736   1.51191
   1 1   C  1S          0.01494   0.00409   0.00796  -0.00530   0.00615
   2        2S         -0.34071  -0.66149  -0.58585  -0.00273  -0.75460
   3        2PX        -0.00479  -0.17070   0.03236  -0.00126   0.12745
   4        2PY         0.07776   0.32053  -0.15750  -0.03638   0.13177
   5        2PZ         0.00001   0.00006  -0.00002  -0.00000   0.00001
   6        3S          0.57784   1.92671   1.93585   1.48802   1.26365
   7        3PX        -0.18726  -0.05388   0.27513  -0.94805   0.05355
   8        3PY         0.99621  -1.17832   1.60790   0.89089  -1.11476
   9        3PZ         0.00015  -0.00016   0.00020   0.00019  -0.00016
  10 2   C  1S          0.01835   0.01444   0.00639   0.00728   0.00439
  11        2S         -0.34703  -0.40469  -0.55915   0.18564   0.03582
  12        2PX         0.06338   0.23722   0.02964   0.22813   0.00185
  13        2PY         0.35403  -0.10316   0.10048  -0.03160  -0.38320
  14        2PZ         0.00004  -0.00003   0.00001  -0.00002  -0.00005
  15        3S          0.09430  -0.05821   1.14757  -1.59337  -0.81151
  16        3PX        -0.03172  -1.24526  -0.68891  -1.77623   0.34224
  17        3PY        -1.57818   0.56952  -0.94500  -1.50424   1.75327
  18        3PZ        -0.00022   0.00016  -0.00008  -0.00009   0.00022
  19 3   C  1S          0.00575   0.01531  -0.00000  -0.02097   0.00000
  20        2S         -0.39119  -0.18979   0.00000   1.07273  -0.00000
  21        2PX         0.57772  -0.23237  -0.00000  -0.19520   0.00000
  22        2PY        -0.00000  -0.00000  -0.39555   0.00000   0.22620
  23        2PZ        -0.00004   0.00002  -0.00005   0.00001   0.00003
  24        3S          2.33712  -1.27718   0.00001  -0.62058  -0.00000
  25        3PX        -0.48151   1.17107   0.00000   2.67380   0.00000
  26        3PY         0.00000   0.00000   1.09593  -0.00001  -0.42171
  27        3PZ         0.00003  -0.00008   0.00015  -0.00018  -0.00006
  28 4   C  1S          0.01835   0.01444  -0.00639   0.00728  -0.00439
  29        2S         -0.34702  -0.40468   0.55916   0.18564  -0.03582
  30        2PX         0.06338   0.23722  -0.02964   0.22814  -0.00185
  31        2PY        -0.35403   0.10317   0.10048   0.03159  -0.38320
  32        2PZ        -0.00005  -0.00000   0.00002  -0.00001  -0.00005
  33        3S          0.09429  -0.05822  -1.14757  -1.59337   0.81150
  34        3PX        -0.03172  -1.24525   0.68892  -1.77624  -0.34224
  35        3PY         1.57818  -0.56954  -0.94499   1.50425   1.75327
  36        3PZ         0.00022   0.00001  -0.00018   0.00033   0.00027
  37 5   C  1S          0.01494   0.00409  -0.00796  -0.00530  -0.00615
  38        2S         -0.34071  -0.66149   0.58586  -0.00273   0.75460
  39        2PX        -0.00479  -0.17070  -0.03236  -0.00126  -0.12745
  40        2PY        -0.07776  -0.32053  -0.15749   0.03638   0.13177
  41        2PZ        -0.00001  -0.00003  -0.00002   0.00001   0.00003
  42        3S          0.57784   1.92669  -1.93587   1.48804  -1.26364
  43        3PX        -0.18726  -0.05388  -0.27512  -0.94805  -0.05356
  44        3PY        -0.99620   1.17834   1.60788  -0.89090  -1.11476
  45        3PZ        -0.00012   0.00017   0.00024  -0.00006  -0.00015
  46 6   N  1S          0.02294  -0.00718   0.00000   0.02505  -0.00000
  47        2S         -0.02525  -0.00142  -0.00000  -0.08072   0.00000
  48        2PX         0.20099  -0.32023   0.00000   0.04854  -0.00000
  49        2PY        -0.00000  -0.00000  -0.64968   0.00000  -0.28067
  50        2PZ        -0.00001   0.00002  -0.00009  -0.00000  -0.00004
  51        3S         -1.01065   0.46175  -0.00000  -0.71532   0.00000
  52        3PX         0.18918   0.21400   0.00000   0.46734   0.00000
  53        3PY         0.00000   0.00001   1.97267  -0.00001   0.37945
  54        3PZ        -0.00001  -0.00001   0.00027  -0.00003   0.00005
  55 7   H  1S          0.13757   0.64721  -0.00000   0.64641   0.00000
  56        2S         -0.86573   0.24704   0.00000   1.14884   0.00000
  57 8   H  1S          0.60960  -0.18149   0.16560   0.18848  -0.33836
  58        2S         -0.14338  -0.80534   0.14318   0.33460  -0.56084
  59 9   H  1S         -0.11837   0.18371  -0.39269  -0.60360   0.56010
  60        2S         -0.77807  -0.28129  -0.50415  -0.45630   0.66205
  61 10  H  1S         -0.11837   0.18372   0.39269  -0.60360  -0.56010
  62        2S         -0.77806  -0.28127   0.50415  -0.45630  -0.66205
  63 11  H  1S          0.60960  -0.18150  -0.16559   0.18848   0.33836
  64        2S         -0.14338  -0.80534  -0.14317   0.33460   0.56084
  65 12  H  1S         -0.12705   0.07863  -0.00000  -0.11574  -0.00000
  66        2S          0.12624  -0.22482   0.00000   0.01448  -0.00000
                          61        62        63        64        65
                           V         V         V         V         V
     Eigenvalues --     1.62800   1.71963   1.87913   1.99982   2.09501
   1 1   C  1S         -0.00079  -0.00543  -0.00054   0.02545  -0.01458
   2        2S         -0.89210   0.13788   0.27532   0.96627  -0.12811
   3        2PX         0.23592  -0.02750   0.15354  -0.03768  -0.13979
   4        2PY         0.09453   0.19713   0.14886   0.28528   0.01103
   5        2PZ        -0.00000   0.00003   0.00001   0.00004   0.00001
   6        3S          1.91137   1.50124   0.71707  -2.20767   2.15423
   7        3PX        -0.93595   0.86705  -1.66421   1.99373  -1.08093
   8        3PY        -0.15703   0.53596   0.91119  -1.13886   0.53961
   9        3PZ         0.00004   0.00001   0.00024  -0.00029   0.00015
  10 2   C  1S         -0.00142   0.00061   0.01895  -0.02601   0.05331
  11        2S          0.65431   0.99842   0.05789  -0.81925   1.09794
  12        2PX        -0.02442   0.04508  -0.18404   0.01655   0.19994
  13        2PY        -0.04983   0.22334  -0.06612  -0.15941   0.01385
  14        2PZ        -0.00001   0.00003   0.00000  -0.00002  -0.00001
  15        3S         -1.26021  -1.54636  -1.65208   2.93830  -5.08663
  16        3PX        -0.30386   0.04849  -0.43709   1.33666  -1.39329
  17        3PY         0.97581  -1.10901  -0.32277   1.16167  -2.55150
  18        3PZ         0.00016  -0.00016  -0.00002   0.00007  -0.00026
  19 3   C  1S         -0.00084  -0.00000  -0.00414   0.00000  -0.06399
  20        2S          0.73314   0.00000  -0.09812   0.00000  -1.40858
  21        2PX         0.28748   0.00000  -0.03318   0.00000  -0.20012
  22        2PY        -0.00000  -0.00702   0.00000   0.21950   0.00000
  23        2PZ        -0.00002  -0.00000   0.00000   0.00003   0.00001
  24        3S         -1.45557  -0.00000   0.73948  -0.00000   5.95886
  25        3PX        -1.61484  -0.00000   0.34116  -0.00000   3.74738
  26        3PY         0.00001  -0.85046  -0.00000   0.06801  -0.00001
  27        3PZ         0.00011  -0.00012  -0.00002   0.00001  -0.00026
  28 4   C  1S         -0.00142  -0.00061   0.01895   0.02601   0.05331
  29        2S          0.65431  -0.99842   0.05789   0.81925   1.09794
  30        2PX        -0.02442  -0.04508  -0.18404  -0.01655   0.19994
  31        2PY         0.04983   0.22335   0.06612  -0.15941  -0.01385
  32        2PZ         0.00001   0.00003   0.00002  -0.00002  -0.00002
  33        3S         -1.26021   1.54636  -1.65208  -2.93830  -5.08664
  34        3PX        -0.30387  -0.04849  -0.43709  -1.33666  -1.39328
  35        3PY        -0.97581  -1.10901   0.32277   1.16167   2.55151
  36        3PZ        -0.00011  -0.00015   0.00007   0.00025   0.00045
  37 5   C  1S         -0.00079   0.00543  -0.00054  -0.02545  -0.01458
  38        2S         -0.89210  -0.13788   0.27532  -0.96627  -0.12811
  39        2PX         0.23592   0.02750   0.15354   0.03768  -0.13979
  40        2PY        -0.09453   0.19713  -0.14886   0.28528  -0.01103
  41        2PZ        -0.00003   0.00003  -0.00003   0.00004   0.00001
  42        3S          1.91137  -1.50124   0.71707   2.20767   2.15424
  43        3PX        -0.93595  -0.86705  -1.66421  -1.99373  -1.08093
  44        3PY         0.15704   0.53596  -0.91119  -1.13886  -0.53961
  45        3PZ         0.00009   0.00013  -0.00001  -0.00002  -0.00000
  46 6   N  1S          0.01164   0.00000   0.01180  -0.00000   0.02753
  47        2S         -0.08501  -0.00000  -0.32127   0.00000  -0.45343
  48        2PX        -0.03305  -0.00000  -0.86346  -0.00000   0.08591
  49        2PY         0.00000  -0.68092   0.00000  -0.54736  -0.00000
  50        2PZ         0.00000  -0.00009   0.00006  -0.00008  -0.00001
  51        3S         -0.13606  -0.00000   0.33867  -0.00000  -0.08607
  52        3PX         0.47960   0.00000   2.78762   0.00000   0.19311
  53        3PY        -0.00000   2.24505  -0.00000   1.09975  -0.00000
  54        3PZ        -0.00003   0.00031  -0.00019   0.00015  -0.00001
  55 7   H  1S         -0.36942   0.00000  -0.01997   0.00000   0.31430
  56        2S         -0.38835   0.00000   0.04880  -0.00000   0.63789
  57 8   H  1S          0.01669  -0.23745   0.34896  -0.31550   0.05210
  58        2S         -0.19759  -0.16563   0.62355  -0.47741   0.10783
  59 9   H  1S          0.24290  -0.16387   0.00040   0.13425  -0.20142
  60        2S          0.46285  -0.03394   0.01827   0.28731  -0.46753
  61 10  H  1S          0.24290   0.16387   0.00040  -0.13425  -0.20142
  62        2S          0.46285   0.03394   0.01827  -0.28731  -0.46752
  63 11  H  1S          0.01669   0.23744   0.34896   0.31550   0.05210
  64        2S         -0.19759   0.16563   0.62355   0.47741   0.10783
  65 12  H  1S         -0.15274   0.00000  -0.98376   0.00000  -0.02778
  66        2S          0.03124   0.00000  -0.50902   0.00000  -0.02458
                          66
                           V
     Eigenvalues --     2.95446
   1 1   C  1S          0.04279
   2        2S          0.13799
   3        2PX        -0.08327
   4        2PY        -0.14414
   5        2PZ        -0.00001
   6        3S         -3.01342
   7        3PX         1.05292
   8        3PY        -2.10900
   9        3PZ        -0.00036
  10 2   C  1S         -0.05315
  11        2S         -0.48893
  12        2PX         0.02238
  13        2PY        -0.04727
  14        2PZ        -0.00001
  15        3S          3.55012
  16        3PX         1.06388
  17        3PY         2.39112
  18        3PZ         0.00026
  19 3   C  1S          0.04457
  20        2S          0.41031
  21        2PX         0.02742
  22        2PY        -0.00000
  23        2PZ        -0.00000
  24        3S         -3.85404
  25        3PX        -2.29974
  26        3PY         0.00001
  27        3PZ         0.00016
  28 4   C  1S         -0.05315
  29        2S         -0.48893
  30        2PX         0.02238
  31        2PY         0.04727
  32        2PZ         0.00001
  33        3S          3.55012
  34        3PX         1.06387
  35        3PY        -2.39112
  36        3PZ        -0.00040
  37 5   C  1S          0.04279
  38        2S          0.13799
  39        2PX        -0.08327
  40        2PY         0.14414
  41        2PZ         0.00003
  42        3S         -3.01342
  43        3PX         1.05293
  44        3PY         2.10899
  45        3PZ         0.00022
  46 6   N  1S         -0.05400
  47        2S         -1.99226
  48        2PX         0.26772
  49        2PY        -0.00000
  50        2PZ        -0.00002
  51        3S          5.00434
  52        3PX        -1.84154
  53        3PY         0.00000
  54        3PZ         0.00013
  55 7   H  1S         -0.10496
  56        2S         -0.46871
  57 8   H  1S         -0.15384
  58        2S         -0.57289
  59 9   H  1S          0.21342
  60        2S          0.57432
  61 10  H  1S          0.21342
  62        2S          0.57432
  63 11  H  1S         -0.15384
  64        2S         -0.57289
  65 12  H  1S          0.03132
  66        2S          0.02090
     Density Matrix:
                           1         2         3         4         5
   1 1   C  1S          2.03522
   2        2S          0.09028   0.13290
   3        2PX         0.00906  -0.01651   0.34661
   4        2PY         0.01608  -0.01041  -0.02976   0.28756
   5        2PZ         0.00000  -0.00000  -0.00001   0.00001   0.19642
   6        3S         -0.31479   0.20355  -0.01957  -0.15482  -0.00002
   7        3PX         0.03118  -0.00784   0.20323  -0.10121  -0.00001
   8        3PY         0.04723  -0.04772  -0.10113   0.15589   0.00000
   9        3PZ         0.00000  -0.00001  -0.00001   0.00000   0.20258
  10 2   C  1S          0.01980  -0.03364   0.07547  -0.00125  -0.00001
[...]
  57 8   H  1S          0.00000   0.00000   0.00000  -0.00000  -0.00000
  58        2S          0.00000  -0.00000  -0.00006  -0.00011  -0.00023
  59 9   H  1S          0.00000   0.00000   0.00002   0.00001   0.00010
  60        2S          0.00005   0.00000   0.00027   0.00000   0.00133
  61 10  H  1S          0.04904   0.00000   0.07155   0.02166   0.07728
  62        2S          0.01908   0.00000   0.04650   0.01288   0.04338
  63 11  H  1S         -0.00002  -0.00000  -0.00140  -0.00248  -0.00227
  64        2S         -0.00033  -0.00000  -0.00722  -0.00558  -0.00125
  65 12  H  1S          0.00000   0.00000   0.00004   0.00017   0.00003
  66        2S          0.00001   0.00000   0.00032   0.00162   0.00023
                          36        37        38        39        40
  36        3PZ         0.26063
  37 5   C  1S         -0.00000   2.03522
  38        2S          0.00000   0.01728   0.13290
  39        2PX         0.00000   0.00000   0.00000   0.34661
  40        2PY         0.00000   0.00000   0.00000   0.00000   0.28756
  41        2PZ         0.03043   0.00000   0.00000   0.00000   0.00000
  42        3S          0.00000  -0.05676   0.15497   0.00000   0.00000
  43        3PX         0.00000   0.00000   0.00000   0.10750   0.00000
  44        3PY         0.00000   0.00000   0.00000   0.00000   0.08246
  45        3PZ         0.09127   0.00000   0.00000   0.00000   0.00000
  46 6   N  1S         -0.00000   0.00000  -0.00010  -0.00017  -0.00064
  47        2S          0.00000  -0.00001   0.00106   0.00161   0.00582
  48        2PX        -0.00000  -0.00006   0.00203   0.00077   0.00977
  49        2PY        -0.00000  -0.00021   0.00621   0.00998   0.02479
  50        2PZ        -0.00072  -0.00000   0.00000   0.00000   0.00000
  51        3S          0.00000  -0.00155   0.01251   0.01235   0.04550
  52        3PX        -0.00000  -0.00228   0.01021  -0.00587   0.02315
  53        3PY        -0.00000  -0.00483   0.02167   0.02159   0.03712
  54        3PZ        -0.00797  -0.00000   0.00000   0.00000   0.00000
  55 7   H  1S          0.00000  -0.00000   0.00000   0.00000   0.00000
  56        2S          0.00000   0.00000  -0.00000   0.00005   0.00000
  57 8   H  1S         -0.00000  -0.00000   0.00000   0.00000   0.00000
  58        2S         -0.00000   0.00000  -0.00002   0.00000   0.00003
  59 9   H  1S          0.00000  -0.00000   0.00000   0.00000   0.00000
  60        2S          0.00000  -0.00000   0.00000   0.00000   0.00000
  61 10  H  1S          0.00000   0.00000  -0.00002  -0.00012  -0.00002
  62        2S          0.00000   0.00006  -0.00044  -0.00230  -0.00042
  63 11  H  1S          0.00000  -0.00147   0.01451   0.02162   0.04434
  64        2S          0.00000   0.00106   0.00407   0.00826   0.01714
  65 12  H  1S          0.00000   0.00000  -0.00004  -0.00021  -0.00010
  66        2S          0.00000   0.00008  -0.00056  -0.00301  -0.00050
                          41        42        43        44        45
  41        2PZ         0.19642
  42        3S          0.00000   0.53567
  43        3PX         0.00000   0.00000   0.17090
  44        3PY         0.00000   0.00000   0.00000   0.15348
  45        3PZ         0.10715   0.00000   0.00000   0.00000   0.21239
  46 6   N  1S         -0.00000   0.00410  -0.00089   0.00561   0.00000
  47        2S          0.00000  -0.00592   0.00130  -0.00370  -0.00000
  48        2PX         0.00000   0.00180  -0.00280  -0.00040   0.00000
  49        2PY         0.00000   0.00905  -0.00478   0.00735   0.00000
  50        2PZ         0.00483   0.00000   0.00000   0.00000   0.01430
  51        3S          0.00000  -0.07622   0.01024  -0.02975  -0.00000
  52        3PX         0.00000   0.00608  -0.02059  -0.00605   0.00000
  53        3PY         0.00000   0.02103  -0.01220   0.00664   0.00000
  54        3PZ         0.02514   0.00000   0.00000   0.00000   0.05626
  55 7   H  1S          0.00000   0.00003   0.00012   0.00000   0.00000
  56        2S          0.00000   0.00016   0.00104   0.00015   0.00000
  57 8   H  1S          0.00000   0.00003   0.00001   0.00014   0.00000
  58        2S          0.00000   0.00004  -0.00003   0.00147   0.00000
  59 9   H  1S          0.00000   0.00000  -0.00000  -0.00000  -0.00000
  60        2S          0.00000   0.00009  -0.00003  -0.00012  -0.00000
  61 10  H  1S         -0.00000  -0.00305  -0.00252  -0.00135  -0.00000
  62        2S         -0.00000  -0.00702  -0.00582  -0.00080  -0.00000
  63 11  H  1S          0.00000   0.07352   0.03477   0.06382   0.00000
  64        2S          0.00000   0.04221   0.01919   0.02895   0.00000
  65 12  H  1S         -0.00000  -0.00248  -0.00486  -0.00008  -0.00000
  66        2S         -0.00000  -0.00377  -0.01042   0.00226  -0.00000
                          46        47        48        49        50
  46 6   N  1S          2.05062
  47        2S          0.02259   0.10459
  48        2PX         0.00000   0.00000   0.34733
  49        2PY         0.00000   0.00000   0.00000   0.34633
  50        2PZ         0.00000   0.00000   0.00000   0.00000   0.36533
  51        3S         -0.09790   0.22692   0.00000   0.00000   0.00000
  52        3PX         0.00000   0.00000   0.19406   0.00000   0.00000
  53        3PY         0.00000   0.00000   0.00000   0.18358   0.00000
  54        3PZ         0.00000   0.00000   0.00000   0.00000   0.22107
  55 7   H  1S          0.00000  -0.00000   0.00000  -0.00000   0.00000
  56        2S          0.00000  -0.00000   0.00000   0.00000   0.00000
  57 8   H  1S          0.00000  -0.00001  -0.00000  -0.00006  -0.00000
  58        2S          0.00029  -0.00095  -0.00002  -0.00125  -0.00000
  59 9   H  1S         -0.00000   0.00000   0.00000   0.00000   0.00000
  60        2S         -0.00000   0.00001   0.00003   0.00002   0.00000
  61 10  H  1S         -0.00000   0.00000   0.00000   0.00000   0.00000
  62        2S         -0.00000   0.00001   0.00003   0.00002   0.00000
  63 11  H  1S          0.00000  -0.00001  -0.00000  -0.00006  -0.00000
  64        2S          0.00029  -0.00095  -0.00002  -0.00125  -0.00000
  65 12  H  1S         -0.00122   0.00934   0.05166   0.00000   0.00000
  66        2S         -0.00021   0.00395   0.01504   0.00000   0.00000
                          51        52        53        54        55
  51        3S          1.27068
  52        3PX         0.00000   0.42065
  53        3PY         0.00000   0.00000   0.36875
  54        3PZ         0.00000   0.00000   0.00000   0.50592
  55 7   H  1S          0.00000  -0.00000  -0.00000  -0.00000   0.18217
  56        2S         -0.00003  -0.00002  -0.00000  -0.00000   0.05152
  57 8   H  1S         -0.00189   0.00002  -0.00424  -0.00000  -0.00000
  58        2S         -0.01360  -0.00012  -0.00842  -0.00000  -0.00000
  59 9   H  1S          0.00001   0.00001   0.00002   0.00000  -0.00000
  60        2S          0.00067   0.00068   0.00041   0.00000  -0.00021
  61 10  H  1S          0.00001   0.00001   0.00002   0.00000  -0.00000
  62        2S          0.00067   0.00068   0.00041   0.00000  -0.00021
  63 11  H  1S         -0.00189   0.00002  -0.00424  -0.00000  -0.00000
  64        2S         -0.01360  -0.00012  -0.00842  -0.00000  -0.00000
  65 12  H  1S          0.06386   0.11721   0.00000   0.00000   0.00000
  66        2S          0.01846   0.05233   0.00000   0.00000   0.00000
                          56        57        58        59        60
  56        2S          0.03838
  57 8   H  1S         -0.00000   0.18290
  58        2S         -0.00001   0.04873   0.03867
  59 9   H  1S         -0.00021  -0.00000  -0.00022   0.17964
  60        2S         -0.00052  -0.00011  -0.00064   0.05288   0.04126
  61 10  H  1S         -0.00021   0.00000   0.00000  -0.00000  -0.00000
  62        2S         -0.00052   0.00000  -0.00000  -0.00000  -0.00001
  63 11  H  1S         -0.00000  -0.00000  -0.00000   0.00000   0.00000
  64        2S         -0.00001  -0.00000   0.00000   0.00000  -0.00000
  65 12  H  1S         -0.00000  -0.00001  -0.00019  -0.00000  -0.00000
  66        2S          0.00000  -0.00060  -0.00095  -0.00000  -0.00003
                          61        62        63        64        65
  61 10  H  1S          0.17964
  62        2S          0.05288   0.04126
  63 11  H  1S         -0.00000  -0.00011   0.18290
  64        2S         -0.00022  -0.00064   0.04873   0.03867
  65 12  H  1S         -0.00000  -0.00000  -0.00001  -0.00019   0.15545
  66        2S         -0.00000  -0.00003  -0.00060  -0.00095   0.04145
                          66
  66        2S          0.03152
     Gross orbital populations:
                           1
   1 1   C  1S          1.98720
   2        2S          0.41816
   3        2PX         0.64854
   4        2PY         0.56440
   5        2PZ         0.37111
   6        3S          0.72179
   7        3PX         0.30715
   8        3PY         0.23187
   9        3PZ         0.48774
  10 2   C  1S          1.98831
  11        2S          0.40066
  12        2PX         0.61091
  13        2PY         0.61906
  14        2PZ         0.41344
  15        3S          0.92968
  16        3PX         0.28401
  17        3PY         0.50616
  18        3PZ         0.58855
  19 3   C  1S          1.98846
  20        2S          0.41188
  21        2PX         0.62883
  22        2PY         0.63559
  23        2PZ         0.32555
  24        3S          0.89611
  25        3PX         0.51932
  26        3PY         0.23791
  27        3PZ         0.46361
  28 4   C  1S          1.98831
  29        2S          0.40066
  30        2PX         0.61091
  31        2PY         0.61906
  32        2PZ         0.41344
  33        3S          0.92968
  34        3PX         0.28401
  35        3PY         0.50616
  36        3PZ         0.58855
  37 5   C  1S          1.98720
  38        2S          0.41816
  39        2PX         0.64854
  40        2PY         0.56440
  41        2PZ         0.37111
  42        3S          0.72179
  43        3PX         0.30716
  44        3PY         0.23187
  45        3PZ         0.48774
  46 6   N  1S          1.98900
  47        2S          0.36623
  48        2PX         0.62588
  49        2PY         0.62482
  50        2PZ         0.62280
  51        3S          1.39923
  52        3PX         0.76029
  53        3PY         0.66512
  54        3PZ         0.86635
  55 7   H  1S          0.46926
  56        2S          0.18773
  57 8   H  1S          0.46983
  58        2S          0.16846
  59 9   H  1S          0.46559
  60        2S          0.19842
  61 10  H  1S          0.46559
  62        2S          0.19842
  63 11  H  1S          0.46983
  64        2S          0.16846
  65 12  H  1S          0.42229
  66        2S          0.13165
          Condensed to atoms (all electrons):
               1          2          3          4          5          6
     1  C    4.896377   0.477371  -0.113807   0.000434  -0.090903   0.240853
     2  C    0.477371   5.261973   0.401810  -0.094474   0.000434  -0.043901
     3  C   -0.113807   0.401810   5.218486   0.401810  -0.113807  -0.028652
     4  C    0.000434  -0.094474   0.401810   5.261973   0.477371  -0.043901
     5  C   -0.090903   0.000434  -0.113807   0.477371   4.896376   0.240853
     6  N    0.240853  -0.043901  -0.028652  -0.043901   0.240853   7.280836
     7  H    0.001548  -0.023908   0.380077  -0.023908   0.001548  -0.000056
     8  H    0.371994  -0.023388   0.002347  -0.000409   0.001680  -0.030236
     9  H   -0.023832   0.380915  -0.021377   0.001788  -0.000056   0.001858
    10  H   -0.000056   0.001788  -0.021378   0.380915  -0.023832   0.001858
    11  H    0.001680  -0.000409   0.002347  -0.023388   0.371994  -0.030236
    12  H   -0.023699   0.002580  -0.000598   0.002580  -0.023699   0.330440
               7          8          9         10         11         12
     1  C    0.001548   0.371994  -0.023832  -0.000056   0.001680  -0.023699
     2  C   -0.023908  -0.023388   0.380915   0.001788  -0.000409   0.002580
     3  C    0.380077   0.002347  -0.021377  -0.021378   0.002347  -0.000598
     4  C   -0.023908  -0.000409   0.001788   0.380915  -0.023388   0.002580
     5  C    0.001548   0.001680  -0.000056  -0.023832   0.371994  -0.023699
     6  N   -0.000056  -0.030236   0.001858   0.001858  -0.030236   0.330440
     7  H    0.323583  -0.000014  -0.000939  -0.000939  -0.000014   0.000002
     8  H   -0.000014   0.319026  -0.000972  -0.000000   0.000004  -0.001738
     9  H   -0.000939  -0.000972   0.326668  -0.000014  -0.000000  -0.000032
    10  H   -0.000939  -0.000000  -0.000014   0.326668  -0.000972  -0.000032
    11  H   -0.000014   0.000004  -0.000000  -0.000972   0.319026  -0.001738
    12  H    0.000002  -0.001738  -0.000032  -0.000032  -0.001738   0.269878
 Mulliken charges:
               1
     1  C    0.262041
     2  C   -0.340792
     3  C   -0.107259
     4  C   -0.340792
     5  C    0.262041
     6  N   -0.919717
     7  H    0.343018
     8  H    0.361706
     9  H    0.335994
    10  H    0.335994
    11  H    0.361707
    12  H    0.446059
 Sum of Mulliken charges =   1.00000
 Mulliken charges with hydrogens summed into heavy atoms:
               1
     1  C    0.623747
     2  C   -0.004798
     3  C    0.235760
     4  C   -0.004798
     5  C    0.623747
     6  N   -0.473658
 Electronic spatial extent (au):  <R**2>=            429.3672
 Charge=              1.0000 electrons
 Dipole moment (field-independent basis, Debye):
    X=              1.9893    Y=             -0.0000    Z=             -0.0001  Tot=              1.9893
 Quadrupole moment (field-independent basis, Debye-Ang):
   XX=            -17.3834   YY=            -21.2380   ZZ=            -37.6448
   XY=             -0.0000   XZ=             -0.0014   YZ=              0.0023
 Traceless Quadrupole moment (field-independent basis, Debye-Ang):
   XX=              8.0387   YY=              4.1840   ZZ=            -12.2227
   XY=             -0.0000   XZ=             -0.0014   YZ=              0.0023
 Octapole moment (field-independent basis, Debye-Ang**2):
  XXX=             12.7208  YYY=             -0.0000  ZZZ=             -0.0005  XYY=              4.0423
  XXY=             -0.0000  XXZ=             -0.0006  XZZ=              2.3768  YZZ=             -0.0000
  YYZ=             -0.0003  XYZ=              0.0002
 Hexadecapole moment (field-independent basis, Debye-Ang**3):
 XXXX=           -167.1469 YYYY=           -199.2588 ZZZZ=            -37.2294 XXXY=             -0.0000
 XXXZ=              0.0006 YYYX=             -0.0000 YYYZ=             -0.0045 ZZZX=              0.0082
 ZZZY=             -0.0179 XXYY=            -63.0619 XXZZ=            -52.4630 YYZZ=            -55.6661
 XXYZ=             -0.0015 YYXZ=              0.0005 ZZXY=             -0.0000
 N-N= 2.178444703700D+02 E-N=-9.977580595912D+02  KE= 2.451101397762D+02
 Orbital energies and kinetic energies (alpha):
                                 1                 2
   1         O               -15.803316         21.921522
   2         O               -11.461871         15.872452
   3         O               -11.461390         15.868310
   4         O               -11.415897         15.875800
   5         O               -11.391807         15.870581
   6         O               -11.391711         15.876884
   7         O                -1.549711          1.912432
   8         O                -1.321926          1.619492
   9         O                -1.274890          1.686004
  10         O                -1.104570          1.591170
  11         O                -1.094779          1.602235
  12         O                -1.003047          1.218427
  13         O                -0.899927          1.532765
  14         O                -0.892840          1.370522
  15         O                -0.850609          1.226703
  16         O                -0.835570          1.237126
  17         O                -0.807280          1.208113
  18         O                -0.735604          1.436830
  19         O                -0.735336          1.400862
  20         O                -0.615533          1.154553
  21         O                -0.569309          1.072286
  22         V                -0.115458          1.408827
  23         V                -0.063147          1.256985
  24         V                 0.041783          0.977788
  25         V                 0.117674          1.033449
  26         V                 0.130424          0.971093
  27         V                 0.139674          1.561759
  28         V                 0.146803          1.432954
  29         V                 0.185398          1.287500
  30         V                 0.197887          1.233915
  31         V                 0.262417          1.568017
  32         V                 0.286015          1.518674
  33         V                 0.312728          1.555698
  34         V                 0.316113          1.858534
  35         V                 0.505488          1.574087
  36         V                 0.549015          2.734869
  37         V                 0.700023          2.214490
  38         V                 0.700964          2.488390
  39         V                 0.727041          2.545125
  40         V                 0.764157          2.872776
  41         V                 0.819656          2.611043
  42         V                 0.820446          3.029008
  43         V                 0.835595          2.658775
  44         V                 0.853338          2.930789
  45         V                 0.888376          2.748239
  46         V                 0.893223          2.764387
  47         V                 0.899808          2.555720
  48         V                 0.930849          2.783815
  49         V                 1.090660          3.368983
  50         V                 1.094971          3.248529
  51         V                 1.132180          3.403956
  52         V                 1.191020          3.194576
  53         V                 1.198391          3.268522
  54         V                 1.240435          3.820709
  55         V                 1.280161          3.026317
  56         V                 1.320185          2.979479
  57         V                 1.420872          2.958126
  58         V                 1.441182          3.399964
  59         V                 1.497357          2.787600
  60         V                 1.511913          2.886910
  61         V                 1.628000          3.158280
  62         V                 1.719630          3.563044
  63         V                 1.879126          3.761731
  64         V                 1.999817          3.615457
  65         V                 2.095009          3.506823
  66         V                 2.954457          4.994246
 Total kinetic energy from orbitals= 2.451101397762D+02
 1\1\GINC-IISERK51\SP\RHF\3-21G\C5H6N1(1+)\GAUSSIAN\16-Jun-2025\0\\# hf
 /3-21g pop=full geom=connectivity\\pyridine+ sp\\1,1\C,0,0.658801,-1.1
 79314,-0.000208\C,0,-0.710093,-1.204225,-0.000118\C,0,-1.402634,0.,0.0
 00096\C,0,-0.710093,1.204224,0.000214\C,0,0.658801,1.179314,0.000118\N
 ,0,1.303636,0.,-0.000089\H,0,-2.473477,0.,0.000169\H,0,1.258147,-2.063
 994,-0.000371\H,0,-1.223584,-2.141329,-0.000212\H,0,-1.223585,2.141329
 ,0.000379\H,0,1.258147,2.063994,0.000199\H,0,2.310207,0.,-0.000159\\Ve
 rsion=EM64L-G16RevB.01\State=1-A\HF=-245.6964132\RMSD=9.809e-09\Dipole
 =0.7826702,0.0000007,-0.0000538\Quadrupole=5.9765657,3.1107369,-9.0873
 025,0.0000025,-0.0010343,0.0016844\PG=C01 [X(C5H6N1)]\\@


 IT IS A SIMPLE TASK TO MAKE THINGS COMPLEX,
 BUT A COMPLEX TASK TO MAKE THEM SIMPLE.
 Job cpu time:       0 days  0 hours  0 minutes  0.8 seconds.
 Elapsed time:       0 days  0 hours  0 minutes  0.8 seconds.
 File lengths (MBytes):  RWF=      6 Int=      0 D2E=      0 Chk=      1 Scr=      1
 Normal termination of Gaussian 16 at Mon Jun 16 16:01:06 2025.
