 Entering Gaussian System, Link 0=g16
 Input=/home/gaussian/Documents/Summer_Internship/Acid_Base_adduct/Base/pyridine/pyridine_opt.com
 Output=/home/gaussian/Documents/Summer_Internship/Acid_Base_adduct/Base/pyridine/pyridine_opt.log
 Initial command:
 /usr/local/g16/l1.exe "/home/gaussian/tmp/Gau-72489.inp" -scrdir="/home/gaussian/tmp/"
 Entering Link 1 = /usr/local/g16/l1.exe PID=     72492.
  
 Copyright (c) 1988-2017, Gaussian, Inc.  All Rights Reserved.
  
 This is part of the Gaussian(R) 16 program.  It is based on
 the Gaussian(R) 09 system (copyright 2009, Gaussian, Inc.),
 the Gaussian(R) 03 system (copyright 2003, Gaussian, Inc.),
 the Gaussian(R) 98 system (copyright 1998, Gaussian, Inc.),
 the Gaussian(R) 94 system (copyright 1995, Gaussian, Inc.),
 the Gaussian 92(TM) system (copyright 1992, Gaussian, Inc.),
 the Gaussian 90(TM) system (copyright 1990, Gaussian, Inc.),
 the Gaussian 88(TM) system (copyright 1988, Gaussian, Inc.),
 the Gaussian 86(TM) system (copyright 1986, Carnegie Mellon
 University), and the Gaussian 82(TM) system (copyright 1983,
 Carnegie Mellon University). Gaussian is a federally registered
 trademark of Gaussian, Inc.
  
 This software contains proprietary and confidential information,
 including trade secrets, belonging to Gaussian, Inc.
  
 This software is provided under written license and may be
 used, copied, transmitted, or stored only in accord with that
 written license.
  
 The following legend is applicable only to US Government
 contracts under FAR:
  
                    RESTRICTED RIGHTS LEGEND
  
 Use, reproduction and disclosure by the US Government is
 subject to restrictions as set forth in subparagraphs (a)
 and (c) of the Commercial Computer Software - Restricted
 Rights clause in FAR 52.227-19.
  
 Gaussian, Inc.
 340 Quinnipiac St., Bldg. 40, Wallingford CT 06492
  
  
 ---------------------------------------------------------------
 Warning -- This program may not be used in any manner that
 competes with the business of Gaussian, Inc. or will provide
 assistance to any competitor of Gaussian, Inc.  The licensee
 of this program is prohibited from giving any competitor of
 Gaussian, Inc. access to this program.  By using this program,
 the user acknowledges that Gaussian, Inc. is engaged in the
 business of creating and licensing software in the field of
 computational chemistry and represents and warrants to the
 licensee that it is not a competitor of Gaussian, Inc. and that
 it will not use this program in any manner prohibited above.
 ---------------------------------------------------------------
  

 Cite this work as:
 Gaussian 16, Revision B.01,
 M. J. Frisch, G. W. Trucks, H. B. Schlegel, G. E. Scuseria, 
 M. A. Robb, J. R. Cheeseman, G. Scalmani, V. Barone, 
 G. A. Petersson, H. Nakatsuji, X. Li, M. Caricato, A. V. Marenich, 
 J. Bloino, B. G. Janesko, R. Gomperts, B. Mennucci, H. P. Hratchian, 
 J. V. Ortiz, A. F. Izmaylov, J. L. Sonnenberg, D. Williams-Young, 
 F. Ding, F. Lipparini, F. Egidi, J. Goings, B. Peng, A. Petrone, 
 T. Henderson, D. Ranasinghe, V. G. Zakrzewski, J. Gao, N. Rega, 
 G. Zheng, W. Liang, M. Hada, M. Ehara, K. Toyota, R. Fukuda, 
 J. Hasegawa, M. Ishida, T. Nakajima, Y. Honda, O. Kitao, H. Nakai, 
 T. Vreven, K. Throssell, J. A. Montgomery, Jr., J. E. Peralta, 
 F. Ogliaro, M. J. Bearpark, J. J. Heyd, E. N. Brothers, K. N. Kudin, 
 V. N. Staroverov, T. A. Keith, R. Kobayashi, J. Normand, 
 K. Raghavachari, A. P. Rendell, J. C. Burant, S. S. Iyengar, 
 J. Tomasi, M. Cossi, J. M. Millam, M. Klene, C. Adamo, R. Cammi, 
 J. W. Ochterski, R. L. Martin, K. Morokuma, O. Farkas, 
 J. B. Foresman, and D. J. Fox, Gaussian, Inc., Wallingford CT, 2016.
 
 ******************************************
 Gaussian 16:  EM64L-G16RevB.01 20-Dec-2017
                16-Jun-2025 
 ******************************************
 %chk=pyridine_opt.chk
 ----------------------------------------------
 # opt freq hf/3-21g pop=full geom=connectivity
 ----------------------------------------------
 1/18=20,19=15,38=1,57=2/1,3;
 2/9=110,12=2,17=6,18=5,40=1/2;
 3/5=5,11=9,25=1,30=1,71=1/1,2,3;
 4//1;
 5/5=2,38=5/2;
 6/7=3,28=1/1;
 7//1,2,3,16;
 1/18=20,19=15/3(2);
 2/9=110/2;
 99//99;
 2/9=110/2;
 3/5=5,11=9,25=1,30=1,71=1/1,2,3;
 4/5=5,16=3,69=1/1;
 5/5=2,38=5/2;
 7//1,2,3,16;
 1/18=20,19=15/3(-5);
 2/9=110/2;
 6/7=3,19=2,28=1/1;
 99/9=1/99;
 ---------------------
 pyridine optimisation
 ---------------------
 Symbolic Z-matrix:
 Charge =  0 Multiplicity = 1
 C                    -2.51275  -0.06186  -0.08556 
 C                    -1.10587  -0.06186  -0.08556 
 C                    -0.43918   1.16474  -0.08556 
 C                    -1.19325   2.33953  -0.0858 
 C                    -2.59645   2.23673  -0.08594 
 N                    -3.25598   1.06178  -0.08576 
 H                     0.65937   1.20452  -0.08651 
 H                    -3.07829  -1.01068  -0.08544 
 H                    -0.55114  -1.00876  -0.0853 
 H                    -0.70922   3.32446  -0.0859 
 H                    -3.2298    3.14179  -0.08602 
 

 GradGradGradGradGradGradGradGradGradGradGradGradGradGradGradGradGradGrad
 Berny optimization.
 Initialization pass.
                           ----------------------------
                           !    Initial Parameters    !
                           ! (Angstroms and Degrees)  !
 --------------------------                            --------------------------
 ! Name  Definition              Value          Derivative Info.                !
 --------------------------------------------------------------------------------
 ! R1    R(1,2)                  1.4069         estimate D2E/DX2                !
 ! R2    R(1,6)                  1.3472         estimate D2E/DX2                !
 ! R3    R(1,8)                  1.1046         estimate D2E/DX2                !
 ! R4    R(2,3)                  1.3961         estimate D2E/DX2                !
 ! R5    R(2,9)                  1.0974         estimate D2E/DX2                !
 ! R6    R(3,4)                  1.396          estimate D2E/DX2                !
 ! R7    R(3,7)                  1.0993         estimate D2E/DX2                !
 ! R8    R(4,5)                  1.407          estimate D2E/DX2                !
 ! R9    R(4,10)                 1.0974         estimate D2E/DX2                !
 ! R10   R(5,6)                  1.3474         estimate D2E/DX2                !
 ! R11   R(5,11)                 1.1047         estimate D2E/DX2                !
 ! A1    A(2,1,6)              123.4828         estimate D2E/DX2                !
 ! A2    A(2,1,8)              120.7972         estimate D2E/DX2                !
 ! A3    A(6,1,8)              115.72           estimate D2E/DX2                !
 ! A4    A(1,2,3)              118.5252         estimate D2E/DX2                !
 ! A5    A(1,2,9)              120.3635         estimate D2E/DX2                !
 ! A6    A(3,2,9)              121.1114         estimate D2E/DX2                !
 ! A7    A(2,3,4)              118.7792         estimate D2E/DX2                !
 ! A8    A(2,3,7)              120.5988         estimate D2E/DX2                !
 ! A9    A(4,3,7)              120.6219         estimate D2E/DX2                !
 ! A10   A(3,4,5)              118.5054         estimate D2E/DX2                !
 ! A11   A(3,4,10)             121.1328         estimate D2E/DX2                !
 ! A12   A(5,4,10)             120.3618         estimate D2E/DX2                !
 ! A13   A(4,5,6)              123.4969         estimate D2E/DX2                !
 ! A14   A(4,5,11)             120.7935         estimate D2E/DX2                !
 ! A15   A(6,5,11)             115.7097         estimate D2E/DX2                !
 ! A16   A(1,6,5)              117.2105         estimate D2E/DX2                !
 ! D1    D(6,1,2,3)              0.01           estimate D2E/DX2                !
 ! D2    D(6,1,2,9)            179.9941         estimate D2E/DX2                !
 ! D3    D(8,1,2,3)           -179.9926         estimate D2E/DX2                !
 ! D4    D(8,1,2,9)             -0.0086         estimate D2E/DX2                !
 ! D5    D(2,1,6,5)             -0.001          estimate D2E/DX2                !
 ! D6    D(8,1,6,5)           -179.9985         estimate D2E/DX2                !
 ! D7    D(1,2,3,4)             -0.0113         estimate D2E/DX2                !
 ! D8    D(1,2,3,7)           -179.9425         estimate D2E/DX2                !
 ! D9    D(9,2,3,4)           -179.9952         estimate D2E/DX2                !
 ! D10   D(9,2,3,7)              0.0736         estimate D2E/DX2                !
 ! D11   D(2,3,4,5)              0.0043         estimate D2E/DX2                !
 ! D12   D(2,3,4,10)          -179.9944         estimate D2E/DX2                !
 ! D13   D(7,3,4,5)            179.9354         estimate D2E/DX2                !
 ! D14   D(7,3,4,10)            -0.0632         estimate D2E/DX2                !
 ! D15   D(3,4,5,6)              0.0051         estimate D2E/DX2                !
 ! D16   D(3,4,5,11)           179.9933         estimate D2E/DX2                !
 ! D17   D(10,4,5,6)          -179.9962         estimate D2E/DX2                !
 ! D18   D(10,4,5,11)           -0.008          estimate D2E/DX2                !
 ! D19   D(4,5,6,1)             -0.0067         estimate D2E/DX2                !
 ! D20   D(11,5,6,1)          -179.9955         estimate D2E/DX2                !
 --------------------------------------------------------------------------------
 Trust Radius=3.00D-01 FncErr=1.00D-07 GrdErr=1.00D-07 EigMax=2.50D+02 EigMin=1.00D-04
 Number of steps in this run=     57 maximum allowed number of steps=    100.
 GradGradGradGradGradGradGradGradGradGradGradGradGradGradGradGradGradGrad

                          Input orientation:                          
 ---------------------------------------------------------------------
 Center     Atomic      Atomic             Coordinates (Angstroms)
 Number     Number       Type             X           Y           Z
 ---------------------------------------------------------------------
      1          6           0       -2.512747   -0.061862   -0.085561
      2          6           0       -1.105869   -0.061862   -0.085561
      3          6           0       -0.439178    1.164745   -0.085561
      4          6           0       -1.193251    2.339532   -0.085802
      5          6           0       -2.596453    2.236727   -0.085943
      6          7           0       -3.255983    1.061776   -0.085758
      7          1           0        0.659366    1.204521   -0.086511
      8          1           0       -3.078294   -1.010683   -0.085439
      9          1           0       -0.551137   -1.008763   -0.085297
     10          1           0       -0.709215    3.324456   -0.085903
     11          1           0       -3.229802    3.141790   -0.086024
 ---------------------------------------------------------------------
                    Distance matrix (angstroms):
                    1          2          3          4          5
     1  C    0.000000
     2  C    1.406878   0.000000
     3  C    2.409202   1.396081   0.000000
     4  C    2.740030   2.402983   1.395977   0.000000
     5  C    2.300113   2.739590   2.408938   1.406963   0.000000
     6  N    1.347205   2.426016   2.818686   2.426422   1.347401
     7  H    3.415557   2.172506   1.099264   2.172657   3.415524
     8  H    1.104584   2.188772   3.420149   3.844129   3.282962
     9  H    2.178195   1.097428   2.176390   3.409309   3.836212
    10  H    3.836649   3.409470   2.176527   1.097436   2.178261
    11  H    3.282919   3.843758   3.419984   2.188871   1.104658
                    6          7          8          9         10
     6  N    0.000000
     7  H    3.917950   0.000000
     8  H    2.080062   4.344794   0.000000
     9  H    3.406365   2.522686   2.527158   0.000000
    10  H    3.406721   2.523319   4.940239   4.336101   0.000000
    11  H    2.080179   4.344956   4.155236   4.939872   2.527197
                   11
    11  H    0.000000
 Stoichiometry    C5H5N
 Framework group  C1[X(C5H5N)]
 Deg. of freedom    27
 Full point group                 C1      NOp   1
 Largest Abelian subgroup         C1      NOp   1
 Largest concise Abelian subgroup C1      NOp   1
                         Standard orientation:                         
 ---------------------------------------------------------------------
 Center     Atomic      Atomic             Coordinates (Angstroms)
 Number     Number       Type             X           Y           Z
 ---------------------------------------------------------------------
      1          6           0       -1.154837   -0.719392   -0.000154
      2          6           0       -1.196939    0.686856   -0.000154
      3          6           0        0.009167    1.389956   -0.000154
      4          6           0        1.205994    0.671377    0.000087
      5          6           0        1.145227   -0.734273    0.000228
      6          7           0       -0.009461   -1.428669    0.000043
      7          1           0        0.016051    2.489198    0.000796
      8          1           0       -2.086309   -1.313079   -0.000276
      9          1           0       -2.160017    1.213003   -0.000418
     10          1           0        2.175992    1.184670    0.000188
     11          1           0        2.068838   -1.340254    0.000309
 ---------------------------------------------------------------------
 Rotational constants (GHZ):           5.9762872           5.7335864           2.9262109
 Standard basis: 3-21G (6D, 7F)
 There are    64 symmetry adapted cartesian basis functions of A   symmetry.
 There are    64 symmetry adapted basis functions of A   symmetry.
    64 basis functions,   105 primitive gaussians,    64 cartesian basis functions
    21 alpha electrons       21 beta electrons
       nuclear repulsion energy       204.6313958003 Hartrees.
 NAtoms=   11 NActive=   11 NUniq=   11 SFac= 1.00D+00 NAtFMM=   60 NAOKFM=F Big=F
 Integral buffers will be    131072 words long.
 Raffenetti 1 integral format.
 Two-electron integral symmetry is turned on.
 One-electron integrals computed using PRISM.
 NBasis=    64 RedAO= T EigKep=  3.36D-03  NBF=    64
 NBsUse=    64 1.00D-06 EigRej= -1.00D+00 NBFU=    64
 ExpMin= 1.83D-01 ExpMax= 2.43D+02 ExpMxC= 2.43D+02 IAcc=3 IRadAn=         5 AccDes= 0.00D+00
 Harris functional with IExCor=  205 and IRadAn=       5 diagonalized for initial guess.
 HarFok:  IExCor=  205 AccDes= 0.00D+00 IRadAn=         5 IDoV= 1 UseB2=F ITyADJ=14
 ICtDFT=  3500011 ScaDFX=  1.000000  1.000000  1.000000  1.000000
 FoFCou: FMM=F IPFlag=           0 FMFlag=      100000 FMFlg1=           0
         NFxFlg=           0 DoJE=T BraDBF=F KetDBF=T FulRan=T
         wScrn=  0.000000 ICntrl=       500 IOpCl=  0 I1Cent=   200000004 NGrid=           0
         NMat0=    1 NMatS0=      1 NMatT0=    0 NMatD0=    1 NMtDS0=    0 NMtDT0=    0
 Petite list used in FoFCou.
 Keep R1 ints in memory in canonical form, NReq=2987413.
 Requested convergence on RMS density matrix=1.00D-08 within 128 cycles.
 Requested convergence on MAX density matrix=1.00D-06.
 Requested convergence on             energy=1.00D-06.
 No special actions if energy rises.
 SCF Done:  E(RHF) =  -245.306559123     A.U. after   13 cycles
            NFock= 13  Conv=0.22D-08     -V/T= 2.0039

 **********************************************************************

            Population analysis using the SCF Density.

 **********************************************************************

 Orbital symmetries:
       Occupied  (A) (A) (A) (A) (A) (A) (A) (A) (A) (A) (A) (A)
                 (A) (A) (A) (A) (A) (A) (A) (A) (A)
       Virtual   (A) (A) (A) (A) (A) (A) (A) (A) (A) (A) (A) (A)
                 (A) (A) (A) (A) (A) (A) (A) (A) (A) (A) (A) (A)
                 (A) (A) (A) (A) (A) (A) (A) (A) (A) (A) (A) (A)
                 (A) (A) (A) (A) (A) (A) (A)
 The electronic state is 1-A.
 Alpha  occ. eigenvalues --  -15.49933 -11.22734 -11.22688 -11.20990 -11.19706
 Alpha  occ. eigenvalues --  -11.19695  -1.26508  -1.09024  -1.02997  -0.85427
 Alpha  occ. eigenvalues --   -0.85253  -0.72068  -0.65949  -0.64751  -0.59872
 Alpha  occ. eigenvalues --   -0.57297  -0.54135  -0.51465  -0.40469  -0.38371
 Alpha  occ. eigenvalues --   -0.35141
 Alpha virt. eigenvalues --    0.12513   0.13297   0.25176   0.30766   0.32855
 Alpha virt. eigenvalues --    0.35055   0.35145   0.35365   0.43555   0.48812
 Alpha virt. eigenvalues --    0.52375   0.52902   0.72892   0.73971   0.90908
 Alpha virt. eigenvalues --    0.93957   0.94625   0.99453   1.02068   1.03394
 Alpha virt. eigenvalues --    1.03757   1.07802   1.08733   1.10354   1.12133
 Alpha virt. eigenvalues --    1.13150   1.26137   1.26636   1.34030   1.36594
 Alpha virt. eigenvalues --    1.48470   1.48526   1.54201   1.61069   1.64454
 Alpha virt. eigenvalues --    1.67260   1.68952   1.73883   1.81679   1.95795
 Alpha virt. eigenvalues --    2.22860   2.27493   3.22643
     Molecular Orbital Coefficients:
                           1         2         3         4         5
                           O         O         O         O         O
     Eigenvalues --   -15.49933 -11.22734 -11.22688 -11.20990 -11.19706
   1 1   C  1S         -0.00027  -0.67513   0.71970   0.00762  -0.00271
   2        2S         -0.00112  -0.06765   0.06845   0.00007   0.00172
   3        2PX         0.00109  -0.00193  -0.00009  -0.00038   0.00003
   4        2PY        -0.00091  -0.00073   0.00003  -0.00108   0.00056
   5        2PZ         0.00000  -0.00000   0.00000   0.00000   0.00000
   6        3S          0.03283   0.04841  -0.03738  -0.00707  -0.01504
   7        3PX         0.02632   0.00658   0.00827  -0.00262  -0.00372
   8        3PY         0.00286   0.01596  -0.00285  -0.00159  -0.00711
   9        3PZ         0.00000   0.00000   0.00000  -0.00000  -0.00000
  10 2   C  1S          0.00055   0.00340  -0.00376  -0.01639  -0.61900
  11        2S          0.00267   0.00266  -0.00183  -0.00565  -0.06224
  12        2PX         0.00080  -0.00007   0.00006  -0.00142  -0.00162
  13        2PY         0.00033  -0.00066   0.00133  -0.00008   0.00012
  14        2PZ         0.00000   0.00000  -0.00000  -0.00000   0.00000
  15        3S         -0.02457  -0.02079   0.00637   0.03342   0.04691
  16        3PX        -0.02330  -0.00172  -0.00730   0.02026   0.00926
  17        3PY         0.00724   0.01506  -0.00692   0.00043  -0.00278
  18        3PZ        -0.00000  -0.00000  -0.00000   0.00000  -0.00000
  19 3   C  1S         -0.00040  -0.00035  -0.01114   0.98697   0.00239
  20        2S         -0.00178  -0.00010  -0.00301   0.09914  -0.00039
  21        2PX        -0.00000  -0.00120   0.00005  -0.00001  -0.00132
  22        2PY        -0.00028   0.00004   0.00095  -0.00141   0.00017
  23        2PZ         0.00000  -0.00000   0.00000   0.00000  -0.00000
  24        3S          0.03221   0.00040   0.01235  -0.08875   0.00529
  25        3PX        -0.00011   0.00498  -0.00021   0.00014   0.01539
  26        3PY        -0.01782  -0.00028  -0.00767   0.02249  -0.00306
  27        3PZ        -0.00000   0.00000  -0.00000  -0.00001   0.00000
  28 4   C  1S          0.00055  -0.00364  -0.00353  -0.01642   0.76901
  29        2S          0.00267  -0.00277  -0.00165  -0.00566   0.07738
  30        2PX        -0.00080  -0.00006  -0.00004   0.00142  -0.00168
  31        2PY         0.00034   0.00074   0.00129  -0.00010  -0.00029
  32        2PZ        -0.00000  -0.00000  -0.00000   0.00000  -0.00000
  33        3S         -0.02457   0.02115   0.00501   0.03342  -0.06228
  34        3PX         0.02340  -0.00145   0.00732  -0.02025   0.01356
  35        3PY         0.00693  -0.01546  -0.00603   0.00070   0.00506
  36        3PZ         0.00000   0.00000   0.00000  -0.00000   0.00000
  37 5   C  1S         -0.00027   0.72023   0.67457   0.00761   0.00348
  38        2S         -0.00112   0.07193   0.06393   0.00007  -0.00220
  39        2PX        -0.00110  -0.00191   0.00022   0.00037   0.00003
  40        2PY        -0.00089   0.00075  -0.00002  -0.00109  -0.00083
  41        2PZ        -0.00000  -0.00000  -0.00000   0.00000   0.00000
  42        3S          0.03282  -0.05072  -0.03417  -0.00706   0.02111
  43        3PX        -0.02627   0.00582  -0.00870   0.00259  -0.00565
  44        3PY         0.00320  -0.01618  -0.00170  -0.00162   0.01046
  45        3PZ        -0.00000   0.00000   0.00000   0.00000  -0.00000
  46 6   N  1S          0.98666   0.00001   0.00027  -0.00007   0.00004
  47        2S          0.10529   0.00004   0.00127  -0.00063   0.00023
  48        2PX         0.00004   0.00006  -0.00000  -0.00000  -0.00035
  49        2PY         0.00548  -0.00000  -0.00006  -0.00010   0.00001
  50        2PZ        -0.00000   0.00000   0.00000  -0.00000   0.00000
  51        3S         -0.08654  -0.00002  -0.00058   0.00426  -0.00149
  52        3PX        -0.00016  -0.00223   0.00005   0.00001  -0.00181
  53        3PY        -0.02468  -0.00009  -0.00305   0.00133  -0.00082
  54        3PZ         0.00000  -0.00000  -0.00000   0.00000  -0.00000
  55 7   H  1S          0.00042   0.00000   0.00011  -0.00203  -0.00001
  56        2S          0.00367   0.00010   0.00300   0.00615   0.00072
  57 8   H  1S          0.00065   0.00190  -0.00044  -0.00019   0.00027
  58        2S          0.00583  -0.00282   0.01107   0.00064  -0.00134
  59 9   H  1S         -0.00175   0.00038  -0.00119  -0.00013   0.00111
  60        2S         -0.00660  -0.00166  -0.00125   0.00398  -0.00412
  61 10  H  1S         -0.00175  -0.00045  -0.00117  -0.00013  -0.00152
  62        2S         -0.00660   0.00158  -0.00136   0.00398   0.00479
  63 11  H  1S          0.00065  -0.00192  -0.00031  -0.00019  -0.00026
  64        2S          0.00582   0.00353   0.01087   0.00065   0.00219
                           6         7         8         9        10
                           O         O         O         O         O
     Eigenvalues --   -11.19695  -1.26508  -1.09024  -1.02997  -0.85427
   1 1   C  1S          0.00388  -0.10059   0.00399   0.12255   0.07447
   2        2S         -0.00246   0.11611  -0.00099  -0.13458  -0.08328
   3        2PX        -0.00007   0.08877  -0.04325  -0.00282   0.10138
   4        2PY        -0.00131  -0.01502   0.08866  -0.04656  -0.11341
   5        2PZ        -0.00000   0.00001  -0.00001  -0.00000   0.00002
   6        3S          0.03001   0.09727  -0.00212  -0.27731  -0.21835
   7        3PX         0.01010  -0.05949   0.01243   0.00554   0.04196
   8        3PY         0.01609  -0.00902   0.01144  -0.04873  -0.05047
   9        3PZ         0.00000  -0.00001   0.00000  -0.00000   0.00001
  10 2   C  1S          0.76901  -0.04966  -0.10996   0.11474   0.04851
  11        2S          0.07756   0.04881   0.12229  -0.12348  -0.05072
  12        2PX         0.00046   0.02537   0.07109  -0.00006   0.09769
  13        2PY        -0.00092  -0.03123   0.02563   0.05791   0.14561
  14        2PZ        -0.00000   0.00000   0.00000   0.00001   0.00002
  15        3S         -0.07699   0.14047   0.22189  -0.25748  -0.15614
  16        3PX        -0.02076   0.07615  -0.00312  -0.02101   0.02271
  17        3PY         0.01179  -0.02309  -0.00306  -0.00950   0.04869
  18        3PZ         0.00000   0.00000  -0.00001   0.00001   0.00000
  19 3   C  1S          0.02194  -0.03794  -0.15371   0.00006  -0.12196
  20        2S         -0.00366   0.04898   0.16798  -0.00007   0.12555
  21        2PX         0.00015  -0.00020  -0.00036   0.10116   0.00082
  22        2PY         0.00152  -0.03152  -0.06552  -0.00065   0.05364
  23        2PZ         0.00000   0.00001   0.00004   0.00001   0.00006
  24        3S          0.04888  -0.02741   0.35295  -0.00019   0.39429
  25        3PX        -0.00183   0.00028  -0.00022  -0.00662   0.00022
  26        3PY        -0.02736   0.04488  -0.03217   0.00007   0.00145
  27        3PZ        -0.00000   0.00001   0.00004  -0.00000   0.00005
  28 4   C  1S          0.61899  -0.04964  -0.11007  -0.11464   0.04797
  29        2S          0.06247   0.04879   0.12241   0.12336  -0.05017
  30        2PX        -0.00012  -0.02578  -0.07079  -0.00079  -0.09580
  31        2PY        -0.00088  -0.03086   0.02650  -0.05793   0.14730
  32        2PZ        -0.00000  -0.00000  -0.00001   0.00000  -0.00001
  33        3S         -0.06520   0.14044   0.22214   0.25732  -0.15436
  34        3PX         0.01845  -0.07645   0.00303  -0.02092  -0.02208
  35        3PY         0.01068  -0.02209  -0.00310   0.00974   0.04895
  36        3PZ         0.00000  -0.00001  -0.00000  -0.00000  -0.00001
  37 5   C  1S          0.00321  -0.10053   0.00386  -0.12258   0.07496
  38        2S         -0.00204   0.11604  -0.00084   0.13460  -0.08380
  39        2PX         0.00005  -0.08890   0.04437  -0.00226  -0.10264
  40        2PY        -0.00116  -0.01384   0.08812   0.04648  -0.11132
  41        2PZ        -0.00000  -0.00002   0.00000  -0.00001   0.00000
  42        3S          0.02610   0.09722  -0.00188   0.27734  -0.21987
  43        3PX        -0.00888   0.05933  -0.01226   0.00620  -0.04261
  44        3PY         0.01432  -0.00981   0.01164   0.04861  -0.04996
  45        3PZ        -0.00000   0.00001  -0.00000  -0.00001   0.00001
  46 6   N  1S          0.00034  -0.17484   0.09491  -0.00007  -0.07731
  47        2S          0.00208   0.15032  -0.08492   0.00006   0.07194
  48        2PX         0.00004   0.00060  -0.00009   0.11713  -0.00063
  49        2PY         0.00005   0.10041  -0.02530  -0.00075  -0.00196
  50        2PZ        -0.00000  -0.00000  -0.00000   0.00002   0.00000
  51        3S         -0.01378   0.57322  -0.32153   0.00028   0.28998
  52        3PX         0.00015   0.00086  -0.00026   0.08626  -0.00033
  53        3PY        -0.00769   0.13720  -0.04788  -0.00051   0.02149
  54        3PZ         0.00000  -0.00000  -0.00000   0.00002  -0.00000
  55 7   H  1S         -0.00011   0.00902   0.06413  -0.00004   0.11273
  56        2S          0.00664  -0.01512   0.00738  -0.00001   0.05565
  57 8   H  1S          0.00001   0.02445  -0.00264  -0.06233  -0.06680
  58        2S          0.00410  -0.02471   0.00082  -0.01707  -0.02693
  59 9   H  1S         -0.00205   0.01644   0.04401  -0.05827  -0.04283
  60        2S          0.00361   0.01852  -0.00267  -0.01294  -0.02025
  61 10  H  1S         -0.00177   0.01644   0.04405   0.05822  -0.04238
  62        2S          0.00265   0.01852  -0.00266   0.01295  -0.02003
  63 11  H  1S          0.00007   0.02443  -0.00259   0.06234  -0.06724
  64        2S          0.00371  -0.02469   0.00082   0.01707  -0.02716
                          11        12        13        14        15
                           O         O         O         O         O
     Eigenvalues --    -0.85253  -0.72068  -0.65949  -0.64751  -0.59872
   1 1   C  1S         -0.08810  -0.02257  -0.01237   0.05484  -0.01651
   2        2S          0.09338   0.01891   0.01247  -0.05858   0.02134
   3        2PX         0.03277  -0.13521  -0.14766   0.11765   0.16581
   4        2PY        -0.12682  -0.11633   0.19864   0.03716   0.15428
   5        2PZ         0.00001  -0.00001  -0.00002   0.00001   0.00003
   6        3S          0.27636   0.10074   0.04866  -0.19836   0.01387
   7        3PX         0.00416  -0.09492  -0.07295   0.10559   0.13597
   8        3PY         0.00831  -0.08577   0.07881   0.03275   0.11113
   9        3PZ         0.00000  -0.00000  -0.00001   0.00001   0.00002
  10 2   C  1S          0.09729   0.00060   0.00774  -0.05607  -0.01655
  11        2S         -0.09829  -0.00547  -0.00952   0.05534   0.02028
  12        2PX        -0.00456  -0.13745  -0.10093  -0.16397   0.18092
  13        2PY        -0.08207   0.08670  -0.21493   0.07942  -0.14184
  14        2PZ         0.00001  -0.00000  -0.00000  -0.00005   0.00003
  15        3S         -0.32712   0.02408  -0.01526   0.21176   0.03010
  16        3PX        -0.00471  -0.09138  -0.05479  -0.15159   0.15414
  17        3PY         0.00394   0.05229  -0.13620   0.07107  -0.11076
  18        3PZ         0.00001  -0.00001  -0.00000  -0.00004   0.00003
  19 3   C  1S          0.00033  -0.02461  -0.00004   0.05989  -0.00005
  20        2S         -0.00034   0.02070   0.00005  -0.06501   0.00004
  21        2PX         0.17603   0.00124   0.24210   0.00010  -0.07529
  22        2PY        -0.00130   0.20251  -0.00153   0.00501   0.00090
  23        2PZ         0.00002   0.00008   0.00002  -0.00006  -0.00000
  24        3S         -0.00109   0.11039   0.00016  -0.18164   0.00020
  25        3PX         0.07649   0.00085   0.12802  -0.00016  -0.04072
  26        3PY        -0.00051   0.13765  -0.00079  -0.03161   0.00066
  27        3PZ         0.00001   0.00007   0.00001  -0.00006  -0.00000
  28 4   C  1S         -0.09757   0.00059  -0.00769  -0.05607   0.01667
  29        2S          0.09859  -0.00546   0.00947   0.05534  -0.02040
  30        2PX        -0.00296   0.13861  -0.09824   0.16516   0.18276
  31        2PY         0.08133   0.08480   0.21621   0.07762   0.13904
  32        2PZ        -0.00001   0.00003  -0.00003   0.00000   0.00002
  33        3S          0.32799   0.02412   0.01504   0.21177  -0.03058
  34        3PX        -0.00464   0.09208  -0.05308   0.15266   0.15543
  35        3PY        -0.00414   0.05104   0.13686   0.06932   0.10846
  36        3PZ         0.00001   0.00001  -0.00002   0.00001   0.00002
  37 5   C  1S          0.08770  -0.02258   0.01232   0.05487   0.01638
  38        2S         -0.09293   0.01892  -0.01243  -0.05861  -0.02118
  39        2PX         0.03502   0.13365  -0.15011  -0.11708   0.16372
  40        2PY         0.12698  -0.11803  -0.19676   0.03832  -0.15621
  41        2PZ         0.00000   0.00003  -0.00001  -0.00002   0.00004
  42        3S         -0.27518   0.10077  -0.04848  -0.19839  -0.01347
  43        3PX         0.00429   0.09376  -0.07389  -0.10506   0.13450
  44        3PY        -0.00808  -0.08698  -0.07794   0.03393  -0.11264
  45        3PZ         0.00001   0.00002  -0.00000  -0.00002   0.00003
  46 6   N  1S          0.00022  -0.02229   0.00001  -0.04935   0.00009
  47        2S         -0.00020   0.02154  -0.00001   0.04594  -0.00009
  48        2PX        -0.21359  -0.00075   0.24220   0.00028  -0.05584
  49        2PY         0.00139  -0.11456  -0.00162   0.02840   0.00060
  50        2PZ        -0.00003   0.00001   0.00005  -0.00001  -0.00000
  51        3S         -0.00086   0.07794  -0.00002   0.19245  -0.00038
  52        3PX        -0.16188  -0.00059   0.20367   0.00021  -0.05417
  53        3PY         0.00097  -0.08823  -0.00135   0.02123   0.00056
  54        3PZ        -0.00003   0.00001   0.00004  -0.00001  -0.00000
  55 7   H  1S         -0.00033   0.13383   0.00004  -0.05631   0.00033
  56        2S         -0.00016   0.08227   0.00002  -0.02522   0.00023
  57 8   H  1S          0.08084   0.11240   0.02372  -0.12612  -0.12867
  58        2S          0.04299   0.06194   0.01187  -0.07699  -0.09733
  59 9   H  1S         -0.08571   0.08881  -0.01692   0.16703  -0.13565
  60        2S         -0.04302   0.05740  -0.00895   0.10565  -0.10630
  61 10  H  1S          0.08595   0.08880   0.01677   0.16722   0.13539
  62        2S          0.04314   0.05739   0.00885   0.10578   0.10613
  63 11  H  1S         -0.08046   0.11238  -0.02357  -0.12597   0.12870
  64        2S         -0.04283   0.06194  -0.01178  -0.07689   0.09737
                          16        17        18        19        20
                           O         O         O         O         O
     Eigenvalues --    -0.57297  -0.54135  -0.51465  -0.40469  -0.38371
   1 1   C  1S         -0.02875   0.00004   0.00181  -0.02252   0.00001
   2        2S          0.03507  -0.00005  -0.00162   0.02525  -0.00001
   3        2PX         0.08174  -0.00014   0.19132   0.04726  -0.00005
   4        2PY         0.12254  -0.00013   0.02076  -0.16897   0.00020
   5        2PZ         0.00020   0.19110   0.00006   0.00012   0.09812
   6        3S          0.06793  -0.00014  -0.00884   0.10749  -0.00004
   7        3PX         0.06015  -0.00012   0.20146  -0.01510  -0.00002
   8        3PY         0.12654  -0.00017   0.07506   0.00487   0.00004
   9        3PZ         0.00019   0.19286   0.00006   0.00014   0.13502
  10 2   C  1S          0.02487  -0.00005  -0.00165   0.02172   0.00000
  11        2S         -0.02643   0.00005   0.00125  -0.01726  -0.00001
  12        2PX        -0.07755   0.00010  -0.20540  -0.00474  -0.00001
  13        2PY        -0.12873   0.00016  -0.04160   0.16195  -0.00021
  14        2PZ         0.00021   0.15834   0.00000  -0.00014  -0.16232
  15        3S         -0.07820   0.00018   0.00155  -0.19130   0.00014
  16        3PX        -0.00384   0.00004  -0.21630  -0.01599   0.00006
  17        3PY        -0.08285   0.00006   0.02061   0.20233  -0.00021
  18        3PZ         0.00018   0.14834  -0.00001  -0.00015  -0.19677
  19 3   C  1S          0.00454   0.00002   0.00000  -0.00537  -0.00004
  20        2S         -0.00712  -0.00003   0.00000   0.00399   0.00005
  21        2PX         0.00212  -0.00005   0.24155  -0.00040   0.00002
  22        2PY         0.31396  -0.00041  -0.00153  -0.06418   0.00023
  23        2PZ         0.00034   0.14916   0.00004  -0.00028  -0.27581
  24        3S         -0.01530  -0.00007  -0.00005   0.01807   0.00010
  25        3PX         0.00205  -0.00004   0.16389  -0.00090   0.00003
  26        3PY         0.31433  -0.00036  -0.00102  -0.14676   0.00036
  27        3PZ         0.00032   0.14428   0.00004  -0.00033  -0.31390
  28 4   C  1S          0.02480  -0.00004   0.00165   0.02171  -0.00001
  29        2S         -0.02635   0.00004  -0.00124  -0.01724  -0.00000
  30        2PX         0.07538  -0.00009  -0.20480   0.00686   0.00006
  31        2PY        -0.13007   0.00014   0.04431   0.16185  -0.00022
  32        2PZ         0.00024   0.15832  -0.00002  -0.00014  -0.16275
  33        3S         -0.07795   0.00016  -0.00156  -0.19135   0.00016
  34        3PX         0.00232  -0.00001  -0.21653   0.01872   0.00000
  35        3PY        -0.08316   0.00007  -0.01773   0.20209  -0.00023
  36        3PZ         0.00018   0.14832  -0.00001  -0.00015  -0.19726
  37 5   C  1S         -0.02880   0.00004  -0.00182  -0.02253   0.00000
  38        2S          0.03513  -0.00004   0.00164   0.02525  -0.00000
  39        2PX        -0.08056   0.00003   0.19104  -0.04950   0.00002
  40        2PY         0.12402  -0.00010  -0.02328  -0.16833   0.00021
  41        2PZ         0.00017   0.19103   0.00005   0.00013   0.09768
  42        3S          0.06800  -0.00012   0.00886   0.10756  -0.00003
  43        3PX        -0.05885  -0.00001   0.20046   0.01509  -0.00003
  44        3PY         0.12764  -0.00013  -0.07767   0.00467   0.00005
  45        3PZ         0.00017   0.19282   0.00006   0.00016   0.13453
  46 6   N  1S          0.03891  -0.00005   0.00000   0.07566  -0.00006
  47        2S         -0.04094   0.00005   0.00001  -0.07427   0.00006
  48        2PX         0.00130  -0.00002  -0.18556   0.00258  -0.00005
  49        2PY         0.18903  -0.00025   0.00122   0.39775  -0.00033
  50        2PZ         0.00020   0.22944   0.00000   0.00026   0.26246
  51        3S         -0.14324   0.00019  -0.00005  -0.29875   0.00027
  52        3PX         0.00124  -0.00002  -0.17451   0.00312  -0.00006
  53        3PY         0.17702  -0.00024   0.00113   0.48108  -0.00041
  54        3PZ         0.00020   0.23876   0.00001   0.00031   0.31856
  55 7   H  1S          0.21942  -0.00026   0.00000  -0.05841   0.00010
  56        2S          0.16591  -0.00026   0.00001  -0.04021   0.00011
  57 8   H  1S         -0.05829   0.00007  -0.13674   0.08833  -0.00010
  58        2S         -0.04255   0.00005  -0.10126   0.11066  -0.00013
  59 9   H  1S         -0.02278   0.00002   0.12930   0.05150  -0.00007
  60        2S         -0.00349   0.00002   0.09982   0.06140  -0.00008
  61 10  H  1S         -0.02310   0.00005  -0.12929   0.05148  -0.00007
  62        2S         -0.00376   0.00003  -0.09980   0.06136  -0.00008
  63 11  H  1S         -0.05865   0.00002   0.13675   0.08831  -0.00010
  64        2S         -0.04284   0.00003   0.10129   0.11064  -0.00013
                          21        22        23        24        25
                           O         V         V         V         V
     Eigenvalues --    -0.35141   0.12513   0.13297   0.25176   0.30766
   1 1   C  1S          0.00000   0.00001   0.00000   0.03951  -0.02742
   2        2S         -0.00000  -0.00001   0.00001  -0.02648   0.00092
   3        2PX        -0.00004   0.00004  -0.00004   0.06135  -0.15106
   4        2PY        -0.00001  -0.00003   0.00001   0.02545  -0.07426
   5        2PZ         0.23480  -0.14911   0.24886   0.00014  -0.00005
   6        3S          0.00000  -0.00006  -0.00005  -0.41591   0.54178
   7        3PX        -0.00004   0.00010  -0.00010   0.24248  -0.46230
   8        3PY         0.00000  -0.00001  -0.00000   0.09671  -0.29139
   9        3PZ         0.27227  -0.25151   0.51611   0.00026  -0.00012
  10 2   C  1S         -0.00001   0.00000   0.00001   0.04344  -0.03869
  11        2S          0.00001   0.00002  -0.00001  -0.01748   0.00418
  12        2PX        -0.00002   0.00007   0.00003   0.09605  -0.15547
  13        2PY         0.00002   0.00001  -0.00002  -0.07498   0.06596
  14        2PZ         0.23654  -0.12779  -0.23072  -0.00002  -0.00000
  15        3S          0.00002  -0.00019  -0.00009  -0.57607   0.69985
  16        3PX        -0.00004  -0.00000   0.00008   0.33161  -0.52611
  17        3PY         0.00003   0.00001  -0.00008  -0.21850   0.28237
  18        3PZ         0.29239  -0.30811  -0.50806   0.00016  -0.00007
  19 3   C  1S          0.00000   0.00006  -0.00001   0.05549  -0.00004
  20        2S         -0.00000  -0.00005   0.00001  -0.02480   0.00004
  21        2PX         0.00000  -0.00003  -0.00002  -0.00090  -0.02717
  22        2PY        -0.00000  -0.00017  -0.00001  -0.14309   0.00020
  23        2PZ         0.00023   0.28418  -0.00056  -0.00012  -0.00003
  24        3S          0.00002  -0.00030   0.00000  -0.71353   0.00026
  25        3PX         0.00000  -0.00003  -0.00005  -0.00316   0.03061
  26        3PY        -0.00001  -0.00057   0.00002  -0.50407   0.00024
  27        3PZ         0.00029   0.62848  -0.00130  -0.00060  -0.00005
  28 4   C  1S         -0.00000  -0.00001  -0.00000   0.04343   0.03875
  29        2S          0.00000   0.00003   0.00000  -0.01748  -0.00424
  30        2PX         0.00004  -0.00003  -0.00004  -0.09706  -0.15629
  31        2PY        -0.00003  -0.00000   0.00002  -0.07368  -0.06393
  32        2PZ        -0.23626  -0.12687   0.23127  -0.00007   0.00001
  33        3S         -0.00001  -0.00014   0.00002  -0.57614  -0.70015
  34        3PX         0.00006   0.00016  -0.00010  -0.33451  -0.53026
  35        3PY        -0.00002  -0.00006   0.00005  -0.21404  -0.27571
  36        3PZ        -0.29204  -0.30617   0.50934  -0.00002  -0.00000
  37 5   C  1S          0.00001   0.00002   0.00001   0.03953   0.02736
  38        2S         -0.00001  -0.00002  -0.00001  -0.02649  -0.00087
  39        2PX         0.00003   0.00001   0.00003  -0.06107  -0.15007
  40        2PY        -0.00002  -0.00005  -0.00001   0.02628   0.07621
  41        2PZ        -0.23502  -0.15009  -0.24831   0.00014  -0.00005
  42        3S         -0.00001  -0.00014  -0.00008  -0.41611  -0.54127
  43        3PX         0.00003  -0.00010   0.00006  -0.24133  -0.45807
  44        3PY        -0.00001  -0.00006  -0.00001   0.09998   0.29717
  45        3PZ        -0.27259  -0.25348  -0.51518   0.00025  -0.00011
  46 6   N  1S          0.00000   0.00001  -0.00000   0.00923   0.00001
  47        2S         -0.00000   0.00000   0.00000  -0.00614  -0.00002
  48        2PX         0.00001  -0.00004   0.00000  -0.00036  -0.03504
  49        2PY         0.00001   0.00000   0.00001  -0.05287   0.00022
  50        2PZ        -0.00024   0.26973  -0.00051  -0.00016   0.00003
  51        3S         -0.00002  -0.00011   0.00003  -0.08644   0.00002
  52        3PX         0.00000  -0.00010   0.00001  -0.00092  -0.01475
  53        3PY         0.00001  -0.00002   0.00002  -0.13877   0.00017
  54        3PZ        -0.00031   0.49157  -0.00097  -0.00032   0.00006
  55 7   H  1S         -0.00000   0.00012  -0.00000   0.05716   0.00001
  56        2S          0.00000   0.00046  -0.00002   1.05421  -0.00056
  57 8   H  1S          0.00001   0.00002   0.00000   0.03063  -0.02548
  58        2S          0.00001   0.00010  -0.00001   0.55968  -0.93815
  59 9   H  1S         -0.00000   0.00004   0.00002   0.04585  -0.02333
  60        2S         -0.00000   0.00013   0.00006   0.85239  -1.06285
  61 10  H  1S          0.00000   0.00003   0.00000   0.04587   0.02336
  62        2S         -0.00000   0.00007   0.00002   0.85245   1.06355
  63 11  H  1S          0.00000   0.00003   0.00002   0.03066   0.02545
  64        2S          0.00000   0.00016   0.00005   0.56001   0.93733
                          26        27        28        29        30
                           V         V         V         V         V
     Eigenvalues --     0.32855   0.35055   0.35145   0.35365   0.43555
   1 1   C  1S          0.08234   0.03119  -0.00067   0.08019   0.04992
   2        2S         -0.03997  -0.03315   0.00077  -0.04230  -0.00997
   3        2PX         0.08040   0.03321  -0.00082   0.10350  -0.11515
   4        2PY         0.12526  -0.01228   0.00036   0.00681  -0.04083
   5        2PZ        -0.00022   0.00512   0.21309   0.00003  -0.00004
   6        3S         -1.03081  -0.04283   0.00012  -1.03440  -0.62970
   7        3PX         0.48624   0.38766  -0.00914   0.65679  -0.71710
   8        3PY         0.45391   0.14779  -0.00326   0.00003   0.25871
   9        3PZ        -0.00045   0.01335   0.55697   0.00016  -0.00027
  10 2   C  1S         -0.00370  -0.07922   0.00187  -0.08622   0.02771
  11        2S          0.01089   0.06195  -0.00143   0.03486   0.02122
  12        2PX        -0.03819  -0.04839   0.00110  -0.07557  -0.04220
  13        2PY        -0.01994   0.06725  -0.00159   0.00851  -0.03867
  14        2PZ         0.00019  -0.00519  -0.21640  -0.00005   0.00004
  15        3S         -0.05464   0.67227  -0.01605   1.25541  -0.85847
  16        3PX        -0.35396  -0.67623   0.01541  -0.51478  -0.75616
  17        3PY        -0.14595   0.59422  -0.01442   0.04945  -0.33957
  18        3PZ         0.00035  -0.01436  -0.60461  -0.00024   0.00024
  19 3   C  1S         -0.05592   0.10484  -0.00257   0.00051  -0.08155
  20        2S          0.00052  -0.07395   0.00177  -0.00036   0.02434
  21        2PX         0.00092  -0.00093  -0.00002   0.07693  -0.00139
  22        2PY         0.14310  -0.08941   0.00222  -0.00086  -0.21606
  23        2PZ        -0.00008   0.00468   0.20428   0.00003  -0.00014
  24        3S          1.15938  -1.00583   0.02578  -0.00505   1.50938
  25        3PX         0.00268  -0.00793   0.00006   0.40445  -0.00881
  26        3PY         0.42130  -1.00744   0.02413  -0.00708  -1.33843
  27        3PZ         0.00005   0.01363   0.60580   0.00013  -0.00042
  28 4   C  1S         -0.00370  -0.07999   0.00188   0.08548   0.02758
  29        2S          0.01090   0.06229  -0.00144  -0.03431   0.02128
  30        2PX         0.03789   0.04986  -0.00111  -0.07525   0.04130
  31        2PY        -0.02052   0.06661  -0.00158  -0.00686  -0.03947
  32        2PZ         0.00020  -0.00515  -0.21637  -0.00002   0.00005
  33        3S         -0.05459   0.68287  -0.01626  -1.24894  -0.85658
  34        3PX         0.35190   0.68856  -0.01564  -0.50929   0.75022
  35        3PY        -0.15089   0.58511  -0.01422  -0.03692  -0.35171
  36        3PZ         0.00040  -0.01409  -0.60452  -0.00009   0.00037
  37 5   C  1S          0.08238   0.03195  -0.00068  -0.07991   0.05006
  38        2S         -0.03999  -0.03354   0.00076   0.04198  -0.01003
  39        2PX        -0.07877  -0.03445   0.00073   0.10301   0.11497
  40        2PY         0.12636  -0.01168   0.00036  -0.00824  -0.04265
  41        2PZ        -0.00022   0.00511   0.21305   0.00001   0.00001
  42        3S         -1.03125  -0.05306   0.00024   1.03402  -0.63142
  43        3PX        -0.48021  -0.39199   0.00885   0.65257   0.72169
  44        3PY         0.46033   0.15324  -0.00327  -0.00715   0.24666
  45        3PZ        -0.00051   0.01319   0.55676   0.00004  -0.00000
  46 6   N  1S         -0.04779   0.00351  -0.00014   0.00004  -0.12390
  47        2S          0.03244   0.02701  -0.00061   0.00012   0.03440
  48        2PX         0.00035   0.00054   0.00001  -0.06765   0.00107
  49        2PY         0.04618   0.03437  -0.00073   0.00055   0.15030
  50        2PZ         0.00024  -0.00581  -0.24275  -0.00002   0.00004
  51        3S          0.36798  -0.26108   0.00673  -0.00159   1.58526
  52        3PX        -0.00000  -0.00024   0.00006  -0.07651   0.00405
  53        3PY        -0.01666  -0.10037   0.00252  -0.00015   0.61353
  54        3PZ         0.00049  -0.01238  -0.51748  -0.00001   0.00009
  55 7   H  1S          0.00629   0.01521  -0.00020   0.00006   0.00885
  56        2S         -0.98170   1.45286  -0.03591   0.00671   0.83477
  57 8   H  1S          0.02116   0.02556  -0.00060   0.00980  -0.00128
  58        2S          1.22641   0.46041  -0.01030   1.06668  -0.24754
  59 9   H  1S         -0.01309  -0.02044   0.00050   0.00851  -0.02746
  60        2S         -0.24210  -1.20913   0.02812  -0.99924  -0.16687
  61 10  H  1S         -0.01312  -0.02036   0.00048  -0.00868  -0.02741
  62        2S         -0.24192  -1.21747   0.02847   0.98813  -0.16515
  63 11  H  1S          0.02115   0.02566  -0.00061  -0.00958  -0.00127
  64        2S          1.22662   0.47100  -0.01016  -1.06178  -0.24934
                          31        32        33        34        35
                           V         V         V         V         V
     Eigenvalues --     0.48812   0.52375   0.52902   0.72892   0.73971
   1 1   C  1S         -0.03097   0.02604   0.10088  -0.08160   0.00704
   2        2S          0.01553   0.00074  -0.02314  -0.08886   0.03662
   3        2PX         0.08606   0.09878  -0.11802  -0.00741  -0.01188
   4        2PY         0.13462  -0.21170  -0.04506   0.10744  -0.03865
   5        2PZ         0.00001  -0.00000  -0.00003   0.00002   0.00001
   6        3S          0.38350  -0.87301  -1.91574   1.89395   0.12050
   7        3PX         0.32168   0.65140  -0.77932   1.10307  -1.34157
   8        3PY         1.26832  -1.33562  -0.45659   1.08910   1.97569
   9        3PZ         0.00001   0.00003  -0.00020   0.00012  -0.00016
  10 2   C  1S          0.09356  -0.02469  -0.01486   0.13277  -0.01938
  11        2S         -0.00821  -0.01223   0.01999  -0.06626   0.01968
  12        2PX        -0.15470  -0.11842   0.05386  -0.14598   0.14316
  13        2PY         0.01663  -0.12520  -0.13353   0.19177   0.20957
  14        2PZ        -0.00002   0.00004   0.00002  -0.00011   0.00001
  15        3S         -2.08969   0.73358  -0.10629  -2.67929   0.22994
  16        3PX        -1.07716  -0.79120  -0.11410  -1.98379   1.19935
  17        3PY         0.39812  -1.36331  -1.51649   0.94425   1.81855
  18        3PZ        -0.00001   0.00003   0.00015  -0.00004  -0.00002
  19 3   C  1S          0.00005  -0.06638  -0.00002  -0.11545   0.00002
  20        2S          0.00001  -0.01096  -0.00001  -0.01690  -0.00003
  21        2PX        -0.12312  -0.00004  -0.20781  -0.00054   0.08631
  22        2PY         0.00093   0.00377   0.00121  -0.10336  -0.00048
  23        2PZ        -0.00001  -0.00007  -0.00003  -0.00023  -0.00001
  24        3S         -0.00126   1.84410   0.00021   2.92654  -0.00049
  25        3PX        -1.67447  -0.00271  -1.22967  -0.01378   2.56734
  26        3PY         0.01201  -0.37512   0.00697  -2.31459  -0.01619
  27        3PZ        -0.00018  -0.00001  -0.00013   0.00006   0.00021
  28 4   C  1S         -0.09365  -0.02458   0.01499   0.13276   0.01934
  29        2S          0.00820  -0.01227  -0.01999  -0.06623  -0.01973
  30        2PX        -0.15489   0.11699   0.05560   0.14842   0.14036
  31        2PY        -0.01466  -0.12646   0.13312   0.18992  -0.21144
  32        2PZ        -0.00001   0.00008  -0.00000  -0.00002   0.00005
  33        3S          2.09223   0.73170   0.10324  -2.67943  -0.22982
  34        3PX        -1.08355   0.77399  -0.09359   1.99699   1.17462
  35        3PY        -0.38426  -1.37061   1.51982   0.91600  -1.83391
  36        3PZ        -0.00012   0.00035  -0.00016   0.00029   0.00045
  37 5   C  1S          0.03089   0.02583  -0.10090  -0.08154  -0.00705
  38        2S         -0.01548   0.00079   0.02314  -0.08882  -0.03656
  39        2PX         0.08395  -0.10186  -0.11722   0.00878  -0.01155
  40        2PY        -0.13577  -0.21029   0.04694   0.10719   0.03863
  41        2PZ         0.00002  -0.00002  -0.00003   0.00005  -0.00001
  42        3S         -0.38318  -0.86902   1.91627   1.89194  -0.12064
  43        3PX         0.30286  -0.67047  -0.77119  -1.08764  -1.36702
  44        3PY        -1.27390  -1.32502   0.46993   1.10241  -1.95747
  45        3PZ         0.00013  -0.00005  -0.00023  -0.00036  -0.00011
  46 6   N  1S          0.00015   0.09152  -0.00015   0.08117   0.00000
  47        2S         -0.00001  -0.00982   0.00000  -0.03837  -0.00001
  48        2PX        -0.07835  -0.00001  -0.25634  -0.00095  -0.26298
  49        2PY         0.00043   0.03361   0.00164  -0.14300   0.00164
  50        2PZ        -0.00001   0.00002  -0.00003   0.00002  -0.00006
  51        3S         -0.00210  -1.40574   0.00257  -1.34221   0.00053
  52        3PX        -0.41266  -0.00137  -0.96695  -0.00524  -1.52828
  53        3PY         0.00202  -0.09507   0.00669  -0.83273   0.00984
  54        3PZ        -0.00007   0.00002  -0.00012   0.00004  -0.00029
  55 7   H  1S          0.00010   0.14067  -0.00010  -0.08493  -0.00008
  56        2S         -0.00089  -0.11273   0.00060   0.87458   0.00003
  57 8   H  1S         -0.05585  -0.03678  -0.06997  -0.09998   0.06692
  58        2S          0.71411  -0.01579  -0.19792   0.51691   0.01887
  59 9   H  1S         -0.06291   0.08827  -0.09390   0.13337  -0.00677
  60        2S         -0.48945  -0.21714   0.50851  -0.92925   0.06111
  61 10  H  1S          0.06303   0.08843   0.09374   0.13339   0.00676
  62        2S          0.48961  -0.21862  -0.50886  -0.92923  -0.06095
  63 11  H  1S          0.05580  -0.03667   0.07001  -0.09999  -0.06689
  64        2S         -0.71335  -0.01508   0.19797   0.51628  -0.01893
                          36        37        38        39        40
                           V         V         V         V         V
     Eigenvalues --     0.90908   0.93957   0.94625   0.99453   1.02068
   1 1   C  1S         -0.04273   0.00003  -0.04022  -0.02412  -0.00853
   2        2S          0.01757  -0.00017   0.10494  -0.07935   0.05871
   3        2PX         0.27061  -0.00057   0.41953   0.12871  -0.26135
   4        2PY        -0.21943  -0.00013   0.04550  -0.30814   0.58832
   5        2PZ        -0.00000   0.53588   0.00078  -0.00028  -0.00007
   6        3S         -0.04518  -0.00011   0.15535  -0.02883  -0.00123
   7        3PX         0.14184   0.00036  -0.18459  -0.12437   0.07629
   8        3PY        -0.12691   0.00052  -0.25844   0.47907  -0.32628
   9        3PZ         0.00004  -0.44272  -0.00062   0.00029   0.00002
  10 2   C  1S          0.03096   0.00000   0.00112  -0.03088   0.05617
  11        2S         -0.02674  -0.00000   0.00329   0.00395   0.06988
  12        2PX         0.10793  -0.00027   0.20262   0.30336  -0.03246
  13        2PY         0.41207   0.00033  -0.06941   0.49776   0.06114
  14        2PZ        -0.00001   0.43813   0.00045   0.00012  -0.00008
  15        3S         -0.05230  -0.00023   0.08174  -0.16446   0.30522
  16        3PX        -0.52968   0.00044  -0.44864  -0.16913   0.20437
  17        3PY        -0.87145  -0.00019   0.02338  -0.40838   0.29183
  18        3PZ        -0.00000  -0.23214  -0.00032  -0.00011   0.00008
  19 3   C  1S         -0.00006   0.00005  -0.01807   0.08386   0.00009
  20        2S         -0.00008  -0.00009   0.04255  -0.03001  -0.00020
  21        2PX        -0.59184  -0.00005  -0.00198   0.00196  -0.52208
  22        2PY         0.00364   0.00017  -0.26547   0.26108   0.00378
  23        2PZ        -0.00006   0.44665   0.00070  -0.00029  -0.00021
  24        3S          0.00073  -0.00051   0.44111   0.05073  -0.00053
  25        3PX         0.00801   0.00001   0.00157  -0.00198   0.93518
  26        3PY        -0.00053  -0.00023   0.16685  -0.11420  -0.00613
  27        3PZ         0.00001  -0.30508  -0.00029   0.00004   0.00023
  28 4   C  1S         -0.03089   0.00001   0.00108  -0.03081  -0.05625
  29        2S          0.02651  -0.00001   0.00317   0.00419  -0.07005
  30        2PX         0.10288   0.00017  -0.20350  -0.29662  -0.03328
  31        2PY        -0.41385   0.00030  -0.06673   0.50148  -0.05988
  32        2PZ         0.00002   0.43808   0.00044   0.00003   0.00012
  33        3S          0.05176  -0.00026   0.08113  -0.16344  -0.30599
  34        3PX        -0.51745  -0.00045   0.44916   0.16253   0.19962
  35        3PY         0.87859  -0.00008   0.01721  -0.40897  -0.29468
  36        3PZ        -0.00014  -0.23215  -0.00022  -0.00005  -0.00003
  37 5   C  1S          0.04272   0.00003  -0.04022  -0.02406   0.00853
  38        2S         -0.01770  -0.00014   0.10496  -0.07921  -0.05894
  39        2PX         0.27364   0.00046  -0.41927  -0.13196  -0.26924
  40        2PY         0.21609  -0.00005   0.05041  -0.30500  -0.58605
  41        2PZ         0.00002   0.53589   0.00065  -0.00029   0.00019
  42        3S          0.04606  -0.00007   0.15510  -0.02923   0.00105
  43        3PX         0.14256  -0.00021   0.18144   0.13118   0.08126
  44        3PY         0.12452   0.00051  -0.26004   0.47692   0.32758
  45        3PZ         0.00004  -0.44264  -0.00056   0.00026  -0.00019
  46 6   N  1S          0.00004  -0.00006   0.05678   0.01920  -0.00002
  47        2S          0.00001   0.00005  -0.06312  -0.05961  -0.00006
  48        2PX         0.19732   0.00000   0.00020  -0.00100  -0.15531
  49        2PY        -0.00115  -0.00011   0.04604  -0.19832   0.00056
  50        2PZ         0.00003   0.06355   0.00007  -0.00001  -0.00001
  51        3S         -0.00095   0.00033  -0.28034   0.27501   0.00104
  52        3PX         0.45827   0.00001  -0.00053   0.00029  -0.21918
  53        3PY        -0.00329   0.00005  -0.10347  -0.06394   0.00155
  54        3PZ         0.00007   0.11191   0.00015  -0.00008  -0.00001
  55 7   H  1S         -0.00023   0.00066  -0.35264   0.46281   0.00055
  56        2S          0.00038  -0.00012   0.14407  -0.21701  -0.00023
  57 8   H  1S         -0.12327   0.00044  -0.41037  -0.13136  -0.05399
  58        2S          0.05545  -0.00010   0.15981   0.11648   0.02823
  59 9   H  1S          0.11983   0.00041  -0.32090  -0.08314   0.35152
  60        2S         -0.10124  -0.00008  -0.00191   0.08984  -0.17077
  61 10  H  1S         -0.11985   0.00044  -0.32110  -0.08277  -0.35159
  62        2S          0.10105  -0.00007  -0.00190   0.08982   0.17131
  63 11  H  1S          0.12314   0.00044  -0.41036  -0.13133   0.05436
  64        2S         -0.05528  -0.00012   0.15997   0.11634  -0.02814
                          41        42        43        44        45
                           V         V         V         V         V
     Eigenvalues --     1.03394   1.03757   1.07802   1.08733   1.10354
   1 1   C  1S         -0.00001  -0.00002   0.00961  -0.00001   0.03016
   2        2S          0.00001   0.00002  -0.10074   0.00003   0.19389
   3        2PX        -0.00010  -0.00011   0.13979   0.00023   0.15857
   4        2PY         0.00012   0.00029  -0.50724  -0.00014  -0.24402
   5        2PZ         0.56663  -0.50393   0.00022  -0.53909  -0.00010
   6        3S         -0.00004  -0.00033   0.34024   0.00001  -0.11063
   7        3PX         0.00002   0.00008  -0.13671  -0.00036  -0.10397
   8        3PY        -0.00005  -0.00033   0.84988   0.00027   0.52398
   9        3PZ        -0.49767   0.58352  -0.00042   0.73676   0.00022
  10 2   C  1S          0.00001   0.00004  -0.01150  -0.00001   0.01114
  11        2S         -0.00001   0.00000  -0.24322  -0.00006   0.14068
  12        2PX        -0.00017  -0.00022  -0.31468  -0.00023  -0.17433
  13        2PY         0.00011   0.00025  -0.20037   0.00002  -0.38415
  14        2PZ         0.53219   0.23668  -0.00071   0.57532   0.00037
  15        3S          0.00007   0.00054  -0.37937  -0.00007  -0.31993
  16        3PX         0.00021   0.00049   0.20809   0.00039   0.21043
  17        3PY        -0.00006  -0.00050   0.49339   0.00007   0.33842
  18        3PZ        -0.42620  -0.22575   0.00099  -0.75295  -0.00051
  19 3   C  1S         -0.00001   0.00002  -0.02496  -0.00002  -0.00001
  20        2S         -0.00001  -0.00001  -0.32338  -0.00006   0.00007
  21        2PX        -0.00009  -0.00016   0.00212   0.00008  -0.44547
  22        2PY        -0.00002  -0.00087   0.27040   0.00003   0.00270
  23        2PZ        -0.00260   0.76435   0.00107   0.00018  -0.00036
  24        3S         -0.00010  -0.00030   0.01701  -0.00019  -0.00060
  25        3PX         0.00011   0.00022  -0.00326  -0.00005   0.29313
  26        3PY         0.00006   0.00127  -0.34437   0.00002  -0.00157
  27        3PZ         0.00219  -0.66896  -0.00124  -0.00024   0.00054
  28 4   C  1S         -0.00001   0.00003  -0.01147  -0.00000  -0.01114
  29        2S         -0.00003  -0.00003  -0.24306  -0.00004  -0.14068
  30        2PX         0.00013   0.00013   0.31196   0.00021  -0.16882
  31        2PY        -0.00004   0.00023  -0.20441  -0.00017   0.38627
  32        2PZ        -0.53403   0.23300  -0.00016  -0.57552   0.00014
  33        3S         -0.00002   0.00050  -0.37859  -0.00016   0.32016
  34        3PX        -0.00016  -0.00033  -0.20243  -0.00024   0.20480
  35        3PY         0.00002  -0.00064   0.49661   0.00030  -0.34106
  36        3PZ         0.42805  -0.22283   0.00035   0.75329  -0.00028
  37 5   C  1S         -0.00000  -0.00002   0.00965  -0.00001  -0.03018
  38        2S         -0.00001  -0.00001  -0.10066   0.00007  -0.19346
  39        2PX        -0.00005   0.00012  -0.14625  -0.00022   0.16121
  40        2PY        -0.00015   0.00008  -0.50481  -0.00020   0.24173
  41        2PZ        -0.56304  -0.50799  -0.00010   0.53907  -0.00006
  42        3S          0.00000  -0.00032   0.33958   0.00009   0.11014
  43        3PX         0.00006  -0.00019   0.14884   0.00021  -0.11006
  44        3PY         0.00015  -0.00025   0.84801   0.00035  -0.52230
  45        3PZ         0.49348   0.58711  -0.00000  -0.73678   0.00014
  46 6   N  1S          0.00000  -0.00000   0.01454   0.00001   0.00001
  47        2S         -0.00002  -0.00002  -0.03152  -0.00002  -0.00000
  48        2PX        -0.00003  -0.00003  -0.00143   0.00000  -0.11780
  49        2PY        -0.00005   0.00005  -0.24223  -0.00014   0.00059
  50        2PZ         0.00021  -0.05670   0.00005   0.00004  -0.00004
  51        3S          0.00010  -0.00014   0.35590   0.00024   0.00040
  52        3PX        -0.00004  -0.00003  -0.00009  -0.00003  -0.04886
  53        3PY         0.00002   0.00001  -0.09700   0.00000   0.00036
  54        3PZ         0.00060  -0.16713   0.00005  -0.00001  -0.00006
  55 7   H  1S         -0.00003   0.00017  -0.42444  -0.00014   0.00016
  56        2S          0.00001  -0.00027   0.35370   0.00009  -0.00019
  57 8   H  1S         -0.00006  -0.00009   0.07325   0.00001   0.55877
  58        2S          0.00003   0.00012   0.09226  -0.00003  -0.22003
  59 9   H  1S          0.00006   0.00023  -0.28243  -0.00006   0.30606
  60        2S         -0.00001   0.00002   0.14047   0.00008  -0.13354
  61 10  H  1S         -0.00004   0.00011  -0.28200  -0.00001  -0.30589
  62        2S          0.00004   0.00008   0.14055   0.00001   0.13383
  63 11  H  1S          0.00002  -0.00010   0.07344   0.00011  -0.55860
  64        2S         -0.00001   0.00011   0.09185  -0.00002   0.21988
                          46        47        48        49        50
                           V         V         V         V         V
     Eigenvalues --     1.12133   1.13150   1.26137   1.26636   1.34030
   1 1   C  1S         -0.00007  -0.02839  -0.00264  -0.02855  -0.02057
   2        2S          0.00078   0.39301  -0.01696   0.07004   0.15987
   3        2PX         0.00143   0.54165   0.03035  -0.43419  -0.23701
   4        2PY        -0.00035  -0.03546   0.11198  -0.38450  -0.42749
   5        2PZ        -0.20302   0.00061   0.00012  -0.00008   0.00004
   6        3S          0.00032  -0.24374  -0.77269   0.34477   0.33507
   7        3PX        -0.00212  -0.83537  -0.52151   1.13311   0.47330
   8        3PY         0.00120   0.28455  -0.56477   1.05685   1.13159
   9        3PZ         0.45949  -0.00133  -0.00020   0.00022  -0.00005
  10 2   C  1S          0.00000   0.00933  -0.01794   0.02224   0.01240
  11        2S          0.00016   0.17175  -0.04389  -0.03230  -0.01490
  12        2PX        -0.00053  -0.10654  -0.55663   0.39030   0.07383
  13        2PY        -0.00054  -0.08663   0.31181  -0.28897  -0.35910
  14        2PZ         0.59863  -0.00153  -0.00015   0.00011  -0.00001
  15        3S         -0.00110  -0.13312   1.15230  -0.48239  -0.33808
  16        3PX         0.00128   0.65654   1.74884  -1.02266  -0.01767
  17        3PY         0.00147   0.19727  -0.92794   0.82982   0.95137
  18        3PZ        -0.99682   0.00266   0.00001  -0.00025  -0.00004
  19 3   C  1S         -0.00012  -0.01644   0.02482  -0.00004   0.02664
  20        2S          0.00037   0.23887  -0.08941   0.00007  -0.11034
  21        2PX         0.00032  -0.00068  -0.00417  -0.01644  -0.00276
  22        2PY         0.00027  -0.14027  -0.68714   0.00039  -0.53653
  23        2PZ        -0.66166   0.00149  -0.00081  -0.00002  -0.00034
  24        3S         -0.00171  -0.86261  -1.24255   0.00020  -0.13596
  25        3PX        -0.00043   0.00110   0.01469  -0.03588   0.00288
  26        3PY        -0.00090   0.23057   2.33949  -0.00077   0.81555
  27        3PZ         1.14803  -0.00281   0.00127   0.00004   0.00047
  28 4   C  1S          0.00003   0.00936  -0.01793  -0.02224   0.01236
  29        2S          0.00027   0.17189  -0.04379   0.03237  -0.01456
  30        2PX         0.00045   0.10559   0.56102   0.39395  -0.07703
  31        2PY        -0.00092  -0.08847   0.30448   0.28380  -0.35821
  32        2PZ         0.59825  -0.00124   0.00011   0.00002  -0.00005
  33        3S         -0.00133  -0.13365   1.15259   0.48181  -0.33702
  34        3PX        -0.00112  -0.65428  -1.76157  -1.03283   0.02661
  35        3PY         0.00204   0.20696  -0.90518  -0.81633   0.95267
  36        3PZ        -0.99639   0.00210  -0.00051  -0.00004  -0.00006
  37 5   C  1S         -0.00004  -0.02834  -0.00262   0.02856  -0.02061
  38        2S          0.00095   0.39318  -0.01691  -0.07010   0.16014
  39        2PX        -0.00147  -0.54192  -0.02898  -0.42919   0.23152
  40        2PY        -0.00050  -0.02827   0.11244   0.39049  -0.43077
  41        2PZ        -0.20298   0.00033   0.00016  -0.00005   0.00009
  42        3S          0.00037  -0.24399  -0.77279  -0.34455   0.33490
  43        3PX         0.00206   0.83934   0.51387   1.11888  -0.45753
  44        3PY         0.00178   0.27469  -0.57182  -1.07218   1.13880
  45        3PZ         0.45929  -0.00088  -0.00003   0.00019  -0.00021
  46 6   N  1S          0.00003   0.00368  -0.00940  -0.00001   0.00391
  47        2S         -0.00003  -0.00779  -0.03853   0.00002   0.03008
  48        2PX         0.00010  -0.00227  -0.00031   0.01622   0.00034
  49        2PY        -0.00099  -0.37894  -0.05219  -0.00008   0.06476
  50        2PZ        -0.11605   0.00030  -0.00004   0.00002   0.00004
  51        3S          0.00223   0.88732   0.42960  -0.00031   0.00780
  52        3PX         0.00006   0.00248   0.00182  -0.02612  -0.00200
  53        3PY         0.00052   0.29507   0.29137   0.00024  -0.37266
  54        3PZ        -0.09517   0.00021   0.00008  -0.00002   0.00001
  55 7   H  1S         -0.00001   0.21243   0.37102  -0.00023   0.50772
  56        2S          0.00028  -0.12255  -1.35501   0.00076  -0.98421
  57 8   H  1S          0.00042   0.29143  -0.04569  -0.36774  -0.38766
  58        2S         -0.00066  -0.35120  -0.21136   1.10299   0.88905
  59 9   H  1S          0.00034   0.36739  -0.33335   0.36681   0.24334
  60        2S         -0.00008  -0.02200   1.13527  -0.94153  -0.44434
  61 10  H  1S          0.00064   0.36778  -0.33341  -0.36686   0.24226
  62        2S         -0.00028  -0.02224   1.13571   0.94142  -0.44205
  63 11  H  1S          0.00096   0.29201  -0.04538   0.36804  -0.38815
  64        2S         -0.00083  -0.35127  -0.21157  -1.10333   0.88966
                          51        52        53        54        55
                           V         V         V         V         V
     Eigenvalues --     1.36594   1.48470   1.48526   1.54201   1.61069
   1 1   C  1S         -0.02468   0.00209   0.01860  -0.00000   0.00293
   2        2S          0.16671  -0.28258  -0.36327   0.00049  -0.51641
   3        2PX        -0.27833   0.42425   0.10275  -0.00039   0.37162
   4        2PY        -0.22866   0.10461  -0.02651  -0.00016   0.12601
   5        2PZ        -0.00004   0.00007   0.00007   0.07714   0.00007
   6        3S         -0.07646   1.46300   0.87486  -0.00241   1.73359
   7        3PX         0.11468  -1.50413   0.92745   0.00072  -1.14799
   8        3PY         0.80394   0.19096   0.25697  -0.00059   0.32447
   9        3PZ         0.00002  -0.00025   0.00000  -0.48094  -0.00057
  10 2   C  1S         -0.02268   0.00257   0.01977  -0.00002   0.01676
  11        2S          0.15275  -0.22174  -0.32132   0.00035  -0.37610
  12        2PX        -0.57955   0.11352   0.36385  -0.00002  -0.16530
  13        2PY        -0.05478  -0.51770  -0.10510   0.00046  -0.17855
  14        2PZ        -0.00010   0.00008   0.00011  -0.04973  -0.00014
  15        3S          0.08876   1.62304  -0.03949   0.00011  -0.29663
  16        3PX         1.38530   0.64772  -1.54955   0.00048   0.58413
  17        3PY         0.76304   2.42705   0.23694  -0.00250   1.23009
  18        3PZ         0.00015  -0.00018  -0.00040   0.25977   0.00072
  19 3   C  1S          0.00006  -0.00015   0.00595   0.00001   0.01084
  20        2S         -0.00023   0.01088  -0.35248  -0.00004  -0.14512
  21        2PX        -0.46390  -0.43323  -0.01719   0.00018   0.00236
  22        2PY         0.00217   0.01991  -0.54345  -0.00017   0.32933
  23        2PZ        -0.00004  -0.00001  -0.00023   0.05747   0.00027
  24        3S          0.00030  -0.07036   2.19596   0.00013  -1.25308
  25        3PX         1.72547   3.08671   0.09984  -0.00128  -0.00732
  26        3PY        -0.00960  -0.02612   0.25934   0.00183  -1.31047
  27        3PZ         0.00013   0.00021   0.00072  -0.20664  -0.00127
  28 4   C  1S          0.02269  -0.00385   0.01955  -0.00002   0.01680
  29        2S         -0.15278   0.24170  -0.30617   0.00024  -0.37695
  30        2PX        -0.57912   0.14318  -0.35658  -0.00010   0.16257
  31        2PY         0.06173   0.52180  -0.06714   0.00011  -0.18030
  32        2PZ        -0.00010  -0.00005  -0.00006  -0.04975  -0.00010
  33        3S         -0.08938  -1.61537  -0.14303   0.00137  -0.29633
  34        3PX         1.37537   0.51397   1.58841  -0.00079  -0.56425
  35        3PY        -0.77942  -2.44556   0.06084  -0.00045   1.23604
  36        3PZ         0.00033   0.00041   0.00012   0.25980   0.00054
  37 5   C  1S          0.02465  -0.00328   0.01840  -0.00001   0.00293
  38        2S         -0.16650   0.30544  -0.34418   0.00040  -0.51654
  39        2PX        -0.27480   0.42882  -0.07566   0.00012  -0.36924
  40        2PY         0.23130  -0.10862  -0.03214  -0.00007   0.13076
  41        2PZ        -0.00002   0.00007   0.00002   0.07716   0.00001
  42        3S          0.07730  -1.51750   0.77935  -0.00132   1.73310
  43        3PX         0.10269  -1.44446  -1.01838   0.00025   1.14799
  44        3PY        -0.80285  -0.18837   0.25787  -0.00035   0.30895
  45        3PZ        -0.00001  -0.00025  -0.00027  -0.48089  -0.00044
  46 6   N  1S          0.00001  -0.00126   0.03869  -0.00002   0.00035
  47        2S          0.00003   0.00193  -0.05812   0.00005  -0.01948
  48        2PX         0.06968   0.20937   0.00680   0.00009   0.00330
  49        2PY        -0.00036  -0.00227   0.02509  -0.00030   0.47102
  50        2PZ        -0.00004  -0.00034  -0.00034  -1.07629  -0.00076
  51        3S         -0.00023   0.03367  -1.04354   0.00023   0.49963
  52        3PX        -0.36448  -0.30712  -0.01315  -0.00010  -0.00341
  53        3PY         0.00178   0.01904  -0.52497   0.00049  -0.40135
  54        3PZ        -0.00002   0.00032   0.00038   1.29365   0.00102
  55 7   H  1S          0.00065  -0.00579   0.16903  -0.00068   0.60918
  56        2S         -0.00156   0.02258  -0.73015  -0.00033   0.35429
  57 8   H  1S         -0.33950  -0.33662   0.61551  -0.00002  -0.14959
  58        2S          0.70022  -0.61188  -0.23269   0.00061  -0.67547
  59 9   H  1S         -0.38537  -0.16294  -0.15277   0.00039   0.13590
  60        2S          0.87652  -0.46954  -0.74262   0.00063  -0.17208
  61 10  H  1S          0.38579   0.17290  -0.14236   0.00006   0.13527
  62        2S         -0.87742   0.51623  -0.71076   0.00027  -0.17298
  63 11  H  1S          0.33899   0.29647   0.63554  -0.00023  -0.14865
  64        2S         -0.69840   0.62576  -0.19282   0.00029  -0.67434
                          56        57        58        59        60
                           V         V         V         V         V
     Eigenvalues --     1.64454   1.67260   1.68952   1.73883   1.81679
   1 1   C  1S          0.00748  -0.00079   0.00585   0.00937   0.00173
   2        2S         -0.32006  -0.02041   0.12325  -0.94911  -0.96673
   3        2PX        -0.01132  -0.29998   0.11147  -0.04358   0.07704
   4        2PY         0.21855   0.03486  -0.14005  -0.14852  -0.18744
   5        2PZ        -0.00001  -0.00007   0.00004  -0.00000   0.00004
   6        3S         -0.77788   0.63522  -0.97050   1.76942   1.84714
   7        3PX        -0.88058   2.04893  -0.40774   0.14006  -0.33144
   8        3PY        -1.33057  -0.19259  -0.06953  -0.10560   0.64485
   9        3PZ         0.00000   0.00039   0.00018   0.00006  -0.00004
  10 2   C  1S         -0.00560   0.00532  -0.00409   0.00804  -0.00203
  11        2S         -0.39723  -0.50780   0.01364  -0.40296   0.60768
  12        2PX         0.06204   0.30007  -0.03520  -0.28577  -0.04127
  13        2PY         0.00180   0.00033   0.33242   0.05670  -0.01071
  14        2PZ         0.00004   0.00009   0.00007  -0.00005   0.00001
  15        3S          1.75176   1.28367   0.58748   0.10591  -0.94380
  16        3PX         0.75235  -1.71876   1.25107   0.88534   0.90509
  17        3PY        -0.87730   0.52071  -1.41558  -0.08304   0.36957
  18        3PZ        -0.00021  -0.00048  -0.00049   0.00013  -0.00006
  19 3   C  1S          0.02001   0.00006   0.01823   0.00001   0.00030
  20        2S         -0.70690  -0.00206  -0.77753  -0.00036   0.75781
  21        2PX        -0.00017  -0.40393  -0.00033  -0.00369  -0.00172
  22        2PY        -0.08044   0.00232  -0.21920  -0.00020  -0.27654
  23        2PZ        -0.00025  -0.00008  -0.00045  -0.00001  -0.00012
  24        3S          0.09666  -0.00045   0.55619  -0.00077  -1.60122
  25        3PX         0.00540   0.86281   0.01057   0.12331   0.00850
  26        3PY         1.13996  -0.00082   2.39299   0.00186   1.38270
  27        3PZ         0.00072   0.00026   0.00165   0.00003   0.00044
  28 4   C  1S         -0.00560  -0.00533  -0.00408  -0.00807  -0.00202
  29        2S         -0.39807   0.50698   0.01061   0.40338   0.60770
  30        2PX        -0.06230   0.30047   0.03863  -0.28623   0.04122
  31        2PY         0.00243  -0.00308   0.33164  -0.05256  -0.01120
  32        2PZ         0.00004   0.00004   0.00013  -0.00002   0.00005
  33        3S          1.75437  -1.28041   0.59588  -0.10488  -0.94355
  34        3PX        -0.76318  -1.73319  -1.26516   0.88222  -0.90000
  35        3PY        -0.86497  -0.50242  -1.39330   0.06925   0.38176
  36        3PZ        -0.00031  -0.00021  -0.00090   0.00006  -0.00040
  37 5   C  1S          0.00750   0.00084   0.00585  -0.00933   0.00172
  38        2S         -0.32098   0.01936   0.12155   0.94809  -0.96781
  39        2PX         0.01426  -0.30144  -0.11236  -0.04191  -0.07942
  40        2PY         0.21845  -0.03122  -0.13864   0.14895  -0.18651
  41        2PZ         0.00004  -0.00003   0.00001  -0.00003   0.00003
  42        3S         -0.77425  -0.63635  -0.96361  -1.76924   1.85057
  43        3PX         0.86111   2.05535   0.39945   0.14391   0.33833
  44        3PY        -1.34222   0.16506  -0.07475   0.10313   0.63964
  45        3PZ         0.00027   0.00025   0.00041   0.00013  -0.00001
  46 6   N  1S         -0.05872  -0.00002   0.00452  -0.00003   0.00736
  47        2S          0.21327  -0.00000  -0.05419   0.00002  -0.03731
  48        2PX        -0.00400  -0.33686   0.00423  -0.54142   0.00012
  49        2PY        -0.66774   0.00323   0.50291   0.00365  -0.07726
  50        2PZ         0.00017  -0.00014   0.00035  -0.00000   0.00004
  51        3S          0.34071   0.00134   0.56768   0.00066  -0.11645
  52        3PX         0.00836   1.19866  -0.00634   1.18984  -0.00248
  53        3PY         1.47778  -0.00849  -0.53296  -0.00754  -0.10424
  54        3PZ        -0.00024   0.00031  -0.00050   0.00006  -0.00004
  55 7   H  1S         -0.15821  -0.00095  -0.66685  -0.00065  -0.26680
  56        2S         -0.55787  -0.00192  -0.91350  -0.00085  -0.29143
  57 8   H  1S         -0.28528   0.36951   0.02920  -0.13652  -0.08495
  58        2S         -0.47251   0.48931  -0.08126  -0.22178  -0.28609
  59 9   H  1S          0.31856  -0.59990   0.48241   0.23752   0.21938
  60        2S         -0.00420  -0.69309   0.49354   0.25485   0.36178
  61 10  H  1S          0.31793   0.60263   0.47989  -0.23628   0.21924
  62        2S         -0.00498   0.69524   0.49066  -0.25345   0.36189
  63 11  H  1S         -0.28519  -0.36986   0.03033   0.13608  -0.08518
  64        2S         -0.47239  -0.49097  -0.07994   0.22063  -0.28605
                          61        62        63        64
                           V         V         V         V
     Eigenvalues --     1.95795   2.22860   2.27493   3.22643
   1 1   C  1S         -0.00929   0.02868  -0.01860   0.03929
   2        2S         -0.09443   0.97247  -0.14045   0.09907
   3        2PX         0.12493   0.30560   0.01293  -0.14134
   4        2PY         0.03653   0.04363   0.13642   0.09224
   5        2PZ         0.00001   0.00006  -0.00003  -0.00002
   6        3S          1.90495  -1.93554   1.99736  -2.64044
   7        3PX         0.71995  -1.05107   0.43333  -1.81745
   8        3PY        -0.70247  -2.04445   0.97812  -0.63212
   9        3PZ         0.00013  -0.00018   0.00002  -0.00027
  10 2   C  1S          0.00530  -0.02774   0.05077  -0.04911
  11        2S          1.01462  -0.70096   1.08337  -0.45614
  12        2PX         0.23528  -0.13973   0.00853  -0.06486
  13        2PY        -0.06179  -0.03362  -0.21533   0.01268
  14        2PZ         0.00003  -0.00002  -0.00002  -0.00002
  15        3S         -1.69645   2.63115  -4.84533   2.92233
  16        3PX        -1.20226   1.00259  -2.37382   2.16398
  17        3PY         0.14676  -1.25974   1.24394  -0.83843
  18        3PZ        -0.00013   0.00014   0.00012   0.00013
  19 3   C  1S         -0.00001   0.00002  -0.06380   0.04214
  20        2S          0.00016   0.00020  -1.44063   0.36052
  21        2PX        -0.05852   0.20662   0.00141  -0.00001
  22        2PY         0.00022  -0.00140   0.22099  -0.00167
  23        2PZ        -0.00002   0.00004   0.00018  -0.00009
  24        3S         -0.00014   0.00018   5.79384  -3.46826
  25        3PX        -0.72667  -0.01185  -0.02230   0.01249
  26        3PY         0.00510   0.00043  -3.62403   2.02405
  27        3PZ        -0.00003  -0.00002  -0.00049   0.00015
  28 4   C  1S         -0.00530   0.02776   0.05077  -0.04911
  29        2S         -1.01408   0.70116   1.08355  -0.45628
  30        2PX         0.23599  -0.13940  -0.01135   0.06503
  31        2PY         0.05875   0.03544  -0.21514   0.01192
  32        2PZ         0.00002  -0.00000  -0.00004   0.00003
  33        3S          1.69523  -2.63062  -4.84675   2.92261
  34        3PX        -1.20406   1.01955   2.39100  -2.17543
  35        3PY        -0.13071   1.24612   1.21200  -0.80951
  36        3PZ        -0.00020  -0.00006   0.00059  -0.00038
  37 5   C  1S          0.00932  -0.02865  -0.01860   0.03932
  38        2S          0.09367  -0.97232  -0.14044   0.09906
  39        2PX         0.12461   0.30507  -0.01099   0.14248
  40        2PY        -0.03842  -0.04758   0.13664   0.09037
  41        2PZ         0.00001   0.00005  -0.00005   0.00005
  42        3S         -1.90306   1.93509   1.99693  -2.63935
  43        3PX         0.72828  -1.02367  -0.42026   1.80809
  44        3PY         0.69362   2.05765   0.98352  -0.65559
  45        3PZ         0.00016  -0.00026  -0.00023   0.00037
  46 6   N  1S          0.00000   0.00001   0.02961  -0.04983
  47        2S          0.00010   0.00004  -0.38648  -2.01737
  48        2PX        -0.69264  -0.63370  -0.00052  -0.00157
  49        2PY         0.00431   0.00409  -0.08309  -0.23297
  50        2PZ        -0.00014  -0.00009  -0.00005   0.00001
  51        3S         -0.00087   0.00014  -0.11282   4.81533
  52        3PX         2.23002   1.40970  -0.00131   0.01086
  53        3PY        -0.01444  -0.00908  -0.20004   1.70508
  54        3PZ         0.00041   0.00022   0.00011  -0.00004
  55 7   H  1S         -0.00010  -0.00010   0.29630  -0.09373
  56        2S         -0.00017  -0.00012   0.59400  -0.38705
  57 8   H  1S         -0.19466  -0.32762   0.03035  -0.10330
  58        2S         -0.10513  -0.44683   0.05492  -0.39530
  59 9   H  1S         -0.16799   0.10362  -0.16778   0.20110
  60        2S         -0.09915   0.25687  -0.38797   0.51737
  61 10  H  1S          0.16808  -0.10367  -0.16779   0.20115
  62        2S          0.09930  -0.25704  -0.38809   0.51757
  63 11  H  1S          0.19475   0.32756   0.03031  -0.10321
  64        2S          0.10526   0.44655   0.05487  -0.39498
     Density Matrix:
                           1         2         3         4         5
   1 1   C  1S          2.03517
   2        2S          0.09318   0.12558
   3        2PX         0.00394   0.00293   0.29611
   4        2PY        -0.00127   0.00697   0.00333   0.32277
   5        2PZ         0.00000  -0.00000   0.00001  -0.00001   0.20255
   6        3S         -0.32449   0.21235  -0.07305  -0.03286  -0.00002
   7        3PX         0.03313  -0.03060   0.19979   0.06394  -0.00001
   8        3PY        -0.04991   0.02680   0.08229   0.13658   0.00001
   9        3PZ         0.00001  -0.00001  -0.00001   0.00000   0.22806
  10 2   C  1S          0.01816  -0.03007   0.00049  -0.07470  -0.00000
  11        2S         -0.02653   0.02441   0.00061   0.07516   0.00000
  12        2PX        -0.00036   0.00286   0.01454   0.00044  -0.00001
[...]
 ! A9    A(4,3,7)              120.4932         -DE/DX =    0.0                 !
 ! A10   A(3,4,5)              118.5378         -DE/DX =    0.0                 !
 ! A11   A(3,4,10)             121.1446         -DE/DX =   -0.0001              !
 ! A12   A(5,4,10)             120.3175         -DE/DX =    0.0                 !
 ! A13   A(4,5,6)              122.5555         -DE/DX =    0.0001              !
 ! A14   A(4,5,11)             120.7423         -DE/DX =    0.0                 !
 ! A15   A(6,5,11)             116.7022         -DE/DX =   -0.0001              !
 ! A16   A(1,6,5)              118.7993         -DE/DX =   -0.0001              !
 ! D1    D(6,1,2,3)             -0.0004         -DE/DX =    0.0                 !
 ! D2    D(6,1,2,9)           -180.0001         -DE/DX =    0.0                 !
 ! D3    D(8,1,2,3)            180.0023         -DE/DX =    0.0                 !
 ! D4    D(8,1,2,9)              0.0026         -DE/DX =    0.0                 !
 ! D5    D(2,1,6,5)              0.0018         -DE/DX =    0.0                 !
 ! D6    D(8,1,6,5)            179.9992         -DE/DX =    0.0                 !
 ! D7    D(1,2,3,4)             -0.0023         -DE/DX =    0.0                 !
 ! D8    D(1,2,3,7)            180.0033         -DE/DX =    0.0                 !
 ! D9    D(9,2,3,4)           -180.0026         -DE/DX =    0.0                 !
 ! D10   D(9,2,3,7)              0.003          -DE/DX =    0.0                 !
 ! D11   D(2,3,4,5)              0.0035         -DE/DX =    0.0                 !
 ! D12   D(2,3,4,10)           180.0041         -DE/DX =    0.0                 !
 ! D13   D(7,3,4,5)            179.9979         -DE/DX =    0.0                 !
 ! D14   D(7,3,4,10)            -0.0015         -DE/DX =    0.0                 !
 ! D15   D(3,4,5,6)             -0.0022         -DE/DX =    0.0                 !
 ! D16   D(3,4,5,11)          -179.9993         -DE/DX =    0.0                 !
 ! D17   D(10,4,5,6)           179.9972         -DE/DX =    0.0                 !
 ! D18   D(10,4,5,11)            0.0001         -DE/DX =    0.0                 !
 ! D19   D(4,5,6,1)             -0.0005         -DE/DX =    0.0                 !
 ! D20   D(11,5,6,1)           179.9968         -DE/DX =    0.0                 !
 --------------------------------------------------------------------------------
 GradGradGradGradGradGradGradGradGradGradGradGradGradGradGradGradGradGrad


 ----------------------------------------------------------------------

 Electric dipole moment (input orientation):
 (Debye = 10**-18 statcoulomb cm , SI units = C m)
                  (au)            (Debye)         (10**-30 SI)
   Tot        0.942974D+00      0.239680D+01      0.799487D+01
   x          0.942347D+00      0.239521D+01      0.798955D+01
   y          0.343801D-01      0.873855D-01      0.291487D+00
   z         -0.997769D-04     -0.253607D-03     -0.845943D-03

 Dipole polarizability, Alpha (input orientation).
 (esu units = cm**3 , SI units = C**2 m**2 J**-1)
 Alpha(0;0):
               (au)            (10**-24 esu)      (10**-40 SI)
   iso        0.438729D+02      0.650129D+01      0.723367D+01
   aniso      0.442939D+02      0.656368D+01      0.730308D+01
   xx         0.552236D+02      0.818329D+01      0.910514D+01
   yx        -0.240508D+00     -0.356396D-01     -0.396544D-01
   yy         0.618047D+02      0.915851D+01      0.101902D+02
   zx        -0.231069D-02     -0.342408D-03     -0.380981D-03
   zy        -0.650798D-02     -0.964383D-03     -0.107302D-02
   zz         0.145904D+02      0.216208D+01      0.240564D+01

 First dipole hyperpolarizability, Beta (input orientation).
 ||, _|_  parallel and perpendicular components, (z) with respect to z axis,
 vector components x,y,z.  Values do not include the 1/n! factor of 1/2.
 (esu units = statvolt**-1 cm**4 , SI units = C**3 m**3 J**-2)
 Beta(0;0,0):
               (au)            (10**-30 esu)      (10**-50 SI)
   || (z)    -0.258299D-02     -0.223150D-04     -0.828200D-05
   _|_(z)    -0.860997D-03     -0.743834D-05     -0.276067D-05
   x          0.122065D+03      0.105455D+01      0.391385D+00
   y          0.445315D+01      0.384718D-01      0.142784D-01
   z         -0.129149D-01     -0.111575D-03     -0.414100D-04
   ||         0.244293D+02      0.211050D+00      0.783290D-01
   xxx        0.248537D+02      0.214717D+00      0.796901D-01
   xxy       -0.616766D-01     -0.532838D-03     -0.197758D-03
   yxy        0.132519D+02      0.114486D+00      0.424903D-01
   yyy        0.145185D+01      0.125429D-01      0.465517D-02
   xxz       -0.291768D-02     -0.252065D-04     -0.935512D-05
   yxz       -0.146079D-02     -0.126201D-04     -0.468383D-05
   yyz       -0.153319D-02     -0.132455D-04     -0.491595D-05
   zxz        0.258275D+01      0.223129D-01      0.828123D-02
   zyz        0.942082D-01      0.813885D-03      0.302065D-03
   zzz        0.145880D-03      0.126029D-05      0.467743D-06

 ----------------------------------------------------------------------

 Dipole orientation:
     6          0.15968957          0.07113292         -4.72442048
     6          0.16279333         -0.01796178         -2.11335814
     6          0.08082074          2.23411699         -0.78627558
     6         -0.00092300          4.48620540         -2.11336212
     6          0.00239954          4.39713067         -4.72442482
     7          0.08107701          2.23413184         -6.00447991
     1          0.08081624          2.23411195          1.23890607
     1          0.22154761         -1.63009751         -5.81720440
     1          0.22745375         -1.79699667         -1.15231065
     1         -0.06554597          6.26524232         -1.15231836
     1         -0.05932618          6.09836557         -5.81721298

 Electric dipole moment (dipole orientation):
 (Debye = 10**-18 statcoulomb cm , SI units = C m)
                  (au)            (Debye)         (10**-30 SI)
   Tot        0.942974D+00      0.239680D+01      0.799487D+01
   x          0.000000D+00      0.000000D+00      0.000000D+00
   y          0.000000D+00      0.000000D+00      0.000000D+00
   z          0.942974D+00      0.239680D+01      0.799487D+01

 Dipole polarizability, Alpha (dipole orientation).
 (esu units = cm**3 , SI units = C**2 m**2 J**-1)
 Alpha(0;0):
               (au)            (10**-24 esu)      (10**-40 SI)
   iso        0.438729D+02      0.650129D+01      0.723367D+01
   aniso      0.442939D+02      0.656368D+01      0.730308D+01
   xx         0.146527D+02      0.217131D+01      0.241591D+01
   yx        -0.171417D+01     -0.254014D+00     -0.282628D+00
   yy         0.617512D+02      0.915058D+01      0.101814D+02
   zx        -0.174784D-02     -0.259003D-03     -0.288180D-03
   zy        -0.147834D-03     -0.219067D-04     -0.243745D-04
   zz         0.552148D+02      0.818199D+01      0.910369D+01

 First dipole hyperpolarizability, Beta (dipole orientation).
 ||, _|_  parallel and perpendicular components, (z) with respect to z axis,
 vector components x,y,z.  Values do not include the 1/n! factor of 1/2.
 (esu units = statvolt**-1 cm**4 , SI units = C**3 m**3 J**-2)
 Beta(0;0,0):
               (au)            (10**-30 esu)      (10**-50 SI)
   || (z)     0.244293D+02      0.211050D+00      0.783290D-01
   _|_(z)     0.814308D+01      0.703499D-01      0.261097D-01
   x          0.000000D+00      0.000000D+00      0.000000D+00
   y         -0.202130D-03     -0.174625D-05     -0.648103D-06
   z          0.122146D+03      0.105525D+01      0.391645D+00
   ||         0.244293D+02      0.211050D+00      0.783290D-01
   xxx       -0.962094D-03     -0.831174D-05     -0.308482D-05
   xxy       -0.565838D-04     -0.488840D-06     -0.181428D-06
   yxy        0.213126D-04      0.184124D-06      0.683360D-07
   yyy       -0.194054D-04     -0.167647D-06     -0.622206D-07
   xxz        0.259858D+01      0.224497D-01      0.833199D-02
   yxz       -0.388311D+00     -0.335470D-02     -0.124507D-02
   yyz        0.132665D+02      0.114612D+00      0.425372D-01
   zxz        0.940090D-03      0.812164D-05      0.301427D-05
   zyz        0.000000D+00      0.000000D+00      0.000000D+00
   zzz        0.248503D+02      0.214688D+00      0.796792D-01

 ----------------------------------------------------------------------
 1\1\GINC-IISERK51\Freq\RHF\3-21G\C5H5N1\GAUSSIAN\16-Jun-2025\0\\#N Geo
 m=AllCheck Guess=TCheck SCRF=Check GenChk RHF/3-21G Freq\\pyridine opt
 imisation\\0,1\C,-2.4996616832,-0.0566374192,-0.0855557577\C,-1.117145
 6619,-0.0534052421,-0.0856243694\C,-0.4588297342,1.1639437525,-0.08579
 9714\C,-1.2041058194,2.3300855206,-0.085947651\C,-2.5831823008,2.23257
 156,-0.0858399441\N,-3.2183487413,1.063269831,-0.0856433436\H,0.612137
 82,1.2030137858,-0.0859106314\H,-3.0447093593,-0.9779692701,-0.0853841
 807\H,-0.5745730727,-0.9762833813,-0.0855486445\H,-0.730227791,3.29004
 76586,-0.0861508431\H,-3.193920616,3.1117361342,-0.0859592106\\Version
 =EM64L-G16RevB.01\State=1-A\HF=-245.3120062\RMSD=1.027e-09\RMSF=5.588e
 -05\ZeroPoint=0.0962989\Thermal=0.1001891\Dipole=0.9423474,0.0343801,-
 0.0000998\DipoleDeriv=0.2696913,0.2599349,-0.0000398,0.174919,0.324543
 1,-0.0000488,-0.0000442,-0.0000672,0.0380601,-0.1977326,-0.2891359,0.0
 000368,-0.153974,-0.0929125,-0.0000007,0.0000234,0.0000127,-0.1774135,
 0.2225644,0.0030132,-0.0000157,0.0030113,0.1400957,-0.0000269,-0.00004
 ,-0.0000269,-0.0857441,-0.2293807,0.279164,-0.0000386,0.1440054,-0.061
 2666,-0.0000347,-0.0000275,-0.0000454,-0.1774137,0.3015879,-0.2616127,
 0.0000192,-0.1765943,0.2926506,-0.0000332,0.0000283,-0.0000285,0.03806
 ,-0.4677471,0.0001454,0.0000046,0.0001426,-0.471694,0.0000262,0.000004
 2,0.0000139,-0.352181,-0.0769434,-0.0059863,0.0000118,-0.0059853,0.086
 9173,0.0000098,0.0000381,0.000008,0.150064,0.0356806,-0.0686562,0.0000
 138,-0.0910836,-0.0695344,0.0000291,0.0000246,0.0000401,0.1245911,0.05
 44858,0.074247,-0.000005,0.067485,-0.0408192,0.00002,-0.0000062,0.0000
 166,0.1586929,0.06428,-0.0665677,0.000016,-0.0598068,-0.0506155,0.0000
 379,0.0000161,0.000043,0.1586924,0.0235136,0.0754543,-0.000003,0.09788
 06,-0.0573645,0.0000214,-0.0000169,0.0000336,0.1245919\Polar=55.223576
 9,-0.2405078,61.8047179,-0.0023107,-0.006508,14.5904341\PolarDeriv=-0.
 1357399,-0.7199225,-2.872715,0.0001894,-0.0000951,0.3283033,0.2737586,
 0.4562623,-0.4333827,-0.0006393,-0.0001754,0.277629,-0.0004698,-0.0005
 625,-0.0007521,-2.3721247,-2.0551204,0.0004268,1.1927861,2.3671873,1.7
 964232,-0.0006553,-0.0002788,-0.35129,-2.5220456,1.6212002,0.0585761,0
 .0000052,-0.000304,0.4152618,0.0001534,-0.0002686,-0.0009324,1.6728027
 ,-3.5749859,0.000368,0.278096,0.0755174,2.217513,0.0006319,-0.0003629,
 -0.2677514,0.3021127,-3.9928494,-0.2109847,0.0011562,0.0002254,-0.0097
 726,0.0013035,0.0009266,0.0003346,3.1664918,0.1155372,0.000896,1.37040
 26,-2.5101306,1.4314435,0.0003293,-0.0000767,-0.3201051,2.3788435,1.61
 29198,0.295766,-0.000126,0.0005603,-0.4397526,-0.0005232,0.0004155,0.0
 008564,1.4078667,3.6873485,-0.0016928,-0.2297756,0.8796177,-2.7824083,
 -0.0001725,0.0007951,0.3476683,-0.3539723,0.4653384,0.2939774,-0.00071
 1,0.0006591,-0.2529628,0.000113,-0.0006859,0.0009825,-2.5155985,1.8768
 101,0.0003751,-10.1062608,-0.3787668,0.136969,0.0004441,-0.0000463,-0.
 0768046,-0.3778386,0.1109585,0.0141568,0.00005,-0.0005198,-0.0028041,0
 .0003638,-0.0002471,0.0000043,-2.68132,-0.0978196,0.0003607,9.9822572,
 0.308618,0.1660113,-0.000705,0.0000242,0.4826012,0.2644918,1.3755361,0
 .1057305,0.0000261,-0.0001507,0.0176052,-0.0008923,0.000045,-0.0001331
 ,1.6361816,0.0596897,-0.000591,-3.1583531,-3.0430908,-2.71617,0.000591
 1,0.0004424,-0.2678251,-2.198968,-3.8755109,-7.7611603,0.0005582,0.001
 095,-0.4088402,0.0004851,0.0005489,0.0009535,-0.8016226,-1.6114387,0.0
 007471,2.5442327,-2.7773457,2.8031391,0.0002504,-0.0002263,0.224899,-1
 .5618639,3.2585219,-7.581248,-0.0002371,0.000525,-0.3717137,0.0001595,
 -0.0002037,0.0004144,0.7477753,-1.2257346,0.0002678,2.0545798,2.518721
 1,2.6123013,-0.0005101,-0.0004905,0.1972111,1.2732887,2.9779015,8.2351
 784,-0.0004544,-0.0013202,0.3871117,-0.000296,-0.0004722,-0.0011615,0.
 6564651,1.2769725,-0.0005935,-3.7922249,3.2795949,-2.792507,-0.0003933
 ,0.0003149,-0.2969067,2.5221931,-4.0102784,6.9833905,0.0003719,-0.0005
 946,0.3882382,-0.000397,0.000504,-0.0005667,-0.9169175,1.5487412,-0.00
 0564\HyperPolar=24.8537362,-0.0616766,13.2518646,1.4518534,-0.0029177,
 -0.0014608,-0.0015332,2.5827495,0.0942082,0.0001459\Quadrupole=-1.3823
 975,4.3762357,-2.9938382,-0.2104112,-0.0001314,-0.0010901\PG=C01 [X(C5
 H5N1)]\NImag=0\\0.74394293,0.08277679,0.84948255,-0.00004360,-0.000088
 77,0.21995242,-0.33843074,-0.05578873,0.00001988,0.75754378,0.03828614
 ,-0.17713035,0.00000739,-0.06290594,0.83191977,0.00000606,0.00001201,-
 0.10474642,-0.00002309,-0.00007326,0.19097226,-0.02919505,-0.05006124,
 0.00000824,-0.21213035,-0.12051832,0.00002088,0.86337510,-0.11855707,0
 .06218564,0.00000109,-0.03416340,-0.31092449,0.00002484,0.00514032,0.7
 2271662,0.00001886,-0.00000320,0.01596240,0.00001055,0.00003305,-0.094
 80074,-0.00004693,-0.00007303,0.19956876,-0.09363135,0.05944774,-0.000
 00289,0.10102414,0.03687645,-0.00001017,-0.22389563,0.04051994,0.00000
 058,0.74879383,0.03837698,-0.02803638,-0.00000137,-0.02424701,-0.07183
 266,0.00001414,0.12687466,-0.29915464,0.00002460,0.05683499,0.84066657
 ,-0.00000138,-0.00000162,-0.01534973,-0.00000248,0.00000868,0.01275931
 ,-0.00001209,0.00003314,-0.09480074,-0.00004592,-0.00011130,0.19097226
 ,0.09703226,-0.03492876,-0.00000030,-0.08617337,-0.04262470,0.00000911
 ,-0.04096373,0.11102017,-0.00001113,-0.33884649,-0.05010071,0.00002356
 ,0.75653468,0.05145611,-0.12917134,0.00001547,-0.06369549,-0.03549376,
 0.00000575,0.04252417,0.07395489,-0.00001169,0.04397406,-0.17671460,0.
 00000986,-0.08956705,0.83688872,-0.00001242,0.00002033,0.00935595,0.00
 001381,0.00000578,-0.01534988,-0.00000453,-0.00001481,0.01596215,0.000
 00828,0.00001395,-0.10474633,-0.00001548,-0.00009000,0.21995257,-0.209
 29607,0.10914830,-0.00000681,-0.04116782,0.04488404,-0.00000063,0.0036
 2944,0.00496193,-0.00000211,-0.02768186,-0.05102714,0.00001142,-0.1976
 7849,-0.10246353,0.00002056,0.45639081,0.05654080,-0.28917111,0.000019
 79,0.13355532,0.05638740,-0.00001065,0.00496190,-0.13219083,0.00001611
 ,-0.13969810,0.04290081,0.00000578,-0.04985634,-0.30078941,0.00003356,
 -0.00855915,0.69069757,0.00000176,0.00001598,-0.09496234,-0.00001372,-
 0.00000569,0.03427833,-0.00000172,0.00001500,-0.01530671,0.00002355,0.
 00000254,0.03427841,0.00001149,0.00003424,-0.09496222,-0.00002104,-0.0
 0007279,0.12829276,0.00098430,-0.00292503,0.00000129,-0.01166417,0.003
 33657,0.00000157,-0.37746973,-0.01101551,0.00003051,-0.01393507,-0.004
 78983,0.00000294,0.00054313,0.00345352,0.00000032,0.00082097,0.0000436
 7,-0.00000041,0.40013847,-0.00258519,-0.00669133,0.00000229,-0.0358761
 1,0.00595491,0.00000326,-0.01101517,-0.07592791,0.00000377,0.03442253,
 0.00822626,-0.00000280,0.00311373,-0.00625010,0.00000236,0.00004365,-0
 .00037443,-0.00000048,0.01196726,0.07254601,0.00000131,0.00000153,0.01
 020435,0.00000470,-0.00000112,0.00881122,0.00003414,0.00000463,-0.0568
 8707,-0.00000389,0.00000072,0.00881097,-0.00000039,0.00000259,0.010204
 34,-0.00000002,0.00000006,-0.00419330,-0.00003490,-0.00000626,0.035155
 61,-0.15979025,-0.14329492,0.00002689,-0.01201178,-0.03421795,0.000006
 13,-0.00713811,0.00154156,0.00000077,0.00014021,0.00141108,-0.00000009
 ,-0.00079000,0.00400538,0.00000037,0.01434029,0.02812782,-0.00000465,-
 0.00068428,-0.00159313,0.00000016,0.16452366,-0.14007974,-0.28569094,0
 .00004143,0.00452518,0.00515769,0.00000088,0.00106544,0.00097498,0.000
 00104,0.00024030,0.00003085,0.00000002,0.00296546,-0.00072056,0.000001
 67,-0.00995812,-0.03510806,0.00000483,0.00015173,0.00012808,-0.0000001
 1,0.14292028,0.31559345,0.00002825,0.00004336,-0.05837563,-0.00000083,
 0.00000202,0.01124012,0.00000056,0.00000157,0.00852194,0.00000023,-0.0
 0000008,0.00018971,0.00000068,0.00000137,0.01276298,0.00000027,0.00000
 178,-0.00273871,-0.00000007,-0.00000009,-0.00067250,-0.00002882,-0.000
 04896,0.03590871,-0.00993459,0.03768466,-0.00000365,-0.15508336,0.1339
 2398,-0.00001027,0.01537550,-0.01904416,0.00000179,-0.00153335,-0.0042
 5272,0.00000120,-0.00116348,-0.00205648,0.00000031,-0.00737835,0.00027
 361,0.00000080,0.00101625,0.00068312,-0.00000047,0.00075154,-0.0011210
 6,-0.00000010,0.15732217,-0.00444008,0.00467181,0.00000026,0.13441434,
 -0.30102943,0.00002096,0.02092616,-0.02121715,0.00000225,-0.00430406,-
 0.00355308,0.00000172,-0.00130066,0.00054405,0.,-0.00093418,0.00190764
 ,0.00000077,-0.00043264,0.00108929,-0.00000072,0.00058388,0.00067814,-
 0.00000061,-0.14552102,0.31793057,0.00000087,-0.00000181,0.00517941,-0
 .00000945,0.00002119,-0.05277217,-0.00000277,0.00000389,0.00662909,0.0
 0000094,0.00000215,0.00941824,0.00000012,0.00000007,0.00001667,0.00000
 114,0.00000094,0.00902618,-0.00000059,-0.00000093,-0.00538057,-0.00000
 049,-0.00000071,-0.00461694,0.00001039,-0.00002456,0.03450780,-0.00139
 843,0.00191458,-0.00000016,-0.00216597,0.00435409,0.00000020,0.0153180
 2,0.02171357,-0.00000411,-0.13635629,-0.12189243,0.00002703,-0.0074412
 4,-0.03856996,0.00000709,-0.00737717,-0.00095206,0.00000117,0.00103482
 ,-0.00068713,-0.00000039,0.00012521,-0.00023550,-0.00000012,0.00052556
 ,0.00092763,-0.00000007,0.13702339,0.00115876,0.00077901,-0.00000016,0
 .00440540,-0.00292048,0.00000199,-0.01825667,-0.02115953,0.00000567,-0
 .12238318,-0.31975761,0.00005538,0.00355503,0.00217809,0.00000021,0.00
 025577,0.00190633,0.00000144,0.00042868,0.00107070,-0.00000118,-0.0000
 7026,-0.00004009,-0.00000037,-0.00081581,-0.00100485,0.00000012,0.1323
 0367,0.33823085,-0.00000012,-0.00000025,0.00001668,-0.00000009,0.00000
 139,0.00941826,0.00000273,0.00000324,0.00662897,0.00002737,0.00005574,
 -0.05277201,0.00000031,0.00000323,0.00517953,0.00000075,0.00000085,0.0
 0902621,-0.00000069,-0.00000090,-0.00538058,-0.00000015,-0.00000026,-0
 .00206182,0.00000014,0.00000014,0.00005410,-0.00003007,-0.00006218,0.0
 3450757,-0.00028300,-0.00397340,0.00000111,0.00025965,-0.00139434,0.00
 000021,-0.00690546,-0.00211736,0.00000122,-0.01407814,0.03281214,-0.00
 000419,-0.18105325,0.15093929,-0.00001832,0.01539824,-0.02443745,0.000
 00276,-0.00078470,0.00152643,-0.00000023,0.00053350,-0.00047396,-0.000
 00006,0.00010212,0.00008065,-0.00000009,0.00071209,-0.00058139,-0.0000
 0018,0.18609896,-0.00293349,-0.00122756,0.00000259,-0.00022356,-0.0000
 8860,0.00000007,-0.00164123,0.00074242,0.00000143,-0.00593067,0.007224
 47,0.00000115,0.14772383,-0.26442598,0.00002694,0.01364844,-0.03616592
 ,0.00000415,-0.00021842,0.00022852,-0.00000014,0.00058627,-0.00100353,
 0.,0.00024589,-0.00001699,-0.00000035,0.00112354,0.00071757,-0.0000010
 0,-0.15238060,0.29401560,0.00000042,0.00000244,0.01276290,0.00000073,0
 .00000056,0.00018970,0.00000150,0.00000043,0.00852193,0.00000190,-0.00
 000108,0.01123992,-0.00001797,0.00002912,-0.05837578,-0.00000353,0.000
 00456,-0.00273861,0.00000003,-0.00000023,-0.00067248,-0.00000012,0.000
 00017,-0.00015788,-0.00000013,-0.00000021,-0.00206182,-0.00000059,-0.0
 0000093,-0.00461694,0.00001777,-0.00003484,0.03590904\\0.00010260,-0.0
 0010298,-0.00000717,-0.00007290,0.00000674,-0.00000165,-0.00003902,-0.
 00000210,0.00001151,-0.00007304,-0.00001321,-0.00000375,0.00009389,0.0
 0011178,0.00000578,-0.00003154,-0.00000065,0.00000097,0.00002488,0.000
 00032,-0.00000353,-0.00002212,-0.00008429,0.00000254,0.00002813,-0.000
 12146,-0.00000060,0.00001832,0.00012291,-0.00000182,-0.00002922,0.0000
 8295,-0.00000229\\\@


 BE LIKE A POSTAGE STAMP.  STICK TO ONE THING UNTIL
 YOU GET THERE -- JOSH BILLINGS
 Job cpu time:       0 days  0 hours  0 minutes  1.7 seconds.
 Elapsed time:       0 days  0 hours  0 minutes  1.8 seconds.
 File lengths (MBytes):  RWF=     11 Int=      0 D2E=      0 Chk=      2 Scr=      1
 Normal termination of Gaussian 16 at Mon Jun 16 15:49:14 2025.
