 Entering Gaussian System, Link 0=g16
 Input=/home/gaussian/Documents/Summer_Internship/Acid_Base_adduct/Base/pyridine/pyridine_ion_opt.com
 Output=/home/gaussian/Documents/Summer_Internship/Acid_Base_adduct/Base/pyridine/pyridine_ion_opt.log
 Initial command:
 /usr/local/g16/l1.exe "/home/gaussian/tmp/Gau-72760.inp" -scrdir="/home/gaussian/tmp/"
 Entering Link 1 = /usr/local/g16/l1.exe PID=     72763.
  
 Copyright (c) 1988-2017, Gaussian, Inc.  All Rights Reserved.
  
 This is part of the Gaussian(R) 16 program.  It is based on
 the Gaussian(R) 09 system (copyright 2009, Gaussian, Inc.),
 the Gaussian(R) 03 system (copyright 2003, Gaussian, Inc.),
 the Gaussian(R) 98 system (copyright 1998, Gaussian, Inc.),
 the Gaussian(R) 94 system (copyright 1995, Gaussian, Inc.),
 the Gaussian 92(TM) system (copyright 1992, Gaussian, Inc.),
 the Gaussian 90(TM) system (copyright 1990, Gaussian, Inc.),
 the Gaussian 88(TM) system (copyright 1988, Gaussian, Inc.),
 the Gaussian 86(TM) system (copyright 1986, Carnegie Mellon
 University), and the Gaussian 82(TM) system (copyright 1983,
 Carnegie Mellon University). Gaussian is a federally registered
 trademark of Gaussian, Inc.
  
 This software contains proprietary and confidential information,
 including trade secrets, belonging to Gaussian, Inc.
  
 This software is provided under written license and may be
 used, copied, transmitted, or stored only in accord with that
 written license.
  
 The following legend is applicable only to US Government
 contracts under FAR:
  
                    RESTRICTED RIGHTS LEGEND
  
 Use, reproduction and disclosure by the US Government is
 subject to restrictions as set forth in subparagraphs (a)
 and (c) of the Commercial Computer Software - Restricted
 Rights clause in FAR 52.227-19.
  
 Gaussian, Inc.
 340 Quinnipiac St., Bldg. 40, Wallingford CT 06492
  
  
 ---------------------------------------------------------------
 Warning -- This program may not be used in any manner that
 competes with the business of Gaussian, Inc. or will provide
 assistance to any competitor of Gaussian, Inc.  The licensee
 of this program is prohibited from giving any competitor of
 Gaussian, Inc. access to this program.  By using this program,
 the user acknowledges that Gaussian, Inc. is engaged in the
 business of creating and licensing software in the field of
 computational chemistry and represents and warrants to the
 licensee that it is not a competitor of Gaussian, Inc. and that
 it will not use this program in any manner prohibited above.
 ---------------------------------------------------------------
  

 Cite this work as:
 Gaussian 16, Revision B.01,
 M. J. Frisch, G. W. Trucks, H. B. Schlegel, G. E. Scuseria, 
 M. A. Robb, J. R. Cheeseman, G. Scalmani, V. Barone, 
 G. A. Petersson, H. Nakatsuji, X. Li, M. Caricato, A. V. Marenich, 
 J. Bloino, B. G. Janesko, R. Gomperts, B. Mennucci, H. P. Hratchian, 
 J. V. Ortiz, A. F. Izmaylov, J. L. Sonnenberg, D. Williams-Young, 
 F. Ding, F. Lipparini, F. Egidi, J. Goings, B. Peng, A. Petrone, 
 T. Henderson, D. Ranasinghe, V. G. Zakrzewski, J. Gao, N. Rega, 
 G. Zheng, W. Liang, M. Hada, M. Ehara, K. Toyota, R. Fukuda, 
 J. Hasegawa, M. Ishida, T. Nakajima, Y. Honda, O. Kitao, H. Nakai, 
 T. Vreven, K. Throssell, J. A. Montgomery, Jr., J. E. Peralta, 
 F. Ogliaro, M. J. Bearpark, J. J. Heyd, E. N. Brothers, K. N. Kudin, 
 V. N. Staroverov, T. A. Keith, R. Kobayashi, J. Normand, 
 K. Raghavachari, A. P. Rendell, J. C. Burant, S. S. Iyengar, 
 J. Tomasi, M. Cossi, J. M. Millam, M. Klene, C. Adamo, R. Cammi, 
 J. W. Ochterski, R. L. Martin, K. Morokuma, O. Farkas, 
 J. B. Foresman, and D. J. Fox, Gaussian, Inc., Wallingford CT, 2016.
 
 ******************************************
 Gaussian 16:  EM64L-G16RevB.01 20-Dec-2017
                16-Jun-2025 
 ******************************************
 %chk=pyridine_ion_opt.chk
 ----------------------------------------------
 # opt freq hf/3-21g pop=full geom=connectivity
 ----------------------------------------------
 1/18=20,19=15,38=1,57=2/1,3;
 2/9=110,12=2,17=6,18=5,40=1/2;
 3/5=5,11=9,25=1,30=1,71=1/1,2,3;
 4//1;
 5/5=2,38=5/2;
 6/7=3,28=1/1;
 7//1,2,3,16;
 1/18=20,19=15/3(2);
 2/9=110/2;
 99//99;
 2/9=110/2;
 3/5=5,11=9,25=1,30=1,71=1/1,2,3;
 4/5=5,16=3,69=1/1;
 5/5=2,38=5/2;
 7//1,2,3,16;
 1/18=20,19=15/3(-5);
 2/9=110/2;
 6/7=3,19=2,28=1/1;
 99/9=1/99;
 ----------------------
 pyridine+ optimisation
 ----------------------
 Symbolic Z-matrix:
 Charge =  1 Multiplicity = 1
 C                    -1.14532  -0.71727  -0.00018 
 C                    -1.19258   0.66444  -0.00012 
 C                    -0.00009   1.36678   0.00006 
 C                     1.1925    0.66459   0.00021 
 C                     1.14541  -0.71713   0.0001 
 N                     0.00009  -1.39458  -0.0001 
 H                    -0.00015   2.43846   0.00017 
 H                    -2.04613  -1.2956   -0.00036 
 H                    -2.13466   1.17295  -0.00019 
 H                     2.13451   1.17321   0.00041 
 H                     2.04629  -1.29536   0.00022 
 H                     0.00015  -2.39458  -0.00018 
 

 GradGradGradGradGradGradGradGradGradGradGradGradGradGradGradGradGradGrad
 Berny optimization.
 Initialization pass.
                           ----------------------------
                           !    Initial Parameters    !
                           ! (Angstroms and Degrees)  !
 --------------------------                            --------------------------
 ! Name  Definition              Value          Derivative Info.                !
 --------------------------------------------------------------------------------
 ! R1    R(1,2)                  1.3825         estimate D2E/DX2                !
 ! R2    R(1,6)                  1.3307         estimate D2E/DX2                !
 ! R3    R(1,8)                  1.0705         estimate D2E/DX2                !
 ! R4    R(2,3)                  1.384          estimate D2E/DX2                !
 ! R5    R(2,9)                  1.0706         estimate D2E/DX2                !
 ! R6    R(3,4)                  1.384          estimate D2E/DX2                !
 ! R7    R(3,7)                  1.0717         estimate D2E/DX2                !
 ! R8    R(4,5)                  1.3825         estimate D2E/DX2                !
 ! R9    R(4,10)                 1.0706         estimate D2E/DX2                !
 ! R10   R(5,6)                  1.3307         estimate D2E/DX2                !
 ! R11   R(5,11)                 1.0705         estimate D2E/DX2                !
 ! R12   R(6,12)                 1.0            estimate D2E/DX2                !
 ! A1    A(2,1,6)              122.5559         estimate D2E/DX2                !
 ! A2    A(2,1,8)              120.742          estimate D2E/DX2                !
 ! A3    A(6,1,8)              116.7021         estimate D2E/DX2                !
 ! A4    A(1,2,3)              118.5375         estimate D2E/DX2                !
 ! A5    A(1,2,9)              120.3179         estimate D2E/DX2                !
 ! A6    A(3,2,9)              121.1446         estimate D2E/DX2                !
 ! A7    A(2,3,4)              119.014          estimate D2E/DX2                !
 ! A8    A(2,3,7)              120.4929         estimate D2E/DX2                !
 ! A9    A(4,3,7)              120.4932         estimate D2E/DX2                !
 ! A10   A(3,4,5)              118.5379         estimate D2E/DX2                !
 ! A11   A(3,4,10)             121.1446         estimate D2E/DX2                !
 ! A12   A(5,4,10)             120.3175         estimate D2E/DX2                !
 ! A13   A(4,5,6)              122.5555         estimate D2E/DX2                !
 ! A14   A(4,5,11)             120.7423         estimate D2E/DX2                !
 ! A15   A(6,5,11)             116.7022         estimate D2E/DX2                !
 ! A16   A(1,6,5)              118.7993         estimate D2E/DX2                !
 ! A17   A(1,6,12)             120.6004         estimate D2E/DX2                !
 ! A18   A(5,6,12)             120.6004         estimate D2E/DX2                !
 ! D1    D(6,1,2,3)             -0.0004         estimate D2E/DX2                !
 ! D2    D(6,1,2,9)            179.9999         estimate D2E/DX2                !
 ! D3    D(8,1,2,3)           -179.9977         estimate D2E/DX2                !
 ! D4    D(8,1,2,9)              0.0026         estimate D2E/DX2                !
 ! D5    D(2,1,6,5)              0.0017         estimate D2E/DX2                !
 ! D6    D(2,1,6,12)          -179.9983         estimate D2E/DX2                !
 ! D7    D(8,1,6,5)            179.9992         estimate D2E/DX2                !
 ! D8    D(8,1,6,12)            -0.0008         estimate D2E/DX2                !
 ! D9    D(1,2,3,4)             -0.0023         estimate D2E/DX2                !
 ! D10   D(1,2,3,7)           -179.9967         estimate D2E/DX2                !
 ! D11   D(9,2,3,4)            179.9974         estimate D2E/DX2                !
 ! D12   D(9,2,3,7)              0.003          estimate D2E/DX2                !
 ! D13   D(2,3,4,5)              0.0035         estimate D2E/DX2                !
 ! D14   D(2,3,4,10)          -179.9959         estimate D2E/DX2                !
 ! D15   D(7,3,4,5)            179.9979         estimate D2E/DX2                !
 ! D16   D(7,3,4,10)            -0.0015         estimate D2E/DX2                !
 ! D17   D(3,4,5,6)             -0.0023         estimate D2E/DX2                !
 ! D18   D(3,4,5,11)          -179.9993         estimate D2E/DX2                !
 ! D19   D(10,4,5,6)           179.9972         estimate D2E/DX2                !
 ! D20   D(10,4,5,11)            0.0002         estimate D2E/DX2                !
 ! D21   D(4,5,6,1)             -0.0004         estimate D2E/DX2                !
 ! D22   D(4,5,6,12)           179.9996         estimate D2E/DX2                !
 ! D23   D(11,5,6,1)           179.9967         estimate D2E/DX2                !
 ! D24   D(11,5,6,12)           -0.0033         estimate D2E/DX2                !
 --------------------------------------------------------------------------------
 Trust Radius=3.00D-01 FncErr=1.00D-07 GrdErr=1.00D-07 EigMax=2.50D+02 EigMin=1.00D-04
 Number of steps in this run=     64 maximum allowed number of steps=    100.
 GradGradGradGradGradGradGradGradGradGradGradGradGradGradGradGradGradGrad

                          Input orientation:                          
 ---------------------------------------------------------------------
 Center     Atomic      Atomic             Coordinates (Angstroms)
 Number     Number       Type             X           Y           Z
 ---------------------------------------------------------------------
      1          6           0       -1.145320   -0.717270   -0.000184
      2          6           0       -1.192580    0.664441   -0.000115
      3          6           0       -0.000085    1.366776    0.000060
      4          6           0        1.192496    0.664585    0.000208
      5          6           0        1.145412   -0.717133    0.000100
      6          7           0        0.000086   -1.394579   -0.000096
      7          1           0       -0.000153    2.438456    0.000171
      8          1           0       -2.046132   -1.295602   -0.000355
      9          1           0       -2.134658    1.172948   -0.000191
     10          1           0        2.134512    1.173205    0.000411
     11          1           0        2.046294   -1.295356    0.000220
     12          1           0        0.000146   -2.394579   -0.000176
 ---------------------------------------------------------------------
                    Distance matrix (angstroms):
                    1          2          3          4          5
     1  C    0.000000
     2  C    1.382519   0.000000
     3  C    2.377985   1.383950   0.000000
     4  C    2.715678   2.385076   1.383951   0.000000
     5  C    2.290732   2.715687   2.377991   1.382520   0.000000
     6  N    1.330677   2.379499   2.761355   2.379495   1.330678
     7  H    3.357084   2.137525   1.071680   2.137529   3.357091
     8  H    1.070481   2.137831   3.357762   3.785637   3.243544
     9  H    2.133475   1.070556   2.143355   3.365767   3.785666
    10  H    3.785656   3.365766   2.143356   1.070555   2.133471
    11  H    3.243545   3.785645   3.357769   2.137835   1.070481
    12  H    2.031122   3.283321   3.761355   3.283319   2.031123
                    6          7          8          9         10
     6  N    0.000000
     7  H    3.833035   0.000000
     8  H    2.048610   4.257842   0.000000
     9  H    3.339061   2.481456   2.470137   0.000000
    10  H    3.339055   2.481462   4.855182   4.269170   0.000000
    11  H    2.048612   4.257851   4.092426   4.855191   2.470137
    12  H    1.000000   4.833035   2.322714   4.157479   4.157476
                   11         12
    11  H    0.000000
    12  H    2.322717   0.000000
 Stoichiometry    C5H6N(1+)
 Framework group  C1[X(C5H6N)]
 Deg. of freedom    30
 Full point group                 C1      NOp   1
 Largest Abelian subgroup         C1      NOp   1
 Largest concise Abelian subgroup C1      NOp   1
                         Standard orientation:                         
 ---------------------------------------------------------------------
 Center     Atomic      Atomic             Coordinates (Angstroms)
 Number     Number       Type             X           Y           Z
 ---------------------------------------------------------------------
      1          6           0        0.661476   -1.145385   -0.000180
      2          6           0       -0.720239   -1.192517   -0.000111
      3          6           0       -1.422464    0.000043    0.000064
      4          6           0       -0.720163    1.192559    0.000212
      5          6           0        0.661551    1.145347    0.000104
      6          7           0        1.338891   -0.000041   -0.000092
      7          1           0       -2.494144    0.000074    0.000175
      8          1           0        1.239725   -2.046250   -0.000351
      9          1           0       -1.228833   -2.134548   -0.000187
     10          1           0       -1.228696    2.134622    0.000415
     11          1           0        1.239857    2.046176    0.000224
     12          1           0        2.338891   -0.000074   -0.000172
 ---------------------------------------------------------------------
 Rotational constants (GHZ):           6.0713508           5.5992646           2.9128798
 Standard basis: 3-21G (6D, 7F)
 There are    66 symmetry adapted cartesian basis functions of A   symmetry.
 There are    66 symmetry adapted basis functions of A   symmetry.
    66 basis functions,   108 primitive gaussians,    66 cartesian basis functions
    21 alpha electrons       21 beta electrons
       nuclear repulsion energy       218.0728085257 Hartrees.
 NAtoms=   12 NActive=   12 NUniq=   12 SFac= 1.00D+00 NAtFMM=   60 NAOKFM=F Big=F
 Integral buffers will be    131072 words long.
 Raffenetti 1 integral format.
 Two-electron integral symmetry is turned on.
 One-electron integrals computed using PRISM.
 NBasis=    66 RedAO= T EigKep=  2.79D-03  NBF=    66
 NBsUse=    66 1.00D-06 EigRej= -1.00D+00 NBFU=    66
 ExpMin= 1.83D-01 ExpMax= 2.43D+02 ExpMxC= 2.43D+02 IAcc=3 IRadAn=         5 AccDes= 0.00D+00
 Harris functional with IExCor=  205 and IRadAn=       5 diagonalized for initial guess.
 HarFok:  IExCor=  205 AccDes= 0.00D+00 IRadAn=         5 IDoV= 1 UseB2=F ITyADJ=14
 ICtDFT=  3500011 ScaDFX=  1.000000  1.000000  1.000000  1.000000
 FoFCou: FMM=F IPFlag=           0 FMFlag=      100000 FMFlg1=           0
         NFxFlg=           0 DoJE=T BraDBF=F KetDBF=T FulRan=T
         wScrn=  0.000000 ICntrl=       500 IOpCl=  0 I1Cent=   200000004 NGrid=           0
         NMat0=    1 NMatS0=      1 NMatT0=    0 NMatD0=    1 NMtDS0=    0 NMtDT0=    0
 Petite list used in FoFCou.
 Keep R1 ints in memory in canonical form, NReq=3271376.
 Requested convergence on RMS density matrix=1.00D-08 within 128 cycles.
 Requested convergence on MAX density matrix=1.00D-06.
 Requested convergence on             energy=1.00D-06.
 No special actions if energy rises.
 SCF Done:  E(RHF) =  -245.693323982     A.U. after   12 cycles
            NFock= 12  Conv=0.98D-08     -V/T= 2.0022

 **********************************************************************

            Population analysis using the SCF Density.

 **********************************************************************

 Orbital symmetries:
       Occupied  (A) (A) (A) (A) (A) (A) (A) (A) (A) (A) (A) (A)
                 (A) (A) (A) (A) (A) (A) (A) (A) (A)
       Virtual   (A) (A) (A) (A) (A) (A) (A) (A) (A) (A) (A) (A)
                 (A) (A) (A) (A) (A) (A) (A) (A) (A) (A) (A) (A)
                 (A) (A) (A) (A) (A) (A) (A) (A) (A) (A) (A) (A)
                 (A) (A) (A) (A) (A) (A) (A) (A) (A)
 The electronic state is 1-A.
 Alpha  occ. eigenvalues --  -15.80693 -11.46127 -11.46081 -11.41402 -11.39317
 Alpha  occ. eigenvalues --  -11.39307  -1.56052  -1.32603  -1.26896  -1.10634
 Alpha  occ. eigenvalues --   -1.09862  -1.00918  -0.90157  -0.89612  -0.85284
 Alpha  occ. eigenvalues --   -0.82579  -0.81289  -0.73631  -0.73299  -0.61943
 Alpha  occ. eigenvalues --   -0.56491
 Alpha virt. eigenvalues --   -0.11323  -0.06497   0.04018   0.11580   0.13282
 Alpha virt. eigenvalues --    0.13977   0.15180   0.18317   0.19946   0.26588
 Alpha virt. eigenvalues --    0.29217   0.30743   0.31133   0.51545   0.53620
 Alpha virt. eigenvalues --    0.69799   0.71620   0.72693   0.77328   0.81383
 Alpha virt. eigenvalues --    0.82161   0.83515   0.85737   0.88770   0.89957
 Alpha virt. eigenvalues --    0.90168   0.93042   1.08666   1.09099   1.13527
 Alpha virt. eigenvalues --    1.19303   1.19385   1.23873   1.28642   1.31216
 Alpha virt. eigenvalues --    1.41993   1.45552   1.49874   1.51630   1.62207
 Alpha virt. eigenvalues --    1.71530   1.88998   2.00357   2.08843   2.98927
     Molecular Orbital Coefficients:
                           1         2         3         4         5
                           O         O         O         O         O
     Eigenvalues --   -15.80693 -11.46127 -11.46081 -11.41402 -11.39317
   1 1   C  1S         -0.00022  -0.69783   0.69771   0.00269  -0.00076
   2        2S         -0.00107  -0.07009   0.06656  -0.00048   0.00234
   3        2PX         0.00082   0.00049   0.00032   0.00114  -0.00090
   4        2PY         0.00098  -0.00226   0.00024  -0.00039   0.00000
   5        2PZ         0.00000  -0.00000  -0.00000  -0.00000   0.00000
   6        3S          0.03270   0.05070  -0.03511  -0.00740  -0.01991
   7        3PX        -0.00341  -0.01718   0.00037   0.00168   0.00925
   8        3PY         0.02607   0.00649   0.01009  -0.00272  -0.00540
   9        3PZ         0.00000   0.00000   0.00000  -0.00000  -0.00000
  10 2   C  1S          0.00052   0.00117  -0.00097  -0.00902  -0.69800
  11        2S          0.00255   0.00262  -0.00147  -0.00503  -0.07054
  12        2PX        -0.00037   0.00083  -0.00151   0.00014  -0.00042
  13        2PY         0.00070  -0.00007  -0.00000  -0.00150  -0.00184
  14        2PZ         0.00000  -0.00000   0.00000  -0.00000  -0.00000
  15        3S         -0.02496  -0.02236   0.00362   0.03437   0.05650
  16        3PX        -0.00734  -0.01600   0.00549  -0.00014   0.00473
  17        3PY        -0.02337  -0.00172  -0.00862   0.02114   0.01229
  18        3PZ        -0.00000   0.00000  -0.00000   0.00000   0.00000
  19 3   C  1S         -0.00037  -0.00000  -0.00412   0.98720   0.00000
  20        2S         -0.00170  -0.00000  -0.00239   0.09946  -0.00000
  21        2PX         0.00023  -0.00000  -0.00093   0.00164  -0.00000
  22        2PY        -0.00000  -0.00124   0.00000  -0.00000  -0.00140
  23        2PZ         0.00000  -0.00000   0.00000   0.00000  -0.00000
  24        3S          0.03224   0.00000   0.01361  -0.09098   0.00000
  25        3PX         0.01796   0.00000   0.00906  -0.02381   0.00000
  26        3PY        -0.00000   0.00514  -0.00000   0.00000   0.01556
  27        3PZ        -0.00000   0.00000  -0.00000   0.00000   0.00000
  28 4   C  1S          0.00052  -0.00117  -0.00097  -0.00902   0.69806
  29        2S          0.00255  -0.00262  -0.00146  -0.00503   0.07055
  30        2PX        -0.00037  -0.00083  -0.00151   0.00014   0.00042
  31        2PY        -0.00070  -0.00007   0.00000   0.00150  -0.00184
  32        2PZ        -0.00000   0.00000   0.00000   0.00000  -0.00000
  33        3S         -0.02496   0.02236   0.00361   0.03437  -0.05650
  34        3PX        -0.00734   0.01600   0.00549  -0.00014  -0.00474
  35        3PY         0.02337  -0.00172   0.00862  -0.02114   0.01229
  36        3PZ         0.00000  -0.00000   0.00000  -0.00000   0.00000
  37 5   C  1S         -0.00022   0.69822   0.69732   0.00269   0.00076
  38        2S         -0.00107   0.07012   0.06652  -0.00048  -0.00234
  39        2PX         0.00082  -0.00049   0.00032   0.00114   0.00090
  40        2PY        -0.00098  -0.00226  -0.00024   0.00039   0.00000
  41        2PZ        -0.00000  -0.00000   0.00000   0.00000  -0.00000
  42        3S          0.03270  -0.05072  -0.03508  -0.00740   0.01992
  43        3PX        -0.00342   0.01718   0.00036   0.00168  -0.00925
  44        3PY        -0.02607   0.00649  -0.01010   0.00272  -0.00540
  45        3PZ        -0.00000  -0.00000  -0.00000   0.00000  -0.00000
  46 6   N  1S          0.98655   0.00000   0.00028  -0.00007   0.00000
  47        2S          0.10611   0.00000   0.00124  -0.00063   0.00000
  48        2PX        -0.00254  -0.00000  -0.00017   0.00015  -0.00000
  49        2PY         0.00000  -0.00005   0.00000  -0.00000  -0.00034
  50        2PZ         0.00000  -0.00000   0.00000  -0.00000  -0.00000
  51        3S         -0.08855  -0.00000  -0.00129   0.00433  -0.00000
  52        3PX         0.02067   0.00000   0.00601  -0.00143   0.00000
  53        3PY        -0.00000  -0.00306   0.00000   0.00000  -0.00235
  54        3PZ        -0.00000  -0.00000  -0.00000   0.00000  -0.00000
  55 7   H  1S          0.00041   0.00000   0.00019  -0.00234   0.00000
  56        2S          0.00388   0.00000   0.00358   0.00608   0.00000
  57 8   H  1S          0.00068   0.00221  -0.00039  -0.00015   0.00026
  58        2S          0.00588  -0.00308   0.01252   0.00065  -0.00196
  59 9   H  1S         -0.00171   0.00043  -0.00125  -0.00011   0.00156
  60        2S         -0.00680  -0.00176  -0.00180   0.00444  -0.00434
  61 10  H  1S         -0.00171  -0.00043  -0.00125  -0.00011  -0.00156
  62        2S         -0.00680   0.00176  -0.00180   0.00444   0.00434
  63 11  H  1S          0.00068  -0.00221  -0.00038  -0.00015  -0.00026
  64        2S          0.00588   0.00309   0.01252   0.00065   0.00196
  65 12  H  1S          0.00004  -0.00000  -0.00173  -0.00004  -0.00000
  66        2S          0.00334  -0.00000  -0.00032   0.00019   0.00000
                           6         7         8         9        10
                           O         O         O         O         O
     Eigenvalues --   -11.39307  -1.56052  -1.32603  -1.26896  -1.10634
   1 1   C  1S          0.00079  -0.08999  -0.02657  -0.13412   0.08704
   2        2S         -0.00260   0.10654   0.03422   0.15088  -0.10055
   3        2PX         0.00145   0.02754  -0.09675  -0.02651   0.08459
   4        2PY         0.00000   0.08725  -0.02023   0.01522   0.02762
   5        2PZ        -0.00000   0.00001   0.00000   0.00000  -0.00000
   6        3S          0.03135   0.04333   0.04669   0.28228  -0.21882
   7        3PX        -0.01732   0.02125  -0.00894  -0.04959   0.02654
   8        3PY         0.01106  -0.08312   0.00596  -0.01329   0.03271
   9        3PZ         0.00000  -0.00001   0.00000   0.00000   0.00000
  10 2   C  1S          0.69821  -0.03261  -0.11592  -0.09918   0.01330
  11        2S          0.07094   0.02849   0.12931   0.10831  -0.01223
  12        2PX         0.00111   0.02699  -0.00208   0.06385  -0.14831
  13        2PY         0.00044   0.01632   0.07325   0.00267   0.07384
  14        2PZ        -0.00000   0.00000   0.00001  -0.00000   0.00002
  15        3S         -0.07650   0.12669   0.23607   0.20798  -0.07507
  16        3PX        -0.01306   0.02906   0.01571  -0.01221  -0.04919
  17        3PY        -0.02200   0.09224   0.01564   0.03149  -0.01583
  18        3PZ        -0.00000   0.00001   0.00000   0.00000   0.00000
  19 3   C  1S          0.01167  -0.02047  -0.14403   0.00000  -0.13165
  20        2S         -0.00488   0.03038   0.16282  -0.00000   0.13975
  21        2PX        -0.00161   0.02033   0.07573  -0.00000  -0.03344
  22        2PY         0.00000  -0.00000  -0.00000  -0.08145  -0.00000
  23        2PZ         0.00000  -0.00000  -0.00000  -0.00001   0.00001
  24        3S          0.05336  -0.08368   0.29467  -0.00000   0.42367
  25        3PX         0.03003  -0.06026   0.02593   0.00000   0.02561
  26        3PY        -0.00000   0.00000  -0.00000   0.01930  -0.00000
  27        3PZ        -0.00000   0.00000   0.00000   0.00000   0.00000
  28 4   C  1S          0.69816  -0.03261  -0.11592   0.09918   0.01330
  29        2S          0.07094   0.02849   0.12930  -0.10831  -0.01224
  30        2PX         0.00111   0.02699  -0.00208  -0.06385  -0.14831
  31        2PY        -0.00044  -0.01632  -0.07325   0.00268  -0.07383
  32        2PZ        -0.00000  -0.00000  -0.00001   0.00001  -0.00000
  33        3S         -0.07649   0.12669   0.23607  -0.20798  -0.07508
  34        3PX        -0.01305   0.02905   0.01571   0.01221  -0.04919
  35        3PY         0.02200  -0.09224  -0.01564   0.03149   0.01584
  36        3PZ         0.00000  -0.00002  -0.00000   0.00000   0.00001
  37 5   C  1S          0.00079  -0.08999  -0.02657   0.13412   0.08704
  38        2S         -0.00260   0.10654   0.03422  -0.15088  -0.10055
  39        2PX         0.00145   0.02754  -0.09674   0.02651   0.08460
  40        2PY        -0.00000  -0.08725   0.02024   0.01522  -0.02763
  41        2PZ        -0.00000  -0.00001   0.00001  -0.00000  -0.00001
  42        3S          0.03135   0.04333   0.04669  -0.28228  -0.21881
  43        3PX        -0.01732   0.02126  -0.00894   0.04959   0.02654
  44        3PY        -0.01106   0.08312  -0.00596  -0.01329  -0.03271
  45        3PZ        -0.00000   0.00001   0.00000  -0.00001  -0.00001
  46 6   N  1S          0.00034  -0.20132   0.07778  -0.00000  -0.06160
  47        2S          0.00203   0.17606  -0.07116   0.00000   0.05975
  48        2PX        -0.00016  -0.04849  -0.05019  -0.00001   0.18130
  49        2PY         0.00000   0.00000   0.00000  -0.17404  -0.00000
  50        2PZ        -0.00000   0.00000   0.00000  -0.00002  -0.00001
  51        3S         -0.01518   0.67980  -0.27485   0.00000   0.23405
  52        3PX         0.00911  -0.11450  -0.02865  -0.00000   0.16717
  53        3PY        -0.00000   0.00000   0.00000  -0.15437  -0.00000
  54        3PZ        -0.00000   0.00001   0.00000  -0.00002  -0.00001
  55 7   H  1S         -0.00000   0.00347   0.05521  -0.00000   0.10427
  56        2S          0.00733  -0.01742  -0.00295   0.00000   0.03479
  57 8   H  1S          0.00016   0.02125   0.00559   0.07151  -0.05266
  58        2S          0.00476  -0.03520  -0.00471   0.01191  -0.00031
  59 9   H  1S         -0.00214   0.01178   0.04308   0.04671  -0.00748
  60        2S          0.00258   0.02537  -0.00269   0.00640  -0.01103
  61 10  H  1S         -0.00214   0.01178   0.04308  -0.04671  -0.00749
  62        2S          0.00258   0.02537  -0.00269  -0.00640  -0.01103
  63 11  H  1S          0.00016   0.02125   0.00559  -0.07151  -0.05265
  64        2S          0.00476  -0.03520  -0.00471  -0.01191  -0.00031
  65 12  H  1S         -0.00086   0.08253  -0.06337   0.00000   0.13373
  66        2S         -0.00004   0.01524  -0.01123   0.00000   0.03794
                          11        12        13        14        15
                           O         O         O         O         O
     Eigenvalues --    -1.09862  -1.00918  -0.90157  -0.89612  -0.85284
   1 1   C  1S          0.05888  -0.02812  -0.03462   0.04873  -0.03318
   2        2S         -0.06348   0.02898   0.03621  -0.05110   0.03642
   3        2PX        -0.16349   0.00091  -0.15230  -0.14822   0.02760
   4        2PY        -0.05308  -0.19099  -0.16958   0.06110  -0.10453
   5        2PZ         0.00001  -0.00003  -0.00001   0.00001  -0.00002
   6        3S         -0.15861   0.14699   0.18228  -0.15732   0.14013
   7        3PX        -0.00935   0.02301  -0.04907  -0.10819   0.04543
   8        3PY         0.00800  -0.06753  -0.06392   0.09068  -0.07653
   9        3PZ         0.00000  -0.00001  -0.00001   0.00002  -0.00002
  10 2   C  1S         -0.11191  -0.04330   0.02535  -0.04891   0.04425
  11        2S          0.11724   0.04457  -0.02618   0.05504  -0.04374
  12        2PX        -0.03821   0.01096   0.20778   0.06143   0.07374
  13        2PY         0.00179  -0.10646  -0.08961   0.04172   0.21469
  14        2PZ         0.00000  -0.00001  -0.00002  -0.00000   0.00002
  15        3S          0.34313   0.13734  -0.09486   0.12903  -0.18107
  16        3PX         0.01836  -0.00809   0.10398   0.02074   0.07172
  17        3PY         0.00322  -0.06818  -0.05171   0.00613   0.17736
  18        3PZ        -0.00000  -0.00001  -0.00001  -0.00000   0.00001
  19 3   C  1S          0.00000   0.02513   0.00000   0.06030  -0.04683
  20        2S         -0.00000  -0.02699  -0.00000  -0.06078   0.05460
  21        2PX        -0.00000  -0.03197   0.00003   0.24321   0.14779
  22        2PY        -0.16597   0.00000   0.24822  -0.00003  -0.00001
  23        2PZ        -0.00002   0.00000   0.00003  -0.00002  -0.00001
  24        3S         -0.00001  -0.07291  -0.00001  -0.22925   0.11821
  25        3PX        -0.00000  -0.02940   0.00002   0.18936   0.09022
  26        3PY        -0.05930   0.00000   0.11625  -0.00001  -0.00000
  27        3PZ        -0.00001   0.00000   0.00002  -0.00002  -0.00001
  28 4   C  1S          0.11191  -0.04330  -0.02536  -0.04890   0.04425
  29        2S         -0.11724   0.04457   0.02619   0.05503  -0.04374
  30        2PX         0.03822   0.01096  -0.20777   0.06145   0.07373
  31        2PY         0.00178   0.10646  -0.08960  -0.04171  -0.21469
  32        2PZ        -0.00000   0.00002  -0.00000  -0.00001  -0.00004
  33        3S         -0.34313   0.13734   0.09487   0.12901  -0.18107
  34        3PX        -0.01836  -0.00808  -0.10398   0.02076   0.07170
  35        3PY         0.00322   0.06819  -0.05171  -0.00612  -0.17736
  36        3PZ         0.00000   0.00001  -0.00000  -0.00000  -0.00004
  37 5   C  1S         -0.05888  -0.02812   0.03462   0.04872  -0.03318
  38        2S          0.06348   0.02898  -0.03621  -0.05110   0.03642
  39        2PX         0.16348   0.00092   0.15227  -0.14825   0.02761
  40        2PY        -0.05309   0.19099  -0.16959  -0.06107   0.10453
  41        2PZ        -0.00002   0.00003  -0.00004  -0.00001   0.00001
  42        3S          0.15862   0.14699  -0.18230  -0.15729   0.14013
  43        3PX         0.00935   0.02302   0.04905  -0.10820   0.04545
  44        3PY         0.00800   0.06753  -0.06394  -0.09067   0.07654
  45        3PZ         0.00000   0.00001  -0.00002  -0.00001   0.00001
  46 6   N  1S          0.00000   0.01212  -0.00000  -0.01918   0.03618
  47        2S         -0.00000  -0.00819   0.00000   0.02120  -0.03155
  48        2PX         0.00001   0.29028   0.00002   0.17268   0.10339
  49        2PY         0.24962  -0.00001   0.23687  -0.00002  -0.00001
  50        2PZ         0.00003  -0.00002   0.00003  -0.00002  -0.00002
  51        3S         -0.00000  -0.08284   0.00000   0.06875  -0.16916
  52        3PX         0.00001   0.30538   0.00002   0.20507   0.10882
  53        3PY         0.23505  -0.00001   0.25376  -0.00002  -0.00001
  54        3PZ         0.00003  -0.00002   0.00003  -0.00002  -0.00002
  55 7   H  1S         -0.00000  -0.00403  -0.00001  -0.18781  -0.04158
  56        2S         -0.00000  -0.00565  -0.00001  -0.07943  -0.02773
  57 8   H  1S         -0.06070   0.10382   0.06772  -0.11851   0.09840
  58        2S         -0.02381   0.04811   0.02969  -0.03990   0.04860
  59 9   H  1S          0.08261   0.07411  -0.03362   0.00719  -0.17237
  60        2S          0.02541   0.02124  -0.01663  -0.00754  -0.07912
  61 10  H  1S         -0.08261   0.07411   0.03361   0.00718  -0.17237
  62        2S         -0.02541   0.02124   0.01662  -0.00755  -0.07912
  63 11  H  1S          0.06071   0.10382  -0.06774  -0.11850   0.09840
  64        2S          0.02382   0.04811  -0.02969  -0.03990   0.04861
  65 12  H  1S         -0.00000   0.15217   0.00001   0.13024   0.03605
  66        2S         -0.00000   0.04851   0.00000   0.06822   0.01795
                          16        17        18        19        20
                           O         O         O         O         O
     Eigenvalues --    -0.82579  -0.81289  -0.73631  -0.73299  -0.61943
   1 1   C  1S         -0.01618   0.00000   0.01488   0.01112  -0.00000
   2        2S          0.02081  -0.00000  -0.02047  -0.01257   0.00000
   3        2PX        -0.18300   0.00004   0.21628  -0.02518  -0.00000
   4        2PY         0.18995  -0.00006  -0.02170   0.13591   0.00000
   5        2PZ         0.00006   0.18604  -0.00002   0.00002  -0.00385
   6        3S          0.01519  -0.00000  -0.03761  -0.05605   0.00000
   7        3PX        -0.16901   0.00004   0.16401  -0.09189  -0.00000
   8        3PY         0.16182  -0.00004  -0.05281   0.14258   0.00000
   9        3PZ         0.00006   0.15686  -0.00002   0.00002  -0.00353
  10 2   C  1S         -0.00815   0.00000  -0.01518  -0.00306  -0.00000
  11        2S          0.01264  -0.00000   0.01570   0.00270   0.00000
  12        2PX         0.16963  -0.00002  -0.21338   0.03106  -0.00001
  13        2PY         0.13466  -0.00003   0.02091  -0.25563   0.00002
  14        2PZ         0.00002   0.09958   0.00001  -0.00003  -0.21357
  15        3S         -0.02969   0.00001   0.04282   0.00821   0.00000
  16        3PX         0.09661  -0.00001  -0.15614  -0.03998  -0.00001
  17        3PY         0.11513  -0.00002  -0.05013  -0.26030   0.00003
  18        3PZ         0.00002   0.08232  -0.00000  -0.00003  -0.23493
  19 3   C  1S          0.00000   0.00000   0.00097  -0.00000  -0.00000
  20        2S         -0.00000  -0.00000  -0.00219   0.00000   0.00000
  21        2PX        -0.00000   0.00002   0.27708  -0.00004  -0.00002
  22        2PY         0.00347  -0.00001   0.00004   0.27262   0.00004
  23        2PZ         0.00001   0.07554  -0.00002   0.00003  -0.27980
  24        3S         -0.00000  -0.00001   0.00445  -0.00000   0.00001
  25        3PX        -0.00000   0.00001   0.33778  -0.00006  -0.00002
  26        3PY         0.01294  -0.00001   0.00002   0.16887   0.00004
  27        3PZ         0.00001   0.06550  -0.00003   0.00002  -0.28692
  28 4   C  1S          0.00815  -0.00000  -0.01518   0.00306   0.00000
  29        2S         -0.01264   0.00000   0.01570  -0.00271  -0.00000
  30        2PX        -0.16963   0.00003  -0.21339  -0.03100  -0.00001
  31        2PY         0.13468  -0.00005  -0.02099  -0.25562   0.00004
  32        2PZ         0.00005   0.09958   0.00001  -0.00005  -0.21357
  33        3S          0.02970   0.00000   0.04281  -0.00822  -0.00000
  34        3PX        -0.09660   0.00002  -0.15612   0.04002  -0.00002
  35        3PY         0.11515  -0.00004   0.05005  -0.26032   0.00005
  36        3PZ         0.00004   0.08232   0.00002  -0.00005  -0.23492
  37 5   C  1S          0.01618  -0.00000   0.01488  -0.01113   0.00000
  38        2S         -0.02081   0.00000  -0.02047   0.01257  -0.00000
  39        2PX         0.18301  -0.00002   0.21629   0.02511  -0.00000
  40        2PY         0.18994  -0.00006   0.02173   0.13590  -0.00000
  41        2PZ         0.00005   0.18604  -0.00001   0.00001  -0.00385
  42        3S         -0.01520  -0.00001  -0.03759   0.05606  -0.00000
  43        3PX         0.16902  -0.00001   0.16405   0.09184  -0.00001
  44        3PY         0.16180  -0.00005   0.05286   0.14255  -0.00000
  45        3PZ         0.00004   0.15686  -0.00000   0.00001  -0.00352
  46 6   N  1S         -0.00000   0.00000  -0.00304   0.00000  -0.00000
  47        2S          0.00000  -0.00000   0.00295  -0.00000   0.00000
  48        2PX        -0.00001   0.00003  -0.10824   0.00001   0.00002
  49        2PY        -0.07543  -0.00003  -0.00002  -0.14873  -0.00003
  50        2PZ         0.00005   0.35794   0.00001  -0.00002   0.23363
  51        3S          0.00001  -0.00000   0.02073  -0.00000   0.00000
  52        3PX        -0.00001   0.00004  -0.14709   0.00002   0.00002
  53        3PY        -0.08019  -0.00004  -0.00003  -0.17398  -0.00003
  54        3PZ         0.00005   0.39367   0.00001  -0.00003   0.30840
  55 7   H  1S          0.00000  -0.00001  -0.19978   0.00004   0.00000
  56        2S          0.00000  -0.00001  -0.10089   0.00002   0.00001
  57 8   H  1S         -0.14727   0.00002   0.07900  -0.11155  -0.00000
  58        2S         -0.07282   0.00001   0.04860  -0.05624  -0.00000
  59 9   H  1S         -0.11285   0.00002   0.07617   0.15347  -0.00000
  60        2S         -0.06279   0.00001   0.03726   0.08232  -0.00000
  61 10  H  1S          0.11286  -0.00002   0.07611  -0.15349   0.00000
  62        2S          0.06280  -0.00001   0.03723  -0.08233   0.00000
  63 11  H  1S          0.14726  -0.00002   0.07904   0.11152  -0.00000
  64        2S          0.07281  -0.00001   0.04862   0.05622  -0.00000
  65 12  H  1S         -0.00000   0.00000  -0.08661   0.00002   0.00000
  66        2S         -0.00000   0.00000  -0.06810   0.00001   0.00000
                          21        22        23        24        25
                           O         V         V         V         V
     Eigenvalues --    -0.56491  -0.11323  -0.06497   0.04018   0.11580
   1 1   C  1S         -0.00000   0.00000  -0.00000   0.02767   0.02929
   2        2S          0.00000  -0.00000   0.00000  -0.01717  -0.02378
   3        2PX         0.00002  -0.00001   0.00002  -0.03884   0.00998
   4        2PY        -0.00003   0.00003  -0.00003   0.09990  -0.00211
   5        2PZ         0.25227  -0.21493   0.24302   0.00002   0.00000
   6        3S          0.00001  -0.00001   0.00001  -0.42750  -0.24207
   7        3PX         0.00002  -0.00002   0.00005  -0.15425  -0.07374
   8        3PY        -0.00004   0.00006  -0.00006   0.29361   0.05020
   9        3PZ         0.28776  -0.37180   0.50491   0.00005   0.00002
  10 2   C  1S         -0.00000  -0.00000   0.00000   0.02663   0.03853
  11        2S          0.00000   0.00000  -0.00000  -0.02452  -0.01159
  12        2PX         0.00001  -0.00000  -0.00001  -0.00224   0.08683
  13        2PY        -0.00002   0.00001   0.00002   0.03424   0.08242
  14        2PZ         0.23161  -0.07485  -0.24544   0.00000   0.00001
  15        3S          0.00001   0.00000  -0.00001  -0.24879  -0.64581
  16        3PX         0.00001  -0.00001  -0.00001   0.03622   0.23457
  17        3PY        -0.00002   0.00001   0.00005   0.21070   0.23644
  18        3PZ         0.26351  -0.16438  -0.52412   0.00002   0.00002
  19 3   C  1S         -0.00000   0.00000   0.00000   0.03527   0.03827
  20        2S         -0.00000  -0.00000  -0.00000  -0.02326  -0.02100
  21        2PX         0.00000   0.00002  -0.00000   0.01433   0.16724
  22        2PY        -0.00001  -0.00004  -0.00000  -0.00000  -0.00001
  23        2PZ        -0.00000   0.28668  -0.00000  -0.00000  -0.00002
  24        3S         -0.00000  -0.00002  -0.00000  -0.44277  -0.51846
  25        3PX         0.00000   0.00005  -0.00000   0.06604   0.64483
  26        3PY        -0.00000  -0.00008  -0.00002  -0.00000  -0.00002
  27        3PZ        -0.00000   0.54859  -0.00000  -0.00001  -0.00006
  28 4   C  1S          0.00000  -0.00000  -0.00000   0.02663   0.03853
  29        2S         -0.00000   0.00000  -0.00000  -0.02452  -0.01159
  30        2PX        -0.00002  -0.00001   0.00002  -0.00225   0.08683
  31        2PY         0.00004   0.00001  -0.00004  -0.03424  -0.08243
  32        2PZ        -0.23161  -0.07485   0.24544  -0.00001  -0.00002
  33        3S         -0.00000  -0.00000   0.00002  -0.24878  -0.64580
  34        3PX        -0.00002  -0.00002   0.00003   0.03621   0.23455
  35        3PY         0.00005   0.00003  -0.00010  -0.21070  -0.23645
  36        3PZ        -0.26351  -0.16437   0.52412  -0.00004  -0.00005
  37 5   C  1S         -0.00000  -0.00000  -0.00000   0.02767   0.02929
  38        2S          0.00000   0.00000   0.00000  -0.01717  -0.02378
  39        2PX        -0.00001  -0.00001  -0.00001  -0.03884   0.00998
  40        2PY         0.00004   0.00003   0.00004  -0.09990   0.00211
  41        2PZ        -0.25227  -0.21493  -0.24302  -0.00001  -0.00000
  42        3S          0.00000   0.00001   0.00002  -0.42751  -0.24207
  43        3PX        -0.00002  -0.00002  -0.00002  -0.15427  -0.07374
  44        3PY         0.00004   0.00006   0.00008  -0.29360  -0.05019
  45        3PZ        -0.28776  -0.37181  -0.50491  -0.00004  -0.00000
  46 6   N  1S          0.00000  -0.00000   0.00000   0.08389  -0.05453
  47        2S         -0.00000   0.00000  -0.00000  -0.04068   0.02004
  48        2PX        -0.00000   0.00002   0.00000  -0.13251   0.14182
  49        2PY         0.00000  -0.00003  -0.00000   0.00000  -0.00000
  50        2PZ         0.00000   0.25419  -0.00000   0.00001  -0.00001
  51        3S          0.00000   0.00000  -0.00001  -0.84785   0.63686
  52        3PX        -0.00000   0.00004   0.00000  -0.42845   0.43848
  53        3PY         0.00000  -0.00006  -0.00000   0.00002  -0.00001
  54        3PZ         0.00000   0.48076  -0.00000   0.00004  -0.00004
  55 7   H  1S         -0.00000   0.00001   0.00000   0.03179   0.06004
  56        2S         -0.00000   0.00001   0.00000   0.34245   1.12156
  57 8   H  1S          0.00000   0.00000  -0.00001   0.03937   0.02474
  58        2S          0.00000   0.00000  -0.00001   0.65084   0.25283
  59 9   H  1S         -0.00000  -0.00000   0.00000   0.04503   0.03359
  60        2S         -0.00000  -0.00001   0.00000   0.42569   0.77692
  61 10  H  1S          0.00000  -0.00000   0.00000   0.04503   0.03359
  62        2S          0.00000  -0.00000   0.00000   0.42568   0.77690
  63 11  H  1S         -0.00000  -0.00000  -0.00000   0.03937   0.02474
  64        2S         -0.00000  -0.00001  -0.00001   0.65084   0.25282
  65 12  H  1S         -0.00000  -0.00000  -0.00000   0.10291  -0.03887
  66        2S         -0.00000  -0.00001   0.00000   1.12280  -0.91153
                          26        27        28        29        30
                           V         V         V         V         V
     Eigenvalues --     0.13282   0.13977   0.15180   0.18317   0.19946
   1 1   C  1S         -0.04432   0.00001   0.08519  -0.08237   0.03232
   2        2S          0.01598  -0.00000  -0.04300   0.04828  -0.03576
   3        2PX         0.07644  -0.00000  -0.12575   0.00340   0.00619
   4        2PY        -0.18096  -0.00001   0.01925  -0.02695   0.03411
   5        2PZ        -0.00001   0.19597   0.00001  -0.00001  -0.00000
   6        3S          0.78427  -0.00007  -1.05354   1.16096  -0.06976
   7        3PX         0.26092  -0.00003  -0.62394  -0.21689  -0.12245
   8        3PY        -0.68008   0.00002   0.22667  -0.39219   0.44918
   9        3PZ        -0.00006   0.52071   0.00007  -0.00007   0.00004
  10 2   C  1S         -0.01646  -0.00000   0.00416   0.09767  -0.08193
  11        2S          0.00048   0.00001   0.01859  -0.03727   0.06487
  12        2PX        -0.05141  -0.00002   0.01431   0.00621  -0.05704
  13        2PY        -0.12443   0.00005  -0.03278   0.10030  -0.04388
  14        2PZ        -0.00004  -0.24138   0.00000   0.00002   0.00001
  15        3S          0.36506  -0.00006  -0.32263  -1.55850   0.78612
  16        3PX        -0.25541  -0.00005   0.09074  -0.08386  -0.57956
  17        3PY        -0.33619   0.00009  -0.43761   0.57448  -0.64141
  18        3PZ        -0.00009  -0.66230  -0.00005   0.00009   0.00001
  19 3   C  1S          0.00000   0.00001  -0.06688   0.00000   0.10809
  20        2S         -0.00000  -0.00000   0.01446  -0.00000  -0.07765
  21        2PX        -0.00000   0.00002  -0.08173  -0.00000   0.08380
  22        2PY        -0.05558  -0.00003   0.00000  -0.05145  -0.00000
  23        2PZ         0.00002   0.24771   0.00000  -0.00001  -0.00003
  24        3S          0.00000  -0.00004   1.31533   0.00000  -1.13687
  25        3PX         0.00000   0.00011  -0.12605  -0.00001   0.92589
  26        3PY        -0.05095  -0.00009   0.00000  -0.34345  -0.00003
  27        3PZ         0.00008   0.70380   0.00002  -0.00007  -0.00015
  28 4   C  1S          0.01646  -0.00001   0.00416  -0.09767  -0.08193
  29        2S         -0.00048   0.00001   0.01859   0.03727   0.06487
  30        2PX         0.05140  -0.00003   0.01431  -0.00620  -0.05704
  31        2PY        -0.12444   0.00006   0.03278   0.10031   0.04389
  32        2PZ        -0.00005  -0.24138   0.00002   0.00002   0.00003
  33        3S         -0.36507   0.00006  -0.32265   1.55852   0.78610
  34        3PX         0.25539  -0.00013   0.09076   0.08388  -0.57952
  35        3PY        -0.33620   0.00022   0.43760   0.57451   0.64143
  36        3PZ        -0.00015  -0.66230   0.00009   0.00011   0.00021
  37 5   C  1S          0.04432   0.00000   0.08519   0.08237   0.03232
  38        2S         -0.01599  -0.00000  -0.04300  -0.04828  -0.03575
  39        2PX        -0.07646   0.00001  -0.12575  -0.00340   0.00619
  40        2PY        -0.18095  -0.00001  -0.01924  -0.02696  -0.03410
  41        2PZ        -0.00000   0.19597  -0.00001  -0.00001  -0.00002
  42        3S         -0.78430   0.00003  -1.05350  -1.16097  -0.06972
  43        3PX        -0.26098   0.00000  -0.62396   0.21686  -0.12247
  44        3PY        -0.68007  -0.00002  -0.22660  -0.39223  -0.44916
  45        3PZ        -0.00004   0.52071  -0.00004  -0.00011  -0.00010
  46 6   N  1S         -0.00000  -0.00001  -0.10075  -0.00000  -0.00387
  47        2S          0.00000   0.00000   0.05288   0.00000   0.03123
  48        2PX        -0.00000  -0.00002  -0.03732   0.00000  -0.00316
  49        2PY        -0.02653   0.00003   0.00000   0.08932  -0.00000
  50        2PZ        -0.00002  -0.18517   0.00001   0.00002   0.00001
  51        3S          0.00001   0.00005   1.07146   0.00000  -0.22341
  52        3PX         0.00000  -0.00003   0.00126   0.00001   0.22376
  53        3PY        -0.06319   0.00008   0.00000   0.18843  -0.00002
  54        3PZ        -0.00004  -0.39116   0.00002   0.00004   0.00000
  55 7   H  1S          0.00000   0.00001  -0.00841   0.00000   0.02475
  56        2S          0.00000   0.00007  -0.76278  -0.00000   1.46061
  57 8   H  1S         -0.03385   0.00000   0.03892   0.00368   0.02488
  58        2S         -1.24798   0.00017   1.12816  -0.74264   0.52028
  59 9   H  1S         -0.03227  -0.00000  -0.02828   0.01198  -0.02790
  60        2S         -0.75875   0.00005  -0.26532   1.18597  -1.23023
  61 10  H  1S          0.03227  -0.00001  -0.02828  -0.01198  -0.02790
  62        2S          0.75875  -0.00019  -0.26532  -1.18602  -1.23020
  63 11  H  1S          0.03386   0.00000   0.03892  -0.00368   0.02488
  64        2S          1.24801  -0.00006   1.12812   0.74268   0.52025
  65 12  H  1S         -0.00000   0.00000   0.00122  -0.00000  -0.03472
  66        2S         -0.00001  -0.00001  -0.36099  -0.00001  -0.18951
                          31        32        33        34        35
                           V         V         V         V         V
     Eigenvalues --     0.26588   0.29217   0.30743   0.31133   0.51545
   1 1   C  1S          0.02698   0.00910  -0.09959   0.04552   0.00395
   2        2S          0.00070   0.00903   0.02718  -0.01424   0.04614
   3        2PX         0.04053  -0.12503  -0.03755   0.17127   0.07370
   4        2PY        -0.14067   0.01643   0.18034   0.09369  -0.00932
   5        2PZ        -0.00002   0.00001   0.00003   0.00000  -0.00000
   6        3S         -0.33847  -0.31571   1.94852  -1.19945   0.25060
   7        3PX        -0.23607  -1.23836  -0.78228   1.38017  -1.92941
   8        3PY        -0.90301  -0.12780   1.03881   0.59378  -1.27418
   9        3PZ        -0.00010   0.00007   0.00017   0.00000  -0.00002
  10 2   C  1S          0.02765   0.07956   0.03705  -0.03073  -0.02809
  11        2S          0.01402   0.00122  -0.01336  -0.00899   0.02461
  12        2PX         0.00431   0.01566  -0.13911   0.16566  -0.20237
  13        2PY        -0.04690  -0.11599  -0.12807  -0.10750   0.14173
  14        2PZ        -0.00000  -0.00002  -0.00001  -0.00003   0.00002
  15        3S         -0.81943  -1.99553  -0.57185   0.89779   0.38241
  16        3PX         0.15793  -0.04821  -1.45999   1.49702  -1.91258
  17        3PY        -0.65880  -0.91280  -0.53161  -0.74913   1.30731
  18        3PZ        -0.00007  -0.00010   0.00001  -0.00018   0.00023
  19 3   C  1S         -0.06274  -0.00000   0.00000  -0.06915  -0.00000
  20        2S          0.02298   0.00000  -0.00000  -0.00536   0.00000
  21        2PX         0.23895  -0.00001   0.00000   0.00622   0.00001
  22        2PY        -0.00001  -0.19139   0.12984   0.00001   0.11868
  23        2PZ        -0.00002  -0.00002   0.00002   0.00001   0.00002
  24        3S          1.10527   0.00009  -0.00010   1.88404   0.00000
  25        3PX         1.40172  -0.00004   0.00000   0.28010   0.00009
  26        3PY        -0.00004  -1.72358   0.38842   0.00008   2.79315
  27        3PZ        -0.00010  -0.00022   0.00006   0.00003   0.00039
  28 4   C  1S          0.02765  -0.07956  -0.03705  -0.03073   0.02809
  29        2S          0.01402  -0.00122   0.01336  -0.00899  -0.02461
  30        2PX         0.00432  -0.01565   0.13908   0.16569   0.20238
  31        2PY         0.04690  -0.11598  -0.12809   0.10748   0.14171
  32        2PZ         0.00001  -0.00003  -0.00003  -0.00000   0.00001
  33        3S         -0.81944   1.99557   0.57173   0.89772  -0.38242
  34        3PX         0.15797   0.04826   1.45977   1.49725   1.91266
  35        3PY         0.65880  -0.91274  -0.53177   0.74905   1.30720
  36        3PZ         0.00012  -0.00019  -0.00018  -0.00001   0.00009
  37 5   C  1S          0.02698  -0.00909   0.09958   0.04553  -0.00395
  38        2S          0.00070  -0.00903  -0.02718  -0.01424  -0.04614
  39        2PX         0.04053   0.12504   0.03754   0.17126  -0.07370
  40        2PY         0.14067   0.01642   0.18035  -0.09368  -0.00932
  41        2PZ         0.00002   0.00000   0.00002  -0.00002   0.00000
  42        3S         -0.33849   0.31562  -1.94836  -1.19972  -0.25060
  43        3PX        -0.23603   1.23844   0.78217   1.38015   1.92932
  44        3PY         0.90303  -0.12789   1.03884  -0.59372  -1.27428
  45        3PZ         0.00013  -0.00007   0.00009  -0.00017  -0.00032
  46 6   N  1S         -0.07729   0.00000  -0.00000   0.04999  -0.00000
  47        2S          0.01627   0.00000  -0.00000   0.00828   0.00000
  48        2PX        -0.22517  -0.00001   0.00001   0.00738  -0.00001
  49        2PY         0.00001  -0.19924   0.19575   0.00002  -0.24594
  50        2PZ         0.00002  -0.00003   0.00002  -0.00001  -0.00003
  51        3S          1.16301  -0.00002   0.00007  -1.03554   0.00001
  52        3PX        -0.94620  -0.00004   0.00003   0.10768  -0.00005
  53        3PY         0.00004  -0.88942   0.94745   0.00009  -1.35427
  54        3PZ         0.00008  -0.00012   0.00012  -0.00002  -0.00016
  55 7   H  1S          0.00065   0.00001  -0.00001   0.12620  -0.00000
  56        2S          1.06084  -0.00001   0.00001  -0.16159   0.00001
  57 8   H  1S         -0.00215  -0.05392   0.04316  -0.06774   0.12172
  58        2S         -0.56291   0.62330   0.53837   0.07594   0.00766
  59 9   H  1S         -0.02591  -0.08767   0.05344   0.06036   0.02168
  60        2S         -0.22573  -0.29326  -0.86507  -0.16788   0.05699
  61 10  H  1S         -0.02591   0.08768  -0.05344   0.06035  -0.02169
  62        2S         -0.22575   0.29326   0.86507  -0.16780  -0.05699
  63 11  H  1S         -0.00215   0.05391  -0.04315  -0.06775  -0.12172
  64        2S         -0.56289  -0.62331  -0.53838   0.07591  -0.00766
  65 12  H  1S          0.02892  -0.00000   0.00001  -0.13689  -0.00000
  66        2S          0.81900   0.00000   0.00001  -0.10800   0.00000
                          36        37        38        39        40
                           V         V         V         V         V
     Eigenvalues --     0.53620   0.69799   0.71620   0.72693   0.77328
   1 1   C  1S         -0.07927   0.03602  -0.04397  -0.00000  -0.03147
   2        2S         -0.09696  -0.00901   0.06429   0.00001   0.06555
   3        2PX        -0.00060  -0.34677  -0.24174   0.00001   0.43629
   4        2PY         0.01233  -0.31084   0.29086  -0.00006   0.41551
   5        2PZ         0.00002  -0.00002  -0.00000   0.59665   0.00002
   6        3S          1.97139   0.12500   0.54444   0.00006  -0.16199
   7        3PX        -1.16490  -0.06568   0.16725  -0.00001  -0.43757
   8        3PY         1.30112  -0.12987   0.03541   0.00007  -0.46249
   9        3PZ         0.00021  -0.00000   0.00003  -0.52674  -0.00002
  10 2   C  1S          0.12371  -0.01895   0.03358   0.00000  -0.04284
  11        2S         -0.06595   0.03174   0.01399   0.00000  -0.00739
  12        2PX        -0.19610   0.35671   0.08767   0.00004  -0.28105
  13        2PY        -0.17990  -0.09983   0.15406  -0.00003   0.23450
  14        2PZ        -0.00001  -0.00004  -0.00002   0.38118   0.00005
  15        3S         -2.78122   0.13209  -0.37669  -0.00002   0.08556
  16        3PX        -0.89987  -0.99096  -0.31534  -0.00006   0.31867
  17        3PY        -2.10921   0.58672  -0.69559  -0.00003   0.03580
  18        3PZ        -0.00020   0.00012  -0.00005  -0.16933  -0.00002
  19 3   C  1S         -0.11024  -0.00000  -0.04336  -0.00000   0.06240
  20        2S         -0.03924   0.00000   0.07481   0.00000  -0.03194
  21        2PX         0.06471   0.00002   0.32638   0.00005  -0.16116
  22        2PY        -0.00000   0.51213  -0.00001  -0.00005   0.00001
  23        2PZ        -0.00001   0.00007  -0.00006   0.37175   0.00002
  24        3S          3.13880   0.00002   0.77793   0.00005  -0.19715
  25        3PX         2.40722   0.00002   0.18700  -0.00000  -0.15828
  26        3PY        -0.00008   0.24101  -0.00003   0.00004   0.00001
  27        3PZ        -0.00010   0.00003   0.00003  -0.25599  -0.00002
  28 4   C  1S          0.12371   0.01896   0.03358   0.00000  -0.04284
  29        2S         -0.06595  -0.03174   0.01399   0.00001  -0.00739
  30        2PX        -0.19609  -0.35671   0.08767   0.00004  -0.28106
  31        2PY         0.17992  -0.09981  -0.15407  -0.00008  -0.23448
  32        2PZ         0.00004   0.00000  -0.00006   0.38118  -0.00000
  33        3S         -2.78121  -0.13211  -0.37666  -0.00003   0.08556
  34        3PX        -0.89975   0.99098  -0.31533  -0.00004   0.31868
  35        3PY         2.10926   0.58668   0.69558   0.00009  -0.03582
  36        3PZ         0.00040   0.00003   0.00015  -0.16933  -0.00003
  37 5   C  1S         -0.07927  -0.03602  -0.04397  -0.00000  -0.03147
  38        2S         -0.09696   0.00902   0.06429   0.00001   0.06555
  39        2PX        -0.00060   0.34674  -0.24178   0.00001   0.43626
  40        2PY        -0.01233  -0.31087  -0.29084  -0.00011  -0.41554
  41        2PZ         0.00000  -0.00007  -0.00008   0.59665  -0.00009
  42        3S          1.97139  -0.12499   0.54443   0.00003  -0.16200
  43        3PX        -1.16498   0.06568   0.16725  -0.00001  -0.43754
  44        3PY        -1.30107  -0.12987  -0.03541   0.00007   0.46252
  45        3PZ        -0.00011  -0.00002   0.00004  -0.52674   0.00010
  46 6   N  1S          0.09077   0.00000   0.02591   0.00000   0.05887
  47        2S         -0.05194  -0.00000  -0.02499  -0.00000  -0.09348
  48        2PX         0.15716  -0.00001   0.01560   0.00001   0.11338
  49        2PY        -0.00001  -0.19165   0.00000  -0.00001  -0.00001
  50        2PZ        -0.00001  -0.00003  -0.00001   0.09241  -0.00001
  51        3S         -1.44836  -0.00000  -0.38148  -0.00003   0.38686
  52        3PX         0.99429  -0.00001   0.29829   0.00003  -0.04902
  53        3PY        -0.00004  -0.47839   0.00000  -0.00002   0.00000
  54        3PZ        -0.00007  -0.00006  -0.00003   0.11652   0.00000
  55 7   H  1S         -0.01929  -0.00000  -0.36716  -0.00003   0.20017
  56        2S          0.85621   0.00001   0.29096   0.00003  -0.14839
  57 8   H  1S         -0.05241   0.10659  -0.42072  -0.00004  -0.12845
  58        2S          0.61708  -0.05233   0.23859   0.00002   0.02165
  59 9   H  1S          0.14473  -0.06073  -0.22285  -0.00002  -0.17112
  60        2S         -1.01384   0.06849  -0.18513  -0.00001   0.14812
  61 10  H  1S          0.14473   0.06073  -0.22285  -0.00001  -0.17112
  62        2S         -1.01384  -0.06851  -0.18513  -0.00002   0.14811
  63 11  H  1S         -0.05241  -0.10660  -0.42072  -0.00003  -0.12845
  64        2S          0.61710   0.05234   0.23859   0.00002   0.02165
  65 12  H  1S          0.13427  -0.00000  -0.31547  -0.00004   0.31705
  66        2S         -0.41200  -0.00000   0.00094   0.00000  -0.07253
                          41        42        43        44        45
                           V         V         V         V         V
     Eigenvalues --     0.81383   0.82161   0.83515   0.85737   0.88770
   1 1   C  1S         -0.02505   0.00000   0.00000   0.00243  -0.00000
   2        2S          0.03040   0.00001  -0.00002   0.25243   0.00000
   3        2PX        -0.58681  -0.00001  -0.00004   0.21083   0.00004
   4        2PY        -0.20066   0.00012   0.00004   0.36182  -0.00004
   5        2PZ        -0.00004  -0.67469  -0.44409   0.00003   0.38593
   6        3S          0.12966  -0.00002  -0.00002  -0.10525   0.00000
   7        3PX         0.34086   0.00002   0.00007  -0.22552  -0.00003
   8        3PY        -0.00750  -0.00010  -0.00005  -0.48887   0.00008
   9        3PZ         0.00002   0.66622   0.55424  -0.00004  -0.60539
  10 2   C  1S          0.06158  -0.00000   0.00000   0.00243  -0.00000
  11        2S          0.04970  -0.00000  -0.00000  -0.04556   0.00001
  12        2PX        -0.22077   0.00000  -0.00002   0.44135  -0.00004
  13        2PY         0.00555   0.00002  -0.00002  -0.36512   0.00009
  14        2PZ        -0.00002  -0.37569   0.32476  -0.00006  -0.68552
  15        3S          0.33923  -0.00002   0.00004   0.03298  -0.00003
  16        3PX        -0.23159   0.00002   0.00006  -0.44514   0.00007
  17        3PY         0.19134  -0.00000   0.00003   0.56437  -0.00013
  18        3PZ         0.00006   0.23212  -0.31540   0.00009   0.84677
  19 3   C  1S         -0.00000  -0.00000   0.00001  -0.06514   0.00000
  20        2S          0.00000  -0.00000   0.00000  -0.06126   0.00001
  21        2PX        -0.00001   0.00000   0.00008   0.10609   0.00000
  22        2PY        -0.54838   0.00003  -0.00008   0.00001   0.00002
  23        2PZ        -0.00005  -0.00001   0.76960   0.00009   0.00000
  24        3S          0.00001  -0.00002   0.00001  -0.42589   0.00002
  25        3PX         0.00004   0.00000  -0.00010  -0.19810   0.00002
  26        3PY         1.09393  -0.00007   0.00006  -0.00001  -0.00005
  27        3PZ         0.00013   0.00001  -0.63458  -0.00007  -0.00000
  28 4   C  1S         -0.06158   0.00001   0.00000   0.00243   0.00000
  29        2S         -0.04970  -0.00001   0.00001  -0.04555   0.00001
  30        2PX         0.22077   0.00001  -0.00002   0.44138   0.00004
  31        2PY         0.00554  -0.00005  -0.00007   0.36509  -0.00013
  32        2PZ         0.00005   0.37568   0.32477   0.00004   0.68552
  33        3S         -0.33925   0.00003   0.00003   0.03298  -0.00001
  34        3PX         0.23160  -0.00003   0.00003  -0.44520  -0.00007
  35        3PY         0.19134   0.00001   0.00007  -0.56436   0.00017
  36        3PZ        -0.00003  -0.23211  -0.31541  -0.00008  -0.84676
  37 5   C  1S          0.02505  -0.00000  -0.00000   0.00243  -0.00000
  38        2S         -0.03040  -0.00000  -0.00002   0.25244   0.00001
  39        2PX         0.58679  -0.00000  -0.00007   0.21080  -0.00005
  40        2PY        -0.20071  -0.00010   0.00012  -0.36184   0.00007
  41        2PZ        -0.00005   0.67470  -0.44407  -0.00012  -0.38593
  42        3S         -0.12965   0.00001  -0.00000  -0.10525   0.00001
  43        3PX        -0.34087  -0.00001   0.00007  -0.22551   0.00005
  44        3PY        -0.00748   0.00013  -0.00016   0.48888  -0.00012
  45        3PZ         0.00001  -0.66623   0.55422   0.00015   0.60539
  46 6   N  1S          0.00000   0.00000  -0.00000   0.03536  -0.00000
  47        2S         -0.00000  -0.00000   0.00000  -0.02395   0.00000
  48        2PX        -0.00000   0.00001  -0.00001   0.01474  -0.00000
  49        2PY        -0.07187   0.00000   0.00001   0.00000   0.00001
  50        2PZ        -0.00001   0.00000  -0.06775  -0.00001   0.00000
  51        3S          0.00000   0.00002  -0.00004   0.39382  -0.00003
  52        3PX        -0.00001  -0.00002   0.00000  -0.17213   0.00001
  53        3PY        -0.18142   0.00001   0.00002   0.00001   0.00001
  54        3PZ        -0.00003   0.00000  -0.14072   0.00000  -0.00000
  55 7   H  1S         -0.00001  -0.00001   0.00003  -0.39344   0.00002
  56        2S          0.00001   0.00001  -0.00002   0.13585  -0.00000
  57 8   H  1S         -0.13223   0.00002  -0.00002   0.23454  -0.00000
  58        2S         -0.00899  -0.00000   0.00001  -0.19438  -0.00001
  59 9   H  1S          0.29772  -0.00001  -0.00000   0.00303  -0.00001
  60        2S         -0.11378   0.00001   0.00001   0.07943  -0.00000
  61 10  H  1S         -0.29772   0.00003   0.00003   0.00305   0.00003
  62        2S          0.11377  -0.00001  -0.00001   0.07943  -0.00002
  63 11  H  1S          0.13223  -0.00001  -0.00002   0.23457   0.00000
  64        2S          0.00899  -0.00000   0.00002  -0.19439   0.00000
  65 12  H  1S         -0.00000   0.00002  -0.00003   0.39798  -0.00001
  66        2S          0.00000  -0.00001   0.00001  -0.10537   0.00000
                          46        47        48        49        50
                           V         V         V         V         V
     Eigenvalues --     0.89957   0.90168   0.93042   1.08666   1.09099
   1 1   C  1S          0.03183   0.02569   0.00001  -0.03150   0.00261
   2        2S          0.23015  -0.37274  -0.00002   0.08884   0.03482
   3        2PX         0.15184   0.32184   0.00004   0.37818   0.13663
   4        2PY         0.09930  -0.27518  -0.00000  -0.51691  -0.09956
   5        2PZ         0.00002  -0.00004  -0.14921  -0.00010  -0.00004
   6        3S         -0.23344   0.52272   0.00011   0.33978   0.98308
   7        3PX        -0.28778  -0.51691  -0.00009  -1.15045  -0.72454
   8        3PY         0.10196   0.49446   0.00002   1.38323   0.88424
   9        3PZ         0.00001   0.00005   0.39227   0.00025   0.00017
  10 2   C  1S          0.01814  -0.01479  -0.00000   0.02200   0.02195
  11        2S          0.16830  -0.30637  -0.00002  -0.00077   0.07698
  12        2PX         0.38126   0.10090   0.00010   0.26209   0.37205
  13        2PY        -0.18778  -0.12118  -0.00009   0.33433   0.58488
  14        2PZ        -0.00006  -0.00010   0.58962   0.00002   0.00004
  15        3S         -0.29729  -0.22156  -0.00013  -0.56576  -1.40832
  16        3PX        -0.15797  -0.32931  -0.00019  -0.85474  -1.12402
  17        3PY         0.13476  -0.33997   0.00003  -1.02519  -2.10896
  18        3PZ         0.00005   0.00009  -0.99321  -0.00007  -0.00015
  19 3   C  1S         -0.00000  -0.00267  -0.00001   0.00000  -0.02560
  20        2S          0.00001  -0.41536  -0.00003  -0.00001   0.09610
  21        2PX        -0.00001  -0.26600  -0.00010   0.00002  -0.56030
  22        2PY        -0.52093  -0.00001   0.00008  -0.08005   0.00002
  23        2PZ        -0.00003   0.00011  -0.69405  -0.00000   0.00008
  24        3S         -0.00003   0.61068   0.00012  -0.00006   1.61016
  25        3PX        -0.00001   0.36144   0.00025  -0.00011   2.44466
  26        3PY         0.19052  -0.00000  -0.00015   0.05340  -0.00008
  27        3PZ        -0.00002  -0.00015   1.19245  -0.00000  -0.00021
  28 4   C  1S         -0.01814  -0.01479  -0.00000  -0.02200   0.02195
  29        2S         -0.16828  -0.30638  -0.00003   0.00076   0.07698
  30        2PX        -0.38126   0.10088   0.00007  -0.26210   0.37199
  31        2PY        -0.18775   0.12116  -0.00009   0.33439  -0.58487
  32        2PZ        -0.00002  -0.00003   0.58962   0.00008  -0.00014
  33        3S          0.29731  -0.22155  -0.00011   0.56589  -1.40828
  34        3PX         0.15798  -0.32928  -0.00017   0.85476  -1.12382
  35        3PY         0.13470   0.34001   0.00027  -1.02541   2.10893
  36        3PZ         0.00003   0.00016  -0.99321  -0.00024   0.00047
  37 5   C  1S         -0.03183   0.02568   0.00000   0.03150   0.00261
  38        2S         -0.23012  -0.37275  -0.00004  -0.08885   0.03481
  39        2PX        -0.15185   0.32185   0.00003  -0.37822   0.13661
  40        2PY         0.09928   0.27516   0.00005  -0.51689   0.09951
  41        2PZ         0.00002   0.00003  -0.14920  -0.00006   0.00001
  42        3S          0.23340   0.52274   0.00012  -0.33985   0.98304
  43        3PX         0.28781  -0.51693  -0.00004   1.15059  -0.72452
  44        3PY         0.10199  -0.49443  -0.00014   1.38323  -0.88409
  45        3PZ         0.00001  -0.00007   0.39227   0.00014  -0.00009
  46 6   N  1S          0.00000  -0.00612   0.00000  -0.00000   0.01939
  47        2S          0.00000  -0.00941  -0.00000  -0.00000   0.02145
  48        2PX        -0.00000  -0.03290  -0.00002   0.00001  -0.18378
  49        2PY        -0.15270  -0.00001   0.00001  -0.01377   0.00001
  50        2PZ        -0.00003   0.00002  -0.14907  -0.00001   0.00003
  51        3S          0.00002  -0.31088  -0.00006   0.00003  -0.69473
  52        3PX        -0.00001   0.34748   0.00005  -0.00002   0.55497
  53        3PY         0.08619  -0.00001   0.00000   0.01473  -0.00002
  54        3PZ         0.00002  -0.00002  -0.02255   0.00000  -0.00006
  55 7   H  1S          0.00001  -0.42920  -0.00004   0.00001  -0.29162
  56        2S         -0.00001   0.27265   0.00007  -0.00006   1.29802
  57 8   H  1S          0.53789  -0.19119   0.00001  -0.39221   0.01687
  58        2S         -0.13662   0.36867   0.00004   1.31437   0.43849
  59 9   H  1S          0.34200  -0.44818  -0.00004   0.31747   0.30813
  60        2S         -0.11955   0.05614  -0.00002  -0.88868  -1.31594
  61 10  H  1S         -0.34197  -0.44820  -0.00006  -0.31750   0.30810
  62        2S          0.11954   0.05614  -0.00002   0.88877  -1.31586
  63 11  H  1S         -0.53786  -0.19123  -0.00003   0.39220   0.01690
  64        2S          0.13659   0.36869   0.00005  -1.31440   0.43840
  65 12  H  1S          0.00002  -0.21967  -0.00001  -0.00000   0.09363
  66        2S         -0.00001   0.06571   0.00000   0.00001  -0.19208
                          51        52        53        54        55
                           V         V         V         V         V
     Eigenvalues --     1.13527   1.19303   1.19385   1.23873   1.28642
   1 1   C  1S          0.01081  -0.02106   0.01934  -0.00000   0.00028
   2        2S         -0.07502   0.15368  -0.20293   0.00005  -0.24407
   3        2PX        -0.22555   0.18708  -0.35903   0.00001  -0.06339
   4        2PY         0.31415  -0.24005   0.01710  -0.00009   0.41422
   5        2PZ         0.00006  -0.00005   0.00003   0.09652   0.00007
   6        3S         -0.13051  -0.17530  -0.19509  -0.00026   1.51623
   7        3PX         0.39147  -0.69669   1.30254   0.00001  -0.37583
   8        3PY        -0.92993  -0.03931   0.41320   0.00029  -1.63975
   9        3PZ        -0.00014   0.00007  -0.00004  -0.53867  -0.00027
  10 2   C  1S         -0.00082  -0.02635  -0.01233  -0.00000   0.00281
  11        2S         -0.05349   0.13959   0.00651   0.00002  -0.18170
  12        2PX        -0.18191   0.00976  -0.24943  -0.00010   0.54660
  13        2PY        -0.05444  -0.63156   0.05744  -0.00002   0.12394
  14        2PZ         0.00001  -0.00006   0.00002  -0.06900  -0.00002
  15        3S         -0.10639   0.15078   0.55364  -0.00013   1.56795
  16        3PX         0.25427  -0.64360   1.01842   0.00037  -2.63690
  17        3PY         0.12427   1.59416  -0.56584  -0.00007   0.68847
  18        3PZ        -0.00000   0.00019  -0.00012   0.31498   0.00025
  19 3   C  1S         -0.02588   0.00000  -0.01840   0.00000  -0.00000
  20        2S          0.02930  -0.00000   0.04336  -0.00001   0.00000
  21        2PX        -0.68238  -0.00000  -0.15690  -0.00002  -0.00001
  22        2PY         0.00002  -0.42785  -0.00004   0.00002  -0.43065
  23        2PZ         0.00006  -0.00006   0.00001   0.08162  -0.00005
  24        3S         -0.21222  -0.00009   0.92865  -0.00005  -0.00001
  25        3PX         1.34854   0.00004   0.25697  -0.00006   0.00009
  26        3PY        -0.00004   1.73567   0.00016  -0.00030   3.25687
  27        3PZ        -0.00011   0.00025   0.00000  -0.26280   0.00042
  28 4   C  1S         -0.00082   0.02635  -0.01233   0.00000  -0.00281
  29        2S         -0.05349  -0.13959   0.00648  -0.00003   0.18171
  30        2PX        -0.18191  -0.00976  -0.24944   0.00007  -0.54660
  31        2PY         0.05446  -0.63155  -0.05754  -0.00002   0.12398
  32        2PZ         0.00002  -0.00011   0.00001  -0.06900   0.00004
  33        3S         -0.10639  -0.15088   0.55360   0.00021  -1.56796
  34        3PX         0.25427   0.64353   1.01860  -0.00024   2.63696
  35        3PY        -0.12429   1.59402   0.56606  -0.00021   0.68828
  36        3PZ        -0.00004   0.00022   0.00001   0.31497   0.00001
  37 5   C  1S          0.01081   0.02106   0.01934   0.00000  -0.00028
  38        2S         -0.07502  -0.15364  -0.20296  -0.00003   0.24408
  39        2PX        -0.22558  -0.18703  -0.35907   0.00000   0.06343
  40        2PY        -0.31414  -0.24003  -0.01712  -0.00008   0.41422
  41        2PZ        -0.00005  -0.00003   0.00002   0.09652   0.00008
  42        3S         -0.13051   0.17532  -0.19508   0.00013  -1.51626
  43        3PX         0.39153   0.69645   1.30264  -0.00006   0.37572
  44        3PY         0.92992  -0.03928  -0.41329   0.00039  -1.63975
  45        3PZ         0.00014  -0.00004  -0.00015  -0.53867  -0.00038
  46 6   N  1S         -0.03478  -0.00000   0.04416  -0.00000  -0.00000
  47        2S          0.03524   0.00001  -0.09278   0.00000   0.00000
  48        2PX         0.47580   0.00004  -0.45588  -0.00008   0.00001
  49        2PY        -0.00002   0.07404   0.00002   0.00010   0.24993
  50        2PZ        -0.00003   0.00005   0.00003  -1.05735  -0.00012
  51        3S          0.57868   0.00008  -0.77768   0.00005   0.00001
  52        3PX        -0.73106  -0.00004   0.24032   0.00007  -0.00002
  53        3PY         0.00002  -0.40747  -0.00005  -0.00010  -0.50932
  54        3PZ         0.00004  -0.00010  -0.00001   1.33544   0.00014
  55 7   H  1S         -0.39977   0.00003  -0.40604  -0.00003  -0.00000
  56        2S          1.20075  -0.00003   0.44225   0.00002  -0.00000
  57 8   H  1S          0.31069  -0.30820   0.25496   0.00002  -0.33078
  58        2S         -0.84780   0.60585  -0.45654   0.00012  -0.63866
  59 9   H  1S          0.00070  -0.42687  -0.32155  -0.00000  -0.12549
  60        2S          0.14287   1.05483   0.22282   0.00011  -0.53748
  61 10  H  1S          0.00070   0.42693  -0.32148   0.00006   0.12549
  62        2S          0.14288  -1.05487   0.22264  -0.00009   0.53749
  63 11  H  1S          0.31069   0.30815   0.25502  -0.00006   0.33077
  64        2S         -0.84781  -0.60575  -0.45665  -0.00011   0.63867
  65 12  H  1S         -0.52687  -0.00007   0.81024   0.00001  -0.00000
  66        2S          0.71973   0.00009  -0.95514   0.00001   0.00001
                          56        57        58        59        60
                           V         V         V         V         V
     Eigenvalues --     1.31216   1.41993   1.45552   1.49874   1.51630
   1 1   C  1S          0.01653   0.00274   0.00811  -0.00573   0.00625
   2        2S         -0.33771  -0.64799  -0.53074  -0.03140  -0.74815
   3        2PX         0.02406  -0.16593   0.02317   0.00461   0.13502
   4        2PY         0.08942   0.33761  -0.19200  -0.03942   0.13951
   5        2PZ         0.00001   0.00006  -0.00003  -0.00001   0.00001
   6        3S          0.62265   1.91628   1.83781   1.51309   1.28983
   7        3PX        -0.21505  -0.12091   0.45462  -0.90373   0.08196
   8        3PY         0.92423  -1.18058   1.76731   0.76614  -1.09359
   9        3PZ         0.00011  -0.00017   0.00020   0.00012  -0.00018
  10 2   C  1S          0.01683   0.01644   0.00584   0.00647   0.00457
  11        2S         -0.31281  -0.42281  -0.53133   0.20411   0.06114
  12        2PX         0.09911   0.20704   0.00448   0.26463  -0.01520
  13        2PY         0.35299  -0.10737   0.09950  -0.04144  -0.36690
  14        2PZ         0.00004  -0.00003   0.00001  -0.00004  -0.00005
  15        3S          0.08055  -0.10655   1.13436  -1.55543  -0.85990
  16        3PX        -0.08890  -1.21716  -0.47149  -1.79702   0.36609
  17        3PY        -1.51025   0.55195  -1.03380  -1.41988   1.69619
  18        3PZ        -0.00017   0.00017  -0.00010   0.00002   0.00021
  19 3   C  1S          0.00735   0.01413   0.00000  -0.02074   0.00000
  20        2S         -0.36500  -0.21065  -0.00002   1.07892  -0.00003
  21        2PX         0.59035  -0.23093  -0.00000  -0.18975   0.00001
  22        2PY        -0.00002  -0.00000  -0.36046  -0.00000   0.21947
  23        2PZ        -0.00005   0.00002  -0.00005   0.00005   0.00003
  24        3S          2.20624  -1.21024   0.00002  -0.74777   0.00005
  25        3PX        -0.50081   1.15494  -0.00006   2.65525  -0.00008
  26        3PY         0.00004   0.00001   0.86412  -0.00004  -0.47188
  27        3PZ         0.00007  -0.00014   0.00012  -0.00030  -0.00009
  28 4   C  1S          0.01684   0.01644  -0.00584   0.00647  -0.00457
  29        2S         -0.31281  -0.42279   0.53134   0.20413  -0.06115
  30        2PX         0.09908   0.20704  -0.00449   0.26463   0.01516
  31        2PY        -0.35300   0.10736   0.09950   0.04141  -0.36691
  32        2PZ        -0.00007  -0.00000   0.00002  -0.00003  -0.00006
  33        3S          0.08054  -0.10659  -1.13427  -1.55546   0.85999
  34        3PX        -0.08876  -1.21714   0.47153  -1.79689  -0.36586
  35        3PY         1.51027  -0.55185  -1.03389   1.42005   1.69618
  36        3PZ         0.00027   0.00002  -0.00020   0.00044   0.00032
  37 5   C  1S          0.01653   0.00274  -0.00810  -0.00573  -0.00625
  38        2S         -0.33771  -0.64797   0.53076  -0.03134   0.74816
  39        2PX         0.02406  -0.16595  -0.02318   0.00461  -0.13501
  40        2PY        -0.08942  -0.33760  -0.19199   0.03942   0.13952
  41        2PZ        -0.00001  -0.00005  -0.00003   0.00001   0.00004
  42        3S          0.62262   1.91621  -1.83792   1.51291  -1.28996
  43        3PX        -0.21511  -0.12083  -0.45445  -0.90379  -0.08198
  44        3PY        -0.92422   1.18057   1.76735  -0.76607  -1.09358
  45        3PZ        -0.00016   0.00022   0.00029  -0.00010  -0.00021
  46 6   N  1S          0.02049  -0.00834  -0.00000   0.02365  -0.00000
  47        2S         -0.02073   0.00833   0.00000  -0.08400   0.00000
  48        2PX         0.22989  -0.34333  -0.00002   0.07958  -0.00001
  49        2PY        -0.00001   0.00000  -0.70436  -0.00003  -0.32513
  50        2PZ        -0.00005   0.00002  -0.00007  -0.00004  -0.00008
  51        3S         -0.96560   0.47207   0.00001  -0.63972   0.00001
  52        3PX         0.20174   0.27476   0.00006   0.40654   0.00001
  53        3PY        -0.00001   0.00000   2.10523   0.00005   0.50462
  54        3PZ         0.00003  -0.00002   0.00023   0.00003   0.00014
  55 7   H  1S          0.16491   0.63456  -0.00002   0.66177  -0.00002
  56        2S         -0.88333   0.24281  -0.00003   1.14516  -0.00003
  57 8   H  1S          0.59658  -0.17390   0.16947   0.14266  -0.35160
  58        2S         -0.16886  -0.78838   0.19257   0.28988  -0.54969
  59 9   H  1S         -0.10377   0.18411  -0.39986  -0.58134   0.55035
  60        2S         -0.77335  -0.26307  -0.47498  -0.43771   0.66449
  61 10  H  1S         -0.10376   0.18412   0.39988  -0.58135  -0.55033
  62        2S         -0.77336  -0.26307   0.47501  -0.43772  -0.66447
  63 11  H  1S          0.59658  -0.17389  -0.16947   0.14268   0.35160
  64        2S         -0.16886  -0.78836  -0.19257   0.28990   0.54970
  65 12  H  1S         -0.18463   0.05390   0.00000  -0.10754   0.00000
  66        2S          0.17776  -0.22691  -0.00000   0.02946  -0.00000
                          61        62        63        64        65
                           V         V         V         V         V
     Eigenvalues --     1.62207   1.71530   1.88998   2.00357   2.08843
   1 1   C  1S          0.00018  -0.00314   0.00254   0.03039  -0.01615
   2        2S         -0.88827   0.21143   0.30859   0.99833  -0.10899
   3        2PX         0.23370  -0.05746   0.18434  -0.03816  -0.12617
   4        2PY         0.10038   0.18603   0.15294   0.28055   0.02422
   5        2PZ         0.00000   0.00003  -0.00000   0.00004   0.00000
   6        3S          1.82957   1.32159   0.64186  -2.29743   2.13896
   7        3PX        -0.85955   0.96649  -1.60966   2.01266  -1.15166
   8        3PY        -0.29521   0.42207   0.91888  -1.24116   0.49655
   9        3PZ         0.00000  -0.00003   0.00023  -0.00029   0.00012
  10 2   C  1S         -0.00093  -0.00006   0.01875  -0.02783   0.05229
  11        2S          0.66047   1.00760   0.03933  -0.82129   1.08707
  12        2PX        -0.02724   0.05856  -0.17642   0.02618   0.19665
  13        2PY        -0.05272   0.23081  -0.05590  -0.16097  -0.00197
  14        2PZ        -0.00000   0.00002   0.00000  -0.00003  -0.00002
  15        3S         -1.16276  -1.43145  -1.40171   2.94090  -5.14005
  16        3PX        -0.27359   0.06863  -0.42193   1.32796  -1.35035
  17        3PY         1.04436  -1.09402  -0.30229   1.24411  -2.49577
  18        3PZ         0.00012  -0.00012  -0.00003   0.00010  -0.00019
  19 3   C  1S          0.00054   0.00000  -0.00133   0.00000  -0.06354
  20        2S          0.70782  -0.00001   0.06428   0.00000  -1.43018
  21        2PX         0.27536  -0.00000   0.01369   0.00001  -0.20828
  22        2PY        -0.00000   0.00598   0.00000   0.22263   0.00001
  23        2PZ        -0.00003   0.00000  -0.00000   0.00003   0.00002
  24        3S         -1.51158   0.00001   0.41946  -0.00004   5.97390
  25        3PX        -1.65667  -0.00002   0.13258  -0.00001   3.78854
  26        3PY         0.00003  -0.81187  -0.00000   0.07679  -0.00010
  27        3PZ         0.00013  -0.00011   0.00000   0.00000  -0.00021
  28 4   C  1S         -0.00093   0.00006   0.01875   0.02783   0.05229
  29        2S          0.66045  -1.00761   0.03935   0.82127   1.08709
[...]
 ! D17   D(3,4,5,6)              0.0001         -DE/DX =    0.0                 !
 ! D18   D(3,4,5,11)           180.0            -DE/DX =    0.0                 !
 ! D19   D(10,4,5,6)           180.0            -DE/DX =    0.0                 !
 ! D20   D(10,4,5,11)           -0.0001         -DE/DX =    0.0                 !
 ! D21   D(4,5,6,1)             -0.0001         -DE/DX =    0.0                 !
 ! D22   D(4,5,6,12)           179.9999         -DE/DX =    0.0                 !
 ! D23   D(11,5,6,1)           180.0            -DE/DX =    0.0                 !
 ! D24   D(11,5,6,12)            0.0            -DE/DX =    0.0                 !
 --------------------------------------------------------------------------------
 GradGradGradGradGradGradGradGradGradGradGradGradGradGradGradGradGradGrad


 ----------------------------------------------------------------------

 Electric dipole moment (input orientation):
 (Debye = 10**-18 statcoulomb cm , SI units = C m)
                  (au)            (Debye)         (10**-30 SI)
   Tot        0.782669D+00      0.198935D+01      0.663575D+01
   x          0.477542D-04      0.121379D-03      0.404877D-03
   y         -0.782669D+00     -0.198935D+01     -0.663575D+01
   z         -0.536539D-04     -0.136375D-03     -0.454896D-03

 Dipole polarizability, Alpha (input orientation).
 (esu units = cm**3 , SI units = C**2 m**2 J**-1)
 Alpha(0;0):
               (au)            (10**-24 esu)      (10**-40 SI)
   iso        0.433222D+02      0.641969D+01      0.714287D+01
   aniso      0.441382D+02      0.654060D+01      0.727740D+01
   xx         0.584839D+02      0.866641D+01      0.964268D+01
   yx         0.553152D-04      0.819687D-05      0.912024D-05
   yy         0.575814D+02      0.853268D+01      0.949389D+01
   zx         0.615756D-02      0.912457D-03      0.101524D-02
   zy         0.298639D-02      0.442537D-03      0.492389D-03
   zz         0.139014D+02      0.205997D+01      0.229203D+01

 First dipole hyperpolarizability, Beta (input orientation).
 ||, _|_  parallel and perpendicular components, (z) with respect to z axis,
 vector components x,y,z.  Values do not include the 1/n! factor of 1/2.
 (esu units = statvolt**-1 cm**4 , SI units = C**3 m**3 J**-2)
 Beta(0;0,0):
               (au)            (10**-30 esu)      (10**-50 SI)
   || (z)    -0.136358D-03     -0.117803D-05     -0.437213D-06
   _|_(z)    -0.454527D-04     -0.392676D-06     -0.145738D-06
   x          0.835484D-03      0.721793D-05      0.267887D-05
   y         -0.153054D+02     -0.132226D+00     -0.490746D-01
   z         -0.681790D-03     -0.589013D-05     -0.218606D-05
   ||         0.306107D+01      0.264453D-01      0.981491D-02
   xxx       -0.659189D-02     -0.569488D-04     -0.211360D-04
   xxy        0.357859D+02      0.309163D+00      0.114743D+00
   yxy        0.660084D-02      0.570261D-04      0.211647D-04
   yyy       -0.364906D+02     -0.315250D+00     -0.117002D+00
   xxz        0.255618D-02      0.220834D-04      0.819603D-05
   yxz        0.552102D-02      0.476974D-04      0.177024D-04
   yyz       -0.189993D-02     -0.164139D-04     -0.609186D-05
   zxz        0.269547D-03      0.232867D-05      0.864264D-06
   zyz       -0.439711D+01     -0.379876D-01     -0.140987D-01
   zzz       -0.883510D-03     -0.763283D-05     -0.283285D-05

 ----------------------------------------------------------------------

 Dipole orientation:
     6         -2.22858097         -0.00043137          1.34413841
     6         -2.27565514         -0.00044112         -1.24269638
     6         -0.00000082          0.00001240         -2.55140963
     6          2.27565397          0.00046406         -1.24269693
     6          2.22858054          0.00045717          1.34413775
     7         -0.00000017          0.00001213          2.56270012
     1         -0.00000106          0.00001142         -4.57500953
     1         -3.90038415         -0.00076481          2.47673863
     1         -4.04652672         -0.00079412         -2.21305438
     1          4.04652525          0.00081707         -2.21305549
     1          3.90038388          0.00078993          2.47673772
     1          0.00000015          0.00001121          4.46484231

 Electric dipole moment (dipole orientation):
 (Debye = 10**-18 statcoulomb cm , SI units = C m)
                  (au)            (Debye)         (10**-30 SI)
   Tot        0.782669D+00      0.198935D+01      0.663575D+01
   x          0.000000D+00      0.000000D+00      0.000000D+00
   y          0.000000D+00      0.000000D+00      0.000000D+00
   z          0.782669D+00      0.198935D+01      0.663575D+01

 Dipole polarizability, Alpha (dipole orientation).
 (esu units = cm**3 , SI units = C**2 m**2 J**-1)
 Alpha(0;0):
               (au)            (10**-24 esu)      (10**-40 SI)
   iso        0.433222D+02      0.641969D+01      0.714287D+01
   aniso      0.441382D+02      0.654060D+01      0.727740D+01
   xx         0.584839D+02      0.866641D+01      0.964268D+01
   yx         0.887792D-02      0.131557D-02      0.146377D-02
   yy         0.139014D+02      0.205997D+01      0.229203D+01
   zx         0.000000D+00      0.000000D+00      0.000000D+00
   zy         0.000000D+00      0.000000D+00      0.000000D+00
   zz         0.575814D+02      0.853268D+01      0.949389D+01

 First dipole hyperpolarizability, Beta (dipole orientation).
 ||, _|_  parallel and perpendicular components, (z) with respect to z axis,
 vector components x,y,z.  Values do not include the 1/n! factor of 1/2.
 (esu units = statvolt**-1 cm**4 , SI units = C**3 m**3 J**-2)
 Beta(0;0,0):
               (au)            (10**-30 esu)      (10**-50 SI)
   || (z)     0.306107D+01      0.264453D-01      0.981491D-02
   _|_(z)     0.102036D+01      0.881510D-02      0.327164D-02
   x         -0.983886D-04     -0.850001D-06     -0.315469D-06
   y          0.367424D-03      0.317426D-05      0.117810D-05
   z          0.153054D+02      0.132226D+00      0.490746D-01
   ||         0.306107D+01      0.264453D-01      0.981491D-02
   xxx       -0.415184D-04     -0.358687D-06     -0.133123D-06
   xxy        0.103636D-03      0.895333D-06      0.332294D-06
   yxy        0.000000D+00      0.000000D+00      0.000000D+00
   yyy        0.207880D-04      0.179592D-06      0.666537D-07
   xxz       -0.357859D+02     -0.309163D+00     -0.114743D+00
   yxz       -0.797250D-02     -0.688762D-04     -0.255627D-04
   yyz        0.439711D+01      0.379876D-01      0.140987D-01
   zxz        0.000000D+00      0.000000D+00      0.000000D+00
   zyz        0.000000D+00      0.000000D+00      0.000000D+00
   zzz        0.364906D+02      0.315250D+00      0.117002D+00

 ----------------------------------------------------------------------
 1\1\GINC-IISERK51\Freq\RHF\3-21G\C5H6N1(1+)\GAUSSIAN\16-Jun-2025\0\\#N
  Geom=AllCheck Guess=TCheck SCRF=Check GenChk RHF/3-21G Freq\\pyridine
 + optimisation\\1,1\C,-1.1792708735,-0.7113593585,-0.0002050745\C,-1.2
 042649718,0.6575331383,-0.000114877\C,-0.0000828096,1.3501478241,0.000
 0991176\C,1.2041841087,0.6576803563,0.000217177\C,1.1793574444,-0.7112
 151179,0.0001212088\N,0.0000826555,-1.3561224972,-0.0000865456\H,-0.00
 01482768,2.4209907712,0.0001720094\H,-2.0639144553,-1.3107595507,-0.00
 0368633\H,-2.141401196,1.1709673061,-0.0002092979\H,2.1412575098,1.171
 2291584,0.000382003\H,2.0640742474,-1.3105072406,0.0002022295\H,0.0001
 442373,-2.3626927895,-0.0001560373\\Version=EM64L-G16RevB.01\State=1-A
 \HF=-245.6964132\RMSD=2.876e-10\RMSF=4.300e-05\ZeroPoint=0.1114869\The
 rmal=0.1154555\Dipole=0.0000478,-0.7826693,-0.0000537\DipoleDeriv=0.03
 92141,-0.1358975,-0.0000312,0.4405314,0.4877004,0.0000815,0.0000086,0.
 0000013,0.1956874,-0.2148842,-0.2454164,-0.0000181,-0.6217372,-0.36374
 84,-0.000097,-0.0000435,-0.0000447,-0.2084121,0.5363129,0.0000086,0.00
 00602,0.0000085,0.397686,0.0000204,0.0000599,0.0000203,0.1028868,-0.21
 49902,0.2454345,0.0000157,0.6217553,-0.3636422,0.0000751,0.0000416,0.0
 000231,-0.208412,0.0392514,0.1358426,-0.0000121,-0.4405861,0.4876628,-
 0.0000408,-0.0000517,0.000039,0.1956872,-0.0059693,0.0000387,0.0000554
 ,0.0000385,-0.6353598,-0.0000162,0.000055,-0.0000159,-0.4042972,0.1232
 784,0.0000017,-0.0000055,0.0000017,0.0958739,-0.0000047,-0.0000055,-0.
 0000044,0.1632227,0.1397744,0.0105413,-0.0000057,0.0002242,0.1003429,-
 0.0000059,-0.0000064,-0.0000045,0.1861604,0.0925564,0.0007484,-0.00001
 38,-0.0002334,0.1187044,-0.0000051,-0.0000139,-0.000005,0.1925825,0.09
 25565,-0.0007516,-0.0000138,0.0002302,0.1187043,-0.000005,-0.0000141,-
 0.0000053,0.1925825,0.1397757,-0.0105365,-0.0000072,-0.0002193,0.10034
 15,-0.0000058,-0.0000061,-0.0000075,0.1861604,0.233124,-0.0000136,-0.0
 00024,-0.0000136,0.455734,0.0000035,-0.0000239,0.0000034,0.4061513\Pol
 ar=58.4838543,0.0000553,57.5814054,0.0061576,0.0029864,13.9013967\Pola
 rDeriv=-2.5739141,0.2421879,-1.301086,-0.000003,0.0003667,0.5313247,-5
 .6208537,-2.9749902,0.0387184,-0.0007621,-0.0001544,-0.1859064,0.00007
 04,0.0004967,0.0002899,-2.8993032,-3.366538,-0.0011888,2.333297,1.9441
 483,-3.3978661,0.0008244,-0.0003159,0.4657456,4.4825325,3.5018486,0.16
 76354,0.001112,0.0003435,-0.2518767,0.0014914,0.0004091,-0.0007753,-3.
 1582994,2.2871175,-0.0005295,0.0002912,-3.3560785,-0.0005137,-0.000221
 ,-0.0009369,0.0000196,2.05195,-0.0001841,1.7269384,0.0003284,-0.000089
 8,-0.3255826,0.0001548,-0.0009433,-0.0003449,-0.0002116,3.4914185,0.00
 04881,-2.334327,1.943877,3.398319,-0.0005716,0.0002122,-0.4657146,4.48
 31113,-3.5010859,0.1672,0.0001967,-0.0006184,-0.2519342,-0.0009121,-0.
 0005085,0.0001548,3.1580174,2.2875059,0.0010606,2.5745396,0.2419799,1.
 3011371,0.0000595,0.0006215,-0.5313015,-5.6212721,2.974329,0.0396002,-
 0.0007384,0.0006604,-0.1859709,-0.0008047,0.0004977,0.0006527,2.899714
 9,-3.3661853,0.0002875,0.0000144,-0.469759,0.0000504,-0.0000479,0.0001
 535,-0.0000512,0.7559658,0.0001222,-1.7217575,-0.0000127,-0.000068,0.8
 338741,0.0000424,0.0001453,0.000085,0.0000934,-1.5185137,-0.0001638,-0
 .0001601,1.2459382,-0.000429,0.0000847,-0.0000155,-0.0000366,0.1333087
 ,-0.000497,9.5090416,-0.0000642,0.0005155,0.5981656,0.0000061,-0.00001
 56,0.0004599,-0.0000833,1.3587399,0.0002214,-6.2653922,-3.1328316,-2.0
 207968,-0.000878,-0.0004664,-0.4792285,-2.6683217,-2.7663929,-2.857275
 3,-0.0004465,-0.0005206,-0.3185371,-0.0007776,-0.0004842,-0.0004044,-0
 .9894749,-0.5217104,-0.0004352,-7.0615115,2.8807035,-1.5713718,-0.0005
 547,0.000251,-0.4432041,2.5267153,-2.2914385,2.2252732,0.0002462,-0.00
 0213,0.1986,-0.000475,0.0002518,-0.0001341,-1.1820582,0.5063853,-0.000
 3033,7.0604975,2.8810947,1.5718042,0.000948,0.0004051,0.4431799,2.5270
 183,2.2918276,2.2260263,0.0003976,0.0004207,0.1986542,0.0008256,0.0004
 077,0.0003027,1.1819967,0.5065297,0.0004777,6.2664841,-3.1326509,2.020
 3803,0.0004485,-0.0002553,0.4792672,-2.6682323,2.7660331,-2.8563526,-0
 .0002033,0.0002443,-0.3184784,0.0004052,-0.0002369,0.000154,0.9895385,
 -0.5215891,0.0002414,0.0001812,-1.2886095,0.0003723,-0.0000891,-0.0000
 2,-0.0000006,-0.3819221,0.000428,-8.6650481,-0.0000538,-0.0005202,0.00
 89925,-0.0000265,-0.0000199,-0.0004404,0.0000698,-1.1431603,-0.0001561
 \HyperPolar=-0.0065919,35.7859254,0.0066008,-36.4906068,0.0025562,0.00
 5521,-0.0018999,0.0002695,-4.3971094,-0.0008835\Quadrupole=3.1107415,5
 .9765621,-9.0873036,-0.000175,0.0016864,0.0010328\PG=C01 [X(C5H6N1)]\N
 Imag=0\\0.82752631,0.10302827,0.84338743,0.00009112,0.00005704,0.21989
 303,-0.17799841,0.03739710,-0.00000782,0.83706498,-0.04485787,-0.38145
 533,-0.00002529,-0.07537147,0.78442851,-0.00001350,-0.00001391,-0.1027
 9088,0.00008382,0.00003008,0.19314905,0.06605746,-0.10226052,0.0000001
 8,-0.30527419,-0.03632366,-0.00003147,0.71959465,-0.05217913,-0.038303
 53,-0.00001081,-0.11205993,-0.21358168,-0.00002355,-0.00000893,0.86694
 322,0.00000362,-0.00001768,0.01395175,-0.00003660,-0.00001310,-0.09577
 503,0.00007017,0.00004485,0.21081778,-0.02547465,0.02803864,0.00000016
 ,-0.06271201,-0.01796016,-0.00001178,-0.30529220,0.11204864,-0.0000211
 5,0.83704639,0.06020832,-0.07012485,0.00000438,0.01794122,0.09222553,0
 .00000785,0.03631238,-0.21356349,-0.00000315,0.07537797,0.78444712,0.0
 0000235,-0.00000004,-0.01274202,-0.00000940,0.00000285,0.01398457,-0.0
 0002634,0.00000738,-0.09577503,0.00009405,0.00005075,0.19314905,-0.111
 06451,0.04181226,-0.00001512,-0.02546386,-0.06020286,-0.00000588,0.066
 03857,0.05219189,0.00001073,-0.17799931,0.04488275,-0.00000726,0.82755
 119,-0.04183654,0.08753469,-0.00000105,-0.02803318,-0.07013564,-0.0000
 0782,0.10227327,-0.03828464,0.00001061,-0.03737220,-0.38145464,-0.0000
 2400,-0.10303039,0.84336240,-0.00002079,0.00001051,0.01875630,-0.00000
 367,-0.00001225,-0.01274203,0.00001424,0.00000359,0.01395176,-0.000012
 98,-0.00001266,-0.10279086,0.00007689,0.00002831,0.21989301,-0.3002021
 7,0.00937997,-0.00002639,0.04510722,0.12072639,0.00001182,-0.12089384,
 -0.00000775,-0.00001456,0.04512786,-0.12071537,-0.00000477,-0.30018839
 ,-0.00938859,-0.00002770,0.78134627,0.10095189,-0.22854243,0.00000543,
 0.04817286,-0.04489780,0.00000223,-0.00000775,0.00585555,0.00000145,-0
 .04816185,-0.04491844,-0.00001111,-0.10096049,-0.22855584,-0.00002247,
 -0.00001309,0.99275177,-0.00002012,-0.00000726,-0.10455234,0.00000684,
 0.00001229,0.01954556,-0.00001461,0.00000146,-0.01536901,0.00000027,-0
 .00002105,0.01954555,-0.00003401,-0.00000988,-0.10455235,0.00007983,0.
 00005431,0.20403037,-0.00609706,-0.00396037,-0.00000244,0.00667882,-0.
 03425846,-0.00000303,-0.07634596,0.00001908,-0.00000161,0.00667501,0.0
 3426042,0.00000164,-0.00609778,0.00395966,-0.00000189,-0.00126586,-0.0
 0000017,-0.00000005,0.07358867,-0.00185502,-0.00032422,-0.00000094,0.0
 0309769,-0.00939070,-0.00000101,0.00001908,-0.38838170,-0.00002207,-0.
 00309572,-0.00938689,-0.00000186,0.00185431,-0.00032351,-0.00000042,-0
 .00000017,0.00145558,0.00000016,-0.00002029,0.40546165,-0.00000230,-0.
 00000123,0.00961599,-0.00000049,-0.00000618,0.01171290,-0.00000161,-0.
 00002202,-0.06463988,-0.00000091,0.00000328,0.01171289,-0.00000204,-0.
 00000015,0.00961599,-0.00000005,0.00000017,-0.00087605,0.00000508,0.00
 002513,0.03672206,-0.28550207,-0.14773294,-0.00004128,0.01004750,0.005
 68955,-0.00000002,-0.00109824,0.00230502,-0.00000122,0.00115025,-0.001
 44728,0.00000013,0.00004546,0.00673514,-0.00000066,-0.03046094,-0.0197
 4753,-0.00000633,0.00036471,0.00024930,0.00000025,0.30518585,-0.159377
 94,-0.18222836,-0.00003041,-0.03021010,-0.00920112,-0.00000571,0.00137
 708,-0.00679687,-0.00000089,0.00077951,0.00016919,0.00000015,0.0027587
 4,-0.00328153,-0.00000041,0.02961554,0.01592156,0.00000481,-0.00139768
 ,-0.00038609,-0.00000013,0.15543136,0.18243367,-0.00004210,-0.00002882
 ,-0.06037372,-0.00000248,-0.00000073,0.01303724,-0.00000129,-0.0000007
 5,0.00889806,0.00000028,-0.00000016,-0.00048414,-0.00000094,0.00000014
 ,0.00821205,-0.00000293,-0.00000201,0.00545196,0.00000014,0.00000010,-
 0.00132400,0.00004785,0.00003153,0.03641701,0.00595511,-0.00405338,-0.
 00000020,-0.31863086,0.13559102,-0.00002705,-0.02022504,0.01772864,-0.
 00000266,-0.00323248,-0.00359308,-0.00000184,0.00012878,-0.00154175,-0
 .00000001,0.00245018,-0.00205004,-0.00000121,0.00108759,-0.00001200,0.
 00000082,0.00063035,0.00011827,0.00000082,0.33223812,0.03649343,-0.011
 83560,0.00000386,0.13268243,-0.14899367,0.00001197,-0.02118108,0.01624
 422,-0.00000235,-0.00430293,-0.00241944,-0.00000133,-0.00134974,-0.000
 88591,-0.00000021,-0.00021980,-0.00748969,-0.00000124,0.00038922,0.000
 86626,0.00000045,-0.00040627,0.00096507,0.00000037,-0.14274346,0.15311
 460,0.00000257,-0.00000174,0.00540077,-0.00002724,0.00001236,-0.055891
 50,-0.00000533,0.00000303,0.00787051,-0.00000189,-0.00000123,0.0083171
 7,0.,-0.00000024,-0.00054384,-0.00000107,-0.00000149,0.01014527,0.0000
 0085,0.00000039,-0.00488585,0.00000079,0.00000045,-0.00527433,0.000031
 15,-0.00001173,0.03622810,0.00012843,0.00154188,0.00000020,-0.00323345
 ,0.00359299,-0.00000135,-0.02022546,-0.01773310,-0.00000511,-0.3185980
 3,-0.13561176,-0.00004560,0.00595908,0.00405556,0.00000034,0.00244990,
 0.00205126,-0.00000092,0.00108764,0.00001203,0.00000083,-0.00000310,-0
 .00004215,0.00000018,-0.00073359,-0.00081766,-0.00000010,0.33220319,0.
 00134987,-0.00088556,0.00000016,0.00430283,-0.00241847,-0.00000014,0.0
 2117662,0.01624464,0.00000350,-0.13270318,-0.14902649,-0.00002471,-0.0
 3649125,-0.01183957,-0.00000623,0.00022101,-0.00748941,-0.00000117,-0.
 00038920,0.00086622,0.00000034,-0.00004554,0.00005353,0.00000009,0.000
 81749,0.00065682,0.00000019,0.14276536,0.15314953,0.00000018,0.0000001
 8,-0.00054384,-0.00000130,-0.00000025,0.00831717,-0.00000239,-0.000001
 88,0.00787051,-0.00004547,-0.00002515,-0.05589151,-0.00000240,-0.00000
 059,0.00540077,-0.00000105,-0.00000091,0.01014527,0.00000080,0.0000003
 9,-0.00488585,0.00000018,0.00000009,-0.00133356,0.00000001,-0.00000004
 ,-0.00041534,0.00005070,0.00002774,0.03622811,0.00004661,-0.00673474,-
 0.00000159,0.00115017,0.00144740,0.00000033,-0.00109779,-0.00230432,-0
 .00000154,0.01004451,-0.00568720,-0.00000080,-0.28553959,0.14772033,-0
 .00002098,-0.03045973,0.01974186,-0.00000360,0.00036457,-0.00024920,0.
 00000022,-0.00069844,0.00077220,-0.00000019,-0.00000311,0.00004553,0.0
 0000019,0.00063032,0.00040623,0.00000084,0.30522384,-0.00275834,-0.003
 28269,-0.00000117,-0.00077939,0.00016927,-0.00000006,-0.00137638,-0.00
 679732,-0.00000125,0.03021245,-0.00919812,0.00000264,0.15936534,-0.182
 19084,0.00001368,-0.02962122,0.01592035,-0.00000338,0.00139777,-0.0003
 8595,0.00000025,-0.00077237,0.00071592,-0.00000013,0.00004215,0.000053
 54,0.00000010,-0.00011832,0.00096510,0.00000041,-0.15541636,0.18239570
 ,-0.00000131,-0.00000174,0.00821205,0.00000018,0.00000025,-0.00048414,
 -0.00000148,-0.00000138,0.00889806,0.00000164,-0.00000228,0.01303724,-
 0.00002012,0.00001202,-0.06037371,-0.00000703,0.00000345,0.00545195,0.
 00000033,0.00000003,-0.00132400,-0.00000029,0.00000009,0.00103249,0.00
 000019,0.00000010,-0.00133356,0.00000081,0.00000048,-0.00527434,0.0000
 2647,-0.00001146,0.03641700,0.00662494,0.04354384,0.00000320,-0.006735
 91,0.00192714,-0.00000190,-0.00123796,-0.00000010,-0.00000007,-0.00673
 533,-0.00192836,-0.00000216,0.00663037,-0.04354132,-0.00000279,-0.0930
 1049,0.00002306,-0.00000610,-0.00004033,0.,0.00000019,0.00033867,0.000
 17516,0.00000065,0.00033494,0.00141033,0.00000009,0.00033508,-0.001410
 25,-0.00000010,0.00033865,-0.00017532,0.00000062,0.09315738,0.00083306
 ,-0.01393954,-0.00000120,0.00285994,0.00325110,0.00000007,-0.00000010,
 0.00042159,0.00000008,-0.00286116,0.00325051,-0.00000073,-0.00083055,-
 0.01394496,-0.00000143,0.00002306,-0.47001121,-0.00002905,0.,-0.000070
 65,0.00000009,-0.00025842,0.00163503,0.00000037,-0.00030385,-0.0002761
 9,-0.00000009,0.00030392,-0.00027633,0.,0.00025826,0.00163504,0.000000
 44,-0.00002418,0.48832561,0.00000027,0.00000470,0.00517291,-0.00000183
 ,-0.00000004,0.00793709,-0.00000008,0.00000008,-0.00069948,-0.00000222
 ,-0.00000059,0.00793709,0.00000015,-0.00000734,0.00517291,-0.00000611,
 -0.00002906,-0.04896618,0.00000019,0.00000009,-0.00144421,0.00000062,0
 .00000043,-0.00425905,-0.00000003,0.00000015,0.00038261,0.00000001,-0.
 00000024,0.00038261,0.00000065,0.00000038,-0.00425905,0.00000837,0.000
 03144,0.03264275\\0.00012647,0.00001940,0.00000014,0.00004817,0.000019
 10,-0.00000010,-0.00000001,-0.00012173,0.00000024,-0.00004816,0.000019
 05,-0.00000036,-0.00012640,0.00001945,0.00000031,-0.00000007,0.0000790
 0,-0.00000015,0.,-0.00003206,-0.00000004,0.00001215,0.00002552,0.,-0.0
 0003941,-0.00000670,-0.00000002,0.00003941,-0.00000670,0.00000005,-0.0
 0001216,0.00002551,-0.00000004,0.,-0.00003984,-0.00000004\\\@


 E PUR SI MUOVE    -- GALILEO GALILEI
 Job cpu time:       0 days  0 hours  0 minutes  1.9 seconds.
 Elapsed time:       0 days  0 hours  0 minutes  1.9 seconds.
 File lengths (MBytes):  RWF=     12 Int=      0 D2E=      0 Chk=      2 Scr=      1
 Normal termination of Gaussian 16 at Mon Jun 16 16:00:32 2025.
