 Entering Gaussian System, Link 0=g16
 Input=/home/gaussian/Documents/Summer_Internship/Acid_Base_adduct/Acid/AlCl3/neutral/AlCl3_sp.com
 Output=/home/gaussian/Documents/Summer_Internship/Acid_Base_adduct/Acid/AlCl3/neutral/AlCl3_sp.log
 Initial command:
 /usr/local/g16/l1.exe "/home/gaussian/tmp/Gau-31031.inp" -scrdir="/home/gaussian/tmp/"
 Entering Link 1 = /usr/local/g16/l1.exe PID=     31034.
  
 Copyright (c) 1988-2017, Gaussian, Inc.  All Rights Reserved.
  
 This is part of the Gaussian(R) 16 program.  It is based on
 the Gaussian(R) 09 system (copyright 2009, Gaussian, Inc.),
 the Gaussian(R) 03 system (copyright 2003, Gaussian, Inc.),
 the Gaussian(R) 98 system (copyright 1998, Gaussian, Inc.),
 the Gaussian(R) 94 system (copyright 1995, Gaussian, Inc.),
 the Gaussian 92(TM) system (copyright 1992, Gaussian, Inc.),
 the Gaussian 90(TM) system (copyright 1990, Gaussian, Inc.),
 the Gaussian 88(TM) system (copyright 1988, Gaussian, Inc.),
 the Gaussian 86(TM) system (copyright 1986, Carnegie Mellon
 University), and the Gaussian 82(TM) system (copyright 1983,
 Carnegie Mellon University). Gaussian is a federally registered
 trademark of Gaussian, Inc.
  
 This software contains proprietary and confidential information,
 including trade secrets, belonging to Gaussian, Inc.
  
 This software is provided under written license and may be
 used, copied, transmitted, or stored only in accord with that
 written license.
  
 The following legend is applicable only to US Government
 contracts under FAR:
  
                    RESTRICTED RIGHTS LEGEND
  
 Use, reproduction and disclosure by the US Government is
 subject to restrictions as set forth in subparagraphs (a)
 and (c) of the Commercial Computer Software - Restricted
 Rights clause in FAR 52.227-19.
  
 Gaussian, Inc.
 340 Quinnipiac St., Bldg. 40, Wallingford CT 06492
  
  
 ---------------------------------------------------------------
 Warning -- This program may not be used in any manner that
 competes with the business of Gaussian, Inc. or will provide
 assistance to any competitor of Gaussian, Inc.  The licensee
 of this program is prohibited from giving any competitor of
 Gaussian, Inc. access to this program.  By using this program,
 the user acknowledges that Gaussian, Inc. is engaged in the
 business of creating and licensing software in the field of
 computational chemistry and represents and warrants to the
 licensee that it is not a competitor of Gaussian, Inc. and that
 it will not use this program in any manner prohibited above.
 ---------------------------------------------------------------
  

 Cite this work as:
 Gaussian 16, Revision B.01,
 M. J. Frisch, G. W. Trucks, H. B. Schlegel, G. E. Scuseria, 
 M. A. Robb, J. R. Cheeseman, G. Scalmani, V. Barone, 
 G. A. Petersson, H. Nakatsuji, X. Li, M. Caricato, A. V. Marenich, 
 J. Bloino, B. G. Janesko, R. Gomperts, B. Mennucci, H. P. Hratchian, 
 J. V. Ortiz, A. F. Izmaylov, J. L. Sonnenberg, D. Williams-Young, 
 F. Ding, F. Lipparini, F. Egidi, J. Goings, B. Peng, A. Petrone, 
 T. Henderson, D. Ranasinghe, V. G. Zakrzewski, J. Gao, N. Rega, 
 G. Zheng, W. Liang, M. Hada, M. Ehara, K. Toyota, R. Fukuda, 
 J. Hasegawa, M. Ishida, T. Nakajima, Y. Honda, O. Kitao, H. Nakai, 
 T. Vreven, K. Throssell, J. A. Montgomery, Jr., J. E. Peralta, 
 F. Ogliaro, M. J. Bearpark, J. J. Heyd, E. N. Brothers, K. N. Kudin, 
 V. N. Staroverov, T. A. Keith, R. Kobayashi, J. Normand, 
 K. Raghavachari, A. P. Rendell, J. C. Burant, S. S. Iyengar, 
 J. Tomasi, M. Cossi, J. M. Millam, M. Klene, C. Adamo, R. Cammi, 
 J. W. Ochterski, R. L. Martin, K. Morokuma, O. Farkas, 
 J. B. Foresman, and D. J. Fox, Gaussian, Inc., Wallingford CT, 2016.
 
 ******************************************
 Gaussian 16:  EM64L-G16RevB.01 20-Dec-2017
                13-Jun-2025 
 ******************************************
 %chk=AlCl3_sp.chk
 -------------------------------------
 # hf/3-21g pop=full geom=connectivity
 -------------------------------------
 1/38=1,57=2,172=1/1;
 2/12=2,17=6,18=5,40=1/2;
 3/5=5,11=9,25=1,30=1/1,2,3;
 4//1;
 5/5=2,38=5/2;
 6/7=3,28=1/1;
 99/5=1,9=1/99;
 -------------------
 Title Card Required
 -------------------
 Symbolic Z-matrix:
 Charge =  0 Multiplicity = 1
 Al                    0.        0.        0. 
 Cl                    0.        2.15985   0. 
 Cl                   -1.87049  -1.07993   0. 
 Cl                    1.87049  -1.07993   0. 
 
                          Input orientation:                          
 ---------------------------------------------------------------------
 Center     Atomic      Atomic             Coordinates (Angstroms)
 Number     Number       Type             X           Y           Z
 ---------------------------------------------------------------------
      1         13           0        0.000000    0.000000    0.000000
      2         17           0        0.000000    2.159854    0.000000
      3         17           0       -1.870489   -1.079927    0.000000
      4         17           0        1.870489   -1.079927    0.000000
 ---------------------------------------------------------------------
                    Distance matrix (angstroms):
                    1          2          3          4
     1  Al   0.000000
     2  Cl   2.159854   0.000000
     3  Cl   2.159854   3.740977   0.000000
     4  Cl   2.159854   3.740977   3.740978   0.000000
 Stoichiometry    AlCl3
 Framework group  D3H[O(Al),3C2(Cl)]
 Deg. of freedom     1
 Full point group                 D3H     NOp  12
 Largest Abelian subgroup         C2V     NOp   4
 Largest concise Abelian subgroup C2      NOp   2
                         Standard orientation:                         
 ---------------------------------------------------------------------
 Center     Atomic      Atomic             Coordinates (Angstroms)
 Number     Number       Type             X           Y           Z
 ---------------------------------------------------------------------
      1         13           0        0.000000    0.000000    0.000000
      2         17           0        0.000000    2.159854    0.000000
      3         17           0        1.870488   -1.079927    0.000000
      4         17           0       -1.870488   -1.079927    0.000000
 ---------------------------------------------------------------------
 Rotational constants (GHZ):           2.0653600           2.0653600           1.0326800
 Standard basis: 3-21G (6D, 7F)
 There are    24 symmetry adapted cartesian basis functions of A1  symmetry.
 There are     3 symmetry adapted cartesian basis functions of A2  symmetry.
 There are    16 symmetry adapted cartesian basis functions of B1  symmetry.
 There are     9 symmetry adapted cartesian basis functions of B2  symmetry.
 There are    24 symmetry adapted basis functions of A1  symmetry.
 There are     3 symmetry adapted basis functions of A2  symmetry.
 There are    16 symmetry adapted basis functions of B1  symmetry.
 There are     9 symmetry adapted basis functions of B2  symmetry.
    52 basis functions,   108 primitive gaussians,    52 cartesian basis functions
    32 alpha electrons       32 beta electrons
       nuclear repulsion energy       285.0798505480 Hartrees.
 NAtoms=    4 NActive=    4 NUniq=    2 SFac= 4.00D+00 NAtFMM=   60 NAOKFM=F Big=F
 Integral buffers will be    131072 words long.
 Raffenetti 1 integral format.
 Two-electron integral symmetry is turned on.
 One-electron integrals computed using PRISM.
 NBasis=    52 RedAO= T EigKep=  4.73D-02  NBF=    24     3    16     9
 NBsUse=    52 1.00D-06 EigRej= -1.00D+00 NBFU=    24     3    16     9
 ExpMin= 6.39D-02 ExpMax= 1.38D+03 ExpMxC= 1.38D+03 IAcc=3 IRadAn=         5 AccDes= 0.00D+00
 Harris functional with IExCor=  205 and IRadAn=       5 diagonalized for initial guess.
 HarFok:  IExCor=  205 AccDes= 0.00D+00 IRadAn=         5 IDoV= 1 UseB2=F ITyADJ=14
 ICtDFT=  3500011 ScaDFX=  1.000000  1.000000  1.000000  1.000000
 FoFCou: FMM=F IPFlag=           0 FMFlag=      100000 FMFlg1=           0
         NFxFlg=           0 DoJE=T BraDBF=F KetDBF=T FulRan=T
         wScrn=  0.000000 ICntrl=       500 IOpCl=  0 I1Cent=   200000004 NGrid=           0
         NMat0=    1 NMatS0=      1 NMatT0=    0 NMatD0=    1 NMtDS0=    0 NMtDT0=    0
 Petite list used in FoFCou.
 Initial guess orbital symmetries:
       Occupied  (E') (E') (A1') (A1') (E') (E') (A1') (E') (E')
                 (A1') (A2") (E') (E') (A2') (E") (E") (A1') (E')
                 (E') (A2") (A1') (E') (E') (A1') (E') (E') (A2")
                 (E') (E') (E") (E") (A2')
       Virtual   (A1') (A2") (E') (E') (A1') (A2") (E') (E') (E')
                 (E') (A1') (E") (E") (A2') (E') (E') (A2") (A1')
                 (E') (E')
 The electronic state of the initial guess is 1-A1'.
 Keep R1 ints in memory in symmetry-blocked form, NReq=1765289.
 Requested convergence on RMS density matrix=1.00D-08 within 128 cycles.
 Requested convergence on MAX density matrix=1.00D-06.
 Requested convergence on             energy=1.00D-06.
 No special actions if energy rises.
 SCF Done:  E(RHF) =  -1612.69608795     A.U. after   10 cycles
            NFock= 10  Conv=0.16D-08     -V/T= 2.0010

 **********************************************************************

            Population analysis using the SCF Density.

 **********************************************************************

 Orbital symmetries:
       Occupied  (E') (E') (A1') (A1') (E') (E') (A1') (E') (E')
                 (A1') (A2") (E") (E") (E') (E') (A2') (A1') (E')
                 (E') (A2") (A1') (E') (E') (A1') (E') (E') (A2")
                 (E') (E') (E") (E") (A2')
       Virtual   (A1') (A2") (E') (E') (A1') (A2") (E') (E') (E')
                 (E') (A1') (E") (E") (A2') (E') (E') (A2") (A1')
                 (E') (E')
 The electronic state is 1-A1'.
 Alpha  occ. eigenvalues -- -104.13624-104.13624-104.13622 -58.24095 -10.52858
 Alpha  occ. eigenvalues --  -10.52858 -10.52851  -7.99147  -7.99147  -7.99136
 Alpha  occ. eigenvalues --   -7.98840  -7.98814  -7.98814  -7.98805  -7.98805
 Alpha  occ. eigenvalues --   -7.98799  -5.04102  -3.34544  -3.34544  -3.34467
 Alpha  occ. eigenvalues --   -1.13285  -1.11368  -1.11368  -0.62718  -0.54982
 Alpha  occ. eigenvalues --   -0.54982  -0.52199  -0.49564  -0.49564  -0.49493
 Alpha  occ. eigenvalues --   -0.49493  -0.48359
 Alpha virt. eigenvalues --    0.01575   0.02087   0.14883   0.14883   0.23968
 Alpha virt. eigenvalues --    0.28065   0.33502   0.33502   0.72315   0.72315
 Alpha virt. eigenvalues --    0.75710   0.77256   0.77256   0.84613   0.86633
 Alpha virt. eigenvalues --    0.86633   0.88074   0.93426   1.00218   1.00218
     Molecular Orbital Coefficients:
                           1         2         3         4         5
                        (E')--O   (E')--O  (A1')--O  (A1')--O   (E')--O
     Eigenvalues --  -104.13624-104.13624-104.13622 -58.24095 -10.52858
   1 1   Al 1S         -0.00000   0.00000   0.00000   0.98853   0.00000
   2        2S         -0.00000   0.00000   0.00008   0.04414   0.00000
   3        2PX         0.00000  -0.00005   0.00000   0.00000   0.00022
   4        2PY        -0.00005   0.00000  -0.00000  -0.00000   0.00000
   5        2PZ         0.00000   0.00000   0.00000   0.00000   0.00000
   6        3S          0.00000   0.00000  -0.00011  -0.01185   0.00000
   7        3PX         0.00000  -0.00089   0.00000   0.00000   0.00520
   8        3PY        -0.00089   0.00000  -0.00000  -0.00000   0.00000
   9        3PZ         0.00000   0.00000   0.00000   0.00000   0.00000
  10        4S          0.00000   0.00000  -0.00590   0.00138   0.00000
  11        4PX         0.00000  -0.00440   0.00000   0.00000   0.02504
  12        4PY        -0.00440   0.00000  -0.00000   0.00000   0.00000
  13        4PZ         0.00000   0.00000   0.00000   0.00000   0.00000
  14 2   Cl 1S          0.80496   0.00000   0.56920  -0.00000   0.00000
  15        2S          0.04341   0.00000   0.03069  -0.00000   0.00000
  16        2PX         0.00000   0.00009   0.00000   0.00000  -0.00033
  17        2PY        -0.00018   0.00000  -0.00013   0.00007   0.00000
  18        2PZ         0.00000   0.00000   0.00000   0.00000   0.00000
  19        3S         -0.01617   0.00000  -0.01142  -0.00100   0.00000
  20        3PX         0.00000  -0.00048   0.00000   0.00000   0.00258
  21        3PY         0.00067   0.00000   0.00052  -0.00009   0.00000
  22        3PZ         0.00000   0.00000   0.00000   0.00000   0.00000
  23        4S          0.01136   0.00000   0.00786   0.00215   0.00000
  24        4PX         0.00000   0.00147   0.00000   0.00000  -0.00819
  25        4PY        -0.00206   0.00000  -0.00171  -0.00177   0.00000
  26        4PZ         0.00000   0.00000   0.00000   0.00000   0.00000
  27 3   Cl 1S         -0.40248   0.69712   0.56920  -0.00000  -0.21629
  28        2S         -0.02170   0.03759   0.03069  -0.00000   0.69487
  29        2PX         0.00012  -0.00012  -0.00012   0.00006  -0.00582
  30        2PY         0.00002   0.00012   0.00007  -0.00004   0.00317
  31        2PZ         0.00000   0.00000   0.00000   0.00000   0.00000
  32        3S          0.00808  -0.01400  -0.01142  -0.00100   0.10333
  33        3PX        -0.00050   0.00039   0.00045  -0.00007  -0.00332
  34        3PY        -0.00019  -0.00050  -0.00026   0.00004   0.00341
  35        3PZ         0.00000   0.00000   0.00000   0.00000   0.00000
  36        4S         -0.00568   0.00984   0.00786   0.00215  -0.05725
  37        4PX         0.00153  -0.00118  -0.00148  -0.00153   0.00707
  38        4PY         0.00059   0.00153   0.00085   0.00088  -0.00881
  39        4PZ         0.00000   0.00000   0.00000   0.00000   0.00000
  40 4   Cl 1S         -0.40248  -0.69712   0.56920  -0.00000   0.21629
  41        2S         -0.02170  -0.03759   0.03069  -0.00000  -0.69487
  42        2PX        -0.00012  -0.00012   0.00012  -0.00006  -0.00582
  43        2PY         0.00002  -0.00012   0.00007  -0.00004  -0.00317
  44        2PZ         0.00000   0.00000   0.00000   0.00000   0.00000
  45        3S          0.00808   0.01400  -0.01142  -0.00100  -0.10333
  46        3PX         0.00050   0.00039  -0.00045   0.00007  -0.00332
  47        3PY        -0.00019   0.00050  -0.00026   0.00004  -0.00341
  48        3PZ         0.00000   0.00000   0.00000   0.00000   0.00000
  49        4S         -0.00568  -0.00984   0.00786   0.00215   0.05725
  50        4PX        -0.00153  -0.00118   0.00148   0.00153   0.00707
  51        4PY         0.00059  -0.00153   0.00085   0.00088   0.00881
  52        4PZ         0.00000   0.00000   0.00000   0.00000   0.00000
                           6         7         8         9        10
                        (E')--O  (A1')--O   (E')--O   (E')--O  (A1')--O
     Eigenvalues --   -10.52858 -10.52851  -7.99147  -7.99147  -7.99136
   1 1   Al 1S         -0.00000   0.00001   0.00000  -0.00000   0.00010
   2        2S          0.00000  -0.00047   0.00000   0.00000  -0.00133
   3        2PX         0.00000   0.00000  -0.00057   0.00000   0.00000
   4        2PY         0.00022   0.00000   0.00000  -0.00057  -0.00000
   5        2PZ         0.00000   0.00000   0.00000   0.00000   0.00000
   6        3S         -0.00000   0.00060   0.00000   0.00000  -0.00520
   7        3PX         0.00000   0.00000  -0.00375   0.00000   0.00000
   8        3PY         0.00520   0.00000   0.00000  -0.00375  -0.00000
   9        3PZ         0.00000   0.00000   0.00000   0.00000   0.00000
  10        4S         -0.00000   0.03414   0.00000   0.00000  -0.01381
  11        4PX         0.00000   0.00000  -0.00520   0.00000   0.00000
  12        4PY         0.02504   0.00000   0.00000  -0.00520  -0.00000
  13        4PZ         0.00000   0.00000   0.00000   0.00000   0.00000
  14 2   Cl 1S         -0.24975  -0.17661   0.00000  -0.00285  -0.00202
  15        2S          0.80237   0.56739   0.00000   0.00985   0.00696
  16        2PX         0.00000   0.00000   0.00411   0.00000   0.00000
  17        2PY        -0.00765  -0.00539   0.00000   0.79476   0.56206
  18        2PZ         0.00000   0.00000   0.00000   0.00000   0.00000
  19        3S          0.11932   0.08436   0.00000  -0.00505  -0.00418
  20        3PX         0.00000   0.00000   0.00032   0.00000   0.00000
  21        3PY        -0.00529  -0.00398   0.00000   0.06727   0.04736
  22        3PZ         0.00000   0.00000   0.00000   0.00000   0.00000
  23        4S         -0.06611  -0.04590   0.00000   0.00910   0.00843
  24        4PX         0.00000   0.00000   0.00079   0.00000   0.00000
  25        4PY         0.01216   0.01007   0.00000  -0.02458  -0.01808
  26        4PZ         0.00000   0.00000   0.00000   0.00000   0.00000
  27 3   Cl 1S          0.12488  -0.17661  -0.00247   0.00142  -0.00202
  28        2S         -0.40118   0.56739   0.00853  -0.00492   0.00696
  29        2PX         0.00317  -0.00467   0.59710  -0.34236   0.48675
  30        2PY        -0.00216   0.00269  -0.34236   0.20178  -0.28103
  31        2PZ         0.00000   0.00000   0.00000   0.00000   0.00000
  32        3S         -0.05966   0.08436  -0.00437   0.00252  -0.00418
  33        3PX         0.00341  -0.00345   0.05053  -0.02899   0.04101
  34        3PY         0.00061   0.00199  -0.02899   0.01705  -0.02368
  35        3PZ         0.00000   0.00000   0.00000   0.00000   0.00000
  36        4S          0.03305  -0.04590   0.00788  -0.00455   0.00843
  37        4PX        -0.00881   0.00872  -0.01823   0.01098  -0.01566
  38        4PY        -0.00310  -0.00503   0.01098  -0.00555   0.00904
  39        4PZ         0.00000   0.00000   0.00000   0.00000   0.00000
  40 4   Cl 1S          0.12488  -0.17661   0.00247   0.00142  -0.00202
  41        2S         -0.40118   0.56739  -0.00853  -0.00492   0.00696
  42        2PX        -0.00317   0.00467   0.59710   0.34236  -0.48675
  43        2PY        -0.00216   0.00269   0.34236   0.20178  -0.28103
  44        2PZ         0.00000   0.00000   0.00000   0.00000   0.00000
  45        3S         -0.05966   0.08436   0.00437   0.00252  -0.00418
  46        3PX        -0.00341   0.00345   0.05053   0.02899  -0.04101
  47        3PY         0.00061   0.00199   0.02899   0.01705  -0.02368
  48        3PZ         0.00000   0.00000   0.00000   0.00000   0.00000
  49        4S          0.03305  -0.04590  -0.00788  -0.00455   0.00843
  50        4PX         0.00881  -0.00872  -0.01823  -0.01098   0.01566
  51        4PY        -0.00310  -0.00503  -0.01098  -0.00555   0.00904
  52        4PZ         0.00000   0.00000   0.00000   0.00000   0.00000
                          11        12        13        14        15
                       (A2")--O   (E")--O   (E")--O   (E')--O   (E')--O
     Eigenvalues --    -7.98840  -7.98814  -7.98814  -7.98805  -7.98805
   1 1   Al 1S          0.00000   0.00000   0.00000  -0.00000   0.00000
   2        2S          0.00000   0.00000   0.00000  -0.00000   0.00000
   3        2PX         0.00000   0.00000   0.00000   0.00000  -0.00006
   4        2PY         0.00000   0.00000   0.00000  -0.00006   0.00000
   5        2PZ         0.00018   0.00000   0.00000   0.00000   0.00000
   6        3S          0.00000   0.00000   0.00000  -0.00000   0.00000
   7        3PX         0.00000   0.00000   0.00000   0.00000   0.00100
   8        3PY         0.00000   0.00000   0.00000   0.00100   0.00000
   9        3PZ        -0.00064   0.00000  -0.00000   0.00000   0.00000
  10        4S          0.00000   0.00000   0.00000  -0.00000   0.00000
  11        4PX         0.00000   0.00000   0.00000   0.00000   0.01414
  12        4PY         0.00000   0.00000   0.00000   0.01414   0.00000
  13        4PZ         0.00929   0.00000   0.00000   0.00000   0.00000
  14 2   Cl 1S          0.00000   0.00000   0.00000   0.00011   0.00000
  15        2S          0.00000   0.00000   0.00000  -0.00050   0.00000
  16        2PX         0.00000   0.00000   0.00000   0.00000   0.79533
  17        2PY         0.00000   0.00000   0.00000  -0.00412   0.00000
  18        2PZ         0.56234   0.00000   0.79557   0.00000   0.00000
  19        3S          0.00000   0.00000   0.00000   0.00430   0.00000
  20        3PX         0.00000   0.00000   0.00000   0.00000   0.06554
  21        3PY         0.00000   0.00000   0.00000  -0.00048   0.00000
  22        3PZ         0.04654   0.00000   0.06425   0.00000   0.00000
  23        4S          0.00000   0.00000   0.00000  -0.01159   0.00000
  24        4PX         0.00000   0.00000   0.00000   0.00000  -0.02306
  25        4PY         0.00000   0.00000   0.00000   0.00266   0.00000
  26        4PZ        -0.01639   0.00000  -0.01873   0.00000   0.00000
  27 3   Cl 1S          0.00000   0.00000   0.00000  -0.00006   0.00010
  28        2S          0.00000   0.00000   0.00000   0.00025  -0.00043
  29        2PX         0.00000   0.00000   0.00000   0.34617   0.19575
  30        2PY         0.00000   0.00000   0.00000   0.59547   0.34617
  31        2PZ         0.56234   0.68898  -0.39778   0.00000   0.00000
  32        3S          0.00000   0.00000   0.00000  -0.00215   0.00372
  33        3PX         0.00000   0.00000   0.00000   0.02859   0.01602
  34        3PY         0.00000   0.00000   0.00000   0.04904   0.02859
  35        3PZ         0.04654   0.05565  -0.03213   0.00000   0.00000
  36        4S          0.00000   0.00000   0.00000   0.00579  -0.01004
  37        4PX         0.00000   0.00000   0.00000  -0.01114  -0.00377
  38        4PY         0.00000   0.00000   0.00000  -0.01663  -0.01114
  39        4PZ        -0.01639  -0.01622   0.00936   0.00000   0.00000
  40 4   Cl 1S          0.00000   0.00000   0.00000  -0.00006  -0.00010
  41        2S          0.00000   0.00000   0.00000   0.00025   0.00043
  42        2PX         0.00000   0.00000   0.00000  -0.34617   0.19575
  43        2PY         0.00000   0.00000   0.00000   0.59547  -0.34617
  44        2PZ         0.56234  -0.68898  -0.39778   0.00000   0.00000
  45        3S          0.00000   0.00000   0.00000  -0.00215  -0.00372
  46        3PX         0.00000   0.00000   0.00000  -0.02859   0.01602
  47        3PY         0.00000   0.00000   0.00000   0.04904  -0.02859
  48        3PZ         0.04654  -0.05565  -0.03213   0.00000   0.00000
  49        4S          0.00000   0.00000   0.00000   0.00579   0.01004
  50        4PX         0.00000   0.00000   0.00000   0.01114  -0.00377
  51        4PY         0.00000   0.00000   0.00000  -0.01663   0.01114
  52        4PZ        -0.01639   0.01622   0.00936   0.00000   0.00000
                          16        17        18        19        20
                       (A2')--O  (A1')--O   (E')--O   (E')--O  (A2")--O
     Eigenvalues --    -7.98799  -5.04102  -3.34544  -3.34544  -3.34467
   1 1   Al 1S          0.00000  -0.28411   0.00000   0.00000   0.00000
   2        2S          0.00000   1.01105   0.00000  -0.00000   0.00000
   3        2PX        -0.00000   0.00000   0.97751   0.00000   0.00000
   4        2PY         0.00000  -0.00000   0.00000   0.97751   0.00000
   5        2PZ         0.00000   0.00000   0.00000   0.00000   0.97964
   6        3S          0.00000   0.09488   0.00000  -0.00000   0.00000
   7        3PX         0.00000   0.00000   0.09543   0.00000   0.00000
   8        3PY         0.00000   0.00000   0.00000   0.09543   0.00000
   9        3PZ         0.00000   0.00000   0.00000   0.00000   0.08262
  10        4S          0.00000  -0.02640   0.00000   0.00000   0.00000
  11        4PX         0.00000   0.00000  -0.02405   0.00000   0.00000
  12        4PY         0.00000   0.00000   0.00000  -0.02405   0.00000
  13        4PZ         0.00000   0.00000   0.00000   0.00000  -0.02901
  14 2   Cl 1S          0.00000   0.00001   0.00000   0.00012   0.00000
  15        2S          0.00000   0.00010   0.00000  -0.00033   0.00000
  16        2PX         0.56246   0.00000  -0.00016   0.00000   0.00000
  17        2PY         0.00000  -0.00007   0.00000   0.00037   0.00000
  18        2PZ         0.00000   0.00000   0.00000   0.00000   0.00007
  19        3S          0.00000   0.00219   0.00000   0.00067   0.00000
  20        3PX         0.04595   0.00000   0.00062   0.00000   0.00000
  21        3PY         0.00000   0.00005   0.00000   0.00157   0.00000
  22        3PZ         0.00000   0.00000   0.00000   0.00000  -0.00050
  23        4S          0.00000  -0.00477   0.00000  -0.00697   0.00000
  24        4PX        -0.01426   0.00000  -0.00299   0.00000   0.00000
  25        4PY         0.00000   0.00818   0.00000   0.01350   0.00000
  26        4PZ         0.00000   0.00000   0.00000   0.00000   0.00040
  27 3   Cl 1S          0.00000   0.00001   0.00010  -0.00006   0.00000
  28        2S         -0.00000   0.00010  -0.00029   0.00017   0.00000
  29        2PX        -0.28123  -0.00006   0.00024  -0.00023   0.00000
  30        2PY        -0.48710   0.00003  -0.00023  -0.00003   0.00000
  31        2PZ         0.00000   0.00000   0.00000   0.00000   0.00007
  32        3S          0.00000   0.00219   0.00058  -0.00034   0.00000
  33        3PX        -0.02297   0.00005   0.00133  -0.00041   0.00000
  34        3PY        -0.03979  -0.00003  -0.00041   0.00085   0.00000
  35        3PZ         0.00000   0.00000   0.00000   0.00000  -0.00050
  36        4S         -0.00000  -0.00477  -0.00603   0.00348   0.00000
  37        4PX         0.00713   0.00709   0.00937  -0.00714   0.00000
  38        4PY         0.01235  -0.00409  -0.00714   0.00113   0.00000
  39        4PZ         0.00000   0.00000   0.00000   0.00000   0.00040
  40 4   Cl 1S         -0.00000   0.00001  -0.00010  -0.00006   0.00000
  41        2S          0.00000   0.00010   0.00029   0.00017   0.00000
  42        2PX        -0.28123   0.00006   0.00024   0.00023   0.00000
  43        2PY         0.48710   0.00003   0.00023  -0.00003   0.00000
  44        2PZ         0.00000   0.00000   0.00000   0.00000   0.00007
  45        3S         -0.00000   0.00219  -0.00058  -0.00034   0.00000
  46        3PX        -0.02297  -0.00005   0.00133   0.00041   0.00000
  47        3PY         0.03979  -0.00003   0.00041   0.00085   0.00000
  48        3PZ         0.00000   0.00000   0.00000   0.00000  -0.00050
  49        4S          0.00000  -0.00477   0.00603   0.00348   0.00000
  50        4PX         0.00713  -0.00709   0.00937   0.00714   0.00000
  51        4PY        -0.01235  -0.00409   0.00714   0.00113   0.00000
  52        4PZ         0.00000   0.00000   0.00000   0.00000   0.00040
                          21        22        23        24        25
                       (A1')--O   (E')--O   (E')--O  (A1')--O   (E')--O
     Eigenvalues --    -1.13285  -1.11368  -1.11368  -0.62718  -0.54982
   1 1   Al 1S          0.01899  -0.00000   0.00000   0.04305  -0.00000
   2        2S         -0.08913   0.00000   0.00000  -0.20493   0.00000
   3        2PX         0.00000   0.00000  -0.05577   0.00000   0.00000
   4        2PY        -0.00000  -0.05577   0.00000   0.00000   0.12458
   5        2PZ         0.00000   0.00000   0.00000   0.00000   0.00000
   6        3S          0.13397  -0.00000   0.00000   0.39113  -0.00000
   7        3PX         0.00000   0.00000   0.07724   0.00000   0.00000
   8        3PY         0.00000   0.07724   0.00000  -0.00000  -0.27941
   9        3PZ         0.00000   0.00000   0.00000   0.00000   0.00000
  10        4S         -0.05056   0.00000   0.00000   0.05114   0.00000
  11        4PX         0.00000   0.00000  -0.04722   0.00000   0.00000
  12        4PY        -0.00000  -0.04722   0.00000   0.00000  -0.00855
  13        4PZ         0.00000   0.00000   0.00000   0.00000   0.00000
  14 2   Cl 1S          0.04402   0.06451   0.00000  -0.01496   0.01165
  15        2S         -0.25879  -0.37950   0.00000   0.09006  -0.07075
  16        2PX         0.00000   0.00000  -0.00164   0.00000   0.00000
  17        2PY         0.02330   0.02705   0.00000   0.12363  -0.17352
  18        2PZ         0.00000   0.00000   0.00000   0.00000   0.00000
  19        3S          0.31408   0.46286   0.00000  -0.13119   0.09942
  20        3PX         0.00000   0.00000   0.00262   0.00000   0.00000
  21        3PY        -0.04579  -0.05245   0.00000  -0.26235   0.37045
  22        3PZ         0.00000   0.00000   0.00000   0.00000   0.00000
  23        4S          0.30525   0.44759   0.00000  -0.10379   0.11141
  24        4PX         0.00000   0.00000   0.00765   0.00000   0.00000
  25        4PY        -0.04518  -0.05157   0.00000  -0.19947   0.26891
  26        4PZ         0.00000   0.00000   0.00000   0.00000   0.00000
  27 3   Cl 1S          0.04402  -0.03225   0.05587  -0.01496  -0.00583
  28        2S         -0.25879   0.18975  -0.32866   0.09006   0.03537
  29        2PX         0.02018  -0.01242   0.01987   0.10706   0.12409
  30        2PY        -0.01165   0.00553  -0.01242  -0.06181   0.04142
  31        2PZ         0.00000   0.00000   0.00000   0.00000   0.00000
  32        3S          0.31408  -0.23143   0.40085  -0.13119  -0.04971
  33        3PX        -0.03966   0.02385  -0.03869  -0.22720  -0.26659
  34        3PY         0.02290  -0.01115   0.02385   0.13118  -0.09130
  35        3PZ         0.00000   0.00000   0.00000   0.00000   0.00000
  36        4S          0.30525  -0.22379   0.38762  -0.10379  -0.05571
  37        4PX        -0.03913   0.02564  -0.03677  -0.17275  -0.20154
  38        4PY         0.02259  -0.00716   0.02564   0.09974  -0.08017
  39        4PZ         0.00000   0.00000   0.00000   0.00000   0.00000
  40 4   Cl 1S          0.04402  -0.03225  -0.05587  -0.01496  -0.00583
  41        2S         -0.25879   0.18975   0.32866   0.09006   0.03537
  42        2PX        -0.02018   0.01242   0.01987  -0.10706  -0.12409
  43        2PY        -0.01165   0.00553   0.01242  -0.06181   0.04142
  44        2PZ         0.00000   0.00000   0.00000   0.00000   0.00000
  45        3S          0.31408  -0.23143  -0.40085  -0.13119  -0.04971
  46        3PX         0.03966  -0.02385  -0.03869   0.22720   0.26659
  47        3PY         0.02290  -0.01115  -0.02385   0.13118  -0.09130
  48        3PZ         0.00000   0.00000   0.00000   0.00000   0.00000
  49        4S          0.30525  -0.22379  -0.38762  -0.10379  -0.05571
  50        4PX         0.03913  -0.02564  -0.03677   0.17275   0.20154
  51        4PY         0.02259  -0.00716  -0.02564   0.09974  -0.08017
  52        4PZ         0.00000   0.00000   0.00000   0.00000   0.00000
                          26        27        28        29        30
                        (E')--O  (A2")--O   (E')--O   (E')--O   (E")--O
     Eigenvalues --    -0.54982  -0.52199  -0.49564  -0.49564  -0.49493
   1 1   Al 1S          0.00000   0.00000  -0.00000   0.00000   0.00000
   2        2S          0.00000   0.00000   0.00000   0.00000   0.00000
   3        2PX        -0.12458   0.00000   0.00000   0.03562   0.00000
   4        2PY         0.00000   0.00000   0.03562   0.00000   0.00000
   5        2PZ         0.00000  -0.06926   0.00000   0.00000   0.00000
   6        3S          0.00000   0.00000  -0.00000   0.00000   0.00000
   7        3PX         0.27941   0.00000   0.00000  -0.06557   0.00000
   8        3PY         0.00000   0.00000  -0.06557   0.00000   0.00000
   9        3PZ         0.00000   0.14763   0.00000   0.00000  -0.00000
  10        4S          0.00000   0.00000  -0.00000   0.00000   0.00000
  11        4PX         0.00855   0.00000   0.00000   0.11640   0.00000
  12        4PY         0.00000   0.00000   0.11640   0.00000   0.00000
  13        4PZ         0.00000   0.07767   0.00000   0.00000  -0.00000
  14 2   Cl 1S          0.00000   0.00000   0.00441   0.00000   0.00000
  15        2S          0.00000   0.00000  -0.02634   0.00000   0.00000
  16        2PX        -0.11306   0.00000   0.00000  -0.19099   0.00000
  17        2PY         0.00000   0.00000  -0.12238   0.00000   0.00000
  18        2PZ         0.00000  -0.15162   0.00000   0.00000  -0.22672
  19        3S          0.00000   0.00000   0.07116   0.00000   0.00000
  20        3PX         0.24522   0.00000   0.00000   0.41527   0.00000
  21        3PY         0.00000   0.00000   0.25941   0.00000   0.00000
  22        3PZ         0.00000   0.32922   0.00000   0.00000   0.48832
  23        4S          0.00000   0.00000  -0.06770   0.00000   0.00000
  24        4PX         0.19653   0.00000   0.00000   0.34788   0.00000
  25        4PY         0.00000   0.00000   0.25156   0.00000   0.00000
  26        4PZ         0.00000   0.26783   0.00000   0.00000   0.44286
  27 3   Cl 1S         -0.01009   0.00000  -0.00220   0.00381   0.00000
  28        2S          0.06127   0.00000   0.01317  -0.02281   0.00000
  29        2PX         0.10187   0.00000  -0.02971  -0.13953   0.00000
  30        2PY        -0.12409   0.00000  -0.17384  -0.02971   0.00000
  31        2PZ         0.00000  -0.15162   0.00000   0.00000   0.11336
  32        3S         -0.08610   0.00000  -0.03558   0.06162   0.00000
  33        3PX        -0.21653   0.00000   0.06749   0.29838   0.00000
  34        3PY         0.26659   0.00000   0.37630   0.06749   0.00000
  35        3PZ         0.00000   0.32922   0.00000   0.00000  -0.24416
  36        4S         -0.09649   0.00000   0.03385  -0.05863   0.00000
  37        4PX        -0.15255   0.00000   0.04171   0.27564   0.00000
  38        4PY         0.20154   0.00000   0.32380   0.04171   0.00000
  39        4PZ         0.00000   0.26783   0.00000   0.00000  -0.22143
  40 4   Cl 1S          0.01009   0.00000  -0.00220  -0.00381   0.00000
  41        2S         -0.06127   0.00000   0.01317   0.02281   0.00000
  42        2PX         0.10187   0.00000   0.02971  -0.13953   0.00000
  43        2PY         0.12409   0.00000  -0.17384   0.02971   0.00000
  44        2PZ         0.00000  -0.15162   0.00000   0.00000   0.11336
  45        3S          0.08610   0.00000  -0.03558  -0.06162   0.00000
  46        3PX        -0.21653   0.00000  -0.06749   0.29838   0.00000
  47        3PY        -0.26659   0.00000   0.37630  -0.06749   0.00000
  48        3PZ         0.00000   0.32922   0.00000   0.00000  -0.24416
  49        4S          0.09649   0.00000   0.03385   0.05863   0.00000
  50        4PX        -0.15255   0.00000  -0.04171   0.27564   0.00000
  51        4PY        -0.20154   0.00000   0.32380  -0.04171   0.00000
  52        4PZ         0.00000   0.26783   0.00000   0.00000  -0.22143
                          31        32        33        34        35
                        (E")--O  (A2')--O  (A1')--V  (A2")--V   (E')--V
     Eigenvalues --    -0.49493  -0.48359   0.01575   0.02087   0.14883
   1 1   Al 1S          0.00000   0.00000   0.04380   0.00000   0.00000
   2        2S          0.00000   0.00000  -0.25086   0.00000  -0.00000
   3        2PX         0.00000  -0.00000   0.00000   0.00000   0.00000
   4        2PY         0.00000   0.00000  -0.00000   0.00000  -0.10983
   5        2PZ         0.00000   0.00000   0.00000  -0.18632   0.00000
   6        3S          0.00000   0.00000   0.24848   0.00000  -0.00000
   7        3PX         0.00000   0.00000   0.00000   0.00000   0.00000
   8        3PY         0.00000   0.00000  -0.00000   0.00000   0.26899
   9        3PZ         0.00000   0.00000   0.00000   0.45871   0.00000
  10        4S          0.00000   0.00000   1.43325   0.00000  -0.00000
  11        4PX         0.00000   0.00000   0.00000   0.00000   0.00000
  12        4PY         0.00000   0.00000  -0.00000   0.00000   1.61509
  13        4PZ         0.00000   0.00000   0.00000   0.77078   0.00000
  14 2   Cl 1S          0.00000   0.00000  -0.01375   0.00000  -0.01754
  15        2S          0.00000   0.00000   0.08596   0.00000   0.11175
  16        2PX         0.00000  -0.16437   0.00000   0.00000   0.00000
  17        2PY         0.00000   0.00000  -0.09846   0.00000  -0.05047
  18        2PZ         0.00000   0.00000   0.00000   0.07049   0.00000
  19        3S          0.00000   0.00000  -0.07202   0.00000  -0.05629
  20        3PX         0.00000   0.35748   0.00000   0.00000   0.00000
  21        3PY         0.00000   0.00000   0.20988   0.00000   0.10094
  22        3PZ         0.00000   0.00000   0.00000  -0.15237   0.00000
  23        4S          0.00000   0.00000  -0.43191   0.00000  -0.90719
  24        4PX         0.00000   0.30863   0.00000   0.00000   0.00000
  25        4PY         0.00000   0.00000   0.39831   0.00000   0.40854
  26        4PZ         0.00000   0.00000   0.00000  -0.25209   0.00000
  27 3   Cl 1S          0.00000  -0.00000  -0.01375   0.00000   0.00877
  28        2S          0.00000   0.00000   0.08596   0.00000  -0.05587
  29        2PX         0.00000   0.08218  -0.08527   0.00000   0.05688
  30        2PY         0.00000   0.14235   0.04923   0.00000   0.04805
  31        2PZ        -0.19634   0.00000   0.00000   0.07049   0.00000
  32        3S          0.00000  -0.00000  -0.07202   0.00000   0.02814
  33        3PX         0.00000  -0.17874   0.18176   0.00000  -0.12111
  34        3PY         0.00000  -0.30959  -0.10494   0.00000  -0.10882
  35        3PZ         0.42290   0.00000   0.00000  -0.15237   0.00000
  36        4S          0.00000  -0.00000  -0.43191   0.00000   0.45359
  37        4PX         0.00000  -0.15431   0.34494   0.00000  -0.32581
  38        4PY         0.00000  -0.26728  -0.19915   0.00000  -0.15579
  39        4PZ         0.38353   0.00000   0.00000  -0.25209   0.00000
  40 4   Cl 1S          0.00000   0.00000  -0.01375   0.00000   0.00877
  41        2S          0.00000  -0.00000   0.08596   0.00000  -0.05587
  42        2PX         0.00000   0.08218   0.08527   0.00000  -0.05688
  43        2PY         0.00000  -0.14235   0.04923   0.00000   0.04805
  44        2PZ         0.19634   0.00000   0.00000   0.07049   0.00000
  45        3S          0.00000   0.00000  -0.07202   0.00000   0.02814
  46        3PX         0.00000  -0.17874  -0.18176   0.00000   0.12111
  47        3PY         0.00000   0.30959  -0.10494   0.00000  -0.10882
  48        3PZ        -0.42290   0.00000   0.00000  -0.15237   0.00000
  49        4S          0.00000   0.00000  -0.43191   0.00000   0.45359
  50        4PX         0.00000  -0.15431  -0.34494   0.00000   0.32581
  51        4PY         0.00000   0.26728  -0.19915   0.00000  -0.15579
  52        4PZ        -0.38353   0.00000   0.00000  -0.25209   0.00000
                          36        37        38        39        40
                        (E')--V  (A1')--V  (A2")--V   (E')--V   (E')--V
     Eigenvalues --     0.14883   0.23968   0.28065   0.33502   0.33502
   1 1   Al 1S          0.00000  -0.05859   0.00000   0.00000  -0.00000
   2        2S          0.00000   0.11055   0.00000   0.00000   0.00000
   3        2PX        -0.10983   0.00000   0.00000  -0.33436   0.00000
   4        2PY         0.00000   0.00000   0.00000   0.00000  -0.33436
   5        2PZ         0.00000   0.00000  -0.29006   0.00000   0.00000
   6        3S          0.00000  -1.85620   0.00000   0.00000  -0.00000
   7        3PX         0.26899   0.00000   0.00000   1.58908   0.00000
   8        3PY         0.00000  -0.00000   0.00000   0.00000   1.58908
   9        3PZ         0.00000   0.00000   1.30372   0.00000   0.00000
  10        4S          0.00000   1.97580   0.00000   0.00000   0.00000
  11        4PX         1.61509   0.00000   0.00000  -1.13609   0.00000
  12        4PY         0.00000   0.00000   0.00000   0.00000  -1.13609
  13        4PZ         0.00000   0.00000  -1.29339   0.00000   0.00000
  14 2   Cl 1S          0.00000  -0.00065   0.00000   0.00000  -0.00588
  15        2S          0.00000   0.00502   0.00000   0.00000   0.03765
  16        2PX         0.08089   0.00000   0.00000   0.00872   0.00000
  17        2PY         0.00000   0.05553   0.00000   0.00000  -0.07912
  18        2PZ         0.00000   0.00000  -0.00709   0.00000   0.00000
  19        3S          0.00000   0.02698   0.00000   0.00000  -0.04904
  20        3PX        -0.17874   0.00000   0.00000  -0.02535   0.00000
  21        3PY         0.00000  -0.13207   0.00000   0.00000   0.17046
  22        3PZ         0.00000   0.00000   0.01438   0.00000   0.00000
  23        4S          0.00000  -0.31380   0.00000   0.00000   0.11588
  24        4PX        -0.34390   0.00000   0.00000   0.06012   0.00000
  25        4PY         0.00000  -0.03868   0.00000   0.00000   0.45355
  26        4PZ         0.00000   0.00000   0.10074   0.00000   0.00000
  27 3   Cl 1S         -0.01519  -0.00065   0.00000  -0.00509   0.00294
  28        2S          0.09678   0.00502   0.00000   0.03260  -0.01882
  29        2PX        -0.01763   0.04809   0.00000  -0.05716   0.03804
  30        2PY         0.05688  -0.02776   0.00000   0.03804  -0.01324
  31        2PZ         0.00000   0.00000  -0.00709   0.00000   0.00000
  32        3S         -0.04875   0.02698   0.00000  -0.04247   0.02452
  33        3PX         0.03102  -0.11438   0.00000   0.12150  -0.08479
  34        3PY        -0.12111   0.06604   0.00000  -0.08479   0.02360
  35        3PZ         0.00000   0.00000   0.01438   0.00000   0.00000
  36        4S         -0.78565  -0.31380   0.00000   0.10035  -0.05794
  37        4PX         0.22043  -0.03349   0.00000   0.35520  -0.17036
  38        4PY        -0.32581   0.01934   0.00000  -0.17036   0.15848
  39        4PZ         0.00000   0.00000   0.10074   0.00000   0.00000
  40 4   Cl 1S          0.01519  -0.00065   0.00000   0.00509   0.00294
  41        2S         -0.09678   0.00502   0.00000  -0.03260  -0.01882
  42        2PX        -0.01763  -0.04809   0.00000  -0.05716  -0.03804
  43        2PY        -0.05688  -0.02776   0.00000  -0.03804  -0.01324
  44        2PZ         0.00000   0.00000  -0.00709   0.00000   0.00000
  45        3S          0.04875   0.02698   0.00000   0.04247   0.02452
  46        3PX         0.03102   0.11438   0.00000   0.12150   0.08479
  47        3PY         0.12111   0.06604   0.00000   0.08479   0.02360
  48        3PZ         0.00000   0.00000   0.01438   0.00000   0.00000
  49        4S          0.78565  -0.31380   0.00000  -0.10035  -0.05794
  50        4PX         0.22043   0.03349   0.00000   0.35520   0.17036
  51        4PY         0.32581   0.01934   0.00000   0.17036   0.15848
  52        4PZ         0.00000   0.00000   0.10074   0.00000   0.00000
                          41        42        43        44        45
                        (E')--V   (E')--V  (A1')--V   (E")--V   (E")--V
     Eigenvalues --     0.72315   0.72315   0.75710   0.77256   0.77256
   1 1   Al 1S          0.00000  -0.00000  -0.00140   0.00000   0.00000
   2        2S          0.00000  -0.00000   0.06775   0.00000   0.00000
   3        2PX         0.00882   0.00000   0.00000   0.00000   0.00000
   4        2PY         0.00000   0.00882   0.00000   0.00000   0.00000
   5        2PZ         0.00000   0.00000   0.00000   0.00000   0.00000
   6        3S          0.00000  -0.00000   0.41565   0.00000   0.00000
   7        3PX         0.01869   0.00000   0.00000   0.00000   0.00000
   8        3PY         0.00000   0.01869  -0.00000   0.00000   0.00000
   9        3PZ         0.00000   0.00000   0.00000  -0.00000   0.00000
  10        4S          0.00000   0.00000  -0.44404   0.00000   0.00000
  11        4PX        -0.13172   0.00000   0.00000   0.00000   0.00000
  12        4PY         0.00000  -0.13172   0.00000   0.00000   0.00000
  13        4PZ         0.00000   0.00000   0.00000   0.00000   0.00000
  14 2   Cl 1S          0.00000  -0.04034  -0.02629   0.00000   0.00000
  15        2S          0.00000   0.24650   0.16075   0.00000   0.00000
  16        2PX        -0.16331   0.00000   0.00000   0.00000   0.00000
  17        2PY         0.00000   0.12320   0.15210   0.00000   0.00000
  18        2PZ         0.00000   0.00000   0.00000  -0.28837   0.00000
  19        3S          0.00000  -1.09189  -0.71555   0.00000   0.00000
  20        3PX         0.56064   0.00000   0.00000   0.00000   0.00000
  21        3PY         0.00000  -0.42551  -0.53219   0.00000   0.00000
  22        3PZ         0.00000   0.00000   0.00000   1.00749   0.00000
  23        4S          0.00000   1.09814   0.74949   0.00000   0.00000
  24        4PX        -0.49753   0.00000   0.00000   0.00000   0.00000
  25        4PY         0.00000   0.38432   0.51167   0.00000   0.00000
  26        4PZ         0.00000   0.00000   0.00000  -0.97715   0.00000
  27 3   Cl 1S         -0.03494   0.02017  -0.02629   0.00000   0.00000
  28        2S          0.21347  -0.12325   0.16075   0.00000   0.00000
  29        2PX         0.05158  -0.12406   0.13172   0.00000   0.00000
  30        2PY        -0.12406  -0.09168  -0.07605   0.00000   0.00000
  31        2PZ         0.00000   0.00000   0.00000   0.14419  -0.24974
  32        3S         -0.94561   0.54595  -0.71555   0.00000   0.00000
  33        3PX        -0.17897   0.42702  -0.46089   0.00000   0.00000
  34        3PY         0.42702   0.31410   0.26609   0.00000   0.00000
  35        3PZ         0.00000   0.00000   0.00000  -0.50374   0.87251
  36        4S          0.95102  -0.54907   0.74949   0.00000   0.00000
  37        4PX         0.16386  -0.38185   0.44312   0.00000   0.00000
  38        4PY        -0.38185  -0.27706  -0.25584   0.00000   0.00000
  39        4PZ         0.00000   0.00000   0.00000   0.48858  -0.84624
  40 4   Cl 1S          0.03494   0.02017  -0.02629   0.00000   0.00000
  41        2S         -0.21347  -0.12325   0.16075   0.00000   0.00000
  42        2PX         0.05158   0.12406  -0.13172   0.00000   0.00000
  43        2PY         0.12406  -0.09168  -0.07605   0.00000   0.00000
  44        2PZ         0.00000   0.00000   0.00000   0.14419   0.24974
  45        3S          0.94561   0.54595  -0.71555   0.00000   0.00000
  46        3PX        -0.17897  -0.42702   0.46089   0.00000   0.00000
  47        3PY        -0.42702   0.31410   0.26609   0.00000   0.00000
  48        3PZ         0.00000   0.00000   0.00000  -0.50374  -0.87251
  49        4S         -0.95102  -0.54907   0.74949   0.00000   0.00000
  50        4PX         0.16386   0.38185  -0.44312   0.00000   0.00000
  51        4PY         0.38185  -0.27706  -0.25584   0.00000   0.00000
  52        4PZ         0.00000   0.00000   0.00000   0.48858   0.84624
                          46        47        48        49        50
                       (A2')--V   (E')--V   (E')--V  (A2")--V  (A1')--V
     Eigenvalues --     0.84613   0.86633   0.86633   0.88074   0.93426
   1 1   Al 1S          0.00000   0.00000   0.00000   0.00000  -0.01114
   2        2S          0.00000   0.00000  -0.00000   0.00000   0.04054
   3        2PX         0.00000   0.01195   0.00000   0.00000   0.00000
   4        2PY         0.00000   0.00000   0.01195   0.00000   0.00000
   5        2PZ         0.00000   0.00000   0.00000  -0.00359   0.00000
   6        3S          0.00000   0.00000   0.00000   0.00000  -0.44069
   7        3PX         0.00000   0.30972   0.00000   0.00000   0.00000
   8        3PY         0.00000   0.00000   0.30972   0.00000   0.00000
   9        3PZ         0.00000   0.00000   0.00000   0.01811   0.00000
  10        4S          0.00000   0.00000   0.00000   0.00000  -1.51930
  11        4PX        -0.00000  -0.30995   0.00000   0.00000   0.00000
  12        4PY         0.00000   0.00000  -0.30995   0.00000   0.00000
  13        4PZ         0.00000   0.00000   0.00000  -0.60621   0.00000
  14 2   Cl 1S          0.00000   0.00000   0.00367   0.00000  -0.03122
  15        2S          0.00000   0.00000  -0.02201   0.00000   0.18773
  16        2PX         0.20314   0.16788   0.00000   0.00000   0.00000
  17        2PY         0.00000   0.00000   0.23837   0.00000  -0.13322
  18        2PZ         0.00000   0.00000   0.00000   0.20295   0.00000
  19        3S          0.00000   0.00000   0.12899   0.00000  -1.08518
  20        3PX        -0.72130  -0.60054   0.00000   0.00000   0.00000
  21        3PY         0.00000   0.00000  -0.85951   0.00000   0.51993
  22        3PZ         0.00000   0.00000   0.00000  -0.73578   0.00000
  23        4S          0.00000   0.00000  -0.08902   0.00000   1.53241
  24        4PX         0.73606   0.64687   0.00000   0.00000   0.00000
  25        4PY         0.00000   0.00000   0.97238   0.00000  -0.89987
  26        4PZ         0.00000   0.00000   0.00000   0.86344   0.00000
  27 3   Cl 1S         -0.00000   0.00318  -0.00184   0.00000  -0.03122
  28        2S          0.00000  -0.01906   0.01100   0.00000   0.18773
  29        2PX        -0.10157   0.22075  -0.03052   0.00000  -0.11538
  30        2PY        -0.17593  -0.03052   0.18550   0.00000   0.06661
  31        2PZ         0.00000   0.00000   0.00000   0.20295   0.00000
  32        3S         -0.00000   0.11171  -0.06449   0.00000  -1.08518
  33        3PX         0.36065  -0.79477   0.11214   0.00000   0.45027
  34        3PY         0.62467   0.11214  -0.66528   0.00000  -0.25996
  35        3PZ         0.00000   0.00000   0.00000  -0.73578   0.00000
  36        4S          0.00000  -0.07710   0.04451   0.00000   1.53241
  37        4PX        -0.36803   0.89101  -0.14095   0.00000  -0.77931
  38        4PY        -0.63745  -0.14095   0.72825   0.00000   0.44994
  39        4PZ         0.00000   0.00000   0.00000   0.86344   0.00000
  40 4   Cl 1S          0.00000  -0.00318  -0.00184   0.00000  -0.03122
  41        2S         -0.00000   0.01906   0.01100   0.00000   0.18773
  42        2PX        -0.10157   0.22075   0.03052   0.00000   0.11538
  43        2PY         0.17593   0.03052   0.18550   0.00000   0.06661
  44        2PZ         0.00000   0.00000   0.00000   0.20295   0.00000
  45        3S          0.00000  -0.11171  -0.06449   0.00000  -1.08518
  46        3PX         0.36065  -0.79477  -0.11214   0.00000  -0.45027
  47        3PY        -0.62467  -0.11214  -0.66528   0.00000  -0.25996
  48        3PZ         0.00000   0.00000   0.00000  -0.73578   0.00000
  49        4S         -0.00000   0.07710   0.04451   0.00000   1.53241
  50        4PX        -0.36803   0.89101   0.14095   0.00000   0.77931
  51        4PY         0.63745   0.14095   0.72825   0.00000   0.44994
  52        4PZ         0.00000   0.00000   0.00000   0.86344   0.00000
                          51        52
                        (E')--V   (E')--V
     Eigenvalues --     1.00218   1.00218
   1 1   Al 1S          0.00000  -0.00000
   2        2S          0.00000   0.00000
   3        2PX         0.03230   0.00000
   4        2PY         0.00000   0.03230
   5        2PZ         0.00000   0.00000
   6        3S          0.00000  -0.00000
   7        3PX        -0.47858   0.00000
   8        3PY         0.00000  -0.47858
   9        3PZ         0.00000   0.00000
  10        4S          0.00000  -0.00000
  11        4PX        -1.36745   0.00000
  12        4PY         0.00000  -1.36745
  13        4PZ         0.00000   0.00000
  14 2   Cl 1S          0.00000  -0.04179
  15        2S          0.00000   0.25065
  16        2PX         0.16476   0.00000
  17        2PY         0.00000  -0.11518
  18        2PZ         0.00000   0.00000
  19        3S          0.00000  -1.48208
  20        3PX        -0.63270   0.00000
  21        3PY         0.00000   0.45535
  22        3PZ         0.00000   0.00000
  23        4S          0.00000   2.28508
  24        4PX         0.96405   0.00000
  25        4PY         0.00000  -0.91523
  26        4PZ         0.00000   0.00000
  27 3   Cl 1S         -0.03619   0.02090
  28        2S          0.21707  -0.12532
  29        2PX        -0.04519   0.12122
  30        2PY         0.12122   0.09478
  31        2PZ         0.00000   0.00000
  32        3S         -1.28352   0.74104
  33        3PX         0.18334  -0.47114
  34        3PY        -0.47114  -0.36069
  35        3PZ         0.00000   0.00000
  36        4S          1.97894  -1.14254
  37        4PX        -0.44541   0.81375
  38        4PY         0.81375   0.49423
  39        4PZ         0.00000   0.00000
  40 4   Cl 1S          0.03619   0.02090
  41        2S         -0.21707  -0.12532
  42        2PX        -0.04519  -0.12122
  43        2PY        -0.12122   0.09478
  44        2PZ         0.00000   0.00000
  45        3S          1.28352   0.74104
  46        3PX         0.18334   0.47114
  47        3PY         0.47114  -0.36069
  48        3PZ         0.00000   0.00000
  49        4S         -1.97894  -1.14254
  50        4PX        -0.44541  -0.81375
  51        4PY        -0.81375   0.49423
  52        4PZ         0.00000   0.00000
     Density Matrix:
                           1         2         3         4         5
   1 1   Al 1S          2.12024
   2        2S         -0.50825   2.14821
   3        2PX        -0.00000   0.00000   1.95083
   4        2PY         0.00000  -0.00000  -0.00000   1.95083
   5        2PZ         0.00000  -0.00000  -0.00000  -0.00000   1.92898
   6        3S         -0.03857   0.00663   0.00000  -0.00000  -0.00000
   7        3PX         0.00000  -0.00000   0.10367   0.00000   0.00000
   8        3PY        -0.00000   0.00000   0.00000   0.10367  -0.00000
   9        3PZ        -0.00000   0.00000   0.00000  -0.00000   0.14142
  10        4S          0.02021  -0.06520  -0.00000   0.00000   0.00000
  11        4PX         0.00000  -0.00000  -0.03557   0.00000   0.00000
  12        4PY        -0.00000   0.00000  -0.00000  -0.03557  -0.00000
  13        4PZ        -0.00000   0.00000   0.00000   0.00000  -0.06759
  14 2   Cl 1S          0.00037  -0.00144  -0.00000  -0.00394  -0.00000
  15        2S         -0.00212   0.00888   0.00000   0.02251  -0.00000
  16        2PX         0.00000  -0.00000   0.01432  -0.00000  -0.00000
  17        2PY         0.01182  -0.05645  -0.00000  -0.05515  -0.00000
  18        2PZ         0.00000  -0.00000  -0.00000   0.00000   0.02134
  19        3S         -0.00258   0.00205  -0.00000  -0.02040   0.00000
  20        3PX        -0.00000   0.00000  -0.03061   0.00000   0.00000
  21        3PY        -0.02452   0.11567   0.00000   0.11963  -0.00000
  22        3PZ        -0.00000   0.00000   0.00000   0.00000  -0.04657
  23        4S          0.00962  -0.02132  -0.00000  -0.04065  -0.00000
  24        4PX        -0.00000   0.00000  -0.03089   0.00000  -0.00000
  25        4PY        -0.02704   0.10624   0.00000   0.11710   0.00000
  26        4PZ        -0.00000   0.00000  -0.00000  -0.00000  -0.03632
  27 3   Cl 1S          0.00037  -0.00144  -0.00341   0.00197   0.00000
  28        2S         -0.00212   0.00888   0.01950  -0.01126  -0.00000
  29        2PX         0.01023  -0.04888  -0.03778   0.03008   0.00000
  30        2PY        -0.00591   0.02822   0.03008  -0.00304  -0.00000
  31        2PZ        -0.00000   0.00000   0.00000  -0.00000   0.02134
  32        3S         -0.00258   0.00205  -0.01767   0.01020   0.00000
  33        3PX        -0.02124   0.10017   0.08207  -0.06505  -0.00000
  34        3PY         0.01226  -0.05784  -0.06505   0.00695   0.00000
  35        3PZ         0.00000  -0.00000  -0.00000   0.00000  -0.04657
  36        4S          0.00962  -0.02132  -0.03520   0.02032  -0.00000
  37        4PX        -0.02342   0.09201   0.08010  -0.06408   0.00000
  38        4PY         0.01352  -0.05312  -0.06408   0.00611  -0.00000
  39        4PZ        -0.00000   0.00000   0.00000  -0.00000  -0.03632
  40 4   Cl 1S          0.00037  -0.00144   0.00341   0.00197  -0.00000
  41        2S         -0.00212   0.00888  -0.01950  -0.01126   0.00000
  42        2PX        -0.01023   0.04888  -0.03778  -0.03008   0.00000
  43        2PY        -0.00591   0.02822  -0.03008  -0.00304   0.00000
  44        2PZ         0.00000  -0.00000   0.00000   0.00000   0.02134
  45        3S         -0.00258   0.00205   0.01767   0.01020  -0.00000
  46        3PX         0.02124  -0.10017   0.08207   0.06505  -0.00000
  47        3PY         0.01226  -0.05784   0.06505   0.00695  -0.00000
  48        3PZ        -0.00000   0.00000  -0.00000  -0.00000  -0.04657
  49        4S          0.00962  -0.02132   0.03520   0.02032   0.00000
  50        4PX         0.02342  -0.09201   0.08010   0.06408   0.00000
  51        4PY         0.01352  -0.05312   0.06408   0.00611   0.00000
  52        4PZ         0.00000  -0.00000   0.00000   0.00000  -0.03632
                           6         7         8         9        10
   6        3S          0.36020
   7        3PX        -0.00000   0.19497
   8        3PY         0.00000   0.00000   0.19497
   9        3PZ         0.00000   0.00000  -0.00000   0.05724
  10        4S          0.02160   0.00000  -0.00000  -0.00000   0.01452
  11        4PX        -0.00000  -0.02203   0.00000  -0.00000   0.00000
  12        4PY         0.00000  -0.00000  -0.02203   0.00000  -0.00000
  13        4PZ         0.00000  -0.00000   0.00000   0.01813  -0.00000
  14 2   Cl 1S         -0.00023  -0.00000  -0.00112   0.00000  -0.02471
  15        2S          0.00173  -0.00000  -0.00750   0.00000   0.07357
  16        2PX         0.00000  -0.03686   0.00000   0.00000  -0.00000
  17        2PY         0.09709   0.00000   0.11122  -0.00000  -0.00560
  18        2PZ         0.00000   0.00000  -0.00000  -0.04547   0.00000
  19        3S         -0.01788   0.00000   0.00806   0.00000  -0.03929
  20        3PX        -0.00000   0.08326  -0.00000  -0.00000  -0.00000
  21        3PY        -0.21798  -0.00000  -0.24940   0.00000  -0.02379
  22        3PZ        -0.00000  -0.00000  -0.00000   0.09706  -0.00000
  23        4S         -0.00050   0.00000   0.01363   0.00000  -0.04469
  24        4PX        -0.00000   0.06468  -0.00000  -0.00000  -0.00000
  25        4PY        -0.16635  -0.00000  -0.18834   0.00000  -0.01506
  26        4PZ        -0.00000  -0.00000  -0.00000   0.07917  -0.00000
  27 3   Cl 1S         -0.00023  -0.00097   0.00056   0.00000  -0.02471
  28        2S          0.00173  -0.00650   0.00375  -0.00000   0.07357
  29        2PX         0.08408   0.07420  -0.06412   0.00000  -0.00485
  30        2PY        -0.04854  -0.06412   0.00016   0.00000   0.00280
  31        2PZ         0.00000   0.00000   0.00000  -0.04547  -0.00000
  32        3S         -0.01788   0.00698  -0.00403   0.00000  -0.03929
  33        3PX        -0.18878  -0.16624   0.14405   0.00000  -0.02060
  34        3PY         0.10899   0.14405   0.00009  -0.00000   0.01190
  35        3PZ        -0.00000   0.00000  -0.00000   0.09706   0.00000
  36        4S         -0.00050   0.01180  -0.00681   0.00000  -0.04469
  37        4PX        -0.14406  -0.12508   0.10956   0.00000  -0.01305
  38        4PY         0.08317   0.10956   0.00142  -0.00000   0.00753
  39        4PZ        -0.00000   0.00000  -0.00000   0.07917   0.00000
  40 4   Cl 1S         -0.00023   0.00097   0.00056  -0.00000  -0.02471
  41        2S          0.00173   0.00650   0.00375   0.00000   0.07357
  42        2PX        -0.08408   0.07420   0.06412   0.00000   0.00485
  43        2PY        -0.04854   0.06412   0.00016  -0.00000   0.00280
  44        2PZ        -0.00000   0.00000  -0.00000  -0.04547   0.00000
  45        3S         -0.01788  -0.00698  -0.00403  -0.00000  -0.03929
  46        3PX         0.18878  -0.16624  -0.14405   0.00000   0.02060
  47        3PY         0.10899  -0.14405   0.00009   0.00000   0.01190
  48        3PZ         0.00000   0.00000   0.00000   0.09706  -0.00000
  49        4S         -0.00050  -0.01180  -0.00681  -0.00000  -0.04469
  50        4PX         0.14406  -0.12508  -0.10956   0.00000   0.01305
  51        4PY         0.08317  -0.10956   0.00142   0.00000   0.00753
  52        4PZ         0.00000   0.00000   0.00000   0.07917  -0.00000
                          11        12        13        14        15
  11        4PX         0.03461
  12        4PY         0.00000   0.03461
  13        4PZ        -0.00000  -0.00000   0.01392
  14 2   Cl 1S         -0.00000  -0.02483  -0.00000   2.14402
  15        2S          0.00000   0.07063   0.00000  -0.57279   2.38702
  16        2PX        -0.02380  -0.00000   0.00000  -0.00000   0.00000
  17        2PY        -0.00000  -0.03686   0.00000  -0.00480   0.02574
  18        2PZ        -0.00000   0.00000  -0.01311  -0.00000  -0.00000
  19        3S         -0.00000  -0.02259  -0.00000  -0.03414  -0.27038
  20        3PX         0.10257  -0.00000  -0.00000   0.00000  -0.00000
  21        3PY        -0.00000   0.05795  -0.00000   0.01312  -0.06075
  22        3PZ         0.00000  -0.00000   0.05204   0.00000  -0.00000
  23        4S         -0.00000  -0.06343  -0.00000   0.16610  -0.68501
  24        4PX         0.08268   0.00000  -0.00000  -0.00000   0.00000
  25        4PY        -0.00000   0.05914  -0.00000  -0.01085   0.00521
  26        4PZ         0.00000  -0.00000   0.04128  -0.00000  -0.00000
  27 3   Cl 1S         -0.02150   0.01241  -0.00000   0.00001  -0.00008
  28        2S          0.06116  -0.03531   0.00000  -0.00008   0.00052
  29        2PX        -0.03360   0.00565  -0.00000  -0.00021   0.00176
  30        2PY         0.00565  -0.02707   0.00000   0.00132  -0.00694
  31        2PZ         0.00000  -0.00000  -0.01311  -0.00000   0.00000
  32        3S         -0.01956   0.01129  -0.00000   0.00027  -0.00163
  33        3PX         0.06911   0.01932   0.00000  -0.00000  -0.00282
  34        3PY         0.01932   0.09142  -0.00000  -0.00376   0.01650
  35        3PZ        -0.00000   0.00000   0.05204   0.00000  -0.00000
  36        4S         -0.05493   0.03172  -0.00000  -0.00039   0.00023
  37        4PX         0.06503   0.01019   0.00000   0.00279  -0.00820
  38        4PY         0.01019   0.07680  -0.00000   0.00430  -0.00456
  39        4PZ        -0.00000   0.00000   0.04128   0.00000  -0.00000
  40 4   Cl 1S          0.02150   0.01241   0.00000   0.00001  -0.00008
  41        2S         -0.06116  -0.03531  -0.00000  -0.00008   0.00052
  42        2PX        -0.03360  -0.00565  -0.00000   0.00021  -0.00176
  43        2PY        -0.00565  -0.02707  -0.00000   0.00132  -0.00694
  44        2PZ         0.00000   0.00000  -0.01311   0.00000  -0.00000
  45        3S          0.01956   0.01129   0.00000   0.00027  -0.00163
  46        3PX         0.06911  -0.01932   0.00000   0.00000   0.00282
  47        3PY        -0.01932   0.09142   0.00000  -0.00376   0.01650
  48        3PZ        -0.00000  -0.00000   0.05204  -0.00000   0.00000
  49        4S          0.05493   0.03172   0.00000  -0.00039   0.00023
  50        4PX         0.06503  -0.01019   0.00000  -0.00279   0.00820
  51        4PY        -0.01019   0.07680   0.00000   0.00430  -0.00456
  52        4PZ        -0.00000  -0.00000   0.04128  -0.00000   0.00000
                          16        17        18        19        20
  16        2PX         2.05042
  17        2PY         0.00000   2.01860
  18        2PZ        -0.00000  -0.00000   2.04710
  19        3S         -0.00000  -0.06016  -0.00000   0.73372
  20        3PX        -0.17565   0.00000  -0.00000   0.00000   0.73359
  21        3PY         0.00000  -0.10160  -0.00000   0.09905  -0.00000
  22        3PZ        -0.00000   0.00000  -0.16668   0.00000   0.00000
  23        4S          0.00000   0.01621   0.00000   0.62147   0.00000
  24        4PX        -0.33151   0.00000   0.00000   0.00000   0.60163
  25        4PY         0.00000  -0.26881   0.00000   0.07068  -0.00000
  26        4PZ         0.00000   0.00000  -0.33026   0.00000   0.00000
  27 3   Cl 1S          0.00104  -0.00085  -0.00000   0.00027  -0.00326
  28        2S         -0.00513   0.00499   0.00000  -0.00163   0.01288
  29        2PX         0.00311  -0.00893  -0.00000  -0.00414  -0.00690
  30        2PY        -0.00746   0.01257  -0.00000   0.00289   0.01659
  31        2PZ        -0.00000  -0.00000  -0.00589  -0.00000   0.00000
  32        3S          0.00043  -0.00503  -0.00000   0.00252   0.01208
  33        3PX        -0.00606   0.01903   0.00000   0.01380   0.01362
  34        3PY         0.01611  -0.02746   0.00000   0.00598  -0.03433
  35        3PZ         0.00000   0.00000   0.01210   0.00000  -0.00000
  36        4S          0.02708  -0.01032   0.00000   0.00570  -0.09561
  37        4PX        -0.01808   0.01657   0.00000   0.00965   0.04378
  38        4PY         0.02254  -0.02453  -0.00000   0.00973  -0.05785
  39        4PZ         0.00000   0.00000   0.01566   0.00000  -0.00000
  40 4   Cl 1S         -0.00104  -0.00085   0.00000   0.00027   0.00326
  41        2S          0.00513   0.00499  -0.00000  -0.00163  -0.01288
  42        2PX         0.00311   0.00893  -0.00000   0.00414  -0.00690
  43        2PY         0.00746   0.01257   0.00000   0.00289  -0.01659
  44        2PZ        -0.00000   0.00000  -0.00589   0.00000   0.00000
  45        3S         -0.00043  -0.00503   0.00000   0.00252  -0.01208
  46        3PX        -0.00606  -0.01903   0.00000  -0.01380   0.01362
  47        3PY        -0.01611  -0.02746  -0.00000   0.00598   0.03433
  48        3PZ         0.00000  -0.00000   0.01210  -0.00000  -0.00000
  49        4S         -0.02708  -0.01032  -0.00000   0.00570   0.09561
  50        4PX        -0.01808  -0.01657   0.00000  -0.00965   0.04378
  51        4PY        -0.02254  -0.02453   0.00000   0.00973   0.05785
  52        4PZ         0.00000  -0.00000   0.01566  -0.00000  -0.00000
                          21        22        23        24        25
  21        3PY         0.57004
  22        3PZ        -0.00000   0.70627
  23        4S          0.03007   0.00000   0.65663
  24        4PX        -0.00000  -0.00000  -0.00000   0.51153
  25        4PY         0.43877  -0.00000  -0.01017  -0.00000   0.36307
  26        4PZ        -0.00000   0.60493  -0.00000  -0.00000  -0.00000
  27 3   Cl 1S          0.00188  -0.00000  -0.00039   0.00512   0.00027
  28        2S         -0.01069  -0.00000   0.00023  -0.00805  -0.00482
  29        2PX         0.01951   0.00000   0.00461  -0.00598   0.00958
  30        2PY        -0.02663   0.00000   0.02861   0.01556  -0.03663
  31        2PZ         0.00000   0.01210   0.00000  -0.00000  -0.00000
  32        3S          0.00896   0.00000   0.00570   0.01325   0.00349
  33        3PX        -0.04222  -0.00000  -0.02488   0.01161  -0.01756
  34        3PY         0.05782  -0.00000  -0.09604  -0.03928   0.08732
  35        3PZ        -0.00000  -0.02148  -0.00000   0.00000   0.00000
  36        4S          0.02648  -0.00000  -0.00966  -0.07131   0.02381
  37        4PX        -0.03614  -0.00000  -0.01503   0.03577  -0.01775
  38        4PY         0.05515  -0.00000  -0.07366  -0.05598   0.07834
  39        4PZ        -0.00000  -0.04023  -0.00000  -0.00000   0.00000
  40 4   Cl 1S          0.00188   0.00000  -0.00039  -0.00512   0.00027
  41        2S         -0.01069   0.00000   0.00023   0.00805  -0.00482
  42        2PX        -0.01951   0.00000  -0.00461  -0.00598  -0.00958
  43        2PY        -0.02663  -0.00000   0.02861  -0.01556  -0.03663
  44        2PZ        -0.00000   0.01210  -0.00000  -0.00000   0.00000
  45        3S          0.00896  -0.00000   0.00570  -0.01325   0.00349
  46        3PX         0.04222  -0.00000   0.02488   0.01161   0.01756
  47        3PY         0.05782   0.00000  -0.09604   0.03928   0.08732
  48        3PZ         0.00000  -0.02148   0.00000   0.00000  -0.00000
  49        4S          0.02648   0.00000  -0.00966   0.07131   0.02381
  50        4PX         0.03614  -0.00000   0.01503   0.03577   0.01775
  51        4PY         0.05515   0.00000  -0.07366   0.05598   0.07834
  52        4PZ         0.00000  -0.04023   0.00000  -0.00000  -0.00000
                          26        27        28        29        30
  26        4PZ         0.53696
  27 3   Cl 1S          0.00000   2.14402
  28        2S         -0.00000  -0.57279   2.38702
  29        2PX         0.00000  -0.00416   0.02229   2.02656
  30        2PY        -0.00000   0.00240  -0.01287   0.01378   2.04246
  31        2PZ         0.01566  -0.00000   0.00000  -0.00000   0.00000
  32        3S          0.00000  -0.03414  -0.27038  -0.05210   0.03008
  33        3PX        -0.00000   0.01136  -0.05261  -0.12011  -0.03207
  34        3PY         0.00000  -0.00656   0.03038  -0.03207  -0.15714
  35        3PZ        -0.04023  -0.00000  -0.00000  -0.00000  -0.00000
  36        4S         -0.00000   0.16610  -0.68501   0.01404  -0.00811
  37        4PX        -0.00000  -0.00940   0.00451  -0.28448  -0.02715
  38        4PY         0.00000   0.00542  -0.00260  -0.02715  -0.31584
  39        4PZ        -0.05248   0.00000  -0.00000  -0.00000   0.00000
  40 4   Cl 1S         -0.00000   0.00001  -0.00008  -0.00125  -0.00048
  41        2S          0.00000  -0.00008   0.00052   0.00689   0.00195
  42        2PX         0.00000   0.00125  -0.00689   0.01730  -0.00073
  43        2PY         0.00000  -0.00048   0.00195   0.00073  -0.00163
  44        2PZ         0.01566   0.00000  -0.00000   0.00000  -0.00000
  45        3S         -0.00000   0.00027  -0.00163  -0.00457   0.00214
  46        3PX        -0.00000  -0.00326   0.01570  -0.03733   0.00194
  47        3PY        -0.00000   0.00188  -0.00581  -0.00098   0.00380
  48        3PZ        -0.04023  -0.00000   0.00000  -0.00000   0.00000
  49        4S          0.00000  -0.00039   0.00023  -0.02247  -0.01830
  50        4PX        -0.00000   0.00233   0.00015  -0.03985  -0.00998
  51        4PY        -0.00000  -0.00457   0.00938  -0.00400  -0.00276
  52        4PZ        -0.05248  -0.00000   0.00000   0.00000   0.00000
                          31        32        33        34        35
  31        2PZ         2.04710
  32        3S         -0.00000   0.73372
  33        3PX        -0.00000   0.08578   0.61093
  34        3PY        -0.00000  -0.04953   0.07082   0.69270
  35        3PZ        -0.16668   0.00000   0.00000   0.00000   0.70627
  36        4S          0.00000   0.62147   0.02604  -0.01503  -0.00000
  37        4PX        -0.00000   0.06121   0.47949   0.07052   0.00000
  38        4PY         0.00000  -0.03534   0.07052   0.56092  -0.00000
  39        4PZ        -0.33026   0.00000   0.00000   0.00000   0.60493
  40 4   Cl 1S         -0.00000   0.00027   0.00326   0.00188   0.00000
  41        2S          0.00000  -0.00163  -0.01570  -0.00581  -0.00000
  42        2PX         0.00000   0.00457  -0.03733   0.00098  -0.00000
  43        2PY         0.00000   0.00214  -0.00194   0.00380  -0.00000
  44        2PZ        -0.00589   0.00000  -0.00000   0.00000   0.01210
  45        3S         -0.00000   0.00252   0.00172  -0.01494   0.00000
  46        3PX        -0.00000  -0.00172   0.07992  -0.00394   0.00000
  47        3PY        -0.00000  -0.01494   0.00394  -0.00847  -0.00000
  48        3PZ         0.01210  -0.00000   0.00000   0.00000  -0.02148
  49        4S          0.00000   0.00570   0.07074   0.06957  -0.00000
  50        4PX         0.00000   0.00360   0.09301   0.02943  -0.00000
  51        4PY         0.00000  -0.01322   0.00772   0.00593  -0.00000
  52        4PZ         0.01566  -0.00000  -0.00000  -0.00000  -0.04023
                          36        37        38        39        40
  36        4S          0.65663
  37        4PX        -0.00881   0.40018
  38        4PY         0.00509   0.06429   0.47442
  39        4PZ        -0.00000   0.00000  -0.00000   0.53696
  40 4   Cl 1S         -0.00039  -0.00233  -0.00457   0.00000   2.14402
  41        2S          0.00023  -0.00015   0.00938  -0.00000  -0.57279
  42        2PX         0.02247  -0.03985   0.00400   0.00000   0.00416
  43        2PY        -0.01830   0.00998  -0.00276  -0.00000   0.00240
  44        2PZ        -0.00000   0.00000  -0.00000   0.01566   0.00000
  45        3S          0.00570  -0.00360  -0.01322   0.00000  -0.03414
  46        3PX        -0.07074   0.09301  -0.00772  -0.00000  -0.01136
  47        3PY         0.06957  -0.02943   0.00593   0.00000  -0.00656
  48        3PZ         0.00000  -0.00000   0.00000  -0.04023   0.00000
  49        4S         -0.00966   0.05628   0.04985  -0.00000   0.16610
  50        4PX        -0.05628   0.09962   0.01912  -0.00000   0.00940
  51        4PY         0.04985  -0.01912   0.01449   0.00000   0.00542
  52        4PZ         0.00000  -0.00000  -0.00000  -0.05248  -0.00000
                          41        42        43        44        45
  41        2S          2.38702
  42        2PX        -0.02229   2.02656
  43        2PY        -0.01287  -0.01378   2.04246
  44        2PZ        -0.00000  -0.00000  -0.00000   2.04710
  45        3S         -0.27038   0.05210   0.03008   0.00000   0.73372
  46        3PX         0.05261  -0.12011   0.03207  -0.00000  -0.08578
  47        3PY         0.03038   0.03207  -0.15714   0.00000  -0.04953
  48        3PZ         0.00000  -0.00000   0.00000  -0.16668  -0.00000
  49        4S         -0.68501  -0.01404  -0.00811  -0.00000   0.62147
  50        4PX        -0.00451  -0.28448   0.02715  -0.00000  -0.06121
  51        4PY        -0.00260   0.02715  -0.31584  -0.00000  -0.03534
  52        4PZ         0.00000  -0.00000  -0.00000  -0.33026  -0.00000
                          46        47        48        49        50
  46        3PX         0.61093
  47        3PY        -0.07082   0.69270
  48        3PZ         0.00000  -0.00000   0.70627
  49        4S         -0.02604  -0.01503   0.00000   0.65663
  50        4PX         0.47949  -0.07052   0.00000   0.00881   0.40018
  51        4PY        -0.07052   0.56092   0.00000   0.00509  -0.06429
  52        4PZ         0.00000  -0.00000   0.60493   0.00000   0.00000
                          51        52
  51        4PY         0.47442
  52        4PZ         0.00000   0.53696
    Full Mulliken population analysis:
                           1         2         3         4         5
   1 1   Al 1S          2.12024
   2        2S         -0.12250   2.14821
   3        2PX         0.00000   0.00000   1.95083
   4        2PY         0.00000   0.00000   0.00000   1.95083
   5        2PZ         0.00000   0.00000   0.00000   0.00000   1.92898
   6        3S         -0.00047   0.00170   0.00000   0.00000   0.00000
   7        3PX         0.00000   0.00000   0.02505   0.00000  -0.00000
   8        3PY         0.00000   0.00000  -0.00000   0.02505   0.00000
   9        3PZ         0.00000   0.00000  -0.00000   0.00000   0.03418
  10        4S          0.00051  -0.01423   0.00000   0.00000   0.00000
  11        4PX         0.00000   0.00000  -0.00209   0.00000  -0.00000
  12        4PY         0.00000   0.00000  -0.00000  -0.00209   0.00000
  13        4PZ         0.00000   0.00000  -0.00000  -0.00000  -0.00397
  14 2   Cl 1S          0.00000  -0.00000  -0.00000  -0.00000  -0.00000
  15        2S         -0.00000   0.00000   0.00000   0.00000  -0.00000
  16        2PX        -0.00000   0.00000   0.00000   0.00000   0.00000
  17        2PY        -0.00000   0.00000   0.00000   0.00000   0.00000
  18        2PZ        -0.00000   0.00000   0.00000  -0.00000   0.00000
  19        3S         -0.00000   0.00000  -0.00000  -0.00004   0.00000
  20        3PX         0.00000  -0.00000  -0.00001  -0.00000  -0.00000
  21        3PY         0.00000  -0.00038  -0.00000  -0.00063   0.00000
  22        3PZ         0.00000  -0.00000  -0.00000  -0.00000  -0.00002
  23        4S          0.00003  -0.00069  -0.00000  -0.00090  -0.00000
  24        4PX         0.00000  -0.00000  -0.00041  -0.00000   0.00000
  25        4PY         0.00029  -0.01055  -0.00000  -0.00642  -0.00000
  26        4PZ         0.00000  -0.00000   0.00000   0.00000  -0.00048
  27 3   Cl 1S          0.00000  -0.00000  -0.00000  -0.00000  -0.00000
  28        2S         -0.00000   0.00000   0.00000   0.00000   0.00000
  29        2PX        -0.00000   0.00000   0.00000   0.00000   0.00000
  30        2PY        -0.00000   0.00000   0.00000   0.00000   0.00000
  31        2PZ        -0.00000   0.00000   0.00000   0.00000   0.00000
  32        3S         -0.00000   0.00000  -0.00003  -0.00001  -0.00000
  33        3PX         0.00000  -0.00029  -0.00032  -0.00016  -0.00000
  34        3PY         0.00000  -0.00010  -0.00016  -0.00001  -0.00000
  35        3PZ         0.00000  -0.00000  -0.00000  -0.00000  -0.00002
  36        4S          0.00003  -0.00069  -0.00068  -0.00023   0.00000
  37        4PX         0.00022  -0.00791  -0.00302  -0.00189   0.00000
  38        4PY         0.00007  -0.00264  -0.00189  -0.00002   0.00000
  39        4PZ        -0.00000   0.00000   0.00000   0.00000  -0.00048
  40 4   Cl 1S          0.00000  -0.00000  -0.00000  -0.00000   0.00000
  41        2S         -0.00000   0.00000   0.00000   0.00000   0.00000
  42        2PX        -0.00000   0.00000   0.00000   0.00000   0.00000
  43        2PY        -0.00000   0.00000   0.00000   0.00000   0.00000
  44        2PZ         0.00000   0.00000   0.00000   0.00000   0.00000
  45        3S         -0.00000   0.00000  -0.00003  -0.00001  -0.00000
  46        3PX         0.00000  -0.00029  -0.00032  -0.00016  -0.00000
  47        3PY         0.00000  -0.00010  -0.00016  -0.00001  -0.00000
  48        3PZ        -0.00000  -0.00000  -0.00000  -0.00000  -0.00002
  49        4S          0.00003  -0.00069  -0.00068  -0.00023   0.00000
  50        4PX         0.00022  -0.00791  -0.00302  -0.00189   0.00000
  51        4PY         0.00007  -0.00264  -0.00189  -0.00002   0.00000
  52        4PZ         0.00000   0.00000   0.00000   0.00000  -0.00048
                           6         7         8         9        10
   6        3S          0.36020
   7        3PX         0.00000   0.19497
   8        3PY         0.00000  -0.00000   0.19497
   9        3PZ         0.00000  -0.00000   0.00000   0.05724
  10        4S          0.01784   0.00000   0.00000   0.00000   0.01452
  11        4PX         0.00000  -0.01463   0.00000   0.00000   0.00000
  12        4PY         0.00000   0.00000  -0.01463  -0.00000   0.00000
  13        4PZ         0.00000   0.00000  -0.00000   0.01204   0.00000
  14 2   Cl 1S         -0.00000  -0.00000  -0.00001   0.00000  -0.00014
  15        2S          0.00002  -0.00000  -0.00029   0.00000   0.00327
  16        2PX        -0.00000  -0.00013  -0.00000  -0.00000   0.00000
  17        2PY        -0.00074  -0.00000  -0.00206   0.00000   0.00005
  18        2PZ        -0.00000  -0.00000   0.00000  -0.00015  -0.00000
  19        3S         -0.00169   0.00000   0.00166   0.00000  -0.00795
  20        3PX         0.00000   0.00478   0.00000   0.00000   0.00000
  21        3PY         0.02719   0.00000   0.05676  -0.00000   0.00259
  22        3PZ         0.00000   0.00000   0.00000   0.00557   0.00000
  23        4S         -0.00012   0.00000   0.00481   0.00000  -0.01753
  24        4PX         0.00000   0.01369   0.00000   0.00000   0.00000
  25        4PY         0.06936   0.00000   0.08225  -0.00000   0.00546
  26        4PZ         0.00000   0.00000   0.00000   0.01676   0.00000
  27 3   Cl 1S         -0.00000  -0.00000  -0.00000  -0.00000  -0.00014
  28        2S          0.00002  -0.00022  -0.00007   0.00000   0.00327
  29        2PX        -0.00055  -0.00097  -0.00061   0.00000   0.00003
  30        2PY        -0.00018  -0.00061  -0.00000  -0.00000   0.00001
  31        2PZ         0.00000   0.00000  -0.00000  -0.00015  -0.00000
  32        3S         -0.00169   0.00125   0.00042  -0.00000  -0.00795
  33        3PX         0.02039   0.02599   0.01778   0.00000   0.00194
  34        3PY         0.00680   0.01778  -0.00000   0.00000   0.00065
  35        3PZ        -0.00000   0.00000   0.00000   0.00557   0.00000
  36        4S         -0.00012   0.00361   0.00120  -0.00000  -0.01753
  37        4PX         0.05202   0.03435   0.03076   0.00000   0.00409
  38        4PY         0.01734   0.03076   0.00007   0.00000   0.00136
  39        4PZ        -0.00000   0.00000   0.00000   0.01676   0.00000
  40 4   Cl 1S         -0.00000  -0.00000  -0.00000   0.00000  -0.00014
  41        2S          0.00002  -0.00022  -0.00007   0.00000   0.00327
[...]
  40 4   Cl 1S         -0.00022  -0.00007  -0.00000   0.00000   0.00000
  41        2S          0.00477   0.00159  -0.00000   0.00000   0.00000
  42        2PX         0.00015   0.00004   0.00000   0.00000   0.00000
  43        2PY         0.00004  -0.00010  -0.00000   0.00000   0.00000
  44        2PZ        -0.00000   0.00000  -0.00010   0.00000   0.00000
  45        3S         -0.00627  -0.00209   0.00000   0.00000  -0.00000
  46        3PX        -0.00316   0.00169  -0.00000   0.00000   0.00000
  47        3PY         0.00169   0.00504   0.00000  -0.00000   0.00000
  48        3PZ         0.00000  -0.00000   0.00549   0.00000  -0.00000
  49        4S         -0.02784  -0.00928   0.00000  -0.00000   0.00000
  50        4PX        -0.00353   0.00239  -0.00000  -0.00000   0.00000
  51        4PY         0.00239   0.01659   0.00000   0.00000  -0.00000
  52        4PZ         0.00000  -0.00000   0.01449   0.00000  -0.00000
                          16        17        18        19        20
  16        2PX         2.05042
  17        2PY        -0.00000   2.01860
  18        2PZ         0.00000   0.00000   2.04710
  19        3S          0.00000   0.00000   0.00000   0.73372
  20        3PX        -0.05644  -0.00000   0.00000   0.00000   0.73359
  21        3PY        -0.00000  -0.03264   0.00000   0.00000   0.00000
  22        3PZ         0.00000  -0.00000  -0.05355   0.00000  -0.00000
  23        4S          0.00000   0.00000   0.00000   0.51228   0.00000
  24        4PX        -0.02326  -0.00000  -0.00000   0.00000   0.37473
  25        4PY         0.00000  -0.01886  -0.00000   0.00000   0.00000
  26        4PZ        -0.00000  -0.00000  -0.02317   0.00000  -0.00000
  27 3   Cl 1S          0.00000   0.00000   0.00000   0.00000  -0.00000
  28        2S          0.00000   0.00000   0.00000  -0.00000   0.00000
  29        2PX         0.00000   0.00000   0.00000   0.00000   0.00000
  30        2PY         0.00000   0.00000   0.00000   0.00000   0.00000
  31        2PZ         0.00000   0.00000   0.00000  -0.00000   0.00000
  32        3S          0.00000   0.00000   0.00000   0.00000   0.00000
  33        3PX         0.00000   0.00000   0.00000  -0.00000  -0.00000
  34        3PY         0.00000   0.00000  -0.00000   0.00000  -0.00000
  35        3PZ         0.00000  -0.00000   0.00000   0.00000  -0.00000
  36        4S          0.00000   0.00000  -0.00000   0.00001  -0.00014
  37        4PX         0.00000   0.00000   0.00000  -0.00003  -0.00010
  38        4PY         0.00000   0.00001   0.00000   0.00006  -0.00033
  39        4PZ         0.00000  -0.00000   0.00000   0.00000  -0.00000
  40 4   Cl 1S          0.00000   0.00000   0.00000   0.00000  -0.00000
  41        2S          0.00000   0.00000   0.00000  -0.00000   0.00000
  42        2PX         0.00000   0.00000   0.00000   0.00000   0.00000
  43        2PY         0.00000   0.00000   0.00000   0.00000   0.00000
  44        2PZ         0.00000   0.00000   0.00000  -0.00000   0.00000
  45        3S          0.00000   0.00000   0.00000   0.00000   0.00000
  46        3PX         0.00000   0.00000   0.00000  -0.00000  -0.00000
  47        3PY         0.00000   0.00000  -0.00000   0.00000  -0.00000
  48        3PZ         0.00000  -0.00000   0.00000   0.00000  -0.00000
  49        4S          0.00000   0.00000  -0.00000   0.00001  -0.00014
  50        4PX         0.00000   0.00000   0.00000  -0.00003  -0.00010
  51        4PY         0.00000   0.00001   0.00000   0.00006  -0.00033
  52        4PZ         0.00000  -0.00000   0.00000   0.00000  -0.00000
                          21        22        23        24        25
  21        3PY         0.57004
  22        3PZ         0.00000   0.70627
  23        4S          0.00000   0.00000   0.65663
  24        4PX        -0.00000   0.00000   0.00000   0.51153
  25        4PY         0.27330   0.00000   0.00000   0.00000   0.36307
  26        4PZ         0.00000   0.37679   0.00000   0.00000   0.00000
  27 3   Cl 1S         -0.00000   0.00000  -0.00000   0.00000  -0.00000
  28        2S          0.00000   0.00000   0.00000  -0.00000   0.00000
  29        2PX         0.00000   0.00000  -0.00000   0.00000   0.00000
  30        2PY         0.00000  -0.00000   0.00000   0.00000   0.00001
  31        2PZ        -0.00000   0.00000   0.00000  -0.00000   0.00000
  32        3S         -0.00000  -0.00000   0.00001   0.00005  -0.00002
  33        3PX        -0.00000  -0.00000   0.00004  -0.00003  -0.00010
  34        3PY        -0.00000   0.00000  -0.00025  -0.00022  -0.00077
  35        3PZ         0.00000  -0.00000  -0.00000   0.00000  -0.00000
  36        4S         -0.00007   0.00000  -0.00015  -0.00160  -0.00092
  37        4PX        -0.00021  -0.00000   0.00034  -0.00060  -0.00099
  38        4PY        -0.00049   0.00000  -0.00286  -0.00313  -0.00638
  39        4PZ         0.00000  -0.00004  -0.00000  -0.00000  -0.00000
  40 4   Cl 1S         -0.00000   0.00000  -0.00000   0.00000  -0.00000
  41        2S          0.00000   0.00000   0.00000  -0.00000   0.00000
  42        2PX         0.00000   0.00000  -0.00000   0.00000   0.00000
  43        2PY         0.00000  -0.00000   0.00000   0.00000   0.00001
  44        2PZ        -0.00000   0.00000   0.00000  -0.00000   0.00000
  45        3S         -0.00000  -0.00000   0.00001   0.00005  -0.00002
  46        3PX        -0.00000  -0.00000   0.00004  -0.00003  -0.00010
  47        3PY        -0.00000   0.00000  -0.00025  -0.00022  -0.00077
  48        3PZ         0.00000  -0.00000  -0.00000   0.00000  -0.00000
  49        4S         -0.00007   0.00000  -0.00015  -0.00160  -0.00092
  50        4PX        -0.00021  -0.00000   0.00034  -0.00060  -0.00099
  51        4PY        -0.00049   0.00000  -0.00286  -0.00313  -0.00638
  52        4PZ         0.00000  -0.00004  -0.00000  -0.00000  -0.00000
                          26        27        28        29        30
  26        4PZ         0.53696
  27 3   Cl 1S         -0.00000   2.14402
  28        2S          0.00000  -0.14860   2.38702
  29        2PX         0.00000   0.00000   0.00000   2.02656
  30        2PY         0.00000   0.00000   0.00000  -0.00000   2.04246
  31        2PZ         0.00000   0.00000   0.00000   0.00000   0.00000
  32        3S         -0.00000  -0.00201  -0.11756   0.00000   0.00000
  33        3PX        -0.00000   0.00000   0.00000  -0.03859   0.00000
  34        3PY        -0.00000   0.00000   0.00000   0.00000  -0.05049
  35        3PZ        -0.00004   0.00000   0.00000   0.00000  -0.00000
  36        4S          0.00000   0.00563  -0.17120   0.00000   0.00000
  37        4PX        -0.00000   0.00000   0.00000  -0.01996   0.00000
  38        4PY        -0.00000   0.00000   0.00000  -0.00000  -0.02216
  39        4PZ        -0.00081   0.00000   0.00000   0.00000   0.00000
  40 4   Cl 1S          0.00000   0.00000   0.00000   0.00000   0.00000
  41        2S          0.00000   0.00000   0.00000   0.00000   0.00000
  42        2PX         0.00000   0.00000   0.00000   0.00000   0.00000
  43        2PY         0.00000   0.00000   0.00000   0.00000   0.00000
  44        2PZ         0.00000   0.00000   0.00000   0.00000   0.00000
  45        3S         -0.00000   0.00000  -0.00000   0.00000  -0.00000
  46        3PX        -0.00000  -0.00000   0.00000   0.00000  -0.00000
  47        3PY        -0.00000  -0.00000  -0.00000   0.00000   0.00000
  48        3PZ        -0.00004   0.00000  -0.00000  -0.00000   0.00000
  49        4S          0.00000  -0.00000   0.00000   0.00000   0.00000
  50        4PX        -0.00000   0.00000   0.00000   0.00001   0.00000
  51        4PY        -0.00000   0.00000   0.00000   0.00000  -0.00000
  52        4PZ        -0.00081   0.00000  -0.00000   0.00000   0.00000
                          31        32        33        34        35
  31        2PZ         2.04710
  32        3S          0.00000   0.73372
  33        3PX         0.00000   0.00000   0.61093
  34        3PY        -0.00000   0.00000   0.00000   0.69270
  35        3PZ        -0.05355   0.00000  -0.00000   0.00000   0.70627
  36        4S          0.00000   0.51228   0.00000   0.00000   0.00000
  37        4PX         0.00000   0.00000   0.29866   0.00000  -0.00000
  38        4PY         0.00000   0.00000   0.00000   0.34938  -0.00000
  39        4PZ        -0.02317   0.00000  -0.00000   0.00000   0.37679
  40 4   Cl 1S          0.00000   0.00000  -0.00000  -0.00000   0.00000
  41        2S          0.00000  -0.00000   0.00000  -0.00000  -0.00000
  42        2PX         0.00000   0.00000   0.00000   0.00000  -0.00000
  43        2PY         0.00000  -0.00000  -0.00000   0.00000   0.00000
  44        2PZ         0.00000  -0.00000  -0.00000  -0.00000   0.00000
  45        3S         -0.00000   0.00000  -0.00000  -0.00000   0.00000
  46        3PX        -0.00000  -0.00000  -0.00000  -0.00000   0.00000
  47        3PY        -0.00000   0.00000   0.00000  -0.00000  -0.00000
  48        3PZ         0.00000   0.00000   0.00000   0.00000  -0.00000
  49        4S          0.00000   0.00001  -0.00021  -0.00000  -0.00000
  50        4PX         0.00000   0.00003  -0.00113  -0.00000  -0.00000
  51        4PY         0.00000  -0.00000  -0.00000   0.00001  -0.00000
  52        4PZ         0.00000   0.00000  -0.00000  -0.00000  -0.00004
                          36        37        38        39        40
  36        4S          0.65663
  37        4PX         0.00000   0.40018
  38        4PY         0.00000  -0.00000   0.47442
  39        4PZ         0.00000  -0.00000  -0.00000   0.53696
  40 4   Cl 1S         -0.00000   0.00000   0.00000   0.00000   2.14402
  41        2S          0.00000   0.00000   0.00000  -0.00000  -0.14860
  42        2PX         0.00000   0.00001   0.00000   0.00000   0.00000
  43        2PY         0.00000   0.00000  -0.00000   0.00000   0.00000
  44        2PZ         0.00000   0.00000   0.00000   0.00000   0.00000
  45        3S          0.00001   0.00003  -0.00000   0.00000  -0.00201
  46        3PX        -0.00021  -0.00113  -0.00000  -0.00000   0.00000
  47        3PY        -0.00000  -0.00000   0.00001  -0.00000   0.00000
  48        3PZ        -0.00000  -0.00000  -0.00000  -0.00004   0.00000
  49        4S         -0.00015  -0.00252   0.00000  -0.00000   0.00563
  50        4PX        -0.00252  -0.01133   0.00000  -0.00000   0.00000
  51        4PY        -0.00000  -0.00000   0.00022   0.00000   0.00000
  52        4PZ        -0.00000  -0.00000  -0.00000  -0.00081   0.00000
                          41        42        43        44        45
  41        2S          2.38702
  42        2PX         0.00000   2.02656
  43        2PY         0.00000  -0.00000   2.04246
  44        2PZ         0.00000   0.00000   0.00000   2.04710
  45        3S         -0.11756   0.00000   0.00000   0.00000   0.73372
  46        3PX         0.00000  -0.03859  -0.00000   0.00000   0.00000
  47        3PY         0.00000   0.00000  -0.05049  -0.00000   0.00000
  48        3PZ         0.00000   0.00000  -0.00000  -0.05355   0.00000
  49        4S         -0.17120   0.00000   0.00000   0.00000   0.51228
  50        4PX         0.00000  -0.01996   0.00000   0.00000   0.00000
  51        4PY         0.00000  -0.00000  -0.02216   0.00000   0.00000
  52        4PZ         0.00000   0.00000   0.00000  -0.02317   0.00000
                          46        47        48        49        50
  46        3PX         0.61093
  47        3PY         0.00000   0.69270
  48        3PZ        -0.00000   0.00000   0.70627
  49        4S          0.00000   0.00000   0.00000   0.65663
  50        4PX         0.29866   0.00000  -0.00000   0.00000   0.40018
  51        4PY         0.00000   0.34938  -0.00000   0.00000  -0.00000
  52        4PZ        -0.00000   0.00000   0.37679   0.00000  -0.00000
                          51        52
  51        4PY         0.47442
  52        4PZ        -0.00000   0.53696
     Gross orbital populations:
                           1
   1 1   Al 1S          1.99877
   2        2S          1.97831
   3        2PX         1.96118
   4        2PY         1.96118
   5        2PZ         1.95768
   6        3S          0.66133
   7        3PX         0.44759
   8        3PY         0.44759
   9        3PZ         0.16999
  10        4S         -0.02415
  11        4PX        -0.00638
  12        4PY        -0.00638
  13        4PZ         0.08164
  14 2   Cl 1S          1.99860
  15        2S          1.95902
  16        2PX         1.97042
  17        2PY         1.96469
  18        2PZ         1.97012
  19        3S          1.11011
  20        3PX         1.06634
  21        3PY         0.88914
  22        3PZ         1.04048
  23        4S          0.94607
  24        4PX         0.89426
  25        4PY         0.72835
  26        4PZ         0.91964
  27 3   Cl 1S          1.99860
  28        2S          1.95902
  29        2PX         1.96612
  30        2PY         1.96899
  31        2PZ         1.97012
  32        3S          1.11011
  33        3PX         0.93344
  34        3PY         1.02204
  35        3PZ         1.04048
  36        4S          0.94607
  37        4PX         0.76982
  38        4PY         0.85278
  39        4PZ         0.91964
  40 4   Cl 1S          1.99860
  41        2S          1.95902
  42        2PX         1.96612
  43        2PY         1.96899
  44        2PZ         1.97012
  45        3S          1.11011
  46        3PX         0.93344
  47        3PY         1.02204
  48        3PZ         1.04048
  49        4S          0.94607
  50        4PX         0.76982
  51        4PY         0.85278
  52        4PZ         0.91964
          Condensed to atoms (all electrons):
               1          2          3          4
     1  Al  10.887639   0.246898   0.246898   0.246898
     2  Cl   0.246898  17.249841  -0.019758  -0.019758
     3  Cl   0.246898  -0.019758  17.249841  -0.019758
     4  Cl   0.246898  -0.019758  -0.019758  17.249841
 Mulliken charges:
               1
     1  Al   1.371667
     2  Cl  -0.457222
     3  Cl  -0.457222
     4  Cl  -0.457222
 Sum of Mulliken charges =   0.00000
 Mulliken charges with hydrogens summed into heavy atoms:
               1
     1  Al   1.371667
     2  Cl  -0.457222
     3  Cl  -0.457222
     4  Cl  -0.457222
 Electronic spatial extent (au):  <R**2>=            977.4618
 Charge=              0.0000 electrons
 Dipole moment (field-independent basis, Debye):
    X=              0.0000    Y=              0.0000    Z=             -0.0000  Tot=              0.0000
 Quadrupole moment (field-independent basis, Debye-Ang):
   XX=            -62.1298   YY=            -62.1298   ZZ=            -47.7132
   XY=              0.0000   XZ=              0.0000   YZ=             -0.0000
 Traceless Quadrupole moment (field-independent basis, Debye-Ang):
   XX=             -4.8055   YY=             -4.8055   ZZ=              9.6110
   XY=              0.0000   XZ=              0.0000   YZ=             -0.0000
 Octapole moment (field-independent basis, Debye-Ang**2):
  XXX=              0.0000  YYY=            -11.0765  ZZZ=             -0.0000  XYY=              0.0000
  XXY=             11.0765  XXZ=             -0.0000  XZZ=              0.0000  YZZ=              0.0000
  YYZ=             -0.0000  XYZ=              0.0000
 Hexadecapole moment (field-independent basis, Debye-Ang**3):
 XXXX=           -657.4033 YYYY=           -657.4033 ZZZZ=            -55.7176 XXXY=             -0.0000
 XXXZ=              0.0000 YYYX=              0.0000 YYYZ=             -0.0000 ZZZX=              0.0000
 ZZZY=             -0.0000 XXYY=           -219.1344 XXZZ=           -115.5078 YYZZ=           -115.5078
 XXYZ=              0.0000 YYXZ=              0.0000 ZZXY=              0.0000
 N-N= 2.850798505480D+02 E-N=-4.412059533659D+03  KE= 1.611085113042D+03
 Symmetry A1   KE= 9.789387495276D+02
 Symmetry A2   KE= 4.514851182780D+01
 Symmetry B1   KE= 4.776216990445D+02
 Symmetry B2   KE= 1.093761526419D+02
 Orbital energies and kinetic energies (alpha):
                                 1                 2
   1         (E')--O        -104.136241        136.077218
   2         (E')--O        -104.136241        136.077218
   3         (A1')--O       -104.136221        136.077714
   4         (A1')--O        -58.240951         78.663646
   5         (E')--O         -10.528579         22.340541
   6         (E')--O         -10.528579         22.340541
   7         (A1')--O        -10.528510         22.342020
   8         (E')--O          -7.991472         20.340132
   9         (E')--O          -7.991472         20.340132
  10         (A1')--O         -7.991363         20.343863
  11         (A2")--O         -7.988397         20.358538
  12         (E")--O          -7.988143         20.369814
  13         (E")--O          -7.988143         20.369814
  14         (E')--O          -7.988050         20.361452
  15         (E')--O          -7.988050         20.361452
  16         (A2')--O         -7.987991         20.364688
  17         (A1')--O         -5.041017         11.071185
  18         (E')--O          -3.345441          9.710002
  19         (E')--O          -3.345441          9.710002
  20         (A2")--O         -3.344675          9.744500
  21         (A1')--O         -1.132848          2.790565
  22         (E')--O          -1.113684          2.953937
  23         (E')--O          -1.113684          2.953937
  24         (A1')--O         -0.627183          2.047391
  25         (E')--O          -0.549821          2.115828
  26         (E')--O          -0.549821          2.115828
  27         (A2")--O         -0.521991          2.010782
  28         (E')--O          -0.495641          2.233880
  29         (E')--O          -0.495641          2.233880
  30         (E")--O          -0.494927          2.204442
  31         (E")--O          -0.494927          2.204442
  32         (A2')--O         -0.483587          2.313170
  33         (A1')--V          0.015752          1.757575
  34         (A2")--V          0.020870          1.027419
  35         (E')--V           0.148829          1.016191
  36         (E')--V           0.148829          1.016191
  37         (A1')--V          0.239679          1.293071
  38         (A2")--V          0.280646          1.250216
  39         (E')--V           0.335023          1.905717
  40         (E')--V           0.335023          1.905717
  41         (E')--V           0.723148          3.290243
  42         (E')--V           0.723148          3.290243
  43         (A1')--V          0.757105          3.270195
  44         (E")--V           0.772559          3.549680
  45         (E")--V           0.772559          3.549680
  46         (A2')--V          0.846130          3.569099
  47         (E')--V           0.866332          3.693876
  48         (E')--V           0.866332          3.693876
  49         (A2")--V          0.880739          3.576657
  50         (A1')--V          0.934262          3.548046
  51         (E')--V           1.002179          3.573883
  52         (E')--V           1.002179          3.573883
 Total kinetic energy from orbitals= 1.611085113042D+03
 1\1\GINC-IISERK51\SP\RHF\3-21G\Al1Cl3\GAUSSIAN\13-Jun-2025\0\\# hf/3-2
 1g pop=full geom=connectivity\\Title Card Required\\0,1\Al,0,0.,0.,0.\
 Cl,0,0.,2.159854,0.\Cl,0,-1.870489,-1.079927,0.\Cl,0,1.870489,-1.07992
 7,0.\\Version=EM64L-G16RevB.01\State=1-A1'\HF=-1612.696088\RMSD=1.595e
 -09\Dipole=0.,0.,0.\Quadrupole=-3.5727864,-3.5727864,7.1455727,0.,0.,0
 .\PG=D03H [O(Al1),3C2(Cl1)]\\@


 AND ALL THIS SCIENCE I DON'T UNDERSTAND
 IT'S JUST MY JOB FIVE DAYS A WEEK

                           -- ELTON JOHN, "ROCKET MAN"
 Job cpu time:       0 days  0 hours  0 minutes  0.4 seconds.
 Elapsed time:       0 days  0 hours  0 minutes  0.4 seconds.
 File lengths (MBytes):  RWF=      6 Int=      0 D2E=      0 Chk=      1 Scr=      1
 Normal termination of Gaussian 16 at Fri Jun 13 21:12:43 2025.
