 Entering Gaussian System, Link 0=g16
 Input=/home/gaussian/Documents/Summer_Internship/Acid_Base_adduct/Acid/AlCl3/neutral/AlCl3_opt.com
 Output=/home/gaussian/Documents/Summer_Internship/Acid_Base_adduct/Acid/AlCl3/neutral/AlCl3_opt.log
 Initial command:
 /usr/local/g16/l1.exe "/home/gaussian/tmp/Gau-31016.inp" -scrdir="/home/gaussian/tmp/"
 Entering Link 1 = /usr/local/g16/l1.exe PID=     31019.
  
 Copyright (c) 1988-2017, Gaussian, Inc.  All Rights Reserved.
  
 This is part of the Gaussian(R) 16 program.  It is based on
 the Gaussian(R) 09 system (copyright 2009, Gaussian, Inc.),
 the Gaussian(R) 03 system (copyright 2003, Gaussian, Inc.),
 the Gaussian(R) 98 system (copyright 1998, Gaussian, Inc.),
 the Gaussian(R) 94 system (copyright 1995, Gaussian, Inc.),
 the Gaussian 92(TM) system (copyright 1992, Gaussian, Inc.),
 the Gaussian 90(TM) system (copyright 1990, Gaussian, Inc.),
 the Gaussian 88(TM) system (copyright 1988, Gaussian, Inc.),
 the Gaussian 86(TM) system (copyright 1986, Carnegie Mellon
 University), and the Gaussian 82(TM) system (copyright 1983,
 Carnegie Mellon University). Gaussian is a federally registered
 trademark of Gaussian, Inc.
  
 This software contains proprietary and confidential information,
 including trade secrets, belonging to Gaussian, Inc.
  
 This software is provided under written license and may be
 used, copied, transmitted, or stored only in accord with that
 written license.
  
 The following legend is applicable only to US Government
 contracts under FAR:
  
                    RESTRICTED RIGHTS LEGEND
  
 Use, reproduction and disclosure by the US Government is
 subject to restrictions as set forth in subparagraphs (a)
 and (c) of the Commercial Computer Software - Restricted
 Rights clause in FAR 52.227-19.
  
 Gaussian, Inc.
 340 Quinnipiac St., Bldg. 40, Wallingford CT 06492
  
  
 ---------------------------------------------------------------
 Warning -- This program may not be used in any manner that
 competes with the business of Gaussian, Inc. or will provide
 assistance to any competitor of Gaussian, Inc.  The licensee
 of this program is prohibited from giving any competitor of
 Gaussian, Inc. access to this program.  By using this program,
 the user acknowledges that Gaussian, Inc. is engaged in the
 business of creating and licensing software in the field of
 computational chemistry and represents and warrants to the
 licensee that it is not a competitor of Gaussian, Inc. and that
 it will not use this program in any manner prohibited above.
 ---------------------------------------------------------------
  

 Cite this work as:
 Gaussian 16, Revision B.01,
 M. J. Frisch, G. W. Trucks, H. B. Schlegel, G. E. Scuseria, 
 M. A. Robb, J. R. Cheeseman, G. Scalmani, V. Barone, 
 G. A. Petersson, H. Nakatsuji, X. Li, M. Caricato, A. V. Marenich, 
 J. Bloino, B. G. Janesko, R. Gomperts, B. Mennucci, H. P. Hratchian, 
 J. V. Ortiz, A. F. Izmaylov, J. L. Sonnenberg, D. Williams-Young, 
 F. Ding, F. Lipparini, F. Egidi, J. Goings, B. Peng, A. Petrone, 
 T. Henderson, D. Ranasinghe, V. G. Zakrzewski, J. Gao, N. Rega, 
 G. Zheng, W. Liang, M. Hada, M. Ehara, K. Toyota, R. Fukuda, 
 J. Hasegawa, M. Ishida, T. Nakajima, Y. Honda, O. Kitao, H. Nakai, 
 T. Vreven, K. Throssell, J. A. Montgomery, Jr., J. E. Peralta, 
 F. Ogliaro, M. J. Bearpark, J. J. Heyd, E. N. Brothers, K. N. Kudin, 
 V. N. Staroverov, T. A. Keith, R. Kobayashi, J. Normand, 
 K. Raghavachari, A. P. Rendell, J. C. Burant, S. S. Iyengar, 
 J. Tomasi, M. Cossi, J. M. Millam, M. Klene, C. Adamo, R. Cammi, 
 J. W. Ochterski, R. L. Martin, K. Morokuma, O. Farkas, 
 J. B. Foresman, and D. J. Fox, Gaussian, Inc., Wallingford CT, 2016.
 
 ******************************************
 Gaussian 16:  EM64L-G16RevB.01 20-Dec-2017
                13-Jun-2025 
 ******************************************
 %chk=AlCl3_opt.chk
 -------------------------------------
 # opt freq hf/3-21g geom=connectivity
 -------------------------------------
 1/18=20,19=15,38=1,57=2/1,3;
 2/9=110,12=2,17=6,18=5,40=1/2;
 3/5=5,11=9,25=1,30=1,71=1/1,2,3;
 4//1;
 5/5=2,38=5/2;
 6/7=2,8=2,9=2,10=2,28=1/1;
 7//1,2,3,16;
 1/18=20,19=15/3(2);
 2/9=110/2;
 99//99;
 2/9=110/2;
 3/5=5,11=9,25=1,30=1,71=1/1,2,3;
 4/5=5,16=3,69=1/1;
 5/5=2,38=5/2;
 7//1,2,3,16;
 1/18=20,19=15/3(-5);
 2/9=110/2;
 6/7=2,8=2,9=2,10=2,19=2,28=1/1;
 99/9=1/99;
 -------------------
 Title Card Required
 -------------------
 Symbolic Z-matrix:
 Charge =  0 Multiplicity = 1
 Al                    1.20669   0.13841   0.01938 
 Cl                    3.44669   0.13841   0.01938 
 Cl                    0.08669  -1.80149   0.01938 
 Cl                    0.08669   2.0783    0.01938 
 

 GradGradGradGradGradGradGradGradGradGradGradGradGradGradGradGradGradGrad
 Berny optimization.
 Initialization pass.
                           ----------------------------
                           !    Initial Parameters    !
                           ! (Angstroms and Degrees)  !
 --------------------------                            --------------------------
 ! Name  Definition              Value          Derivative Info.                !
 --------------------------------------------------------------------------------
 ! R1    R(1,2)                  2.24           estimate D2E/DX2                !
 ! R2    R(1,3)                  2.24           estimate D2E/DX2                !
 ! R3    R(1,4)                  2.24           estimate D2E/DX2                !
 ! A1    A(2,1,3)              120.0            estimate D2E/DX2                !
 ! A2    A(2,1,4)              120.0            estimate D2E/DX2                !
 ! A3    A(3,1,4)              120.0            estimate D2E/DX2                !
 ! D1    D(2,1,4,3)            180.0            estimate D2E/DX2                !
 --------------------------------------------------------------------------------
 Trust Radius=3.00D-01 FncErr=1.00D-07 GrdErr=1.00D-07 EigMax=2.50D+02 EigMin=1.00D-04
 Number of steps in this run=     20 maximum allowed number of steps=    100.
 GradGradGradGradGradGradGradGradGradGradGradGradGradGradGradGradGradGrad

                          Input orientation:                          
 ---------------------------------------------------------------------
 Center     Atomic      Atomic             Coordinates (Angstroms)
 Number     Number       Type             X           Y           Z
 ---------------------------------------------------------------------
      1         13           0        1.206694    0.138408    0.019384
      2         17           0        3.446694    0.138408    0.019384
      3         17           0        0.086694   -1.801489    0.019384
      4         17           0        0.086694    2.078305    0.019384
 ---------------------------------------------------------------------
                    Distance matrix (angstroms):
                    1          2          3          4
     1  Al   0.000000
     2  Cl   2.240000   0.000000
     3  Cl   2.240000   3.879794   0.000000
     4  Cl   2.240000   3.879794   3.879794   0.000000
 Stoichiometry    AlCl3
 Framework group  D3H[O(Al),3C2(Cl)]
 Deg. of freedom     1
 Full point group                 D3H     NOp  12
 Largest Abelian subgroup         C2V     NOp   4
 Largest concise Abelian subgroup C2      NOp   2
                         Standard orientation:                         
 ---------------------------------------------------------------------
 Center     Atomic      Atomic             Coordinates (Angstroms)
 Number     Number       Type             X           Y           Z
 ---------------------------------------------------------------------
      1         13           0        0.000000    0.000000    0.000000
      2         17           0        0.000000    2.240000    0.000000
      3         17           0       -1.939897   -1.120000   -0.000000
      4         17           0        1.939897   -1.120000   -0.000000
 ---------------------------------------------------------------------
 Rotational constants (GHZ):           1.9202091           1.9202091           0.9601045
 Standard basis: 3-21G (6D, 7F)
 There are    24 symmetry adapted cartesian basis functions of A1  symmetry.
 There are     3 symmetry adapted cartesian basis functions of A2  symmetry.
 There are    16 symmetry adapted cartesian basis functions of B1  symmetry.
 There are     9 symmetry adapted cartesian basis functions of B2  symmetry.
 There are    24 symmetry adapted basis functions of A1  symmetry.
 There are     3 symmetry adapted basis functions of A2  symmetry.
 There are    16 symmetry adapted basis functions of B1  symmetry.
 There are     9 symmetry adapted basis functions of B2  symmetry.
    52 basis functions,   108 primitive gaussians,    52 cartesian basis functions
    32 alpha electrons       32 beta electrons
       nuclear repulsion energy       274.8798455648 Hartrees.
 NAtoms=    4 NActive=    4 NUniq=    2 SFac= 4.00D+00 NAtFMM=   60 NAOKFM=F Big=F
 Integral buffers will be    131072 words long.
 Raffenetti 1 integral format.
 Two-electron integral symmetry is turned on.
 One-electron integrals computed using PRISM.
 NBasis=    52 RedAO= T EigKep=  5.11D-02  NBF=    24     3    16     9
 NBsUse=    52 1.00D-06 EigRej= -1.00D+00 NBFU=    24     3    16     9
 ExpMin= 6.39D-02 ExpMax= 1.38D+03 ExpMxC= 1.38D+03 IAcc=3 IRadAn=         5 AccDes= 0.00D+00
 Harris functional with IExCor=  205 and IRadAn=       5 diagonalized for initial guess.
 HarFok:  IExCor=  205 AccDes= 0.00D+00 IRadAn=         5 IDoV= 1 UseB2=F ITyADJ=14
 ICtDFT=  3500011 ScaDFX=  1.000000  1.000000  1.000000  1.000000
 FoFCou: FMM=F IPFlag=           0 FMFlag=      100000 FMFlg1=           0
         NFxFlg=           0 DoJE=T BraDBF=F KetDBF=T FulRan=T
         wScrn=  0.000000 ICntrl=       500 IOpCl=  0 I1Cent=   200000004 NGrid=           0
         NMat0=    1 NMatS0=      1 NMatT0=    0 NMatD0=    1 NMtDS0=    0 NMtDT0=    0
 Petite list used in FoFCou.
 Initial guess orbital symmetries:
       Occupied  (A1') (E') (E') (A1') (A1') (E') (E') (E') (E')
                 (A1') (A2") (E') (E') (A2') (E") (E") (A1') (E')
                 (E') (A2") (A1') (E') (E') (A1') (E') (E') (A2")
                 (E') (E') (E") (E") (A2')
       Virtual   (A1') (A2") (E') (E') (A1') (A2") (E') (E') (E')
                 (E') (A1') (E") (E") (A2') (E') (E') (A2") (A1')
                 (E') (E')
 The electronic state of the initial guess is 1-A1'.
 Keep R1 ints in memory in symmetry-blocked form, NReq=1765238.
 Requested convergence on RMS density matrix=1.00D-08 within 128 cycles.
 Requested convergence on MAX density matrix=1.00D-06.
 Requested convergence on             energy=1.00D-06.
 No special actions if energy rises.
 SCF Done:  E(RHF) =  -1612.69056143     A.U. after   10 cycles
            NFock= 10  Conv=0.18D-08     -V/T= 2.0012

 **********************************************************************

            Population analysis using the SCF Density.

 **********************************************************************

 Orbital symmetries:
       Occupied  (A1') (E') (E') (A1') (A1') (E') (E') (E') (E')
                 (A1') (A2") (E") (E") (E') (E') (A2') (A1') (A2")
                 (E') (E') (A1') (E') (E') (A1') (E') (E') (A2")
                 (E") (E") (E') (E') (A2')
       Virtual   (A1') (A2") (E') (E') (A1') (A2") (E') (E') (E')
                 (E') (A1') (E") (E") (A2') (E') (E') (A2") (A1')
                 (E') (E')
 The electronic state is 1-A1'.
 Alpha  occ. eigenvalues -- -104.13750-104.13750-104.13750 -58.25446 -10.52807
 Alpha  occ. eigenvalues --  -10.52806 -10.52806  -7.99092  -7.99092  -7.99087
 Alpha  occ. eigenvalues --   -7.98808  -7.98784  -7.98784  -7.98777  -7.98777
 Alpha  occ. eigenvalues --   -7.98769  -5.05011  -3.35459  -3.35432  -3.35432
 Alpha  occ. eigenvalues --   -1.12072  -1.10583  -1.10583  -0.61846  -0.53957
 Alpha  occ. eigenvalues --   -0.53957  -0.51404  -0.49163  -0.49163  -0.49146
 Alpha  occ. eigenvalues --   -0.49146  -0.48235
 Alpha virt. eigenvalues --   -0.00727   0.00902   0.13502   0.13502   0.23254
 Alpha virt. eigenvalues --    0.28222   0.32178   0.32178   0.71924   0.71924
 Alpha virt. eigenvalues --    0.75505   0.77172   0.77172   0.83558   0.85653
 Alpha virt. eigenvalues --    0.85653   0.87527   0.94873   0.99955   0.99955
          Condensed to atoms (all electrons):
               1          2          3          4
     1  Al  10.883239   0.237427   0.237427   0.237427
     2  Cl   0.237427  17.259439  -0.014353  -0.014353
     3  Cl   0.237427  -0.014353  17.259439  -0.014353
     4  Cl   0.237427  -0.014353  -0.014353  17.259439
 Mulliken charges:
               1
     1  Al   1.404481
     2  Cl  -0.468160
     3  Cl  -0.468160
     4  Cl  -0.468160
 Sum of Mulliken charges =  -0.00000
 Mulliken charges with hydrogens summed into heavy atoms:
               1
     1  Al   1.404481
     2  Cl  -0.468160
     3  Cl  -0.468160
     4  Cl  -0.468160
 Electronic spatial extent (au):  <R**2>=           1043.3187
 Charge=             -0.0000 electrons
 Dipole moment (field-independent basis, Debye):
    X=              0.0000    Y=              0.0000    Z=             -0.0000  Tot=              0.0000
 Quadrupole moment (field-independent basis, Debye-Ang):
   XX=            -63.1370   YY=            -63.1370   ZZ=            -47.8969
   XY=              0.0000   XZ=             -0.0000   YZ=              0.0000
 Traceless Quadrupole moment (field-independent basis, Debye-Ang):
   XX=             -5.0800   YY=             -5.0800   ZZ=             10.1601
   XY=              0.0000   XZ=             -0.0000   YZ=              0.0000
 Octapole moment (field-independent basis, Debye-Ang**2):
  XXX=              0.0000  YYY=            -12.1335  ZZZ=             -0.0000  XYY=              0.0000
  XXY=             12.1335  XXZ=             -0.0000  XZZ=              0.0000  YZZ=              0.0000
  YYZ=             -0.0000  XYZ=              0.0000
 Hexadecapole moment (field-independent basis, Debye-Ang**3):
 XXXX=           -706.0833 YYYY=           -706.0833 ZZZZ=            -56.1744 XXXY=              0.0000
 XXXZ=             -0.0000 YYYX=              0.0000 YYYZ=              0.0000 ZZZX=             -0.0000
 ZZZY=              0.0000 XXYY=           -235.3611 XXZZ=           -123.1935 YYZZ=           -123.1935
 XXYZ=              0.0000 YYXZ=             -0.0000 ZZXY=              0.0000
 N-N= 2.748798455648D+02 E-N=-4.391411112172D+03  KE= 1.610783757251D+03
 Symmetry A1   KE= 9.787224052693D+02
 Symmetry A2   KE= 4.514738786142D+01
 Symmetry B1   KE= 4.774960617645D+02
 Symmetry B2   KE= 1.094179023555D+02
 Calling FoFJK, ICntrl=      2127 FMM=F ISym2X=1 I1Cent= 0 IOpClX= 0 NMat=1 NMatS=1 NMatT=0.
 ***** Axes restored to original set *****
 -------------------------------------------------------------------
 Center     Atomic                   Forces (Hartrees/Bohr)
 Number     Number              X              Y              Z
 -------------------------------------------------------------------
      1       13          -0.000000000   -0.000000000   -0.000000000
      2       17          -0.023094373   -0.000000000   -0.000000000
      3       17           0.011547187    0.020000314    0.000000000
      4       17           0.011547187   -0.020000314   -0.000000000
 -------------------------------------------------------------------
 Cartesian Forces:  Max     0.023094373 RMS     0.011547187

 GradGradGradGradGradGradGradGradGradGradGradGradGradGradGradGradGradGrad
 Berny optimization.
 FormGI is forming the generalized inverse of G from B-inverse, IUseBI=4.
 Internal  Forces:  Max     0.023094373 RMS     0.015118816
 Search for a local minimum.
 Step number   1 out of a maximum of   20
 All quantities printed in internal units (Hartrees-Bohrs-Radians)
 Mixed Optimization -- RFO/linear search
 Second derivative matrix not updated -- first step.
 The second derivative matrix:
                          R1        R2        R3        A1        A2
           R1           0.17088
           R2           0.00000   0.17088
           R3           0.00000   0.00000   0.17088
           A1           0.00000   0.00000   0.00000   0.25000
           A2           0.00000   0.00000   0.00000   0.00000   0.25000
           A3           0.00000   0.00000   0.00000   0.00000   0.00000
           D1           0.00000   0.00000   0.00000   0.00000   0.00000
                          A3        D1
           A3           0.25000
           D1           0.00000   0.00902
 ITU=  0
     Eigenvalues ---    0.00902   0.17088   0.17088   0.17088   0.25000
     Eigenvalues ---    0.25000
 RFO step:  Lambda=-8.90018994D-03 EMin= 9.01551763D-03
 Linear search not attempted -- first point.
 Iteration  1 RMS(Cart)=  0.08409754 RMS(Int)=  0.00000000
 Iteration  2 RMS(Cart)=  0.00000000 RMS(Int)=  0.00000000
 ClnCor:  largest displacement from symmetrization is 7.62D-12 for atom     1.
 Variable       Old X    -DE/DX   Delta X   Delta X   Delta X     New X
                                 (Linear)    (Quad)   (Total)
    R1        4.23299  -0.02309   0.00000  -0.12846  -0.12846   4.10453
    R2        4.23299  -0.02309   0.00000  -0.12846  -0.12846   4.10453
    R3        4.23299  -0.02309   0.00000  -0.12846  -0.12846   4.10453
    A1        2.09440   0.00000   0.00000   0.00000   0.00000   2.09440
    A2        2.09440  -0.00000   0.00000  -0.00000   0.00000   2.09440
    A3        2.09440   0.00000   0.00000   0.00000  -0.00000   2.09440
    D1        3.14159   0.00000   0.00000  -0.00000   0.00000   3.14159
         Item               Value     Threshold  Converged?
 Maximum Force            0.023094     0.000450     NO 
 RMS     Force            0.015119     0.000300     NO 
 Maximum Displacement     0.128461     0.001800     NO 
 RMS     Displacement     0.084098     0.001200     NO 
 Predicted change in Energy=-4.670403D-03
 GradGradGradGradGradGradGradGradGradGradGradGradGradGradGradGradGradGrad

                          Input orientation:                          
 ---------------------------------------------------------------------
 Center     Atomic      Atomic             Coordinates (Angstroms)
 Number     Number       Type             X           Y           Z
 ---------------------------------------------------------------------
      1         13           0        1.206694    0.138408    0.019384
      2         17           0        3.378715    0.138408    0.019384
      3         17           0        0.120683   -1.742618    0.019384
      4         17           0        0.120683    2.019434    0.019384
 ---------------------------------------------------------------------
                    Distance matrix (angstroms):
                    1          2          3          4
     1  Al   0.000000
     2  Cl   2.172021   0.000000
     3  Cl   2.172021   3.762051   0.000000
     4  Cl   2.172021   3.762051   3.762051   0.000000
 Stoichiometry    AlCl3
 Framework group  D3H[O(Al),3C2(Cl)]
 Deg. of freedom     1
 Full point group                 D3H     NOp  12
 Largest Abelian subgroup         C2V     NOp   4
 Largest concise Abelian subgroup C2      NOp   2
                         Standard orientation:                         
 ---------------------------------------------------------------------
 Center     Atomic      Atomic             Coordinates (Angstroms)
 Number     Number       Type             X           Y           Z
 ---------------------------------------------------------------------
      1         13           0        0.000000    0.000000    0.000000
      2         17           0        0.000000    2.172021    0.000000
      3         17           0       -1.881026   -1.086011    0.000000
      4         17           0        1.881026   -1.086011    0.000000
 ---------------------------------------------------------------------
 Rotational constants (GHZ):           2.0422852           2.0422852           1.0211426
 Standard basis: 3-21G (6D, 7F)
 There are    24 symmetry adapted cartesian basis functions of A1  symmetry.
 There are     3 symmetry adapted cartesian basis functions of A2  symmetry.
 There are    16 symmetry adapted cartesian basis functions of B1  symmetry.
 There are     9 symmetry adapted cartesian basis functions of B2  symmetry.
 There are    24 symmetry adapted basis functions of A1  symmetry.
 There are     3 symmetry adapted basis functions of A2  symmetry.
 There are    16 symmetry adapted basis functions of B1  symmetry.
 There are     9 symmetry adapted basis functions of B2  symmetry.
    52 basis functions,   108 primitive gaussians,    52 cartesian basis functions
    32 alpha electrons       32 beta electrons
       nuclear repulsion energy       283.4828797453 Hartrees.
 NAtoms=    4 NActive=    4 NUniq=    2 SFac= 4.00D+00 NAtFMM=   60 NAOKFM=F Big=F
 Integral buffers will be    131072 words long.
 Raffenetti 1 integral format.
 Two-electron integral symmetry is turned on.
 One-electron integrals computed using PRISM.
 NBasis=    52 RedAO= T EigKep=  4.79D-02  NBF=    24     3    16     9
 NBsUse=    52 1.00D-06 EigRej= -1.00D+00 NBFU=    24     3    16     9
 Initial guess from the checkpoint file:  "AlCl3_opt.chk"
 B after Tr=     0.000000    0.000000   -0.000000
         Rot=    1.000000    0.000000   -0.000000   -0.000000 Ang=   0.00 deg.
 Initial guess orbital symmetries:
       Occupied  (A1') (?A) (?A) (?B) (?B) (?A) (?A) (?A) (?A)
                 (?B) (A2") (E") (E") (?A) (?A) (?B) (?B) (A2")
                 (?A) (?A) (?B) (?A) (?A) (?B) (?A) (?A) (A2")
                 (E") (E") (?A) (?A) (?B)
       Virtual   (?B) (A2") (?A) (?A) (?B) (A2") (?A) (?A) (?A)
                 (?A) (?B) (E") (E") (?B) (?A) (?A) (A2") (?B)
                 (?A) (?A)
 ExpMin= 6.39D-02 ExpMax= 1.38D+03 ExpMxC= 1.38D+03 IAcc=3 IRadAn=         5 AccDes= 0.00D+00
 Harris functional with IExCor=  205 and IRadAn=       5 diagonalized for initial guess.
 HarFok:  IExCor=  205 AccDes= 0.00D+00 IRadAn=         5 IDoV= 1 UseB2=F ITyADJ=14
 ICtDFT=  3500011 ScaDFX=  1.000000  1.000000  1.000000  1.000000
 FoFCou: FMM=F IPFlag=           0 FMFlag=      100000 FMFlg1=           0
         NFxFlg=           0 DoJE=T BraDBF=F KetDBF=T FulRan=T
         wScrn=  0.000000 ICntrl=       500 IOpCl=  0 I1Cent=   200000004 NGrid=           0
         NMat0=    1 NMatS0=      1 NMatT0=    0 NMatD0=    1 NMtDS0=    0 NMtDT0=    0
 Petite list used in FoFCou.
 Keep R1 ints in memory in symmetry-blocked form, NReq=1765289.
 Requested convergence on RMS density matrix=1.00D-08 within 128 cycles.
 Requested convergence on MAX density matrix=1.00D-06.
 Requested convergence on             energy=1.00D-06.
 No special actions if energy rises.
 SCF Done:  E(RHF) =  -1612.69594959     A.U. after    9 cycles
            NFock=  9  Conv=0.42D-08     -V/T= 2.0010
 Calling FoFJK, ICntrl=      2127 FMM=F ISym2X=1 I1Cent= 0 IOpClX= 0 NMat=1 NMatS=1 NMatT=0.
 ***** Axes restored to original set *****
 -------------------------------------------------------------------
 Center     Atomic                   Forces (Hartrees/Bohr)
 Number     Number              X              Y              Z
 -------------------------------------------------------------------
      1       13           0.000000000   -0.000000000   -0.000000000
      2       17          -0.003991451   -0.000000000   -0.000000000
      3       17           0.001995725    0.003456698    0.000000000
      4       17           0.001995725   -0.003456698   -0.000000000
 -------------------------------------------------------------------
 Cartesian Forces:  Max     0.003991451 RMS     0.001995725

 GradGradGradGradGradGradGradGradGradGradGradGradGradGradGradGradGradGrad
 Berny optimization.
 Using GEDIIS/GDIIS optimizer.
 FormGI is forming the generalized inverse of G from B-inverse, IUseBI=4.
 Internal  Forces:  Max     0.003991451 RMS     0.002613018
 Search for a local minimum.
 Step number   2 out of a maximum of   20
 All quantities printed in internal units (Hartrees-Bohrs-Radians)
 Mixed Optimization -- RFO/linear search
 Update second derivatives using D2CorX and points    1    2
 DE= -5.39D-03 DEPred=-4.67D-03 R= 1.15D+00
 TightC=F SS=  1.41D+00  RLast= 2.23D-01 DXNew= 5.0454D-01 6.6750D-01
 Trust test= 1.15D+00 RLast= 2.23D-01 DXMaxT set to 5.05D-01
 The second derivative matrix:
                          R1        R2        R3        A1        A2
           R1           0.16349
           R2          -0.00739   0.16349
           R3          -0.00739  -0.00739   0.16349
           A1          -0.00000  -0.00000  -0.00000   0.25000
           A2           0.00000   0.00000   0.00000  -0.00000   0.25000
           A3           0.00000   0.00000   0.00000  -0.00000   0.00000
           D1          -0.00000  -0.00000  -0.00000   0.00000  -0.00000
                          A3        D1
           A3           0.25000
           D1          -0.00000   0.00902
 ITU=  1  0
 Use linear search instead of GDIIS.
     Eigenvalues ---    0.00902   0.14871   0.17088   0.17088   0.25000
     Eigenvalues ---    0.25000
 RFO step:  Lambda= 0.00000000D+00 EMin= 9.01551763D-03
 Quartic linear search produced a step of  0.17898.
 Iteration  1 RMS(Cart)=  0.01505202 RMS(Int)=  0.00000000
 Iteration  2 RMS(Cart)=  0.00000000 RMS(Int)=  0.00000000
 ClnCor:  largest displacement from symmetrization is 7.54D-13 for atom     4.
 Variable       Old X    -DE/DX   Delta X   Delta X   Delta X     New X
                                 (Linear)    (Quad)   (Total)
    R1        4.10453  -0.00399  -0.02299  -0.00000  -0.02299   4.08153
    R2        4.10453  -0.00399  -0.02299   0.00000  -0.02299   4.08153
    R3        4.10453  -0.00399  -0.02299   0.00000  -0.02299   4.08153
    A1        2.09440  -0.00000   0.00000  -0.00000   0.00000   2.09440
    A2        2.09440   0.00000  -0.00000   0.00000  -0.00000   2.09440
    A3        2.09440   0.00000  -0.00000   0.00000   0.00000   2.09440
    D1        3.14159   0.00000   0.00000  -0.00000   0.00000   3.14159
         Item               Value     Threshold  Converged?
 Maximum Force            0.003991     0.000450     NO 
 RMS     Force            0.002613     0.000300     NO 
 Maximum Displacement     0.022992     0.001800     NO 
 RMS     Displacement     0.015052     0.001200     NO 
 Predicted change in Energy=-1.573989D-04
 GradGradGradGradGradGradGradGradGradGradGradGradGradGradGradGradGradGrad

                          Input orientation:                          
 ---------------------------------------------------------------------
 Center     Atomic      Atomic             Coordinates (Angstroms)
 Number     Number       Type             X           Y           Z
 ---------------------------------------------------------------------
      1         13           0        1.206694    0.138408    0.019384
      2         17           0        3.366548    0.138408    0.019384
      3         17           0        0.126767   -1.732081    0.019384
      4         17           0        0.126767    2.008897    0.019384
 ---------------------------------------------------------------------
                    Distance matrix (angstroms):
                    1          2          3          4
     1  Al   0.000000
     2  Cl   2.159854   0.000000
     3  Cl   2.159854   3.740977   0.000000
     4  Cl   2.159854   3.740977   3.740977   0.000000
 Stoichiometry    AlCl3
 Framework group  D3H[O(Al),3C2(Cl)]
 Deg. of freedom     1
 Full point group                 D3H     NOp  12
 Largest Abelian subgroup         C2V     NOp   4
 Largest concise Abelian subgroup C2      NOp   2
                         Standard orientation:                         
 ---------------------------------------------------------------------
 Center     Atomic      Atomic             Coordinates (Angstroms)
 Number     Number       Type             X           Y           Z
 ---------------------------------------------------------------------
      1         13           0        0.000000    0.000000    0.000000
      2         17           0        0.000000    2.159854    0.000000
      3         17           0       -1.870489   -1.079927    0.000000
      4         17           0        1.870489   -1.079927    0.000000
 ---------------------------------------------------------------------
 Rotational constants (GHZ):           2.0653595           2.0653595           1.0326797
 Standard basis: 3-21G (6D, 7F)
 There are    24 symmetry adapted cartesian basis functions of A1  symmetry.
 There are     3 symmetry adapted cartesian basis functions of A2  symmetry.
 There are    16 symmetry adapted cartesian basis functions of B1  symmetry.
 There are     9 symmetry adapted cartesian basis functions of B2  symmetry.
 There are    24 symmetry adapted basis functions of A1  symmetry.
 There are     3 symmetry adapted basis functions of A2  symmetry.
 There are    16 symmetry adapted basis functions of B1  symmetry.
 There are     9 symmetry adapted basis functions of B2  symmetry.
    52 basis functions,   108 primitive gaussians,    52 cartesian basis functions
    32 alpha electrons       32 beta electrons
       nuclear repulsion energy       285.0798131468 Hartrees.
 NAtoms=    4 NActive=    4 NUniq=    2 SFac= 4.00D+00 NAtFMM=   60 NAOKFM=F Big=F
 Integral buffers will be    131072 words long.
 Raffenetti 1 integral format.
 Two-electron integral symmetry is turned on.
 One-electron integrals computed using PRISM.
 NBasis=    52 RedAO= T EigKep=  4.73D-02  NBF=    24     3    16     9
 NBsUse=    52 1.00D-06 EigRej= -1.00D+00 NBFU=    24     3    16     9
 Initial guess from the checkpoint file:  "AlCl3_opt.chk"
 B after Tr=     0.000000    0.000000    0.000000
         Rot=    1.000000    0.000000    0.000000    0.000000 Ang=   0.00 deg.
 Initial guess orbital symmetries:
       Occupied  (?A) (?A) (A1') (?B) (?A) (?A) (?B) (?A) (?A)
                 (?B) (A2") (E") (E") (?A) (?A) (?B) (?B) (?A)
                 (?A) (A2") (?B) (?A) (?A) (?B) (?A) (?A) (A2")
                 (?A) (?A) (E") (E") (?B)
       Virtual   (?B) (A2") (?A) (?A) (?B) (A2") (?A) (?A) (?A)
                 (?A) (?B) (E") (E") (?B) (?A) (?A) (A2") (?B)
                 (?A) (?A)
 ExpMin= 6.39D-02 ExpMax= 1.38D+03 ExpMxC= 1.38D+03 IAcc=3 IRadAn=         5 AccDes= 0.00D+00
 Harris functional with IExCor=  205 and IRadAn=       5 diagonalized for initial guess.
 HarFok:  IExCor=  205 AccDes= 0.00D+00 IRadAn=         5 IDoV= 1 UseB2=F ITyADJ=14
 ICtDFT=  3500011 ScaDFX=  1.000000  1.000000  1.000000  1.000000
 FoFCou: FMM=F IPFlag=           0 FMFlag=      100000 FMFlg1=           0
         NFxFlg=           0 DoJE=T BraDBF=F KetDBF=T FulRan=T
         wScrn=  0.000000 ICntrl=       500 IOpCl=  0 I1Cent=   200000004 NGrid=           0
         NMat0=    1 NMatS0=      1 NMatT0=    0 NMatD0=    1 NMtDS0=    0 NMtDT0=    0
 Petite list used in FoFCou.
 Keep R1 ints in memory in symmetry-blocked form, NReq=1765289.
 Requested convergence on RMS density matrix=1.00D-08 within 128 cycles.
 Requested convergence on MAX density matrix=1.00D-06.
 Requested convergence on             energy=1.00D-06.
 No special actions if energy rises.
 SCF Done:  E(RHF) =  -1612.69608795     A.U. after    8 cycles
            NFock=  8  Conv=0.56D-08     -V/T= 2.0010
 Calling FoFJK, ICntrl=      2127 FMM=F ISym2X=1 I1Cent= 0 IOpClX= 0 NMat=1 NMatS=1 NMatT=0.
 ***** Axes restored to original set *****
 -------------------------------------------------------------------
 Center     Atomic                   Forces (Hartrees/Bohr)
 Number     Number              X              Y              Z
 -------------------------------------------------------------------
      1       13           0.000000000    0.000000000   -0.000000000
      2       17           0.000011502    0.000000000   -0.000000000
      3       17          -0.000005751   -0.000009961    0.000000000
      4       17          -0.000005751    0.000009961   -0.000000000
 -------------------------------------------------------------------
 Cartesian Forces:  Max     0.000011502 RMS     0.000005751

 GradGradGradGradGradGradGradGradGradGradGradGradGradGradGradGradGradGrad
 Berny optimization.
 Using GEDIIS/GDIIS optimizer.
 FormGI is forming the generalized inverse of G from B-inverse, IUseBI=4.
 Internal  Forces:  Max     0.000011502 RMS     0.000007530
 Search for a local minimum.
 Step number   3 out of a maximum of   20
 All quantities printed in internal units (Hartrees-Bohrs-Radians)
 Mixed Optimization -- En-DIIS/RFO-DIIS
 Update second derivatives using D2CorX and points    1    2    3
 DE= -1.38D-04 DEPred=-1.57D-04 R= 8.79D-01
 TightC=F SS=  1.41D+00  RLast= 3.98D-02 DXNew= 8.4853D-01 1.1947D-01
 Trust test= 8.79D-01 RLast= 3.98D-02 DXMaxT set to 5.05D-01
 The second derivative matrix:
                          R1        R2        R3        A1        A2
           R1           0.17195
           R2           0.00107   0.17195
           R3           0.00107   0.00107   0.17195
           A1           0.00000   0.00000   0.00000   0.25000
           A2           0.00000   0.00000   0.00000   0.00000   0.25000
           A3          -0.00000  -0.00000  -0.00000  -0.00000  -0.00000
           D1          -0.00000  -0.00000  -0.00000  -0.00000  -0.00000
                          A3        D1
           A3           0.25000
           D1           0.00000   0.00902
 ITU=  1  1  0
 Use linear search instead of GDIIS.
     Eigenvalues ---    0.00902   0.17088   0.17088   0.17410   0.25000
     Eigenvalues ---    0.25000
 RFO step:  Lambda= 0.00000000D+00 EMin= 9.01551763D-03
 Quartic linear search produced a step of -0.00281.
 Iteration  1 RMS(Cart)=  0.00004224 RMS(Int)=  0.00000000
 Iteration  2 RMS(Cart)=  0.00000000 RMS(Int)=  0.00000000
 ClnCor:  largest displacement from symmetrization is 1.61D-13 for atom     1.
 Variable       Old X    -DE/DX   Delta X   Delta X   Delta X     New X
                                 (Linear)    (Quad)   (Total)
    R1        4.08153   0.00001   0.00006  -0.00000   0.00006   4.08160
    R2        4.08153   0.00001   0.00006   0.00000   0.00006   4.08160
    R3        4.08153   0.00001   0.00006  -0.00000   0.00006   4.08160
    A1        2.09440  -0.00000   0.00000  -0.00000   0.00000   2.09440
    A2        2.09440   0.00000   0.00000   0.00000   0.00000   2.09440
    A3        2.09440  -0.00000  -0.00000  -0.00000   0.00000   2.09440
    D1        3.14159  -0.00000   0.00000  -0.00000   0.00000   3.14159
         Item               Value     Threshold  Converged?
 Maximum Force            0.000012     0.000450     YES
 RMS     Force            0.000008     0.000300     YES
 Maximum Displacement     0.000065     0.001800     YES
 RMS     Displacement     0.000042     0.001200     YES
 Predicted change in Energy=-1.139255D-09
 Optimization completed.
    -- Stationary point found.
                           ----------------------------
                           !   Optimized Parameters   !
                           ! (Angstroms and Degrees)  !
 --------------------------                            --------------------------
 ! Name  Definition              Value          Derivative Info.                !
 --------------------------------------------------------------------------------
 ! R1    R(1,2)                  2.1599         -DE/DX =    0.0                 !
 ! R2    R(1,3)                  2.1599         -DE/DX =    0.0                 !
 ! R3    R(1,4)                  2.1599         -DE/DX =    0.0                 !
 ! A1    A(2,1,3)              120.0            -DE/DX =    0.0                 !
 ! A2    A(2,1,4)              120.0            -DE/DX =    0.0                 !
 ! A3    A(3,1,4)              120.0            -DE/DX =    0.0                 !
 ! D1    D(2,1,4,3)            180.0            -DE/DX =    0.0                 !
 --------------------------------------------------------------------------------
 GradGradGradGradGradGradGradGradGradGradGradGradGradGradGradGradGradGrad

                          Input orientation:                          
 ---------------------------------------------------------------------
 Center     Atomic      Atomic             Coordinates (Angstroms)
 Number     Number       Type             X           Y           Z
 ---------------------------------------------------------------------
      1         13           0        1.206694    0.138408    0.019384
      2         17           0        3.366548    0.138408    0.019384
      3         17           0        0.126767   -1.732081    0.019384
      4         17           0        0.126767    2.008897    0.019384
 ---------------------------------------------------------------------
                    Distance matrix (angstroms):
                    1          2          3          4
     1  Al   0.000000
     2  Cl   2.159854   0.000000
     3  Cl   2.159854   3.740977   0.000000
     4  Cl   2.159854   3.740977   3.740977   0.000000
 Stoichiometry    AlCl3
 Framework group  D3H[O(Al),3C2(Cl)]
 Deg. of freedom     1
 Full point group                 D3H     NOp  12
 Largest Abelian subgroup         C2V     NOp   4
 Largest concise Abelian subgroup C2      NOp   2
                         Standard orientation:                         
 ---------------------------------------------------------------------
 Center     Atomic      Atomic             Coordinates (Angstroms)
 Number     Number       Type             X           Y           Z
 ---------------------------------------------------------------------
      1         13           0        0.000000    0.000000    0.000000
      2         17           0        0.000000    2.159854    0.000000
      3         17           0       -1.870489   -1.079927    0.000000
      4         17           0        1.870489   -1.079927    0.000000
 ---------------------------------------------------------------------
 Rotational constants (GHZ):           2.0653595           2.0653595           1.0326797

 **********************************************************************

            Population analysis using the SCF Density.

 **********************************************************************

 Orbital symmetries:
       Occupied  (?A) (?A) (A1') (?B) (?A) (?A) (?B) (?A) (?A)
                 (?B) (A2") (E") (E") (?A) (?A) (?B) (?B) (?A)
                 (?A) (A2") (?B) (?A) (?A) (?B) (?A) (?A) (A2")
                 (?A) (?A) (E") (E") (?B)
       Virtual   (?B) (A2") (?A) (?A) (?B) (A2") (?A) (?A) (?A)
                 (?A) (?B) (E") (E") (?B) (?A) (?A) (A2") (?B)
                 (?A) (?A)
 Unable to determine electronic state:  an orbital has unidentified symmetry.
 Alpha  occ. eigenvalues -- -104.13624-104.13624-104.13622 -58.24095 -10.52858
 Alpha  occ. eigenvalues --  -10.52858 -10.52851  -7.99147  -7.99147  -7.99136
 Alpha  occ. eigenvalues --   -7.98840  -7.98814  -7.98814  -7.98805  -7.98805
 Alpha  occ. eigenvalues --   -7.98799  -5.04102  -3.34544  -3.34544  -3.34468
 Alpha  occ. eigenvalues --   -1.13285  -1.11368  -1.11368  -0.62718  -0.54982
 Alpha  occ. eigenvalues --   -0.54982  -0.52199  -0.49564  -0.49564  -0.49493
 Alpha  occ. eigenvalues --   -0.49493  -0.48359
 Alpha virt. eigenvalues --    0.01575   0.02087   0.14883   0.14883   0.23968
 Alpha virt. eigenvalues --    0.28065   0.33502   0.33502   0.72315   0.72315
 Alpha virt. eigenvalues --    0.75710   0.77256   0.77256   0.84613   0.86633
 Alpha virt. eigenvalues --    0.86633   0.88074   0.93426   1.00218   1.00218
          Condensed to atoms (all electrons):
               1          2          3          4
     1  Al  10.887639   0.246898   0.246898   0.246898
     2  Cl   0.246898  17.249841  -0.019758  -0.019758
     3  Cl   0.246898  -0.019758  17.249841  -0.019758
     4  Cl   0.246898  -0.019758  -0.019758  17.249841
 Mulliken charges:
               1
     1  Al   1.371667
     2  Cl  -0.457222
     3  Cl  -0.457222
     4  Cl  -0.457222
 Sum of Mulliken charges =  -0.00000
 Mulliken charges with hydrogens summed into heavy atoms:
               1
     1  Al   1.371667
     2  Cl  -0.457222
     3  Cl  -0.457222
     4  Cl  -0.457222
 Electronic spatial extent (au):  <R**2>=            977.4620
 Charge=             -0.0000 electrons
 Dipole moment (field-independent basis, Debye):
    X=             -0.0000    Y=             -0.0000    Z=              0.0000  Tot=              0.0000
 Quadrupole moment (field-independent basis, Debye-Ang):
   XX=            -62.1298   YY=            -62.1298   ZZ=            -47.7132
   XY=              0.0000   XZ=             -0.0000   YZ=             -0.0000
 Traceless Quadrupole moment (field-independent basis, Debye-Ang):
   XX=             -4.8055   YY=             -4.8055   ZZ=              9.6110
   XY=              0.0000   XZ=             -0.0000   YZ=             -0.0000
 Octapole moment (field-independent basis, Debye-Ang**2):
  XXX=             -0.0000  YYY=            -11.0765  ZZZ=              0.0000  XYY=             -0.0000
  XXY=             11.0765  XXZ=              0.0000  XZZ=             -0.0000  YZZ=              0.0000
  YYZ=             -0.0000  XYZ=              0.0000
 Hexadecapole moment (field-independent basis, Debye-Ang**3):
 XXXX=           -657.4034 YYYY=           -657.4034 ZZZZ=            -55.7176 XXXY=              0.0000
 XXXZ=             -0.0000 YYYX=             -0.0000 YYYZ=             -0.0000 ZZZX=              0.0000
 ZZZY=             -0.0000 XXYY=           -219.1345 XXZZ=           -115.5079 YYZZ=           -115.5079
 XXYZ=             -0.0000 YYXZ=             -0.0000 ZZXY=             -0.0000
 N-N= 2.850798131468D+02 E-N=-4.412059457901D+03  KE= 1.611085111860D+03
 Symmetry A1   KE= 9.789387486694D+02
 Symmetry A2   KE= 4.514851185133D+01
 Symmetry B1   KE= 4.776216984606D+02
 Symmetry B2   KE= 1.093761528791D+02
 1\1\GINC-IISERK51\FOpt\RHF\3-21G\Al1Cl3\GAUSSIAN\13-Jun-2025\0\\# opt 
 freq hf/3-21g geom=connectivity\\Title Card Required\\0,1\Al,1.2066939
 847,0.13840795,0.01938404\Cl,3.3665482681,0.1384079527,0.01938404\Cl,0
 .1267668453,-1.7320807292,0.01938404\Cl,0.1267668407,2.0088966265,0.01
 938404\\Version=EM64L-G16RevB.01\HF=-1612.696088\RMSD=5.629e-09\RMSF=5
 .751e-06\Dipole=0.,0.,0.\Quadrupole=-3.5727871,-3.5727871,7.1455742,0.
 ,0.,0.\PG=D03H [O(Al1),3C2(Cl1)]\\@


 HIGGLEDY-PIGGLEDY
 NIC'LAUS COPERNICUS
 LOOKED AT THE UNIVERSE,
 SPOKE TO THE THRONG;
 GIVE UP YOUR PTOLOMY,
 RISE UP AND FOLLOW ME,
 HELIOCENTRICALLY
 PTOLEMY'S WRONG.
   -- NANCY L. STARK
 Job cpu time:       0 days  0 hours  0 minutes  1.4 seconds.
 Elapsed time:       0 days  0 hours  0 minutes  1.4 seconds.
 File lengths (MBytes):  RWF=      6 Int=      0 D2E=      0 Chk=      1 Scr=      1
 Normal termination of Gaussian 16 at Fri Jun 13 21:11:53 2025.
 Link1:  Proceeding to internal job step number  2.
 --------------------------------------------------------------
 #N Geom=AllCheck Guess=TCheck SCRF=Check GenChk RHF/3-21G Freq
 --------------------------------------------------------------
 1/10=4,29=7,30=1,38=1,40=1/1,3;
 2/12=2,40=1/2;
 3/5=5,11=1,14=-4,25=1,30=1,70=2,71=2,116=1,140=1/1,2,3;
 4/5=101/1;
 5/5=2,38=6,98=1/2;
 8/6=4,10=90,11=11/1;
 10/13=10,15=4/2;
 11/6=3,8=1,9=11,15=111,16=1/1,2,10;
 10/6=1/2;
 6/7=2,8=2,9=2,10=2,28=1/1;
 7/8=1,10=1,25=1/1,2,3,16;
 1/10=4,30=1/3;
 99//99;
 Structure from the checkpoint file:  "AlCl3_opt.chk"
 -------------------
 Title Card Required
 -------------------
 Charge =  0 Multiplicity = 1
 Redundant internal coordinates found in file.  (old form).
 Al,0,1.2066939847,0.13840795,0.01938404
 Cl,0,3.3665482681,0.1384079527,0.01938404
 Cl,0,0.1267668453,-1.7320807292,0.01938404
 Cl,0,0.1267668407,2.0088966265,0.01938404
 Recover connectivity data from disk.

 GradGradGradGradGradGradGradGradGradGradGradGradGradGradGradGradGradGrad
 Berny optimization.
 Initialization pass.
                           ----------------------------
                           !    Initial Parameters    !
                           ! (Angstroms and Degrees)  !
 --------------------------                            --------------------------
 ! Name  Definition              Value          Derivative Info.                !
 --------------------------------------------------------------------------------
 ! R1    R(1,2)                  2.1599         calculate D2E/DX2 analytically  !
 ! R2    R(1,3)                  2.1599         calculate D2E/DX2 analytically  !
 ! R3    R(1,4)                  2.1599         calculate D2E/DX2 analytically  !
 ! A1    A(2,1,3)              120.0            calculate D2E/DX2 analytically  !
 ! A2    A(2,1,4)              120.0            calculate D2E/DX2 analytically  !
 ! A3    A(3,1,4)              120.0            calculate D2E/DX2 analytically  !
 ! D1    D(2,1,4,3)            180.0            calculate D2E/DX2 analytically  !
 --------------------------------------------------------------------------------
 Trust Radius=3.00D-01 FncErr=1.00D-07 GrdErr=1.00D-07 EigMax=2.50D+02 EigMin=1.00D-04
 Number of steps in this run=      2 maximum allowed number of steps=      2.
 GradGradGradGradGradGradGradGradGradGradGradGradGradGradGradGradGradGrad

                          Input orientation:                          
 ---------------------------------------------------------------------
 Center     Atomic      Atomic             Coordinates (Angstroms)
 Number     Number       Type             X           Y           Z
 ---------------------------------------------------------------------
      1         13           0        1.206694    0.138408    0.019384
      2         17           0        3.366548    0.138408    0.019384
      3         17           0        0.126767   -1.732081    0.019384
      4         17           0        0.126767    2.008897    0.019384
 ---------------------------------------------------------------------
                    Distance matrix (angstroms):
                    1          2          3          4
     1  Al   0.000000
     2  Cl   2.159854   0.000000
     3  Cl   2.159854   3.740977   0.000000
     4  Cl   2.159854   3.740977   3.740977   0.000000
 Stoichiometry    AlCl3
 Framework group  D3H[O(Al),3C2(Cl)]
 Deg. of freedom     1
 Full point group                 D3H     NOp  12
 Largest Abelian subgroup         C2V     NOp   4
 Largest concise Abelian subgroup C2      NOp   2
                         Standard orientation:                         
 ---------------------------------------------------------------------
 Center     Atomic      Atomic             Coordinates (Angstroms)
 Number     Number       Type             X           Y           Z
 ---------------------------------------------------------------------
      1         13           0        0.000000    0.000000    0.000000
      2         17           0        0.000000    2.159854    0.000000
      3         17           0       -1.870489   -1.079927    0.000000
      4         17           0        1.870489   -1.079927    0.000000
 ---------------------------------------------------------------------
 Rotational constants (GHZ):           2.0653595           2.0653595           1.0326797
 Standard basis: 3-21G (6D, 7F)
 There are    24 symmetry adapted cartesian basis functions of A1  symmetry.
 There are     3 symmetry adapted cartesian basis functions of A2  symmetry.
 There are    16 symmetry adapted cartesian basis functions of B1  symmetry.
 There are     9 symmetry adapted cartesian basis functions of B2  symmetry.
 There are    24 symmetry adapted basis functions of A1  symmetry.
 There are     3 symmetry adapted basis functions of A2  symmetry.
 There are    16 symmetry adapted basis functions of B1  symmetry.
 There are     9 symmetry adapted basis functions of B2  symmetry.
    52 basis functions,   108 primitive gaussians,    52 cartesian basis functions
    32 alpha electrons       32 beta electrons
       nuclear repulsion energy       285.0798131468 Hartrees.
 NAtoms=    4 NActive=    4 NUniq=    2 SFac= 4.00D+00 NAtFMM=   60 NAOKFM=F Big=F
 Integral buffers will be    131072 words long.
 Raffenetti 1 integral format.
 Two-electron integral symmetry is turned on.
 One-electron integrals computed using PRISM.
 NBasis=    52 RedAO= T EigKep=  4.73D-02  NBF=    24     3    16     9
 NBsUse=    52 1.00D-06 EigRej= -1.00D+00 NBFU=    24     3    16     9
 Initial guess from the checkpoint file:  "AlCl3_opt.chk"
 B after Tr=     0.000000    0.000000    0.000000
         Rot=    1.000000    0.000000    0.000000    0.000000 Ang=   0.00 deg.
 Initial guess orbital symmetries:
       Occupied  (?A) (?A) (A1') (?B) (?A) (?A) (?B) (?A) (?A)
                 (?B) (A2") (E") (E") (?A) (?A) (?B) (?B) (?A)
                 (?A) (A2") (?B) (?A) (?A) (?B) (?A) (?A) (A2")
                 (?A) (?A) (E") (E") (?B)
       Virtual   (?B) (A2") (?A) (?A) (?B) (A2") (?A) (?A) (?A)
                 (?A) (?B) (E") (E") (?B) (?A) (?A) (A2") (?B)
                 (?A) (?A)
 Keep R1 ints in memory in symmetry-blocked form, NReq=1765289.
 Requested convergence on RMS density matrix=1.00D-08 within 128 cycles.
 Requested convergence on MAX density matrix=1.00D-06.
 Requested convergence on             energy=1.00D-06.
 No special actions if energy rises.
 SCF Done:  E(RHF) =  -1612.69608795     A.U. after    1 cycles
            NFock=  1  Conv=0.54D-09     -V/T= 2.0010
 Range of M.O.s used for correlation:     1    52
 NBasis=    52 NAE=    32 NBE=    32 NFC=     0 NFV=     0
 NROrb=     52 NOA=    32 NOB=    32 NVA=    20 NVB=    20
          Differentiating once with respect to electric field.
                with respect to dipole field.
          Electric field/nuclear overlap derivatives assumed to be zero.
 Keep R1 ints in memory in symmetry-blocked form, NReq=1765886.
          There are     3 degrees of freedom in the 1st order CPHF.  IDoFFX=0 NUNeed=     3.
      3 vectors produced by pass  0 Test12= 2.13D-14 3.33D-08 XBig12= 1.55D+01 1.90D+00.
 AX will form     3 AO Fock derivatives at one time.
      3 vectors produced by pass  1 Test12= 2.13D-14 3.33D-08 XBig12= 6.02D-01 2.19D-01.
      3 vectors produced by pass  2 Test12= 2.13D-14 3.33D-08 XBig12= 5.31D-02 1.13D-01.
      3 vectors produced by pass  3 Test12= 2.13D-14 3.33D-08 XBig12= 6.41D-04 1.05D-02.
      3 vectors produced by pass  4 Test12= 2.13D-14 3.33D-08 XBig12= 6.17D-06 9.55D-04.
      3 vectors produced by pass  5 Test12= 2.13D-14 3.33D-08 XBig12= 7.79D-08 1.05D-04.
      3 vectors produced by pass  6 Test12= 2.13D-14 3.33D-08 XBig12= 1.18D-09 1.11D-05.
      2 vectors produced by pass  7 Test12= 2.13D-14 3.33D-08 XBig12= 1.12D-11 1.09D-06.
      2 vectors produced by pass  8 Test12= 2.13D-14 3.33D-08 XBig12= 1.15D-13 1.32D-07.
 InvSVY:  IOpt=1 It=  1 EMax= 4.44D-16
 Solved reduced A of dimension    25 with     3 vectors.
 End of Minotr F.D. properties file   721 does not exist.
 End of Minotr F.D. properties file   722 does not exist.
 End of Minotr F.D. properties file   788 does not exist.
 Symmetrizing basis deriv contribution to polar:
 IMax=3 JMax=2 DiffMx= 0.00D+00
 G2DrvN: will do     5 centers at a time, making    1 passes.
 PxScal for G2LodP:  IOpCl= 0 ISclPx=1 IMOff=     1 NMtTot=     4 NTT=    1378 ScalPx= 2.13D+00
 Calling FoFCou, ICntrl=  3107 FMM=F I1Cent=   0 AccDes= 0.00D+00.
 End of G2Drv F.D. properties file   721 does not exist.
 End of G2Drv F.D. properties file   722 does not exist.
 End of G2Drv F.D. properties file   788 does not exist.
          IDoAtm=1111
          Differentiating once with respect to electric field.
                with respect to dipole field.
          Differentiating once with respect to nuclear coordinates.
 Keep R1 ints in memory in symmetry-blocked form, NReq=1765978.
          There are     9 degrees of freedom in the 1st order CPHF.  IDoFFX=4 NUNeed=     9.
 Will reuse    3 saved solutions.
      6 vectors produced by pass  0 Test12= 7.11D-15 1.11D-08 XBig12= 1.87D-02 6.39D-02.
 AX will form     6 AO Fock derivatives at one time.
      6 vectors produced by pass  1 Test12= 7.11D-15 1.11D-08 XBig12= 1.39D-03 1.74D-02.
      6 vectors produced by pass  2 Test12= 7.11D-15 1.11D-08 XBig12= 1.14D-04 6.66D-03.
      6 vectors produced by pass  3 Test12= 7.11D-15 1.11D-08 XBig12= 1.39D-06 4.80D-04.
      6 vectors produced by pass  4 Test12= 7.11D-15 1.11D-08 XBig12= 1.28D-08 4.31D-05.
      6 vectors produced by pass  5 Test12= 7.11D-15 1.11D-08 XBig12= 2.16D-10 4.36D-06.
      6 vectors produced by pass  6 Test12= 7.11D-15 1.11D-08 XBig12= 2.36D-12 4.53D-07.
      3 vectors produced by pass  7 Test12= 7.11D-15 1.11D-08 XBig12= 2.68D-14 4.62D-08.
 InvSVY:  IOpt=1 It=  1 EMax= 2.22D-16
 Solved reduced A of dimension    45 with     6 vectors.
 Isotropic polarizability for W=    0.000000       39.27 Bohr**3.
 End of Minotr F.D. properties file   721 does not exist.
 End of Minotr F.D. properties file   722 does not exist.
 End of Minotr F.D. properties file   788 does not exist.

 **********************************************************************

            Population analysis using the SCF Density.

 **********************************************************************

 Orbital symmetries:
       Occupied  (?A) (?A) (A1') (?B) (?A) (?A) (?B) (?A) (?A)
                 (?B) (A2") (E") (E") (?A) (?A) (?B) (?B) (?A)
                 (?A) (A2") (?B) (?A) (?A) (?B) (?A) (?A) (A2")
                 (?A) (?A) (E") (E") (?B)
       Virtual   (?B) (A2") (?A) (?A) (?B) (A2") (?A) (?A) (?A)
                 (?A) (?B) (E") (E") (?B) (?A) (?A) (A2") (?B)
                 (?A) (?A)
 Unable to determine electronic state:  an orbital has unidentified symmetry.
 Alpha  occ. eigenvalues -- -104.13624-104.13624-104.13622 -58.24095 -10.52858
 Alpha  occ. eigenvalues --  -10.52858 -10.52851  -7.99147  -7.99147  -7.99136
 Alpha  occ. eigenvalues --   -7.98840  -7.98814  -7.98814  -7.98805  -7.98805
 Alpha  occ. eigenvalues --   -7.98799  -5.04102  -3.34544  -3.34544  -3.34468
 Alpha  occ. eigenvalues --   -1.13285  -1.11368  -1.11368  -0.62718  -0.54982
 Alpha  occ. eigenvalues --   -0.54982  -0.52199  -0.49564  -0.49564  -0.49493
 Alpha  occ. eigenvalues --   -0.49493  -0.48359
 Alpha virt. eigenvalues --    0.01575   0.02087   0.14883   0.14883   0.23968
 Alpha virt. eigenvalues --    0.28065   0.33502   0.33502   0.72315   0.72315
 Alpha virt. eigenvalues --    0.75710   0.77256   0.77256   0.84613   0.86633
 Alpha virt. eigenvalues --    0.86633   0.88074   0.93426   1.00218   1.00218
          Condensed to atoms (all electrons):
               1          2          3          4
     1  Al  10.887639   0.246898   0.246898   0.246898
     2  Cl   0.246898  17.249841  -0.019758  -0.019758
     3  Cl   0.246898  -0.019758  17.249841  -0.019758
     4  Cl   0.246898  -0.019758  -0.019758  17.249841
 Mulliken charges:
               1
     1  Al   1.371667
     2  Cl  -0.457222
     3  Cl  -0.457222
     4  Cl  -0.457222
 Sum of Mulliken charges =   0.00000
 Mulliken charges with hydrogens summed into heavy atoms:
               1
     1  Al   1.371667
     2  Cl  -0.457222
     3  Cl  -0.457222
     4  Cl  -0.457222
 APT charges:
               1
     1  Al   1.855204
     2  Cl  -0.618401
     3  Cl  -0.618401
     4  Cl  -0.618401
 Sum of APT charges =  -0.00000
 APT charges with hydrogens summed into heavy atoms:
               1
     1  Al   1.855204
     2  Cl  -0.618401
     3  Cl  -0.618401
     4  Cl  -0.618401
 Electronic spatial extent (au):  <R**2>=            977.4620
 Charge=              0.0000 electrons
 Dipole moment (field-independent basis, Debye):
    X=             -0.0000    Y=              0.0000    Z=              0.0000  Tot=              0.0000
 Quadrupole moment (field-independent basis, Debye-Ang):
   XX=            -62.1298   YY=            -62.1298   ZZ=            -47.7132
   XY=             -0.0000   XZ=             -0.0000   YZ=             -0.0000
 Traceless Quadrupole moment (field-independent basis, Debye-Ang):
   XX=             -4.8055   YY=             -4.8055   ZZ=              9.6110
   XY=             -0.0000   XZ=             -0.0000   YZ=             -0.0000
 Octapole moment (field-independent basis, Debye-Ang**2):
  XXX=             -0.0000  YYY=            -11.0765  ZZZ=              0.0000  XYY=              0.0000
  XXY=             11.0765  XXZ=              0.0000  XZZ=             -0.0000  YZZ=              0.0000
  YYZ=             -0.0000  XYZ=              0.0000
 Hexadecapole moment (field-independent basis, Debye-Ang**3):
 XXXX=           -657.4034 YYYY=           -657.4034 ZZZZ=            -55.7176 XXXY=             -0.0000
 XXXZ=             -0.0000 YYYX=             -0.0000 YYYZ=             -0.0000 ZZZX=             -0.0000
 ZZZY=             -0.0000 XXYY=           -219.1345 XXZZ=           -115.5079 YYZZ=           -115.5079
 XXYZ=             -0.0000 YYXZ=             -0.0000 ZZXY=             -0.0000
 N-N= 2.850798131468D+02 E-N=-4.412059457863D+03  KE= 1.611085111840D+03
 Symmetry A1   KE= 9.789387486797D+02
 Symmetry A2   KE= 4.514851182987D+01
 Symmetry B1   KE= 4.776216985114D+02
 Symmetry B2   KE= 1.093761528191D+02
  Exact polarizability:  48.715   0.000  48.715   0.000   0.000  20.374
 Approx polarizability:  39.224   0.000  39.224  -0.000  -0.000  15.318
 Calling FoFJK, ICntrl=    100127 FMM=F ISym2X=1 I1Cent= 0 IOpClX= 0 NMat=1 NMatS=1 NMatT=0.
 Full mass-weighted force constant matrix:
 Low frequencies ---   -1.4620   -1.4620   -1.4588   -0.0007   -0.0003    0.0004
 Low frequencies ---  141.3683  141.3683  197.1332
 Diagonal vibrational polarizability:
       38.5861732      38.5861753      60.8546951
 Diagonal vibrational hyperpolarizability:
       -0.0000001     275.2998532       0.0000000
 Harmonic frequencies (cm**-1), IR intensities (KM/Mole), Raman scattering
 activities (A**4/AMU), depolarization ratios for plane and unpolarized
 incident light, reduced masses (AMU), force constants (mDyne/A),
 and normal coordinates:
                      1                      2                      3
                     ?A                     ?A                     A2"
 Frequencies --    141.3683               141.3683               197.1332
 Red. masses --     33.7308                33.7308                28.3041
 Frc consts  --      0.3972                 0.3972                 0.6481
 IR Inten    --     18.9076                18.9076                87.8781
 Raman Activ --      4.6451                 4.6451                 0.0000
 Depolar (P) --      0.7500                 0.7500                 0.0000
 Depolar (U) --      0.8571                 0.8571                 0.0000
  Atom  AN      X      Y      Z        X      Y      Z        X      Y      Z
     1  13    -0.39  -0.01   0.00     0.01  -0.39   0.00     0.00   0.00   0.91
     2  17     0.62  -0.01  -0.00    -0.02  -0.42  -0.00    -0.00   0.00  -0.23
     3  17    -0.17  -0.44  -0.00    -0.45   0.37  -0.00     0.00   0.00  -0.23
     4  17    -0.15   0.46  -0.00     0.46   0.35  -0.00     0.00  -0.00  -0.23
                      4                      5                      6
                     ?B                     ?A                     ?A
 Frequencies --    367.0614               608.7236               608.7236
 Red. masses --     34.9689                29.1708                29.1708
 Frc consts  --      2.7759                 6.3685                 6.3685
 IR Inten    --      0.0000               180.7310               180.7310
 Raman Activ --     14.5135                 1.7864                 1.7864
 Depolar (P) --      0.1178                 0.7500                 0.7500
 Depolar (U) --      0.2107                 0.8571                 0.8571
  Atom  AN      X      Y      Z        X      Y      Z        X      Y      Z
     1  13    -0.00   0.00  -0.00    -0.00   0.85  -0.00     0.85   0.00  -0.00
     2  17     0.00   0.58   0.00     0.00  -0.43   0.00    -0.01  -0.00   0.00
     3  17    -0.50  -0.29   0.00    -0.18  -0.11   0.00    -0.32  -0.18   0.00
     4  17     0.50  -0.29   0.00     0.18  -0.12   0.00    -0.32   0.18   0.00

 -------------------
 - Thermochemistry -
 -------------------
 Temperature   298.150 Kelvin.  Pressure   1.00000 Atm.
 Atom     1 has atomic number 13 and mass  26.98154
 Atom     2 has atomic number 17 and mass  34.96885
 Atom     3 has atomic number 17 and mass  34.96885
 Atom     4 has atomic number 17 and mass  34.96885
 Molecular mass:   131.88810 amu.
 Principal axes and moments of inertia in atomic units:
                           1         2         3
     Eigenvalues --   873.81457 873.814571747.62914
           X            0.44721   0.89443   0.00000
           Y            0.89443  -0.44721   0.00000
           Z            0.00000  -0.00000   1.00000
 This molecule is an oblate symmetric top.
 Rotational symmetry number  6.
 Warning -- assumption of classical behavior for rotation
           may cause significant error
 Rotational temperatures (Kelvin)      0.09912     0.09912     0.04956
 Rotational constants (GHZ):           2.06536     2.06536     1.03268
 Zero-point vibrational energy      12347.7 (Joules/Mol)
                                    2.95118 (Kcal/Mol)
 Warning -- explicit consideration of   6 degrees of freedom as
           vibrations may cause significant error
 Vibrational temperatures:    203.40   203.40   283.63   528.12   875.82
          (Kelvin)            875.82
 
 Zero-point correction=                           0.004703 (Hartree/Particle)
 Thermal correction to Energy=                    0.010071
 Thermal correction to Enthalpy=                  0.011015
 Thermal correction to Gibbs Free Energy=        -0.024788
 Sum of electronic and zero-point Energies=          -1612.691385
 Sum of electronic and thermal Energies=             -1612.686017
 Sum of electronic and thermal Enthalpies=           -1612.685073
 Sum of electronic and thermal Free Energies=        -1612.720876
 
                     E (Thermal)             CV                S
                      KCal/Mol        Cal/Mol-Kelvin    Cal/Mol-Kelvin
 Total                    6.320             15.196             75.355
 Electronic               0.000              0.000              0.000
 Translational            0.889              2.981             40.543
 Rotational               0.889              2.981             25.120
 Vibrational              4.542              9.234              9.692
 Vibration     1          0.615              1.912              2.785
 Vibration     2          0.615              1.912              2.785
 Vibration     3          0.637              1.844              2.160
 Vibration     4          0.740              1.540              1.092
 Vibration     5          0.968              1.013              0.435
 Vibration     6          0.968              1.013              0.435
                       Q            Log10(Q)             Ln(Q)
 Total Bot       0.252246D+12         11.401824         26.253671
 Total V=0       0.367327D+14         13.565052         31.234687
 Vib (Bot)       0.614786D-01         -1.211276         -2.789066
 Vib (Bot)    1  0.143781D+01          0.157700          0.363118
 Vib (Bot)    2  0.143781D+01          0.157700          0.363118
 Vib (Bot)    3  0.101257D+01          0.005427          0.012497
 Vib (Bot)    4  0.496982D+00         -0.303659         -0.699201
 Vib (Bot)    5  0.243096D+00         -0.614222         -1.414299
 Vib (Bot)    6  0.243096D+00         -0.614222         -1.414299
 Vib (V=0)       0.895265D+01          0.951952          2.191950
 Vib (V=0)    1  0.202226D+01          0.305838          0.704217
 Vib (V=0)    2  0.202226D+01          0.305838          0.704217
 Vib (V=0)    3  0.162930D+01          0.212000          0.488148
 Vib (V=0)    4  0.120498D+01          0.080978          0.186460
 Vib (V=0)    5  0.105596D+01          0.023649          0.054454
 Vib (V=0)    6  0.105596D+01          0.023649          0.054454
 Electronic      0.100000D+01          0.000000          0.000000
 Translational   0.595336D+08          7.774762         17.902052
 Rotational      0.689189D+05          4.838338         11.140686
 ***** Axes restored to original set *****
 -------------------------------------------------------------------
 Center     Atomic                   Forces (Hartrees/Bohr)
 Number     Number              X              Y              Z
 -------------------------------------------------------------------
      1       13           0.000000000    0.000000000   -0.000000000
      2       17           0.000011501    0.000000000    0.000000000
      3       17          -0.000005751   -0.000009960   -0.000000000
      4       17          -0.000005751    0.000009960    0.000000000
 -------------------------------------------------------------------
 Cartesian Forces:  Max     0.000011501 RMS     0.000005751
 FormGI is forming the generalized inverse of G from B-inverse, IUseBI=4.

 GradGradGradGradGradGradGradGradGradGradGradGradGradGradGradGradGradGrad
 Berny optimization.
 Internal  Forces:  Max     0.000011501 RMS     0.000007529
 Search for a local minimum.
 Step number   1 out of a maximum of    2
 All quantities printed in internal units (Hartrees-Bohrs-Radians)
 Second derivative matrix not updated -- analytic derivatives used.
 The second derivative matrix:
                          R1        R2        R3        A1        A2
           R1           0.17160
           R2           0.00335   0.17160
           R3           0.00335   0.00335   0.17160
           A1           0.00520   0.00520  -0.01040   0.05935
           A2           0.00520  -0.01040   0.00520  -0.02967   0.05935
           A3          -0.01040   0.00520   0.00520  -0.02967  -0.02967
           D1           0.00000  -0.00000  -0.00000  -0.00000   0.00000
                          A3        D1
           A3           0.05935
           D1          -0.00000   0.04383
 ITU=  0
     Eigenvalues ---    0.04383   0.08606   0.08606   0.17121   0.17121
     Eigenvalues ---    0.17830
 Angle between quadratic step and forces=   0.00 degrees.
 Linear search not attempted -- first point.
 Iteration  1 RMS(Cart)=  0.00004223 RMS(Int)=  0.00000000
 Iteration  2 RMS(Cart)=  0.00000000 RMS(Int)=  0.00000000
 ClnCor:  largest displacement from symmetrization is 3.85D-12 for atom     4.
 Variable       Old X    -DE/DX   Delta X   Delta X   Delta X     New X
                                 (Linear)    (Quad)   (Total)
    R1        4.08153   0.00001   0.00000   0.00006   0.00006   4.08160
    R2        4.08153   0.00001   0.00000   0.00006   0.00006   4.08160
    R3        4.08153   0.00001   0.00000   0.00006   0.00006   4.08160
    A1        2.09440  -0.00000   0.00000   0.00000   0.00000   2.09440
    A2        2.09440  -0.00000   0.00000   0.00000   0.00000   2.09440
    A3        2.09440   0.00000   0.00000  -0.00000   0.00000   2.09440
    D1        3.14159  -0.00000   0.00000  -0.00000   0.00000   3.14159
         Item               Value     Threshold  Converged?
 Maximum Force            0.000012     0.000450     YES
 RMS     Force            0.000008     0.000300     YES
 Maximum Displacement     0.000065     0.001800     YES
 RMS     Displacement     0.000042     0.001200     YES
 Predicted change in Energy=-1.112848D-09
 Optimization completed.
    -- Stationary point found.
                           ----------------------------
                           !   Optimized Parameters   !
                           ! (Angstroms and Degrees)  !
 --------------------------                            --------------------------
 ! Name  Definition              Value          Derivative Info.                !
 --------------------------------------------------------------------------------
 ! R1    R(1,2)                  2.1599         -DE/DX =    0.0                 !
 ! R2    R(1,3)                  2.1599         -DE/DX =    0.0                 !
 ! R3    R(1,4)                  2.1599         -DE/DX =    0.0                 !
 ! A1    A(2,1,3)              120.0            -DE/DX =    0.0                 !
 ! A2    A(2,1,4)              120.0            -DE/DX =    0.0                 !
 ! A3    A(3,1,4)              120.0            -DE/DX =    0.0                 !
 ! D1    D(2,1,4,3)            180.0            -DE/DX =    0.0                 !
 --------------------------------------------------------------------------------
 GradGradGradGradGradGradGradGradGradGradGradGradGradGradGradGradGradGrad

 Dipole is zero, so no output in dipole orientation.

 ----------------------------------------------------------------------

 Electric dipole moment (input orientation):
 (Debye = 10**-18 statcoulomb cm , SI units = C m)
                  (au)            (Debye)         (10**-30 SI)
   Tot        0.000000D+00      0.000000D+00      0.000000D+00
   x          0.000000D+00      0.000000D+00      0.000000D+00
   y          0.000000D+00      0.000000D+00      0.000000D+00
   z          0.000000D+00      0.000000D+00      0.000000D+00

 Dipole polarizability, Alpha (input orientation).
 (esu units = cm**3 , SI units = C**2 m**2 J**-1)
 Alpha(0;0):
               (au)            (10**-24 esu)      (10**-40 SI)
   iso        0.392681D+02      0.581893D+01      0.647443D+01
   aniso      0.283414D+02      0.419976D+01      0.467286D+01
   xx         0.487152D+02      0.721885D+01      0.803205D+01
   yx         0.000000D+00      0.000000D+00      0.000000D+00
   yy         0.487152D+02      0.721885D+01      0.803205D+01
   zx         0.000000D+00      0.000000D+00      0.000000D+00
   zy         0.000000D+00      0.000000D+00      0.000000D+00
   zz         0.203738D+02      0.301909D+01      0.335919D+01

 First dipole hyperpolarizability, Beta (input orientation).
 ||, _|_  parallel and perpendicular components, (z) with respect to z axis,
 vector components x,y,z.  Values do not include the 1/n! factor of 1/2.
 (esu units = statvolt**-1 cm**4 , SI units = C**3 m**3 J**-2)
 Beta(0;0,0):
               (au)            (10**-30 esu)      (10**-50 SI)
   || (z)     0.000000D+00      0.000000D+00      0.000000D+00
   _|_(z)     0.000000D+00      0.000000D+00      0.000000D+00
   x          0.000000D+00      0.000000D+00      0.000000D+00
   y          0.000000D+00      0.000000D+00      0.000000D+00
   z          0.000000D+00      0.000000D+00      0.000000D+00
   ||         0.000000D+00      0.000000D+00      0.000000D+00
   xxx       -0.522570D+02     -0.451460D+00     -0.167555D+00
   xxy        0.000000D+00      0.000000D+00      0.000000D+00
   yxy        0.522570D+02      0.451460D+00      0.167555D+00
   yyy        0.000000D+00      0.000000D+00      0.000000D+00
   xxz        0.000000D+00      0.000000D+00      0.000000D+00
   yxz        0.000000D+00      0.000000D+00      0.000000D+00
   yyz        0.000000D+00      0.000000D+00      0.000000D+00
   zxz        0.000000D+00      0.000000D+00      0.000000D+00
   zyz        0.000000D+00      0.000000D+00      0.000000D+00
   zzz        0.000000D+00      0.000000D+00      0.000000D+00

 ----------------------------------------------------------------------
 1\1\GINC-IISERK51\Freq\RHF\3-21G\Al1Cl3\GAUSSIAN\13-Jun-2025\0\\#N Geo
 m=AllCheck Guess=TCheck SCRF=Check GenChk RHF/3-21G Freq\\Title Card R
 equired\\0,1\Al,1.2066939847,0.13840795,0.01938404\Cl,3.3665482681,0.1
 384079527,0.01938404\Cl,0.1267668453,-1.7320807292,0.01938404\Cl,0.126
 7668407,2.0088966265,0.01938404\\Version=EM64L-G16RevB.01\HF=-1612.696
 088\RMSD=5.366e-10\RMSF=5.751e-06\ZeroPoint=0.004703\Thermal=0.010071\
 Dipole=0.,0.,0.\DipoleDeriv=2.0873545,0.,0.,0.,2.0873544,0.,0.,0.,1.39
 09021,-0.8393176,0.,0.,0.,-0.5522521,0.,0.,0.,-0.463634,-0.6240185,-0.
 124303,0.,-0.124303,-0.7675513,0.,0.,0.,-0.463634,-0.6240185,0.124303,
 0.,0.124303,-0.7675513,0.,0.,0.,-0.463634\Polar=48.7152146,0.,48.71521
 46,0.,0.,20.3738353\PolarDeriv=-1.3612083,0.,1.3612073,0.,0.,0.0000011
 ,0.,1.3612089,0.,0.,0.,0.,0.,0.,0.,0.,0.,0.,16.0404303,0.,1.7885071,0.
 ,0.,0.2100342,0.,6.2184924,0.,0.,0.,0.,0.,0.,0.,4.6292029,0.,0.,-7.339
 6132,-5.7783181,-1.5748554,0.,0.,-0.1050171,-1.9418383,-3.7898481,-13.
 4984745,0.,0.,-0.1818949,0.,0.,0.,-2.3146015,-4.0090073,0.,-7.3396133,
 5.7783181,-1.5748554,0.,0.,-0.1050171,1.9418383,-3.7898481,13.4984744,
 0.,0.,0.1818949,0.,0.,0.,-2.3146015,4.0090073,0.\HyperPolar=-52.256968
 1,-0.0000002,52.2569681,0.0000002,0.,0.,0.,0.,0.,0.\Quadrupole=-3.5727
 871,-3.5727871,7.1455742,0.,0.,0.\PG=D03H [O(Al1),3C2(Cl1)]\NImag=0\\0
 .25657011,0.,0.25657012,0.,0.,0.03156275,-0.16163604,0.,0.,0.17160250,
 0.,-0.00941069,0.,0.,0.01068480,0.,0.,-0.01052092,0.,0.,0.00350509,-0.
 04746703,-0.06591551,0.,-0.00498322,-0.00653831,0.,0.05091423,-0.06591
 551,-0.12357971,0.,-0.00098946,-0.00063706,0.,0.06967941,0.13137308,0.
 ,0.,-0.01052092,0.,0.,0.00350792,0.,0.,0.00350509,-0.04746703,0.065915
 51,0.,-0.00498322,0.00653831,0.,0.00153602,-0.00277442,0.,0.05091423,0
 .06591551,-0.12357971,0.,0.00098946,-0.00063706,0.,0.00277442,-0.00715
 630,0.,-0.06967941,0.13137307,0.,0.,-0.01052092,0.,0.,0.00350792,0.,0.
 ,0.00350792,0.,0.,0.00350509\\0.,0.,0.,-0.00001150,0.,0.,0.00000575,0.
 00000996,0.,0.00000575,-0.00000996,0.\\\@


 AN AIRPLANE IS A COLLECTION OF SPARE PARTS
 FLYING IN CLOSE FORMATION.
 Job cpu time:       0 days  0 hours  0 minutes  1.1 seconds.
 Elapsed time:       0 days  0 hours  0 minutes  1.0 seconds.
 File lengths (MBytes):  RWF=      6 Int=      0 D2E=      0 Chk=      1 Scr=      1
 Normal termination of Gaussian 16 at Fri Jun 13 21:11:54 2025.
