 Entering Gaussian System, Link 0=g16
 Input=/home/gaussian/Documents/program files/Aromaticity/Methylbenzene/Toluene.com
 Output=/home/gaussian/Documents/program files/Aromaticity/Methylbenzene/Toluene.log
 Initial command:
 /usr/local/g16/l1.exe "/home/gaussian/tmp/Gau-136736.inp" -scrdir="/home/gaussian/tmp/"
 Entering Link 1 = /usr/local/g16/l1.exe PID=    136739.
  
 Copyright (c) 1988-2017, Gaussian, Inc.  All Rights Reserved.
  
 This is part of the Gaussian(R) 16 program.  It is based on
 the Gaussian(R) 09 system (copyright 2009, Gaussian, Inc.),
 the Gaussian(R) 03 system (copyright 2003, Gaussian, Inc.),
 the Gaussian(R) 98 system (copyright 1998, Gaussian, Inc.),
 the Gaussian(R) 94 system (copyright 1995, Gaussian, Inc.),
 the Gaussian 92(TM) system (copyright 1992, Gaussian, Inc.),
 the Gaussian 90(TM) system (copyright 1990, Gaussian, Inc.),
 the Gaussian 88(TM) system (copyright 1988, Gaussian, Inc.),
 the Gaussian 86(TM) system (copyright 1986, Carnegie Mellon
 University), and the Gaussian 82(TM) system (copyright 1983,
 Carnegie Mellon University). Gaussian is a federally registered
 trademark of Gaussian, Inc.
  
 This software contains proprietary and confidential information,
 including trade secrets, belonging to Gaussian, Inc.
  
 This software is provided under written license and may be
 used, copied, transmitted, or stored only in accord with that
 written license.
  
 The following legend is applicable only to US Government
 contracts under FAR:
  
                    RESTRICTED RIGHTS LEGEND
  
 Use, reproduction and disclosure by the US Government is
 subject to restrictions as set forth in subparagraphs (a)
 and (c) of the Commercial Computer Software - Restricted
 Rights clause in FAR 52.227-19.
  
 Gaussian, Inc.
 340 Quinnipiac St., Bldg. 40, Wallingford CT 06492
  
  
 ---------------------------------------------------------------
 Warning -- This program may not be used in any manner that
 competes with the business of Gaussian, Inc. or will provide
 assistance to any competitor of Gaussian, Inc.  The licensee
 of this program is prohibited from giving any competitor of
 Gaussian, Inc. access to this program.  By using this program,
 the user acknowledges that Gaussian, Inc. is engaged in the
 business of creating and licensing software in the field of
 computational chemistry and represents and warrants to the
 licensee that it is not a competitor of Gaussian, Inc. and that
 it will not use this program in any manner prohibited above.
 ---------------------------------------------------------------
  

 Cite this work as:
 Gaussian 16, Revision B.01,
 M. J. Frisch, G. W. Trucks, H. B. Schlegel, G. E. Scuseria, 
 M. A. Robb, J. R. Cheeseman, G. Scalmani, V. Barone, 
 G. A. Petersson, H. Nakatsuji, X. Li, M. Caricato, A. V. Marenich, 
 J. Bloino, B. G. Janesko, R. Gomperts, B. Mennucci, H. P. Hratchian, 
 J. V. Ortiz, A. F. Izmaylov, J. L. Sonnenberg, D. Williams-Young, 
 F. Ding, F. Lipparini, F. Egidi, J. Goings, B. Peng, A. Petrone, 
 T. Henderson, D. Ranasinghe, V. G. Zakrzewski, J. Gao, N. Rega, 
 G. Zheng, W. Liang, M. Hada, M. Ehara, K. Toyota, R. Fukuda, 
 J. Hasegawa, M. Ishida, T. Nakajima, Y. Honda, O. Kitao, H. Nakai, 
 T. Vreven, K. Throssell, J. A. Montgomery, Jr., J. E. Peralta, 
 F. Ogliaro, M. J. Bearpark, J. J. Heyd, E. N. Brothers, K. N. Kudin, 
 V. N. Staroverov, T. A. Keith, R. Kobayashi, J. Normand, 
 K. Raghavachari, A. P. Rendell, J. C. Burant, S. S. Iyengar, 
 J. Tomasi, M. Cossi, J. M. Millam, M. Klene, C. Adamo, R. Cammi, 
 J. W. Ochterski, R. L. Martin, K. Morokuma, O. Farkas, 
 J. B. Foresman, and D. J. Fox, Gaussian, Inc., Wallingford CT, 2016.
 
 ******************************************
 Gaussian 16:  EM64L-G16RevB.01 20-Dec-2017
                12-Jun-2025 
 ******************************************
 %chk=Toluene.chk
 ----------------------------------------------
 # opt freq hf/3-21g pop=full geom=connectivity
 ----------------------------------------------
 1/18=20,19=15,38=1,57=2/1,3;
 2/9=110,12=2,17=6,18=5,40=1/2;
 3/5=5,11=9,25=1,30=1,71=1/1,2,3;
 4//1;
 5/5=2,38=5/2;
 6/7=3,28=1/1;
 7//1,2,3,16;
 1/18=20,19=15/3(2);
 2/9=110/2;
 99//99;
 2/9=110/2;
 3/5=5,11=9,25=1,30=1,71=1/1,2,3;
 4/5=5,16=3,69=1/1;
 5/5=2,38=5/2;
 7//1,2,3,16;
 1/18=20,19=15/3(-5);
 2/9=110/2;
 6/7=3,19=2,28=1/1;
 99/9=1/99;
 ------------
 Optimisation
 ------------
 Symbolic Z-matrix:
 Charge =  0 Multiplicity = 1
 C                    -2.04907  -1.66895   0.00126 
 C                    -0.65391  -1.66895   0.00126 
 C                     0.04363  -0.4612    0.00126 
 C                    -0.65403   0.74731   0.00006 
 C                    -2.04885   0.74723  -0.00042 
 C                    -2.74645  -0.46097   0.00058 
 H                    -2.59883  -2.62127   0.00171 
 H                    -0.1044   -2.62146   0.00257 
 H                     1.14331  -0.46112   0.00189 
 H                    -2.59897   1.69951  -0.00137 
 H                    -3.84606  -0.46079   0.0004 
 C                     0.11648   2.0807   -0.00002 
 H                     0.31545   2.37772   1.00849 
 H                     1.0409    1.95842  -0.52481 
 H                    -0.47156   2.8324   -0.48381 
 

 GradGradGradGradGradGradGradGradGradGradGradGradGradGradGradGradGradGrad
 Berny optimization.
 Initialization pass.
                           ----------------------------
                           !    Initial Parameters    !
                           ! (Angstroms and Degrees)  !
 --------------------------                            --------------------------
 ! Name  Definition              Value          Derivative Info.                !
 --------------------------------------------------------------------------------
 ! R1    R(1,2)                  1.3952         estimate D2E/DX2                !
 ! R2    R(1,6)                  1.3948         estimate D2E/DX2                !
 ! R3    R(1,7)                  1.0996         estimate D2E/DX2                !
 ! R4    R(2,3)                  1.3947         estimate D2E/DX2                !
 ! R5    R(2,8)                  1.0997         estimate D2E/DX2                !
 ! R6    R(3,4)                  1.3954         estimate D2E/DX2                !
 ! R7    R(3,9)                  1.0997         estimate D2E/DX2                !
 ! R8    R(4,5)                  1.3948         estimate D2E/DX2                !
 ! R9    R(4,12)                 1.54           estimate D2E/DX2                !
 ! R10   R(5,6)                  1.3951         estimate D2E/DX2                !
 ! R11   R(5,10)                 1.0998         estimate D2E/DX2                !
 ! R12   R(6,11)                 1.0996         estimate D2E/DX2                !
 ! R13   R(12,13)                1.07           estimate D2E/DX2                !
 ! R14   R(12,14)                1.07           estimate D2E/DX2                !
 ! R15   R(12,15)                1.07           estimate D2E/DX2                !
 ! A1    A(2,1,6)              119.9985         estimate D2E/DX2                !
 ! A2    A(2,1,7)              119.9972         estimate D2E/DX2                !
 ! A3    A(6,1,7)              120.0043         estimate D2E/DX2                !
 ! A4    A(1,2,3)              120.0086         estimate D2E/DX2                !
 ! A5    A(1,2,8)              119.9808         estimate D2E/DX2                !
 ! A6    A(3,2,8)              120.0106         estimate D2E/DX2                !
 ! A7    A(2,3,4)              119.9942         estimate D2E/DX2                !
 ! A8    A(2,3,9)              120.0128         estimate D2E/DX2                !
 ! A9    A(4,3,9)              119.993          estimate D2E/DX2                !
 ! A10   A(3,4,5)              119.994          estimate D2E/DX2                !
 ! A11   A(3,4,12)             119.9811         estimate D2E/DX2                !
 ! A12   A(5,4,12)             120.0249         estimate D2E/DX2                !
 ! A13   A(4,5,6)              120.0047         estimate D2E/DX2                !
 ! A14   A(4,5,10)             120.0113         estimate D2E/DX2                !
 ! A15   A(6,5,10)             119.984          estimate D2E/DX2                !
 ! A16   A(1,6,5)              120.0            estimate D2E/DX2                !
 ! A17   A(1,6,11)             120.008          estimate D2E/DX2                !
 ! A18   A(5,6,11)             119.992          estimate D2E/DX2                !
 ! A19   A(4,12,13)            109.4712         estimate D2E/DX2                !
 ! A20   A(4,12,14)            109.4712         estimate D2E/DX2                !
 ! A21   A(4,12,15)            109.4712         estimate D2E/DX2                !
 ! A22   A(13,12,14)           109.4713         estimate D2E/DX2                !
 ! A23   A(13,12,15)           109.4712         estimate D2E/DX2                !
 ! A24   A(14,12,15)           109.4712         estimate D2E/DX2                !
 ! D1    D(6,1,2,3)              0.0323         estimate D2E/DX2                !
 ! D2    D(6,1,2,8)            179.9532         estimate D2E/DX2                !
 ! D3    D(7,1,2,3)           -179.9729         estimate D2E/DX2                !
 ! D4    D(7,1,2,8)             -0.052          estimate D2E/DX2                !
 ! D5    D(2,1,6,5)              0.0149         estimate D2E/DX2                !
 ! D6    D(2,1,6,11)           179.9892         estimate D2E/DX2                !
 ! D7    D(7,1,6,5)           -179.9798         estimate D2E/DX2                !
 ! D8    D(7,1,6,11)            -0.0056         estimate D2E/DX2                !
 ! D9    D(1,2,3,4)             -0.0568         estimate D2E/DX2                !
 ! D10   D(1,2,3,9)            179.9619         estimate D2E/DX2                !
 ! D11   D(8,2,3,4)           -179.9777         estimate D2E/DX2                !
 ! D12   D(8,2,3,9)              0.041          estimate D2E/DX2                !
 ! D13   D(2,3,4,5)              0.0341         estimate D2E/DX2                !
 ! D14   D(2,3,4,12)          -179.9964         estimate D2E/DX2                !
 ! D15   D(9,3,4,5)           -179.9846         estimate D2E/DX2                !
 ! D16   D(9,3,4,12)            -0.0151         estimate D2E/DX2                !
 ! D17   D(3,4,5,6)              0.0131         estimate D2E/DX2                !
 ! D18   D(3,4,5,10)          -179.9995         estimate D2E/DX2                !
 ! D19   D(12,4,5,6)          -179.9563         estimate D2E/DX2                !
 ! D20   D(12,4,5,10)            0.0311         estimate D2E/DX2                !
 ! D21   D(3,4,12,13)          -88.6005         estimate D2E/DX2                !
 ! D22   D(3,4,12,14)           31.3996         estimate D2E/DX2                !
 ! D23   D(3,4,12,15)          151.3995         estimate D2E/DX2                !
 ! D24   D(5,4,12,13)           91.369          estimate D2E/DX2                !
 ! D25   D(5,4,12,14)         -148.631          estimate D2E/DX2                !
 ! D26   D(5,4,12,15)          -28.631          estimate D2E/DX2                !
 ! D27   D(4,5,6,1)             -0.0376         estimate D2E/DX2                !
 ! D28   D(4,5,6,11)           179.9881         estimate D2E/DX2                !
 ! D29   D(10,5,6,1)           179.975          estimate D2E/DX2                !
 ! D30   D(10,5,6,11)            0.0007         estimate D2E/DX2                !
 --------------------------------------------------------------------------------
 Trust Radius=3.00D-01 FncErr=1.00D-07 GrdErr=1.00D-07 EigMax=2.50D+02 EigMin=1.00D-04
 Number of steps in this run=     79 maximum allowed number of steps=    100.
 GradGradGradGradGradGradGradGradGradGradGradGradGradGradGradGradGradGrad

                          Input orientation:                          
 ---------------------------------------------------------------------
 Center     Atomic      Atomic             Coordinates (Angstroms)
 Number     Number       Type             X           Y           Z
 ---------------------------------------------------------------------
      1          6           0       -2.049069   -1.668950    0.001258
      2          6           0       -0.653909   -1.668950    0.001258
      3          6           0        0.043629   -0.461199    0.001258
      4          6           0       -0.654025    0.747310    0.000059
      5          6           0       -2.048850    0.747232   -0.000420
      6          6           0       -2.746451   -0.460974    0.000576
      7          1           0       -2.598828   -2.621267    0.001708
      8          1           0       -0.104401   -2.621463    0.002573
      9          1           0        1.143309   -0.461119    0.001892
     10          1           0       -2.598972    1.699513   -0.001373
     11          1           0       -3.846055   -0.460791    0.000396
     12          6           0        0.116479    2.080698   -0.000024
     13          1           0        0.315450    2.377717    1.008485
     14          1           0        1.040898    1.958419   -0.524806
     15          1           0       -0.471562    2.832404   -0.483808
 ---------------------------------------------------------------------
                    Distance matrix (angstroms):
                    1          2          3          4          5
     1  C    0.000000
     2  C    1.395160   0.000000
     3  C    2.416205   1.394712   0.000000
     4  C    2.790065   2.416260   1.395427   0.000000
     5  C    2.416183   2.789946   2.416356   1.394825   0.000000
     6  C    1.394829   2.416183   2.790080   2.416236   1.395138
     7  H    1.099610   2.165553   3.412986   3.889675   3.413102
     8  H    2.165414   1.099655   2.165330   3.413316   3.889601
     9  H    3.413229   2.165375   1.099680   2.165806   3.413209
    10  H    3.413055   3.889707   3.413506   2.165528   1.099761
    11  H    2.165365   3.413128   3.889684   3.412999   2.165471
    12  C    4.330065   3.827971   2.542941   1.540000   2.542987
    13  H    4.793847   4.281317   3.024539   2.148263   3.044058
    14  H    4.794001   4.038182   2.669427   2.148263   3.359836
    15  H    4.794372   4.531084   3.368757   2.148263   2.658842
                    6          7          8          9         10
     6  C    0.000000
     7  H    2.165331   0.000000
     8  H    3.412938   2.494427   0.000000
     9  H    3.889760   4.320860   2.494768   0.000000
    10  H    2.165516   4.320781   4.989362   4.321228   0.000000
    11  H    1.099604   2.494641   4.320704   4.989364   2.494420
    12  C    3.828376   5.429675   4.707347   2.741390   2.742076
    13  H    4.295263   5.873369   5.116633   3.123711   3.158106
    14  H    4.524765   5.873529   4.750279   2.478318   3.686417
    15  H    4.031883   5.873969   5.487807   3.700135   2.458060
                   11         12         13         14         15
    11  H    0.000000
    12  C    4.707530   0.000000
    13  H    5.137266   1.070000   0.000000
    14  H    5.478205   1.070000   1.747303   0.000000
    15  H    4.739914   1.070000   1.747303   1.747303   0.000000
 Stoichiometry    C7H8
 Framework group  C1[X(C7H8)]
 Deg. of freedom    39
 Full point group                 C1      NOp   1
 Largest Abelian subgroup         C1      NOp   1
 Largest concise Abelian subgroup C1      NOp   1
                         Standard orientation:                         
 ---------------------------------------------------------------------
 Center     Atomic      Atomic             Coordinates (Angstroms)
 Number     Number       Type             X           Y           Z
 ---------------------------------------------------------------------
      1          6           0       -1.894809   -0.000089    0.000090
      2          6           0       -1.197027   -1.208216   -0.000342
      3          6           0        0.197685   -1.208193    0.000093
      4          6           0        0.895256    0.000365   -0.000239
      5          6           0        0.197574    1.208163   -0.000286
      6          6           0       -1.197564    1.207967    0.000275
      7          1           0       -2.994419   -0.000326    0.000197
      8          1           0       -1.747014   -2.160453    0.000289
      9          1           0        0.747754   -2.160412    0.000387
     10          1           0        0.747053    2.160816   -0.000556
     11          1           0       -1.747367    2.160251    0.000435
     12          6           0        2.435256    0.000041    0.000159
     13          1           0        2.791657   -0.024247    1.008766
     14          1           0        2.791876   -0.861328   -0.524975
     15          1           0        2.792234    0.885471   -0.483038
 ---------------------------------------------------------------------
 Rotational constants (GHZ):           5.4959924           2.5204893           1.7463873
 Standard basis: 3-21G (6D, 7F)
 There are    79 symmetry adapted cartesian basis functions of A   symmetry.
 There are    79 symmetry adapted basis functions of A   symmetry.
    79 basis functions,   129 primitive gaussians,    79 cartesian basis functions
    25 alpha electrons       25 beta electrons
       nuclear repulsion energy       268.7120052011 Hartrees.
 NAtoms=   15 NActive=   15 NUniq=   15 SFac= 1.00D+00 NAtFMM=   60 NAOKFM=F Big=F
 Integral buffers will be    131072 words long.
 Raffenetti 1 integral format.
 Two-electron integral symmetry is turned on.
 One-electron integrals computed using PRISM.
 NBasis=    79 RedAO= T EigKep=  1.66D-03  NBF=    79
 NBsUse=    79 1.00D-06 EigRej= -1.00D+00 NBFU=    79
 ExpMin= 1.83D-01 ExpMax= 1.72D+02 ExpMxC= 1.72D+02 IAcc=3 IRadAn=         5 AccDes= 0.00D+00
 Harris functional with IExCor=  205 and IRadAn=       5 diagonalized for initial guess.
 HarFok:  IExCor=  205 AccDes= 0.00D+00 IRadAn=         5 IDoV= 1 UseB2=F ITyADJ=14
 ICtDFT=  3500011 ScaDFX=  1.000000  1.000000  1.000000  1.000000
 FoFCou: FMM=F IPFlag=           0 FMFlag=      100000 FMFlg1=           0
         NFxFlg=           0 DoJE=T BraDBF=F KetDBF=T FulRan=T
         wScrn=  0.000000 ICntrl=       500 IOpCl=  0 I1Cent=   200000004 NGrid=           0
         NMat0=    1 NMatS0=      1 NMatT0=    0 NMatD0=    1 NMtDS0=    0 NMtDT0=    0
 Petite list used in FoFCou.
 Keep R1 ints in memory in canonical form, NReq=5830610.
 Requested convergence on RMS density matrix=1.00D-08 within 128 cycles.
 Requested convergence on MAX density matrix=1.00D-06.
 Requested convergence on             energy=1.00D-06.
 No special actions if energy rises.
 SCF Done:  E(RHF) =  -268.236050177     A.U. after   12 cycles
            NFock= 12  Conv=0.70D-08     -V/T= 2.0029

 **********************************************************************

            Population analysis using the SCF Density.

 **********************************************************************

 Orbital symmetries:
       Occupied  (A) (A) (A) (A) (A) (A) (A) (A) (A) (A) (A) (A)
                 (A) (A) (A) (A) (A) (A) (A) (A) (A) (A) (A) (A)
                 (A)
       Virtual   (A) (A) (A) (A) (A) (A) (A) (A) (A) (A) (A) (A)
                 (A) (A) (A) (A) (A) (A) (A) (A) (A) (A) (A) (A)
                 (A) (A) (A) (A) (A) (A) (A) (A) (A) (A) (A) (A)
                 (A) (A) (A) (A) (A) (A) (A) (A) (A) (A) (A) (A)
                 (A) (A) (A) (A) (A) (A)
 The electronic state is 1-A.
 Alpha  occ. eigenvalues --  -11.18841 -11.18053 -11.18045 -11.17676 -11.17628
 Alpha  occ. eigenvalues --  -11.17612 -11.15938  -1.15256  -1.04027  -1.00898
 Alpha  occ. eigenvalues --   -0.93465  -0.82191  -0.79481  -0.69243  -0.63611
 Alpha  occ. eigenvalues --   -0.62061  -0.58450  -0.58246  -0.56031  -0.54379
 Alpha  occ. eigenvalues --   -0.49200  -0.48296  -0.47415  -0.33603  -0.32569
 Alpha virt. eigenvalues --    0.14840   0.15300   0.25395   0.29948   0.30893
 Alpha virt. eigenvalues --    0.33270   0.34454   0.35571   0.37097   0.37288
 Alpha virt. eigenvalues --    0.40294   0.43071   0.50964   0.52575   0.54147
 Alpha virt. eigenvalues --    0.56220   0.76904   0.81737   0.89207   0.91936
 Alpha virt. eigenvalues --    0.94140   0.97622   0.98226   0.98264   1.04100
 Alpha virt. eigenvalues --    1.05505   1.07710   1.08857   1.10513   1.11598
 Alpha virt. eigenvalues --    1.14622   1.18941   1.20987   1.21434   1.27414
 Alpha virt. eigenvalues --    1.29845   1.33599   1.37166   1.37823   1.40469
 Alpha virt. eigenvalues --    1.44708   1.45388   1.55386   1.60368   1.62274
 Alpha virt. eigenvalues --    1.72379   1.75719   1.80041   1.81284   1.88154
 Alpha virt. eigenvalues --    2.15758   2.18302   2.22581   2.75303
     Molecular Orbital Coefficients:
                           1         2         3         4         5
                           O         O         O         O         O
     Eigenvalues --   -11.18841 -11.18053 -11.18045 -11.17676 -11.17628
   1 1   C  1S         -0.00651  -0.01564  -0.08232   0.97080   0.00931
   2        2S         -0.00150  -0.00274  -0.01436   0.09734   0.00093
   3        2PX        -0.00030  -0.00033  -0.00171   0.00139  -0.00003
   4        2PY         0.00000   0.00128  -0.00025  -0.00000   0.00119
   5        2PZ         0.00001   0.00000  -0.00000  -0.00000  -0.00000
   6        3S          0.01104   0.01162   0.06045  -0.08434  -0.00158
   7        3PX         0.00652   0.00614   0.03186  -0.02049  -0.00072
   8        3PY         0.00003  -0.01460   0.00283  -0.00000  -0.00126
   9        3PZ        -0.00004   0.00000   0.00001   0.00000   0.00000
  10 2   C  1S         -0.00593   0.81651   0.54938   0.04932   0.02598
  11        2S         -0.00042   0.08238   0.05618   0.00132   0.00002
  12        2PX        -0.00074   0.00040   0.00076   0.00051  -0.00089
  13        2PY        -0.00007   0.00157   0.00005  -0.00138  -0.00020
  14        2PZ         0.00000  -0.00000   0.00000  -0.00000   0.00000
  15        3S         -0.00904  -0.07061  -0.06860   0.02576   0.01704
  16        3PX        -0.00186  -0.00782  -0.01273  -0.00209   0.01088
  17        3PY        -0.00707  -0.01487  -0.02092   0.01916   0.00526
  18        3PZ         0.00004  -0.00001  -0.00003   0.00001  -0.00001
  19 3   C  1S         -0.01647  -0.03263  -0.04443  -0.11831   0.72670
  20        2S         -0.00559  -0.00643  -0.00783  -0.01196   0.07329
  21        2PX        -0.00052   0.00114   0.00097   0.00116  -0.00028
  22        2PY        -0.00144  -0.00027  -0.00059  -0.00023   0.00145
  23        2PZ         0.00001   0.00001  -0.00001   0.00000  -0.00000
  24        3S          0.03271   0.02861   0.03708   0.00094  -0.06204
  25        3PX         0.00307  -0.01325  -0.01554   0.00074   0.00345
  26        3PY         0.01890   0.00804   0.01482  -0.00423  -0.01266
  27        3PZ        -0.00015  -0.00002   0.00004  -0.00001   0.00003
  28 4   C  1S          0.98717   0.00130   0.00646   0.00300   0.00107
  29        2S          0.10031   0.00031   0.00162   0.00034  -0.00014
  30        2PX        -0.00045   0.00014   0.00074   0.00032   0.00010
  31        2PY         0.00001   0.00075  -0.00015  -0.00000   0.00196
  32        2PZ        -0.00002   0.00000   0.00001  -0.00000  -0.00000
  33        3S         -0.09479  -0.00493  -0.02569   0.00232   0.00214
  34        3PX         0.01238   0.00260   0.01360  -0.00399  -0.00161
  35        3PY        -0.00018   0.00223  -0.00039   0.00004  -0.02066
  36        3PZ         0.00048  -0.00003  -0.00013   0.00002  -0.00000
  37 5   C  1S         -0.01643   0.01409  -0.05352  -0.11492  -0.66735
  38        2S         -0.00560   0.00309  -0.00966  -0.01162  -0.06731
  39        2PX        -0.00052  -0.00069   0.00132   0.00116   0.00024
  40        2PY         0.00145  -0.00003   0.00065   0.00023   0.00145
  41        2PZ         0.00001  -0.00001  -0.00000   0.00000   0.00000
  42        3S          0.03293  -0.01280   0.04501   0.00066   0.05542
  43        3PX         0.00318   0.00650  -0.01934   0.00076  -0.00220
  44        3PY        -0.01904   0.00198  -0.01673   0.00428  -0.01067
  45        3PZ        -0.00015   0.00003   0.00005  -0.00001  -0.00001
  46 6   C  1S         -0.00587  -0.55357   0.81364   0.04970  -0.02078
  47        2S         -0.00041  -0.05558   0.08279   0.00134   0.00009
  48        2PX        -0.00074  -0.00009   0.00085   0.00051   0.00081
  49        2PY         0.00006   0.00144  -0.00063   0.00138  -0.00012
  50        2PZ         0.00000   0.00000  -0.00000  -0.00000  -0.00000
  51        3S         -0.00905   0.04005  -0.08994   0.02584  -0.01365
  52        3PX        -0.00184   0.00252  -0.01472  -0.00204  -0.00943
  53        3PY         0.00713  -0.00605   0.02495  -0.01919   0.00368
  54        3PZ         0.00004  -0.00002   0.00000  -0.00000   0.00001
  55 7   H  1S          0.00016   0.00006   0.00029  -0.00200  -0.00005
  56        2S          0.00159   0.00126   0.00651   0.00622  -0.00000
  57 8   H  1S         -0.00046  -0.00153  -0.00161  -0.00013  -0.00012
  58        2S         -0.00101   0.00495   0.00139   0.00427   0.00256
  59 9   H  1S         -0.00036  -0.00007   0.00041  -0.00020  -0.00119
  60        2S          0.00259   0.00248   0.00425  -0.00153   0.00514
  61 10  H  1S         -0.00037   0.00022   0.00035  -0.00021   0.00100
  62        2S          0.00262  -0.00072   0.00486  -0.00150  -0.00496
  63 11  H  1S         -0.00047   0.00082  -0.00207  -0.00013   0.00013
  64        2S         -0.00102  -0.00408   0.00314   0.00429  -0.00199
  65 12  C  1S         -0.00229  -0.00081  -0.00405  -0.00024  -0.00034
  66        2S         -0.00149  -0.00026  -0.00132  -0.00022  -0.00009
  67        2PX         0.00021   0.00008   0.00040  -0.00014   0.00001
  68        2PY        -0.00003   0.00021  -0.00003  -0.00000   0.00029
  69        2PZ         0.00040  -0.00002  -0.00008   0.00001  -0.00000
  70        3S          0.01102  -0.00003  -0.00029   0.00228   0.00056
  71        3PX        -0.00834  -0.00014  -0.00073  -0.00093  -0.00030
  72        3PY         0.00021  -0.00179   0.00029  -0.00000   0.00253
  73        3PZ        -0.00237   0.00011   0.00054  -0.00006   0.00000
  74 13  H  1S         -0.00116  -0.00005  -0.00021  -0.00008  -0.00002
  75        2S          0.00374  -0.00008  -0.00033  -0.00004   0.00002
  76 14  H  1S         -0.00088  -0.00031  -0.00016  -0.00007   0.00014
  77        2S          0.00001  -0.00025   0.00051  -0.00013   0.00037
  78 15  H  1S         -0.00087   0.00023  -0.00026  -0.00007  -0.00020
  79        2S         -0.00023   0.00043   0.00044  -0.00014  -0.00035
                           6         7         8         9        10
                           O         O         O         O         O
     Eigenvalues --   -11.17612 -11.15938  -1.15256  -1.04027  -1.00898
   1 1   C  1S          0.15888   0.00133  -0.08967   0.11572   0.00014
   2        2S          0.01593   0.00001   0.10043  -0.12521  -0.00015
   3        2PX        -0.00076  -0.00017   0.05695  -0.03844  -0.00002
   4        2PY        -0.00005   0.00000   0.00003  -0.00002  -0.10208
   5        2PZ        -0.00000  -0.00001  -0.00000   0.00001  -0.00001
   6        3S         -0.03132  -0.00146   0.17121  -0.25410  -0.00031
   7        3PX        -0.01524  -0.00159   0.01638  -0.00787  -0.00000
   8        3PY         0.00005  -0.00006   0.00003   0.00009  -0.00874
   9        3PZ         0.00000   0.00015  -0.00008  -0.00017  -0.00001
  10 2   C  1S          0.05645   0.00325  -0.09127   0.07298  -0.11773
  11        2S          0.00125  -0.00049   0.10353  -0.07773   0.12634
  12        2PX        -0.00089  -0.00036   0.03068   0.03776   0.05829
  13        2PY        -0.00084  -0.00015   0.04889  -0.05063  -0.00287
  14        2PZ        -0.00000   0.00004   0.00002  -0.00008   0.00005
  15        3S          0.03636   0.00352   0.15840  -0.17703   0.27825
  16        3PX         0.01606   0.00290  -0.00009  -0.01035   0.00993
  17        3PY         0.01680   0.00165   0.00601  -0.01429   0.00813
  18        3PZ         0.00001  -0.00023   0.00015   0.00027   0.00005
  19 3   C  1S          0.65537   0.00605  -0.09773  -0.03284  -0.11911
  20        2S          0.06608  -0.00002   0.10898   0.03499   0.12748
  21        2PX        -0.00054  -0.00078  -0.02293   0.07404  -0.05629
  22        2PY         0.00006  -0.00021   0.05426   0.03958  -0.00203
  23        2PZ         0.00001  -0.00010   0.00005   0.00010  -0.00002
  24        3S         -0.07335  -0.00028   0.19249   0.08323   0.27921
  25        3PX         0.01379   0.00203  -0.01532  -0.00363  -0.01025
  26        3PY        -0.02222   0.00226   0.01798   0.00608   0.00717
  27        3PZ         0.00001   0.00044  -0.00020  -0.00058   0.00000
  28 4   C  1S          0.02352   0.00209  -0.10839  -0.11866  -0.00002
  29        2S         -0.00343  -0.00123   0.12005   0.12657   0.00001
  30        2PX         0.00236  -0.00051  -0.05114   0.03414   0.00007
  31        2PY        -0.00009  -0.00002   0.00006   0.00014  -0.10736
  32        2PZ         0.00000   0.00008   0.00008   0.00007   0.00001
  33        3S          0.04971   0.01606   0.20165   0.26211   0.00005
  34        3PX        -0.03693   0.01703   0.00836   0.00307   0.00003
  35        3PY         0.00091   0.00019  -0.00006  -0.00023  -0.01562
  36        3PZ        -0.00001  -0.00042   0.00005   0.00016   0.00002
  37 5   C  1S          0.71625   0.00615  -0.09774  -0.03305   0.11900
  38        2S          0.07222  -0.00002   0.10900   0.03523  -0.12736
  39        2PX        -0.00057  -0.00077  -0.02283   0.07401   0.05620
  40        2PY        -0.00018   0.00021  -0.05433  -0.03962  -0.00199
  41        2PZ         0.00001  -0.00010   0.00009   0.00010  -0.00003
  42        3S         -0.07848  -0.00033   0.19246   0.08368  -0.27891
  43        3PX         0.01401   0.00178  -0.01516  -0.00316   0.01022
  44        3PY         0.02324  -0.00209  -0.01803  -0.00629   0.00715
  45        3PZ        -0.00001   0.00044  -0.00016  -0.00057  -0.00005
  46 6   C  1S          0.05889   0.00323  -0.09125   0.07291   0.11777
  47        2S          0.00129  -0.00049   0.10350  -0.07767  -0.12638
  48        2PX        -0.00097  -0.00036   0.03063   0.03786  -0.05806
  49        2PY         0.00085   0.00015  -0.04891   0.05069  -0.00273
  50        2PZ        -0.00000   0.00004  -0.00004  -0.00003   0.00003
  51        3S          0.03765   0.00341   0.15845  -0.17663  -0.27835
  52        3PX         0.01693   0.00275   0.00002  -0.01005  -0.00993
  53        3PY        -0.01718  -0.00174  -0.00598   0.01438   0.00816
  54        3PZ        -0.00001  -0.00023   0.00012   0.00031   0.00002
  55 7   H  1S         -0.00108  -0.00020   0.02938  -0.05216  -0.00006
  56        2S         -0.00041  -0.00019  -0.00313  -0.00681  -0.00001
  57 8   H  1S          0.00009   0.00004   0.02983  -0.03287   0.05977
  58        2S          0.00611   0.00118  -0.00598  -0.00762   0.01320
  59 9   H  1S         -0.00207  -0.00002   0.03335   0.02045   0.06073
  60        2S          0.00183   0.00033   0.00035   0.00843   0.01344
  61 10  H  1S         -0.00217   0.00000   0.03334   0.02049  -0.06067
  62        2S          0.00228   0.00024   0.00038   0.00855  -0.01342
  63 11  H  1S          0.00008   0.00004   0.02982  -0.03283  -0.05980
  64        2S          0.00631   0.00119  -0.00597  -0.00760  -0.01322
  65 12  C  1S         -0.00940   0.98750  -0.03881  -0.11915  -0.00006
  66        2S         -0.00254   0.10240   0.04043   0.11388   0.00005
  67        2PX         0.00009  -0.00009  -0.02601  -0.03763  -0.00003
  68        2PY        -0.00001  -0.00001   0.00003   0.00006  -0.01360
  69        2PZ        -0.00001   0.00004  -0.00034  -0.00049   0.00000
  70        3S          0.01377  -0.08547   0.07773   0.32523   0.00023
  71        3PX        -0.00660   0.00655   0.00695  -0.01157   0.00002
  72        3PY        -0.00010  -0.00001  -0.00016  -0.00027  -0.00463
  73        3PZ         0.00008  -0.00004   0.00182   0.00373  -0.00001
  74 13  H  1S         -0.00055   0.00011   0.01764   0.06073   0.00018
  75        2S         -0.00010   0.01508  -0.00686  -0.00585   0.00007
  76 14  H  1S         -0.00053   0.00016   0.01780   0.06092   0.00520
  77        2S         -0.00000   0.01482  -0.00332   0.00099   0.00355
  78 15  H  1S         -0.00051   0.00016   0.01781   0.06095  -0.00529
  79        2S          0.00001   0.01483  -0.00307   0.00138  -0.00373
                          11        12        13        14        15
                           O         O         O         O         O
     Eigenvalues --    -0.93465  -0.82191  -0.79481  -0.69243  -0.63611
   1 1   C  1S         -0.09907   0.00013  -0.09162   0.02794  -0.00025
   2        2S          0.10419  -0.00013   0.09434  -0.02331   0.00029
   3        2PX        -0.00362   0.00004  -0.03810   0.20838   0.00016
   4        2PY         0.00006   0.18090   0.00009  -0.00006   0.21810
   5        2PZ         0.00003   0.00004   0.00001   0.00005   0.00007
   6        3S          0.26590  -0.00043   0.30227  -0.12007   0.00069
   7        3PX         0.00745   0.00002  -0.00230   0.13815  -0.00019
   8        3PY         0.00015   0.06454  -0.00001   0.00000   0.11803
   9        3PZ        -0.00023   0.00002   0.00009  -0.00001   0.00004
  10 2   C  1S         -0.01849   0.09373   0.06187  -0.00915   0.00544
  11        2S          0.02044  -0.09690  -0.06309   0.01451  -0.00493
  12        2PX        -0.08842   0.09528  -0.09969   0.09494   0.20639
  13        2PY         0.04457  -0.00774   0.11689   0.12871  -0.09017
  14        2PZ        -0.00005  -0.00009  -0.00003   0.00016   0.00028
  15        3S          0.04366  -0.30033  -0.20806   0.01103  -0.02343
  16        3PX        -0.02342   0.02827  -0.04057   0.05965   0.12105
  17        3PY         0.00342  -0.00941   0.04640   0.08360  -0.05141
  18        3PZ         0.00040  -0.00005  -0.00016   0.00015   0.00002
  19 3   C  1S          0.07293  -0.08961   0.03555   0.02165  -0.01479
  20        2S         -0.07678   0.09254  -0.03530  -0.01786   0.01360
  21        2PX         0.00196   0.10729   0.12107  -0.11837  -0.18649
  22        2PY        -0.03140   0.01265   0.13498   0.11897  -0.10488
  23        2PZ         0.00016  -0.00006   0.00007   0.00046   0.00023
  24        3S         -0.19234   0.28240  -0.12150  -0.08919   0.06745
  25        3PX         0.00946   0.03101   0.03839  -0.07154  -0.09638
  26        3PY        -0.01776   0.00935   0.05243   0.08729  -0.05014
  27        3PZ        -0.00082  -0.00016   0.00025   0.00031   0.00089
  28 4   C  1S          0.03721   0.00004  -0.10530   0.02160   0.00035
  29        2S         -0.03981  -0.00007   0.10849  -0.01733  -0.00028
  30        2PX         0.13633   0.00006  -0.04545  -0.09312  -0.00023
  31        2PY        -0.00017  -0.19339  -0.00015  -0.00010   0.21037
  32        2PZ        -0.00005   0.00004   0.00025   0.00096  -0.00008
  33        3S         -0.10090  -0.00004   0.34675  -0.09082  -0.00151
  34        3PX         0.01934   0.00010  -0.02886  -0.05949  -0.00060
  35        3PY        -0.00053  -0.08235  -0.00001  -0.00019   0.15312
  36        3PZ         0.00059   0.00001   0.00012   0.00091  -0.00006
  37 5   C  1S          0.07306   0.08948   0.03573   0.02158   0.01442
  38        2S         -0.07695  -0.09241  -0.03546  -0.01781  -0.01320
  39        2PX         0.00181  -0.10746   0.12094  -0.11838   0.18662
  40        2PY         0.03152   0.01281  -0.13508  -0.11880  -0.10400
  41        2PZ         0.00013   0.00007   0.00004   0.00056  -0.00032
  42        3S         -0.19251  -0.28187  -0.12214  -0.08877  -0.06672
  43        3PX         0.01013  -0.03120   0.03818  -0.07140   0.09751
  44        3PY         0.01741   0.00937  -0.05238  -0.08726  -0.04925
  45        3PZ        -0.00084   0.00016   0.00023   0.00037  -0.00094
  46 6   C  1S         -0.01855  -0.09380   0.06180  -0.00910  -0.00503
  47        2S          0.02048   0.09698  -0.06300   0.01446   0.00449
  48        2PX        -0.08846  -0.09495  -0.09979   0.09513  -0.20567
  49        2PY        -0.04464  -0.00757  -0.11700  -0.12862  -0.09174
  50        2PZ        -0.00005   0.00005   0.00003   0.00013  -0.00023
  51        3S          0.04408   0.30040  -0.20791   0.01093   0.02258
  52        3PX        -0.02305  -0.02819  -0.04072   0.05978  -0.11992
  53        3PY        -0.00324  -0.00935  -0.04649  -0.08351  -0.05282
  54        3PZ         0.00040  -0.00001  -0.00011   0.00014   0.00001
  55 7   H  1S          0.06498  -0.00014   0.08799  -0.14209   0.00011
  56        2S          0.02299  -0.00007   0.04734  -0.09425  -0.00004
  57 8   H  1S          0.01437  -0.08802  -0.07218  -0.08184  -0.02091
  58        2S          0.00231  -0.04412  -0.03776  -0.05820  -0.01565
  59 9   H  1S         -0.03448   0.08659  -0.05498  -0.11063   0.00910
  60        2S         -0.00952   0.04396  -0.03147  -0.07182   0.00380
  61 10  H  1S         -0.03460  -0.08643  -0.05524  -0.11047  -0.00824
  62        2S         -0.00938  -0.04388  -0.03168  -0.07174  -0.00329
  63 11  H  1S          0.01437   0.08806  -0.07215  -0.08189   0.01942
  64        2S          0.00230   0.04414  -0.03776  -0.05822   0.01472
  65 12  C  1S         -0.15732  -0.00002   0.05191  -0.02634  -0.00004
  66        2S          0.14700  -0.00000  -0.04826   0.02186   0.00004
  67        2PX         0.02832  -0.00002  -0.08436   0.09282   0.00060
  68        2PY        -0.00005  -0.04682  -0.00007  -0.00039   0.15991
  69        2PZ         0.00036   0.00001   0.00043   0.00496  -0.00010
  70        3S          0.49387   0.00014  -0.18512   0.10962   0.00038
  71        3PX        -0.00107   0.00005  -0.03693   0.05408   0.00020
  72        3PY        -0.00002  -0.02767  -0.00012  -0.00013   0.11218
  73        3PZ         0.00102   0.00001   0.00126   0.00198  -0.00009
  74 13  H  1S          0.09864   0.00060  -0.04973   0.04147  -0.00232
  75        2S          0.01620   0.00032  -0.02543   0.02533  -0.00173
  76 14  H  1S          0.09855   0.02125  -0.05173   0.03521  -0.08600
  77        2S          0.01716   0.01355  -0.02399   0.01855  -0.06772
  78 15  H  1S          0.09853  -0.02186  -0.05190   0.03483   0.08886
  79        2S          0.01711  -0.01407  -0.02395   0.01808   0.07007
                          16        17        18        19        20
                           O         O         O         O         O
     Eigenvalues --    -0.62061  -0.58450  -0.58246  -0.56031  -0.54379
   1 1   C  1S          0.05805   0.00003  -0.00271  -0.01041   0.00019
   2        2S         -0.06293  -0.00004   0.00274   0.01415  -0.00022
   3        2PX         0.01660  -0.00010  -0.01808   0.27242  -0.00110
   4        2PY         0.00116  -0.10493  -0.00047  -0.00055  -0.11845
   5        2PZ         0.00078  -0.00018   0.02837   0.00232  -0.00005
   6        3S         -0.16406   0.00003   0.00723   0.01539  -0.00038
   7        3PX         0.06669  -0.00006  -0.01719   0.25334  -0.00109
   8        3PY         0.00071  -0.05668  -0.00026  -0.00028  -0.07595
   9        3PZ         0.00052  -0.00014   0.02463   0.00207  -0.00003
  10 2   C  1S         -0.05103  -0.01588   0.00362  -0.01914   0.01111
  11        2S          0.05306   0.02060  -0.00333   0.02243  -0.01175
  12        2PX        -0.07808   0.11184   0.00873  -0.06107  -0.11156
  13        2PY        -0.14174   0.19027   0.00130   0.10029   0.05809
  14        2PZ         0.00119  -0.00002   0.03817   0.00275   0.00069
  15        3S          0.15377   0.02069  -0.01736   0.03435  -0.03970
  16        3PX        -0.08958   0.08421   0.00281  -0.04421  -0.06930
  17        3PY        -0.14869   0.15491   0.00659   0.05110   0.04510
  18        3PZ         0.00104  -0.00017   0.03173   0.00246  -0.00019
  19 3   C  1S          0.05216  -0.02013  -0.00453   0.02101  -0.01708
  20        2S         -0.05449   0.02508   0.00519  -0.02483   0.01533
  21        2PX        -0.02568  -0.10765  -0.00196   0.06100   0.13246
  22        2PY         0.12172   0.18353  -0.00402  -0.11250  -0.01332
  23        2PZ         0.00260  -0.00002   0.06778   0.00429   0.00108
  24        3S         -0.15787   0.03181   0.01533  -0.04049   0.07065
  25        3PX        -0.06311  -0.08902  -0.00921   0.03582   0.09008
  26        3PY         0.13008   0.14142  -0.00869  -0.08022  -0.03413
  27        3PZ         0.00201   0.00041   0.06351   0.00382   0.00324
  28 4   C  1S         -0.07307  -0.00007   0.00335  -0.01129   0.00001
  29        2S          0.07537   0.00009  -0.00517   0.00561   0.00017
  30        2PX         0.03106   0.00011  -0.00775   0.24241  -0.00183
  31        2PY         0.00118  -0.10344  -0.00041  -0.00061  -0.06141
  32        2PZ         0.00515  -0.00054   0.12697   0.00693  -0.00001
  33        3S          0.23110   0.00002   0.00248   0.06964  -0.00131
  34        3PX         0.08367   0.00006  -0.00626   0.20877  -0.00176
  35        3PY         0.00051  -0.07192  -0.00022  -0.00054  -0.04654
  36        3PZ         0.00462  -0.00042   0.09884   0.00576   0.00000
  37 5   C  1S          0.05219   0.02023  -0.00434   0.02121   0.01714
  38        2S         -0.05453  -0.02521   0.00496  -0.02502  -0.01542
  39        2PX        -0.02358   0.10740  -0.00109   0.05942  -0.13294
  40        2PY        -0.12300   0.18321   0.00554   0.11291  -0.01565
  41        2PZ         0.00268  -0.00074   0.06771   0.00419  -0.00101
  42        3S         -0.15789  -0.03225   0.01494  -0.04117  -0.07154
  43        3PX        -0.06175   0.08912  -0.00852   0.03500  -0.08884
  44        3PY        -0.13095   0.14097   0.00988   0.08014  -0.03651
  45        3PZ         0.00209  -0.00108   0.06317   0.00371  -0.00320
  46 6   C  1S         -0.05105   0.01583   0.00374  -0.01924  -0.01109
  47        2S          0.05309  -0.02056  -0.00348   0.02254   0.01160
  48        2PX        -0.08016  -0.11184   0.00785  -0.05969   0.11148
  49        2PY         0.14070   0.19042   0.00030  -0.09984   0.05952
  50        2PZ         0.00122  -0.00032   0.03808   0.00272  -0.00074
  51        3S          0.15390  -0.02034  -0.01750   0.03469   0.04120
  52        3PX        -0.09073  -0.08412   0.00215  -0.04323   0.06995
  53        3PY         0.14817   0.15514  -0.00531  -0.05070   0.04637
  54        3PZ         0.00106  -0.00013   0.03174   0.00246   0.00014
  55 7   H  1S         -0.06743   0.00005   0.01525  -0.18072   0.00060
  56        2S         -0.03035   0.00004   0.01133  -0.14479   0.00049
  57 8   H  1S          0.15326  -0.13277  -0.00729  -0.01879  -0.00851
  58        2S          0.09736  -0.10830  -0.00457  -0.02405  -0.00316
  59 9   H  1S         -0.12745  -0.12453   0.00525   0.06644   0.06727
  60        2S         -0.07786  -0.10470   0.00188   0.06011   0.04699
  61 10  H  1S         -0.12754   0.12419   0.00623   0.06597  -0.06869
  62        2S         -0.07792   0.10454   0.00273   0.05992  -0.04793
  63 11  H  1S          0.15337   0.13291  -0.00618  -0.01887   0.00939
  64        2S          0.09741   0.10838  -0.00365  -0.02415   0.00396
  65 12  C  1S          0.00457   0.00004  -0.00046   0.00460  -0.00002
  66        2S         -0.00242  -0.00004   0.00029  -0.00046  -0.00002
  67        2PX        -0.10724  -0.00018   0.01101  -0.21622   0.00158
  68        2PY         0.00017   0.04885   0.00034   0.00204   0.33050
  69        2PZ         0.01743  -0.00141   0.34913   0.01449  -0.00019
  70        3S         -0.05139  -0.00013   0.00158  -0.05773   0.00059
  71        3PX        -0.05131  -0.00016   0.00888  -0.14713   0.00099
  72        3PY         0.00027   0.04926   0.00023   0.00162   0.28984
  73        3PZ         0.01172  -0.00116   0.28592   0.01409  -0.00026
  74 13  H  1S         -0.01482  -0.00184   0.23443  -0.04454  -0.00528
  75        2S         -0.01837  -0.00159   0.19711  -0.04405  -0.00455
  76 14  H  1S         -0.03576  -0.03078  -0.11870  -0.05989  -0.19633
  77        2S         -0.03634  -0.02794  -0.09952  -0.05392  -0.17367
  78 15  H  1S         -0.03538   0.03253  -0.10863  -0.05706   0.20278
  79        2S         -0.03621   0.02945  -0.09090  -0.05125   0.17926
                          21        22        23        24        25
                           O         O         O         O         O
     Eigenvalues --    -0.49200  -0.48296  -0.47415  -0.33603  -0.32569
   1 1   C  1S          0.00040  -0.00005   0.00190  -0.00001  -0.00026
   2        2S         -0.00039   0.00005  -0.00355  -0.00000   0.00030
   3        2PX         0.00374   0.00030  -0.15550   0.00002   0.00074
   4        2PY        -0.00010  -0.21205  -0.00018   0.00029  -0.00015
   5        2PZ         0.18951  -0.00012   0.00615  -0.00108   0.26458
   6        3S         -0.00023   0.00017  -0.00561   0.00016   0.00020
   7        3PX         0.00396   0.00033  -0.19108   0.00008   0.00161
   8        3PY        -0.00006  -0.14549  -0.00004   0.00174  -0.00014
   9        3PZ         0.18627  -0.00008   0.00592  -0.00127   0.32593
  10 2   C  1S         -0.00010  -0.00527  -0.00480   0.00005   0.00027
  11        2S         -0.00024   0.00656   0.00719  -0.00008  -0.00009
  12        2PX        -0.00585  -0.00265   0.19981  -0.00032  -0.00105
  13        2PY        -0.00068   0.19339  -0.00699  -0.00031   0.00025
  14        2PZ         0.18228  -0.00049   0.00562  -0.23165   0.12312
  15        3S          0.00456   0.02709  -0.00371  -0.00083  -0.00372
  16        3PX        -0.00205   0.04879   0.14977  -0.00160  -0.00278
  17        3PY        -0.00269   0.20658   0.03224   0.00147   0.00091
  18        3PZ         0.18071  -0.00020   0.00607  -0.27952   0.14924
  19 3   C  1S          0.00037   0.00679   0.00168  -0.00023  -0.00032
  20        2S         -0.00052  -0.00872  -0.00201   0.00056   0.00037
  21        2PX         0.00467  -0.03131  -0.19823   0.00073   0.00149
  22        2PY         0.00339  -0.19794  -0.03011   0.00082  -0.00117
  23        2PZ         0.16469  -0.00080   0.00414  -0.23328  -0.14648
  24        3S         -0.00300  -0.01709   0.01751  -0.00387   0.00179
  25        3PX         0.00906   0.03709  -0.18247  -0.00313  -0.00225
  26        3PY         0.00386  -0.20176   0.03227  -0.00309  -0.00447
  27        3PZ         0.15938  -0.00156   0.00324  -0.28402  -0.17809
  28 4   C  1S          0.00033   0.00002  -0.00681   0.00001  -0.00029
  29        2S          0.00072  -0.00004   0.00314   0.00000  -0.00046
  30        2PX        -0.00905   0.00017   0.23436  -0.00002  -0.00045
  31        2PY         0.00004   0.23407   0.00006  -0.00055  -0.00005
  32        2PZ         0.13545  -0.00004   0.00114   0.00147  -0.26257
  33        3S         -0.00873   0.00019   0.01682  -0.00018   0.00815
  34        3PX        -0.01071   0.00018   0.29699   0.00005  -0.00181
  35        3PY         0.00004   0.18858  -0.00051  -0.01178  -0.00007
  36        3PZ         0.14238  -0.00004   0.00306   0.00156  -0.32276
  37 5   C  1S          0.00039  -0.00681   0.00169   0.00025  -0.00033
  38        2S         -0.00055   0.00877  -0.00207  -0.00060   0.00039
  39        2PX         0.00487   0.03162  -0.19865  -0.00052   0.00137
  40        2PY        -0.00328  -0.19752   0.02978   0.00090   0.00107
  41        2PZ         0.16474   0.00087   0.00432   0.23440  -0.14457
  42        3S         -0.00308   0.01714   0.01802   0.00397   0.00190
  43        3PX         0.00922  -0.03719  -0.18234   0.00333  -0.00241
  44        3PY        -0.00372  -0.20112  -0.03316  -0.00314   0.00436
  45        3PZ         0.15957   0.00166   0.00340   0.28545  -0.17592
  46 6   C  1S         -0.00013   0.00527  -0.00486  -0.00010   0.00023
  47        2S         -0.00021  -0.00654   0.00723   0.00016  -0.00004
  48        2PX        -0.00589   0.00253   0.20020   0.00035  -0.00096
  49        2PY         0.00080   0.19312   0.00704  -0.00036  -0.00021
  50        2PZ         0.18231   0.00045   0.00560   0.23027   0.12568
  51        3S          0.00462  -0.02732  -0.00329   0.00092  -0.00357
  52        3PX        -0.00205  -0.04903   0.15028   0.00160  -0.00272
  53        3PY         0.00277   0.20627  -0.03201   0.00158  -0.00084
  54        3PZ         0.18067   0.00016   0.00608   0.27779   0.15247
  55 7   H  1S         -0.00358  -0.00014   0.12807  -0.00002  -0.00044
  56        2S         -0.00319  -0.00013   0.11131  -0.00001  -0.00043
  57 8   H  1S          0.00290  -0.13062  -0.07260   0.00031   0.00002
  58        2S          0.00248  -0.11164  -0.06611   0.00079   0.00007
  59 9   H  1S         -0.00006   0.12307  -0.06581  -0.00001   0.00122
  60        2S          0.00108   0.10808  -0.05369  -0.00109  -0.00079
  61 10  H  1S         -0.00000  -0.12276  -0.06618   0.00005   0.00117
  62        2S          0.00112  -0.10794  -0.05386   0.00122  -0.00085
  63 11  H  1S          0.00299   0.13050  -0.07265  -0.00035   0.00003
  64        2S          0.00261   0.11149  -0.06621  -0.00087   0.00009
  65 12  C  1S          0.00040  -0.00003  -0.02066   0.00001   0.00042
  66        2S         -0.00066   0.00004   0.02251  -0.00001   0.00016
  67        2PX         0.00851  -0.00010  -0.23574   0.00005   0.00061
  68        2PY        -0.00009  -0.07345   0.00080   0.00429   0.00004
  69        2PZ        -0.12807   0.00002  -0.01106  -0.00012   0.07503
  70        3S          0.00215   0.00009   0.02487  -0.00004  -0.00488
  71        3PX         0.00542  -0.00002  -0.16368   0.00006  -0.00012
  72        3PY        -0.00005  -0.08111   0.00102   0.02068   0.00006
  73        3PZ        -0.12414   0.00004  -0.01312   0.00090   0.07710
  74 13  H  1S         -0.09552   0.00144  -0.04901  -0.00035   0.07501
  75        2S         -0.08854   0.00155  -0.06455  -0.00111   0.09457
  76 14  H  1S          0.05239   0.05199  -0.04152  -0.00086  -0.03879
  77        2S          0.04906   0.05662  -0.05904   0.01220  -0.04669
  78 15  H  1S          0.04825  -0.05355  -0.04118   0.00123  -0.03563
  79        2S          0.04512  -0.05829  -0.05893  -0.01108  -0.04280
                          26        27        28        29        30
                           V         V         V         V         V
     Eigenvalues --     0.14840   0.15300   0.25395   0.29948   0.30893
   1 1   C  1S         -0.00000   0.00110   0.04487   0.01193  -0.00000
   2        2S         -0.00003  -0.00106  -0.02394   0.01229  -0.00027
   3        2PX        -0.00004  -0.00053   0.09795   0.09177  -0.00063
   4        2PY        -0.00042  -0.00011  -0.00015   0.00112   0.03217
   5        2PZ        -0.01229   0.26309  -0.01507   0.02286  -0.00062
   6        3S          0.00002  -0.00294  -0.49330  -0.45392   0.00501
   7        3PX         0.00006   0.00233   0.38395   0.16747   0.00051
   8        3PY        -0.00832  -0.00083  -0.00079   0.00181  -0.00804
   9        3PZ        -0.02743   0.59049  -0.03950   0.06388  -0.00169
  10 2   C  1S         -0.00060  -0.00050   0.04030   0.03878   0.03301
  11        2S          0.00059   0.00060  -0.01382  -0.02551  -0.00332
  12        2PX         0.00095   0.00256   0.06116   0.00873   0.04991
  13        2PY         0.00008   0.00016   0.08010   0.05741   0.12493
  14        2PZ        -0.22731  -0.14565   0.01216  -0.02007  -0.01073
  15        3S          0.00848   0.00275  -0.55648  -0.39991  -0.59339
  16        3PX         0.00795   0.00468   0.16284   0.08667   0.19446
  17        3PY        -0.00991  -0.00495   0.23209   0.40348   0.38698
  18        3PZ        -0.50571  -0.32497   0.02897  -0.05537  -0.02184
  19 3   C  1S          0.00077   0.00153   0.04923  -0.02094   0.02059
  20        2S         -0.00222  -0.00094  -0.03071   0.02693   0.00371
  21        2PX        -0.00157  -0.00217  -0.04897   0.03822  -0.05183
  22        2PY        -0.00329   0.00387   0.07350  -0.02647   0.15596
  23        2PZ         0.23481  -0.11623  -0.00231   0.01127   0.02166
  24        3S          0.02192  -0.00767  -0.49588   0.08420  -0.45839
  25        3PX         0.01940   0.00003  -0.20008   0.03852  -0.27809
  26        3PY         0.01242   0.02522   0.35579  -0.44852   0.50942
  27        3PZ         0.52776  -0.26191  -0.00102   0.03031   0.02710
  28 4   C  1S         -0.00003   0.00124   0.02640   0.00259  -0.00016
  29        2S         -0.00009   0.00159  -0.00962  -0.00893  -0.00065
  30        2PX         0.00004  -0.00035  -0.04121   0.00971   0.00028
  31        2PY        -0.00190  -0.00003  -0.00026   0.00088   0.03612
  32        2PZ        -0.01297   0.28042  -0.00612  -0.00669   0.00036
  33        3S          0.00137  -0.03423  -0.37911   0.36719  -0.00230
  34        3PX        -0.00051   0.01276  -0.04600  -0.35164   0.00765
  35        3PY         0.05816   0.00323   0.00356  -0.00331   0.01143
  36        3PZ        -0.02543   0.58498  -0.03515  -0.00432   0.00086
  37 5   C  1S         -0.00089   0.00141   0.04916  -0.02218  -0.01941
  38        2S          0.00224  -0.00066  -0.03030   0.02628  -0.00548
  39        2PX         0.00165  -0.00215  -0.04883   0.04049   0.04985
  40        2PY        -0.00301  -0.00428  -0.07517   0.03560   0.15557
  41        2PZ        -0.22235  -0.13862  -0.00204   0.01038  -0.02245
  42        3S         -0.02082  -0.00961  -0.49993   0.11271   0.45085
  43        3PX        -0.01978  -0.00244  -0.20436   0.05722   0.27530
  44        3PY         0.01422  -0.02374  -0.35839   0.47616   0.49452
  45        3PZ        -0.50067  -0.31163  -0.00041   0.02891  -0.02956
  46 6   C  1S          0.00058  -0.00038   0.04051   0.03740  -0.03389
  47        2S         -0.00058   0.00048  -0.01390  -0.02553   0.00406
  48        2PX        -0.00113   0.00239   0.06114   0.00619  -0.04938
  49        2PY         0.00010  -0.00016  -0.08055  -0.05152   0.12571
  50        2PZ         0.23934  -0.12374   0.01207  -0.01953   0.01180
  51        3S         -0.00843   0.00153  -0.56007  -0.37296   0.60020
  52        3PX        -0.00848   0.00345   0.16143   0.08008  -0.19463
  53        3PY        -0.01005   0.00352  -0.23466  -0.38453   0.39761
  54        3PZ         0.53268  -0.27619   0.02886  -0.05417   0.02477
  55 7   H  1S         -0.00003   0.00130   0.04758   0.00390   0.00012
  56        2S         -0.00011   0.00780   0.78702   0.43120  -0.00161
  57 8   H  1S         -0.00105   0.00041   0.03984   0.02030   0.02424
  58        2S         -0.00664   0.00111   0.70676   0.61059   0.83712
  59 9   H  1S         -0.00060  -0.00142   0.03582   0.03063   0.01866
  60        2S         -0.00190   0.02155   0.76776  -0.38027   0.91757
  61 10  H  1S          0.00075  -0.00137   0.03610   0.02910  -0.01992
  62        2S          0.00008   0.02153   0.77339  -0.43048  -0.90037
  63 11  H  1S          0.00092   0.00061   0.04015   0.01882  -0.02470
  64        2S          0.00616   0.00217   0.71054   0.57179  -0.84914
  65 12  C  1S         -0.00006   0.00088   0.00973  -0.13598   0.00491
  66        2S          0.00000   0.00039   0.00378   0.02844  -0.00114
  67        2PX         0.00010  -0.00334  -0.09861   0.09978  -0.00347
  68        2PY        -0.01589  -0.00080  -0.00210   0.00444   0.13407
  69        2PZ        -0.00117   0.00126   0.02504  -0.02469   0.00040
  70        3S          0.00085  -0.01633  -0.25960   2.03477  -0.07283
  71        3PX         0.00035  -0.01059  -0.38162   0.43359  -0.01516
  72        3PY        -0.14216  -0.00712  -0.01347   0.02188   0.60079
  73        3PZ        -0.01339   0.09718   0.15489  -0.12934   0.00189
  74 13  H  1S          0.00296  -0.06313  -0.00341   0.00727   0.00004
  75        2S          0.01749  -0.25309   0.05799  -0.78817   0.04935
  76 14  H  1S         -0.00525   0.03378   0.00390  -0.00474   0.01468
  77        2S         -0.13359   0.13728   0.29699  -0.99261   0.66140
  78 15  H  1S          0.00217   0.03151   0.00491  -0.00605  -0.01528
  79        2S          0.11501   0.13879   0.31525  -1.03027  -0.60838
                          31        32        33        34        35
                           V         V         V         V         V
     Eigenvalues --     0.33270   0.34454   0.35571   0.37097   0.37288
   1 1   C  1S          0.02630   0.05995   0.00591   0.09521   0.01369
   2        2S          0.00333  -0.01561  -0.00310  -0.06986  -0.01027
   3        2PX         0.11396   0.13934   0.00780   0.07701   0.01077
   4        2PY        -0.00029  -0.00001  -0.01941   0.01142  -0.06894
   5        2PZ         0.10008  -0.10784   0.00237   0.06559   0.00961
   6        3S         -0.55787  -0.92407  -0.06905  -0.86805  -0.12291
   7        3PX         0.33523   0.57133   0.05378   1.01071   0.14923
   8        3PY         0.00129   0.00257  -0.17486   0.06163  -0.36053
   9        3PZ         0.29260  -0.31797   0.00713   0.19582   0.02893
  10 2   C  1S          0.00738  -0.02227   0.02514  -0.08005   0.06764
  11        2S         -0.00462   0.01365   0.00082   0.06375  -0.02329
  12        2PX         0.02687   0.02184   0.06359  -0.07764  -0.00468
  13        2PY         0.03329   0.01900   0.10564  -0.05471   0.06106
  14        2PZ        -0.09743   0.10451   0.01739  -0.06452  -0.01558
  15        3S         -0.06319   0.26422  -0.49305   0.62457  -1.06563
  16        3PX         0.07207  -0.04374   0.31914  -0.68355  -0.05204
  17        3PY         0.20926   0.05247   0.38289  -0.76206   0.38248
  18        3PZ        -0.26483   0.29650   0.02993  -0.19589  -0.03986
  19 3   C  1S         -0.02581  -0.03698   0.01985   0.03462  -0.07852
  20        2S          0.00554   0.00913  -0.00681  -0.04455   0.03090
  21        2PX         0.04980   0.08338  -0.04421   0.01153   0.01793
  22        2PY        -0.05878  -0.04752  -0.00036   0.04721  -0.10001
  23        2PZ         0.06870  -0.08223  -0.04248   0.06385   0.02374
  24        3S          0.33226   0.60095  -0.27118   0.03917   1.11906
  25        3PX         0.23276   0.38956  -0.04247  -0.25762  -0.00202
  26        3PY        -0.31954  -0.11783  -0.04724   0.66666  -0.56213
  27        3PZ         0.18087  -0.23614  -0.03916   0.19793   0.04197
  28 4   C  1S         -0.00093   0.01591   0.00149   0.00322   0.00002
  29        2S         -0.03328  -0.00659   0.00161   0.03475   0.00498
  30        2PX         0.07899   0.10492   0.00428  -0.04237  -0.00806
  31        2PY         0.00036   0.00041  -0.00811  -0.01060   0.07645
  32        2PZ        -0.04867   0.07516  -0.00200  -0.07258  -0.01082
  33        3S          0.23302  -0.25949  -0.04756  -0.53822  -0.06880
  34        3PX         0.13775   0.38362   0.03565   0.30911   0.03671
  35        3PY        -0.00073  -0.00020  -0.01673  -0.01057   0.10730
  36        3PZ        -0.02111   0.12951  -0.00453  -0.20580  -0.03120
  37 5   C  1S         -0.02369  -0.03509  -0.02209   0.01212   0.08627
  38        2S          0.00502   0.00853   0.00558  -0.03420  -0.04285
  39        2PX         0.04676   0.08047   0.05336   0.01284  -0.01585
  40        2PY         0.05517   0.04526   0.00029  -0.01465  -0.10940
  41        2PZ         0.07127  -0.08777   0.04648   0.06445  -0.00474
  42        3S          0.30221   0.57462   0.34427   0.33358  -1.07566
  43        3PX         0.22478   0.38362   0.07596  -0.24798  -0.08978
  44        3PY         0.30603   0.11031  -0.08920  -0.46280  -0.72314
  45        3PZ         0.18328  -0.24196   0.05125   0.19893   0.01719
  46 6   C  1S          0.00822  -0.02132  -0.03272  -0.05506  -0.08689
  47        2S         -0.00430   0.01384   0.00467   0.05418   0.04057
  48        2PX         0.03039   0.02540  -0.06492  -0.07032  -0.01896
  49        2PY        -0.03885  -0.02459   0.10720   0.02683   0.07341
  50        2PZ        -0.09862   0.10697  -0.02207  -0.06495  -0.00350
  51        3S         -0.08215   0.24364   0.56469   0.25265   1.18160
  52        3PX         0.08735  -0.02688  -0.35908  -0.63933  -0.15135
  53        3PY        -0.22643  -0.07086   0.42440   0.58764   0.58438
  54        3PZ        -0.26706   0.30111  -0.04371  -0.19665  -0.01858
  55 7   H  1S          0.00682   0.01137   0.00100   0.01019   0.00125
  56        2S          0.67452   1.08758   0.08861   1.36008   0.19658
  57 8   H  1S          0.00638   0.00333  -0.00598  -0.01468  -0.01159
  58        2S          0.28230  -0.04334   0.75727  -1.28657   0.73412
  59 9   H  1S         -0.01877  -0.03024   0.00591   0.03594   0.00458
  60        2S         -0.59433  -0.67713   0.15010   0.72564  -1.02075
  61 10  H  1S         -0.01799  -0.02963  -0.00759   0.03571   0.00775
  62        2S         -0.56088  -0.65176  -0.17593   0.40327   1.20071
  63 11  H  1S          0.00676   0.00333   0.00526  -0.01817   0.00655
  64        2S          0.31793  -0.00594  -0.83962  -0.95865  -1.06846
  65 12  C  1S          0.08099   0.04542   0.00057  -0.03634  -0.00630
  66        2S         -0.02266  -0.01564  -0.00047   0.01158   0.00226
  67        2PX        -0.00894   0.03867   0.00316   0.02799   0.00387
  68        2PY         0.00420   0.00515  -0.23622   0.00844   0.01578
  69        2PZ        -0.16534   0.12630  -0.00196  -0.00662  -0.00018
  70        3S         -1.12061  -0.59748  -0.00812   0.44004   0.07791
  71        3PX        -0.03157   0.19108   0.01599   0.12720   0.01598
  72        3PY         0.02639   0.02982  -1.23708   0.00177   0.34122
  73        3PZ        -0.87007   0.61755  -0.00884   0.01620   0.00642
  74 13  H  1S          0.03783  -0.04415  -0.00129   0.01307   0.00408
  75        2S          1.51261  -0.61340  -0.02752  -0.21411  -0.03064
  76 14  H  1S         -0.02470   0.01764  -0.05320  -0.01410   0.06143
  77        2S         -0.05600   0.59752  -1.28356  -0.26513   0.32049
  78 15  H  1S         -0.02583   0.01314   0.05349   0.00042  -0.06436
  79        2S         -0.06560   0.50364   1.29893  -0.26757  -0.41293
                          36        37        38        39        40
                           V         V         V         V         V
     Eigenvalues --     0.40294   0.43071   0.50964   0.52575   0.54147
   1 1   C  1S          0.01526  -0.05531  -0.00030  -0.10109   0.01385
   2        2S         -0.01554   0.00104   0.00005   0.01176   0.01822
   3        2PX         0.02435   0.08521   0.00048   0.15698   0.08233
   4        2PY        -0.00007  -0.00024  -0.13505  -0.00101  -0.00919
   5        2PZ        -0.13763   0.00362  -0.00000   0.00350   0.00939
   6        3S         -0.10769   1.24365   0.00572   2.20469  -0.78630
   7        3PX         0.34702   0.71637   0.00351   1.27550   0.40715
   8        3PY         0.00001  -0.00149  -1.71386   0.00068  -0.04305
   9        3PZ        -0.41202   0.01085  -0.00027   0.00813   0.02169
  10 2   C  1S         -0.00546   0.00993   0.09588   0.02853   0.05073
  11        2S          0.01333   0.02685  -0.00796  -0.02251  -0.00352
  12        2PX        -0.04239   0.07236  -0.01598   0.00462  -0.15397
  13        2PY        -0.01039  -0.02043  -0.14661  -0.12114   0.04969
  14        2PZ         0.13744  -0.00311   0.00026  -0.00364  -0.00977
  15        3S         -0.12667  -0.64260  -2.20129  -0.25432  -1.22404
  16        3PX        -0.27852   0.26960  -0.39641   0.84426  -1.14031
  17        3PY        -0.20571  -0.58869  -1.02393  -1.10414   0.25895
  18        3PZ         0.44226  -0.01333  -0.00010  -0.01054  -0.02830
  19 3   C  1S          0.01745   0.06601  -0.02463   0.03877  -0.01203
  20        2S         -0.01729  -0.04197   0.01973   0.00503  -0.00416
  21        2PX        -0.01825   0.00475  -0.12477   0.10417  -0.13384
  22        2PY        -0.00493  -0.03215   0.07254  -0.03067  -0.13322
  23        2PZ        -0.16816   0.00467  -0.00092   0.00802   0.02344
  24        3S         -0.10558  -0.67869   0.16081  -1.10384   0.40596
  25        3PX        -0.31438  -0.46621  -1.36448   0.62330  -1.39157
  26        3PY        -0.01441   0.11200   0.21623  -0.66747  -1.14014
  27        3PZ        -0.53341   0.01995  -0.00081   0.01666   0.04444
  28 4   C  1S         -0.02164  -0.15934   0.00016   0.00186  -0.08729
  29        2S         -0.00025   0.06142   0.00001   0.00528  -0.01408
  30        2PX        -0.04677   0.15803  -0.00089  -0.24604  -0.10151
  31        2PY        -0.00017  -0.00041  -0.12520  -0.00180  -0.01331
  32        2PZ         0.21176  -0.00719  -0.00007  -0.00948  -0.02182
  33        3S          0.35882   2.18704  -0.00344   0.05290   2.29560
  34        3PX        -0.13943   1.17005  -0.00630  -1.88542  -0.72911
  35        3PY        -0.00101  -0.00185  -0.78995  -0.02009  -0.12577
  36        3PZ         0.71804  -0.03530   0.00010  -0.02978  -0.08614
  37 5   C  1S          0.01731   0.06583   0.02482   0.03642  -0.02388
  38        2S         -0.01735  -0.04202  -0.01963   0.00539  -0.00365
  39        2PX        -0.01828   0.00521   0.12571   0.10309  -0.13748
  40        2PY         0.00486   0.03186   0.07256   0.02847   0.12245
  41        2PZ        -0.16355   0.00442   0.00089   0.00746   0.02103
  42        3S         -0.10318  -0.67449  -0.16575  -1.05341   0.68260
  43        3PX        -0.31373  -0.46540   1.37005   0.61780  -1.38221
  44        3PY         0.01383  -0.11401   0.21911   0.64645   1.02181
  45        3PZ        -0.53000   0.01971   0.00044   0.01579   0.04454
  46 6   C  1S         -0.00544   0.00979  -0.09578   0.02961   0.05297
  47        2S          0.01325   0.02689   0.00782  -0.02298  -0.00578
  48        2PX        -0.04251   0.07208   0.01631   0.00248  -0.16565
  49        2PY         0.01040   0.02055  -0.14561   0.12328  -0.04368
  50        2PZ         0.13562  -0.00304  -0.00043  -0.00348  -0.00902
  51        3S         -0.12639  -0.63996   2.20170  -0.27087  -1.21958
  52        3PX        -0.27887   0.26694   0.40200   0.82100  -1.26922
  53        3PY         0.20561   0.58911  -1.01735   1.11502  -0.25016
  54        3PZ         0.43940  -0.01284  -0.00115  -0.01037  -0.02684
  55 7   H  1S         -0.00485   0.02894   0.00022   0.05472  -0.12146
  56        2S          0.34830   0.28981   0.00142   0.57041   0.46495
  57 8   H  1S         -0.00855  -0.02180  -0.07091   0.03739  -0.06685
  58        2S         -0.29900  -0.09059  -0.42935  -0.39197  -0.01023
  59 9   H  1S          0.03036  -0.01979  -0.05797  -0.02291   0.02573
  60        2S          0.24991   0.50533   0.65281  -0.50639  -0.36684
  61 10  H  1S          0.03033  -0.01962   0.05781  -0.02217   0.03293
  62        2S          0.24908   0.50502  -0.65593  -0.50207  -0.35429
  63 11  H  1S         -0.00861  -0.02155   0.07129   0.03841  -0.05786
  64        2S         -0.29892  -0.09293   0.42656  -0.40455  -0.06252
  65 12  C  1S         -0.01433   0.07920  -0.00020  -0.04121   0.01639
  66        2S          0.01198  -0.00072  -0.00012  -0.02731   0.03065
  67        2PX        -0.00260   0.16344  -0.00006  -0.03826  -0.14888
  68        2PY        -0.00001  -0.00111  -0.06450  -0.00058  -0.00222
  69        2PZ        -0.19642   0.02243   0.00005   0.02720   0.11076
  70        3S          0.16475  -1.22405   0.00476   1.03238  -0.46803
  71        3PX        -0.01942   1.48021  -0.00474  -1.17711  -0.20996
  72        3PY         0.00001  -0.00415   0.05599   0.00362   0.02717
  73        3PZ        -1.02539   0.10065   0.00004   0.08086   0.30013
  74 13  H  1S          0.00428  -0.04684   0.00117   0.04522   0.03015
  75        2S          1.03583  -0.21607  -0.00145  -0.00577  -0.14868
  76 14  H  1S          0.00343  -0.05056   0.02925   0.05243   0.00045
  77        2S         -0.63354  -0.02504  -0.04547   0.14763   0.54978
  78 15  H  1S          0.00315  -0.05061  -0.02944   0.05423   0.00475
  79        2S         -0.58692  -0.02018   0.04673   0.14341   0.52425
                          41        42        43        44        45
                           V         V         V         V         V
     Eigenvalues --     0.56220   0.76904   0.81737   0.89207   0.91936
   1 1   C  1S         -0.00047  -0.00127  -0.11960   0.00046   0.01413
   2        2S          0.00127   0.00066   0.02739  -0.00065  -0.05622
   3        2PX         0.00603   0.00321   0.14551  -0.00219  -0.26085
   4        2PY         0.19349  -0.06252  -0.00101  -0.41715   0.00433
   5        2PZ         0.00044  -0.00010  -0.00165  -0.00019   0.02364
   6        3S         -0.01661   0.02367   2.75923  -0.00977  -0.19746
   7        3PX         0.03317   0.02224   2.16654  -0.00511   0.17809
   8        3PY         1.04320  -2.62901   0.02363  -1.07968  -0.00207
   9        3PZ         0.00112  -0.00098   0.00074  -0.00052  -0.02074
  10 2   C  1S          0.02048   0.01913   0.11656   0.00312  -0.00093
  11        2S         -0.01901  -0.01176  -0.01875  -0.00573  -0.04762
  12        2PX        -0.12116   0.22939  -0.06606  -0.16903  -0.12192
  13        2PY        -0.04447  -0.15272  -0.11489   0.05791  -0.20686
  14        2PZ         0.00563   0.00660   0.00188   0.00140   0.02185
  15        3S         -0.00472  -0.19519  -2.79667  -0.02096  -0.01898
  16        3PX        -1.42948   1.81216  -1.11060   1.53604   0.16671
  17        3PY         0.05147  -1.27166  -1.88082  -0.88046   0.31766
  18        3PZ         0.00392  -0.00457  -0.00264  -0.00047   0.00379
  19 3   C  1S         -0.10251  -0.01983  -0.12175  -0.01482   0.01099
  20        2S          0.00347  -0.02725   0.03393   0.03114  -0.05146
  21        2PX        -0.05415  -0.05500  -0.03736   0.38223   0.16004
  22        2PY         0.09690   0.00528   0.14242   0.24939  -0.21706
  23        2PZ        -0.01970  -0.03210  -0.01038  -0.00857   0.08041
  24        3S          2.48449   0.67038   2.80127  -0.03061  -0.15181
  25        3PX        -0.19572   2.32701  -1.20542   0.88358  -0.18141
  26        3PY         0.97066   1.52504   1.97259   0.62105   0.20436
  27        3PZ        -0.00188   0.01910   0.00668   0.00364  -0.08029
  28 4   C  1S         -0.00459   0.00042   0.11788  -0.00018   0.00533
  29        2S         -0.00001   0.00083  -0.04236  -0.00064  -0.09296
  30        2PX        -0.00719  -0.00045   0.14351   0.00020   0.21353
  31        2PY         0.24239   0.31851  -0.00413   0.03253   0.00082
  32        2PZ        -0.00104  -0.00021  -0.00088   0.00051   0.12346
  33        3S          0.12200  -0.00795  -2.56181   0.01314   0.31375
  34        3PX        -0.05338   0.01269   2.60196  -0.00831  -0.01966
  35        3PY         2.08778   2.98044  -0.02572   1.65089  -0.00594
  36        3PZ        -0.00402  -0.00084  -0.00477  -0.00013   0.01283
  37 5   C  1S          0.10087   0.01736  -0.12209   0.01571   0.01051
  38        2S         -0.00328   0.02808   0.03330  -0.03168  -0.05131
  39        2PX         0.04143   0.04967  -0.04109  -0.37740   0.16520
  40        2PY         0.11093   0.00544  -0.14139   0.25147   0.21334
  41        2PZ         0.02179   0.03239  -0.01138   0.00963   0.08265
  42        3S         -2.44075  -0.62104   2.81598   0.00887  -0.14946
  43        3PX         0.05933  -2.35670  -1.16185  -0.88247  -0.18343
  44        3PY         1.09604   1.50741  -2.00314   0.63327  -0.20494
  45        3PZ         0.00436  -0.01828   0.00882  -0.00419  -0.08226
  46 6   C  1S         -0.01416  -0.01613   0.11687  -0.00404  -0.00064
  47        2S          0.01798   0.01093  -0.01885   0.00522  -0.04783
  48        2PX         0.10486  -0.23254  -0.06006   0.16809  -0.12874
  49        2PY        -0.04725  -0.15183   0.11877   0.05970   0.20391
  50        2PZ        -0.00653  -0.00652   0.00166  -0.00133   0.02174
  51        3S         -0.13606   0.13525  -2.79867   0.03779  -0.01972
  52        3PX         1.31766  -1.84075  -1.08422  -1.52665   0.17790
  53        3PY         0.04758  -1.23681   1.90043  -0.89629  -0.31028
  54        3PZ        -0.00621   0.00518  -0.00114   0.00108   0.00419
  55 7   H  1S         -0.00633  -0.00320  -0.14066   0.00259   0.32382
  56        2S          0.02857   0.01083   0.83839  -0.00356  -0.13959
  57 8   H  1S          0.08632   0.00306   0.13619   0.04327   0.29063
  58        2S         -0.48006  -0.06482  -0.83734  -0.03572  -0.04452
  59 9   H  1S          0.08351  -0.06182  -0.15030   0.03802   0.30838
  60        2S          0.21053  -0.01548   0.93344   0.05281  -0.08991
  61 10  H  1S         -0.08243   0.05631  -0.15059  -0.03310   0.30725
  62        2S         -0.26229   0.02165   0.93443  -0.06145  -0.08946
  63 11  H  1S         -0.09255  -0.00341   0.13668  -0.04156   0.29168
  64        2S          0.47058   0.05029  -0.83928   0.04117  -0.04546
  65 12  C  1S          0.00064  -0.00012  -0.00603  -0.00003  -0.00518
  66        2S          0.00123   0.00036   0.08317  -0.00024   0.03719
  67        2PX        -0.00874  -0.00367  -0.23277  -0.00308  -0.41434
  68        2PY        -0.09683   0.28089  -0.00115  -0.27373  -0.00051
  69        2PZ         0.00621   0.00078  -0.04723   0.00150   0.18311
  70        3S         -0.01752  -0.00630  -0.83363   0.00104  -0.05835
  71        3PX        -0.01998   0.00479   0.87656   0.00077   0.54823
  72        3PY        -0.78753  -0.98482   0.01087   0.07283   0.00011
  73        3PZ         0.01486   0.00049   0.01086  -0.00189  -0.31080
  74 13  H  1S          0.00336  -0.00628  -0.06377   0.00780   0.07434
  75        2S         -0.02041  -0.00718  -0.01833  -0.00609  -0.00178
  76 14  H  1S          0.05081  -0.17864  -0.05420   0.26363  -0.15136
  77        2S         -0.48406  -0.27520  -0.07712  -0.24137   0.01933
  78 15  H  1S         -0.05142   0.18079  -0.06009  -0.27335  -0.14397
  79        2S          0.55748   0.28832  -0.08541   0.25153   0.02180
                          46        47        48        49        50
                           V         V         V         V         V
     Eigenvalues --     0.94140   0.97622   0.98226   0.98264   1.04100
   1 1   C  1S          0.00398   0.04701  -0.01258   0.03453  -0.05516
   2        2S         -0.01285  -0.01174   0.00321  -0.00989  -0.03327
   3        2PX        -0.06028  -0.05307   0.01841  -0.05158   0.16047
   4        2PY         0.00127   0.00604  -0.46992  -0.18033  -0.00176
   5        2PZ        -0.20474  -0.27581  -0.15027   0.38331   0.02083
   6        3S         -0.13813  -0.12055   0.05464  -0.15720  -0.26967
   7        3PX        -0.00619  -0.27438   0.07777  -0.21568  -0.27957
   8        3PY        -0.00520  -0.00748   0.86242   0.33007   0.00384
   9        3PZ         0.14366   0.16808   0.09109  -0.23177  -0.01424
  10 2   C  1S          0.00317  -0.04494   0.05962  -0.00797  -0.00926
  11        2S         -0.02373   0.04352  -0.03267   0.00508   0.02399
  12        2PX        -0.04737  -0.10989  -0.35516  -0.26763   0.51002
  13        2PY        -0.06743   0.22813   0.05778   0.17489  -0.25377
  14        2PZ        -0.20718  -0.26835  -0.14460   0.36704   0.01251
  15        3S          0.08131   0.19178  -0.01799   0.22615   0.19973
  16        3PX         0.07657   0.27624  -0.15431   0.22239  -0.35806
  17        3PY         0.15120  -0.01228  -0.07792   0.04293   0.32578
  18        3PZ         0.07935   0.20069   0.10447  -0.29325  -0.01430
  19 3   C  1S          0.00718  -0.00834  -0.04976  -0.02212   0.04022
  20        2S         -0.02907   0.05651  -0.02632   0.01158   0.11503
  21        2PX        -0.02135   0.32345  -0.27873   0.09014   0.03994
  22        2PY        -0.12449   0.27792  -0.03131   0.11188   0.00263
  23        2PZ        -0.37808  -0.14376  -0.10554   0.11173  -0.01860
  24        3S         -0.13832  -0.20892   0.39725  -0.11495  -0.08109
  25        3PX         0.04823  -0.22128  -0.11599  -0.13052   0.06161
  26        3PY        -0.03315  -0.24224   0.02261  -0.22976  -0.00691
  27        3PZ         0.32231   0.05363   0.05607   0.00808   0.02397
  28 4   C  1S         -0.01394   0.05101  -0.00847   0.02220  -0.00918
  29        2S         -0.01096  -0.00428  -0.00072   0.00295   0.14045
  30        2PX         0.05423  -0.13362   0.02704  -0.07288  -0.42118
  31        2PY         0.00043  -0.00171   0.19054   0.07437  -0.00221
  32        2PZ        -0.48463  -0.00928   0.02151  -0.06034   0.00201
  33        3S          0.19447   0.48870  -0.15769   0.44292   0.24468
  34        3PX        -0.22237   0.38674  -0.03658   0.08551   0.44593
  35        3PY         0.00242  -0.00502  -0.07400  -0.03146  -0.00049
  36        3PZ         0.06910   0.10100   0.05124  -0.12874  -0.01395
  37 5   C  1S          0.00696  -0.00942   0.05185   0.01697   0.03999
  38        2S         -0.02927   0.05668   0.01143   0.02605   0.11375
  39        2PX        -0.02180   0.32075   0.15006   0.25710   0.04320
  40        2PY         0.12417  -0.27933   0.05262  -0.10438  -0.00462
  41        2PZ        -0.38617  -0.14010   0.00294   0.14286  -0.01942
  42        3S         -0.13670  -0.19916  -0.23055  -0.35261  -0.07940
  43        3PX         0.04132  -0.22068   0.17380  -0.02195   0.05983
  44        3PY         0.03752   0.23928  -0.12690   0.18986   0.00681
  45        3PZ         0.32999   0.04999  -0.04835  -0.02188   0.02478
  46 6   C  1S          0.00338  -0.04386  -0.03965  -0.04621  -0.00950
  47        2S         -0.02398   0.04324   0.02010   0.02561   0.02288
  48        2PX        -0.05055  -0.11791   0.43820   0.03674   0.50860
  49        2PY         0.06602  -0.23011   0.15760  -0.09290   0.25310
  50        2PZ        -0.20651  -0.26800  -0.14378   0.36733   0.01280
  51        3S          0.08108   0.19246  -0.12847   0.18319   0.19677
  52        3PX         0.07246   0.27937  -0.02506   0.27118  -0.35450
  53        3PY        -0.15289   0.01655  -0.03643  -0.08621  -0.32278
  54        3PZ         0.07733   0.20084   0.12291  -0.28825  -0.01483
  55 7   H  1S          0.07859   0.10912  -0.03800   0.10495  -0.40314
  56        2S         -0.04217  -0.17538   0.05096  -0.14057   0.08945
  57 8   H  1S          0.08568  -0.20553   0.20813  -0.04093  -0.06586
  58        2S          0.01150   0.17363  -0.17265   0.08595   0.07939
  59 9   H  1S          0.08069  -0.08222  -0.24366  -0.13817   0.25096
  60        2S         -0.09762   0.03858   0.09250  -0.00816  -0.12415
  61 10  H  1S          0.07913  -0.08601   0.27294   0.06099   0.24935
  62        2S         -0.09768   0.04001  -0.06795  -0.07033  -0.12325
  63 11  H  1S          0.08609  -0.20123  -0.12942  -0.17109  -0.06842
  64        2S          0.01116   0.17049   0.07643   0.18146   0.08029
  65 12  C  1S         -0.00052  -0.02095   0.00504  -0.01428  -0.02543
  66        2S         -0.00983   0.09179  -0.01806   0.05068   0.05927
  67        2PX        -0.10534  -0.47004   0.13271  -0.36749  -0.44994
  68        2PY        -0.00245  -0.00155   0.27825   0.10554   0.00058
  69        2PZ        -0.39726   0.20007   0.13570  -0.34761  -0.01635
  70        3S          0.08339  -0.19457   0.01934  -0.04554  -0.09000
  71        3PX         0.09100   0.61455  -0.16193   0.44627   0.62833
  72        3PY         0.00164   0.00592  -0.55184  -0.21038   0.00137
  73        3PZ         0.84229  -0.42237  -0.28108   0.72466   0.01872
  74 13  H  1S         -0.42475   0.13391   0.12360  -0.34301  -0.06486
  75        2S         -0.09300  -0.01407   0.04115  -0.11291  -0.08427
  76 14  H  1S          0.18480  -0.14885  -0.26794   0.01991  -0.07804
  77        2S          0.06178  -0.04447  -0.04165   0.00544  -0.05971
  78 15  H  1S          0.16721  -0.14663   0.19355   0.18281  -0.08062
  79        2S          0.05993  -0.04384   0.02834   0.02987  -0.05971
                          51        52        53        54        55
                           V         V         V         V         V
     Eigenvalues --     1.05505   1.07710   1.08857   1.10513   1.11598
   1 1   C  1S          0.00000  -0.00011   0.00156  -0.00020   0.01625
[...]
 Beta(0;0,0):
               (au)            (10**-30 esu)      (10**-50 SI)
   || (z)    -0.595147D+01     -0.514160D-01     -0.190826D-01
   _|_(z)    -0.198382D+01     -0.171387D-01     -0.636085D-02
   x         -0.630937D+01     -0.545080D-01     -0.202301D-01
   y         -0.141168D+02     -0.121958D+00     -0.452635D-01
   z         -0.297573D+02     -0.257080D+00     -0.954128D-01
   ||         0.670698D+01      0.579431D-01      0.215050D-01
   xxx        0.167388D+02      0.144611D+00      0.536708D-01
   xxy        0.170311D+01      0.147135D-01      0.546077D-02
   yxy       -0.144733D+02     -0.125038D+00     -0.464065D-01
   yyy        0.235589D+01      0.203530D-01      0.755382D-02
   xxz        0.146660D+02      0.126703D+00      0.470245D-01
   yxz        0.663932D+01      0.573586D-01      0.212881D-01
   yyz        0.217700D+02      0.188076D+00      0.698025D-01
   zxz       -0.436870D+01     -0.377421D-01     -0.140076D-01
   zyz       -0.876458D+01     -0.757192D-01     -0.281024D-01
   zzz       -0.463551D+02     -0.400472D+00     -0.148631D+00

 ----------------------------------------------------------------------
 1\1\GINC-IISERK51\Freq\RHF\3-21G\C7H8\GAUSSIAN\12-Jun-2025\0\\#N Geom=
 AllCheck Guess=TCheck SCRF=Check GenChk RHF/3-21G Freq\\Optimisation\\
 0,1\C,-2.0483637,-1.6677541443,0.0095187582\C,-0.6645092742,-1.6612360
 224,0.0039145625\C,0.025689925,-0.4619406618,-0.0084174012\C,-0.653754
 9304,0.7483150703,-0.0136017919\C,-2.0412665722,0.7313578808,-0.010298
 3255\C,-2.7347067872,-0.4664309374,0.0020299821\H,-2.584224155,-2.5961
 865208,0.0171058522\H,-0.1236148179,-2.587217914,0.0067313475\H,1.0988
 570048,-0.465731718,-0.0158015032\H,-2.5814206795,1.6586139549,-0.0191
 735032\H,-3.807080695,-0.461073933,0.0033498874\C,0.1057661707,2.06192
 07873,0.0020578025\H,0.311684659,2.367128223,1.0235957829\H,1.05188710
 81,1.9703670499,-0.5179560577\H,-0.4673010761,2.8484540053,-0.47402231
 23\\Version=EM64L-G16RevB.01\State=1-A\HF=-268.2402101\RMSD=2.767e-09\
 RMSF=5.125e-05\ZeroPoint=0.1379563\Thermal=0.1428422\Dipole=0.0654506,
 0.110882,0.0144988\DipoleDeriv=-0.1016012,0.1130668,-0.0029418,0.11159
 36,0.026442,-0.0050898,-0.0018625,-0.0032165,-0.1749176,0.0141214,-0.1
 070908,-0.0039589,-0.075967,0.0919232,0.0022244,-0.0025317,-0.0036257,
 -0.1383997,0.1010066,-0.0308098,0.0006998,-0.0688891,-0.2009905,-0.001
 3113,-0.0030842,-0.0031954,-0.16618,-0.0028977,0.1777699,0.0068674,0.1
 766213,0.1979189,0.0119293,0.0277135,0.0479371,-0.0638494,-0.0833569,-
 0.1753199,-0.0012123,-0.1368227,-0.0185943,-0.0004161,-0.0008946,-0.00
 46211,-0.1663529,0.1521913,0.0037748,0.0043009,-0.0260709,-0.0435458,-
 0.0024492,-0.0014654,-0.0040589,-0.138009,0.0299271,-0.0829132,0.00093
 07,-0.0829907,-0.0659036,0.0017345,0.0013229,0.0024078,0.1573149,0.029
 4228,0.081745,0.0004693,0.075611,-0.0719758,0.0012377,0.0021426,0.0015
 901,0.1512962,-0.1096209,-0.0044807,0.0025628,-0.0149945,0.0784831,0.0
 031653,0.0059163,0.0029144,0.1465662,0.0399186,0.0709272,0.0012579,0.0
 818562,-0.0713122,0.004119,-0.0006357,0.006823,0.1468438,-0.1147346,-0
 .0076908,0.0004768,-0.0014383,0.0721848,0.0010826,-0.0000697,0.0027013
 ,0.1512705,0.0839979,-0.0453278,0.0014764,-0.0413904,0.0393365,0.00257
 56,-0.040258,-0.0693517,0.1187912,0.0511945,-0.0554441,-0.0352028,-0.0
 544828,-0.0086589,-0.0503612,-0.0433669,-0.0662981,-0.1042839,-0.09055
 14,-0.0347918,0.0875545,0.0340596,0.0361363,-0.0264305,0.0912746,0.010
 9121,0.0360692,0.0009827,0.0965851,-0.0632805,0.0233046,-0.0614437,0.0
 579897,-0.0342013,0.0790815,0.0438404\Polar=74.2262553,4.1298065,78.89
 73156,0.0306559,-0.0249942,23.974552\PolarDeriv=-0.5896262,-0.1529374,
 -1.7735035,-0.1574942,0.0438104,0.1728364,-1.8980815,-0.7413536,-2.174
 224,0.038979,-0.11197,0.3120614,0.0404047,0.0160876,0.0503059,-2.07505
 42,-3.6089918,-0.0422107,0.6941166,2.1469475,2.461458,0.1904529,-0.002
 1628,-0.2056727,-1.1634464,1.2547901,0.0321028,0.1180304,0.0438765,0.2
 828806,0.0933757,0.0085172,0.0854884,1.8028359,-2.7544324,0.091299,1.3
 70727,0.1335287,2.0985584,0.0131429,-0.0116995,-0.1194629,-1.2389112,-
 3.5895702,-2.0823158,-0.0662403,-0.1210517,0.0027884,0.3224995,0.11825
 18,-0.1504574,2.8298003,-0.3235276,-0.1171535,-0.1045955,0.429301,4.41
 99838,-0.3241338,0.4734414,-0.3171994,3.3987748,2.7626992,4.118326,0.4
 802911,0.2264642,-0.6345562,-0.7108928,-0.1844931,-0.918046,1.6831926,
 2.8184267,0.2748411,0.1411314,-2.0720736,-4.7926747,-0.0498823,-0.1072
 476,0.0703336,2.1871642,-0.7553119,-0.8399848,-0.0479039,-0.0520377,-0
 .0887989,-0.1326751,-0.1507405,0.305973,-1.7171828,2.3040147,-0.122674
 7,-1.2545792,0.0861892,-1.3054895,0.0326834,0.0267799,0.3471993,-0.547
 6206,2.1581386,2.7071412,-0.0998257,0.2044451,-0.0476895,0.0880562,-0.
 0040456,0.095074,-3.2885087,0.2093903,0.0821457,-2.7049806,-3.0856175,
 -3.020364,0.0217656,0.0200068,-0.2085415,-1.8741766,-3.7194397,-8.0459
 08,0.0201572,0.0447849,-0.3601545,-0.0062551,0.0021665,-0.0035991,-0.8
 03018,-1.389775,0.0395795,2.4118919,-2.9251898,3.0847436,0.0105256,-0.
 0140296,0.2216542,-1.6182516,3.4430191,-8.0601883,-0.0049883,0.020256,
 -0.3456081,-0.0359622,-0.0088317,-0.019343,0.8012847,-1.5134131,-0.005
 2958,9.3666671,-0.3563311,0.4193924,-0.0082203,-0.016921,0.3795073,-0.
 250807,1.4348817,-0.1372381,-0.0037689,-0.0129614,0.0066032,-0.0381092
 ,-0.0178004,-0.0707108,1.554064,-0.0772472,0.0141254,-2.7001356,2.6910
 268,-2.5216501,-0.0076936,0.0025685,-0.1882193,1.8609989,-3.1183382,6.
 4078076,-0.0105601,-0.0270318,0.3340792,-0.0493472,-0.0193289,-0.06823
 27,-0.8408573,1.3055839,0.0102667,-10.8949989,-0.3374644,-0.2370055,0.
 0141899,0.0034536,-0.4104993,0.0019008,-1.5488191,-0.0808545,-0.005145
 9,0.0024674,0.018803,-0.0261845,0.0022581,-0.0400828,-1.7100771,-0.068
 0319,-0.0106723,-3.4279656,-1.8426893,2.0740547,2.0110155,-1.6514706,-
 1.1524828,0.3705008,0.8346829,-2.8620234,-1.6507446,0.1040077,-1.47397
 56,1.7790621,-1.5689331,-0.0267677,-2.9221066,-4.5976056,-3.3666334,2.
 4111049,1.9634783,0.3528167,2.0513424,0.9839709,0.6601417,0.3617703,1.
 2416728,4.062476,0.9641562,3.1144946,0.9484372,0.8670289,1.7102235,2.7
 476895,2.1589582,3.475897,7.2803124,6.9658894,1.7655711,0.7249075,-2.4
 131276,-0.2694467,0.9643403,0.4017892,1.7074876,0.0281723,-0.0166352,-
 1.3360095,0.2031407,-1.716083,-0.3120021,-0.456938,2.9857862,1.1680745
 ,-2.1925846,-1.6846466,1.5562603,-1.9852279,-1.3845664,0.5189466,-0.21
 39349,0.0083959,-1.3645395,6.926711,0.2841989,-2.0997343,0.8419892,-0.
 474918,0.4086707,-1.5303533,-0.4591172,3.0516375,-1.9353447\HyperPolar
 =7.4933521,-7.3218471,-25.8813394,-22.8717055,-11.4898113,5.88002,-4.6
 778,13.58642,20.916438,20.1468875\Quadrupole=2.2454591,2.399009,-4.644
 468,0.1402718,0.0065314,0.000441\PG=C01 [X(C7H8)]\NImag=1\\0.75466120,
 0.05559398,0.81966430,-0.00218420,-0.00463630,0.18693511,-0.34907660,-
 0.04583644,0.00112173,0.75860934,0.04331781,-0.16495626,0.00017760,-0.
 05341570,0.81547094,0.00077836,0.00052512,-0.09251800,-0.00237767,-0.0
 0388953,0.19026345,-0.03267746,-0.04045015,0.00053639,-0.21224018,-0.1
 2505106,0.00124745,0.84286857,-0.11027332,0.05301831,0.00031306,-0.035
 46792,-0.30376024,0.00160210,0.01213010,0.72519584,0.00170614,-0.00049
 956,0.01484446,0.00015578,0.00167158,-0.09140396,-0.00436311,-0.002791
 90,0.18720152,-0.08523476,0.04937830,-0.00025543,0.10080891,0.03547564
 ,-0.00080479,-0.20554138,0.02483749,0.00163538,0.72758642,0.04946204,-
 0.02831640,-0.00027814,-0.03572944,-0.07697274,0.00053444,0.12036298,-
 0.28769086,-0.00019157,-0.00567851,0.71944813,0.00017633,0.00046275,-0
 .01139469,0.00065894,0.00012663,0.01317429,-0.00026978,0.00077156,-0.0
 9415274,0.00094283,0.00081499,0.22496616,0.09686377,-0.03542295,0.0001
 4234,-0.08263724,-0.04517631,0.00068745,-0.03378477,0.10824798,-0.0013
 5352,-0.33098103,-0.04738210,0.00051846,0.74483418,0.03446182,-0.07654
 257,0.00074046,-0.04659619,-0.02966351,0.00029684,0.04010253,0.0520253
 6,-0.00101562,0.04843442,-0.16336180,0.00027523,-0.04548240,0.82329158
 ,-0.00119679,0.00124935,0.01483909,0.00131264,0.00072061,-0.01106091,-
 0.00030328,-0.00155449,0.01486312,-0.00134262,0.00130868,-0.09399876,0
 .00056737,-0.00573893,0.18716217,-0.21015143,0.12402036,-0.00066694,-0
 .03448334,0.04122995,-0.00004329,-0.00315985,0.00071509,-0.00002082,-0
 .03249515,-0.04138516,-0.00024951,-0.21110072,-0.12415682,0.00130026,0
 .84750411,0.03485267,-0.30473356,0.00127755,0.11105415,0.05346849,-0.0
 0067416,-0.00059779,-0.10909667,0.00157850,-0.11251027,0.05640903,0.00
 044923,-0.03459855,-0.30393160,0.00109435,-0.00275591,0.72658641,-0.00
 012627,0.00127770,-0.09251872,-0.00071601,-0.00034703,0.01484645,-0.00
 007571,0.00082010,-0.01103742,0.00088888,-0.00052034,0.01314937,0.0006
 2379,0.00187277,-0.09147957,-0.00126504,-0.00443179,0.19027905,-0.1495
 7217,-0.13025388,0.00114941,-0.01220455,-0.03609928,0.00026480,-0.0064
 1666,0.00168007,0.00005265,-0.00069439,0.00099852,-0.00000729,-0.00167
 188,0.00363283,-0.00001052,0.01458444,0.01945239,-0.00014403,0.1540472
 6,-0.13024756,-0.30006375,0.00202847,0.00397751,0.00496434,-0.00000875
 ,0.00089332,0.00139887,0.00003768,0.00099594,0.00045336,-0.00001177,0.
 00442197,-0.00334338,0.00008021,-0.02062910,-0.02183089,0.00021902,0.1
 4144463,0.31748051,0.00111749,0.00197409,-0.05068496,0.00016776,0.0001
 2604,0.00631209,0.00006484,-0.00001256,0.00854764,0.00005970,0.0001036
 5,-0.00080071,-0.00006093,0.00006459,0.00858154,0.00005325,0.00025697,
 0.00632496,-0.00127565,-0.00227147,0.03347268,-0.01216817,0.03596081,-
 0.00010695,-0.15083946,0.13054991,-0.00024607,0.01446031,-0.01933015,0
 .00007865,-0.00157705,-0.00382842,-0.00001705,-0.00057042,-0.00101573,
 0.00002572,-0.00668854,-0.00146473,0.00007450,0.00104587,-0.00058554,-
 0.00002944,0.15554579,-0.00386696,0.00508892,0.00003074,0.13047689,-0.
 29792747,0.00085691,0.02069643,-0.02199716,0.00006334,-0.00431879,-0.0
 0324190,0.00003020,-0.00104985,0.00051325,-0.00000480,-0.00092437,0.00
 147123,0.00004664,0.00057960,0.00098558,-0.00003850,-0.14175860,0.3152
 5005,0.00002886,-0.00013034,0.00692660,-0.00014945,0.00084503,-0.05209
 406,-0.00010107,0.00020212,0.00686522,0.00002637,0.00029789,0.00888636
 ,0.00005489,0.00003752,-0.00077530,0.00005902,0.00000737,0.00859981,-0
 .00002944,-0.00003535,-0.00529523,0.00021546,-0.00100148,0.03388119,0.
 00067544,-0.00322630,0.00010411,-0.01360819,0.00446960,0.00000630,-0.3
 7054271,0.00183197,0.00233284,-0.01560292,-0.00444449,0.00025471,0.000
 52107,0.00302525,0.00007774,0.00108378,0.00012936,-0.00000499,-0.00076
 980,0.00010736,0.00002161,0.00105142,-0.00055883,-0.00005779,0.3957858
 0,-0.00243897,-0.00554854,0.00009721,-0.03560486,0.00547771,0.00015344
 ,0.00080294,-0.07370061,0.00021082,0.03477189,0.00420594,-0.00009040,0
 .00278881,-0.00567408,0.00007670,-0.00007328,-0.00117365,0.00000712,-0
 .00153027,0.00006149,0.00002619,0.00052261,0.00102988,-0.00004521,-0.0
 0123537,0.07385192,0.00012870,0.00010233,0.00875460,0.00029856,-0.0000
 8838,0.00649290,0.00267499,0.00012613,-0.05116731,0.00017114,0.0005514
 9,0.00678924,-0.00022023,0.00007731,0.00809128,-0.00000363,0.00009762,
 -0.00075055,0.00002590,-0.00000137,-0.00000102,-0.00003735,-0.00002767
 ,-0.00540336,-0.00267746,-0.00031302,0.03325896,-0.00153401,-0.0037211
 4,0.00002097,-0.00063956,-0.00106877,0.00001003,-0.00664599,-0.0013379
 4,0.00000716,-0.01391078,0.03570021,-0.00026189,-0.14911481,0.12874702
 ,-0.00122529,0.01418497,-0.01953860,0.00015608,0.00046967,-0.00081452,
 0.00001304,0.00004313,0.00007412,0.00000317,-0.00077318,0.00161457,-0.
 00001143,0.15550477,-0.00450578,-0.00333255,0.00014180,-0.00085908,0.0
 0054547,-0.00000300,-0.00110713,0.00149580,0.00010856,-0.00346653,0.00
 239952,0.00017402,0.12988896,-0.29519187,0.00250198,0.02050729,-0.0223
 1114,0.00013328,0.00082271,-0.00117751,0.00003381,0.00007068,-0.000075
 65,-0.00001619,0.00000268,0.00015706,-0.00004209,-0.14007595,0.3142874
 9,0.00001544,0.00016621,0.00872871,0.00008595,0.00004206,-0.00075044,0
 .00015810,-0.00014645,0.00809038,0.00036858,0.00047443,0.00680550,-0.0
 0147040,0.00275101,-0.05112640,-0.00023239,0.00021178,0.00646439,-0.00
 001414,0.00002155,0.00000243,-0.00000840,-0.00000245,-0.00126840,-0.00
 003168,-0.00002935,-0.00008405,0.00135075,-0.00289297,0.03327202,-0.01
 313137,-0.00441902,0.00005594,0.00046489,0.00320594,-0.00001074,0.0011
 3656,-0.00006206,-0.00001441,0.00070260,-0.00300438,0.00002553,-0.0134
 6514,0.00456959,-0.00001614,-0.37418870,0.00150889,0.00041629,0.001004
 28,0.00055433,-0.00001032,-0.00075076,-0.00011822,0.00000644,-0.000108
 56,-0.00001291,0.00000374,0.00104905,-0.00056011,0.00000407,0.39809440
 ,0.03541477,0.00604677,-0.00002759,0.00266641,-0.00567922,0.00010315,-
 0.00002672,-0.00119309,0.00001985,-0.00251933,-0.00551971,0.00000838,-
 0.03545271,0.00593967,0.00005119,0.00156395,-0.07458197,0.00023542,-0.
 00060886,0.00102900,-0.00005078,0.00153615,0.00006837,-0.00001581,-0.0
 0001653,0.00007667,-0.00000953,0.00052264,0.00102659,-0.00005021,-0.00
 170379,0.07270354,-0.00018191,-0.00004643,0.00694063,-0.00003698,0.000
 07036,0.00862618,0.00000802,0.00006688,-0.00078280,0.00023616,0.000178
 58,0.00884915,0.00022543,0.00001945,0.00685674,0.00035696,0.00031437,-
 0.05208399,-0.00000687,-0.00004753,-0.00531497,-0.00001901,-0.00000259
 ,-0.00008054,-0.00001407,-0.00000647,-0.00127165,-0.00000171,-0.000078
 15,-0.00538355,-0.00046771,-0.00034714,0.03387550,-0.00016782,-0.00041
 514,0.00003869,-0.00296630,0.00445835,0.00126020,0.01418992,0.01466125
 ,0.00065978,-0.13160115,-0.04152930,-0.00060705,-0.01809850,-0.0388629
 2,-0.00072086,-0.00514473,0.00247486,-0.00077232,0.00011452,-0.0000553
 9,-0.00009388,0.00054517,0.00108053,-0.00009715,0.00087753,0.00107379,
 -0.00114270,0.00139502,-0.00077693,0.00056181,-0.00060025,-0.00116321,
 0.00000832,0.62003267,-0.00045458,-0.00038090,0.00006209,0.00394680,-0
 .00124582,-0.00014251,-0.02045268,-0.03226815,-0.00043225,-0.04200311,
 -0.17982204,-0.00107450,-0.00368996,0.00018638,0.00036106,0.00299585,0
 .00080913,0.00103040,-0.00005879,0.00004509,-0.00016407,-0.00051150,-0
 .00066335,-0.00004609,-0.00108599,0.00163677,-0.00001984,0.00149950,0.
 00107510,-0.00099853,0.00041210,0.00047916,-0.00010704,-0.06182634,0.5
 5028656,-0.00058891,-0.00099912,-0.00082630,-0.00007773,0.00137840,0.0
 0801149,0.00062745,0.00032651,0.00670027,0.00117655,0.00205870,-0.0879
 7017,-0.00004012,0.00068220,0.00691815,0.00121252,0.00060942,0.0082282
 9,0.00002030,0.00003280,-0.00111147,0.00009549,0.00010982,-0.00016066,
 0.00047522,-0.00049965,-0.00449249,-0.00066001,0.00015218,-0.00467605,
 0.00004637,0.00013541,-0.00016273,-0.00547008,-0.00933689,0.60998372,0
 .00091748,-0.00083772,-0.00010380,-0.00129184,-0.00069927,0.00061542,-
 0.00014479,0.00193215,0.00012455,-0.00464302,-0.00828191,-0.01955402,-
 0.00084628,-0.00187377,0.00083326,0.00014476,0.00110163,0.00123028,-0.
 00000217,-0.00001846,-0.00010813,-0.00000676,-0.00007179,0.00001268,0.
 00011882,0.00001683,-0.00017549,-0.00023936,0.00015409,-0.00083725,-0.
 00008464,-0.00004831,-0.00008038,-0.06614684,-0.01287394,-0.04840437,0
 .06836862,-0.00087219,-0.00008157,-0.00018275,0.00028418,0.00046274,0.
 00170782,-0.00140842,-0.00073430,0.00102601,-0.00930683,-0.01347466,-0
 .03399620,0.00146222,-0.00029943,0.00058001,0.00013643,-0.00102727,0.0
 0138590,-0.00001303,-0.00002049,-0.00016805,0.00000454,-0.00014055,-0.
 00008496,0.00041698,-0.00016425,-0.00100967,-0.00020173,0.00021931,-0.
 00062891,-0.00011656,-0.00008010,-0.00002296,-0.01284150,-0.07632434,-
 0.07135779,0.01840339,0.08418303,0.00016178,0.00024206,-0.00005389,-0.
 00010419,-0.00040592,0.00010411,-0.00016427,0.00034950,0.00028554,-0.0
 0003672,-0.00019248,0.00468341,0.00037713,0.00002522,0.00018671,-0.000
 27610,-0.00025430,0.00006290,-0.00001205,-0.00002475,-0.00006040,-0.00
 002746,-0.00005316,0.00001498,-0.00005490,-0.00009116,-0.00030927,-0.0
 0001600,-0.00009641,-0.00026693,-0.00003097,-0.00004867,0.00001754,-0.
 04748020,-0.06977342,-0.30404667,0.05341309,0.07848437,0.33396018,0.00
 050898,-0.00017828,0.00005306,-0.00035103,-0.00057682,-0.00083861,0.00
 092385,0.00263537,-0.00069873,-0.01796918,0.00243605,0.00741572,-0.000
 83720,-0.00375381,0.00062303,-0.00058768,0.00062902,-0.00051729,0.0000
 5539,-0.00007416,0.00014989,0.00000639,-0.00006442,0.00005173,0.001011
 76,-0.00044419,0.00077519,0.00045348,-0.00007380,0.00027898,-0.0001507
 6,-0.00024664,-0.00001509,-0.27045076,0.02304247,0.11884600,0.00794317
 ,-0.00031258,-0.00328759,0.29734386,-0.00001585,-0.00014545,0.00014705
 ,-0.00017833,0.00036939,-0.00022949,-0.00115991,0.00161548,-0.00033101
 ,-0.03385207,0.00215215,0.01800170,-0.00116310,-0.00569341,0.00001115,
 -0.00115256,0.00041874,-0.00095997,0.00005588,-0.00001498,0.00000147,0
 .00006960,0.00003557,0.00001934,0.00074872,-0.00050840,0.00018252,-0.0
 0016161,0.00010622,0.00037149,-0.00020242,-0.00033266,-0.00004136,0.02
 751644,-0.06213674,-0.01310257,0.00945172,-0.00148405,-0.00417050,-0.0
 2459563,0.06797301,-0.00044139,0.00045752,0.00001153,0.00026192,0.0003
 0004,-0.00004572,0.00006913,-0.00016858,0.00059774,-0.00418900,-0.0010
 8960,0.00069510,0.00012360,-0.00005399,0.00042020,-0.00033667,-0.00089
 733,-0.00001438,-0.00002793,0.00000303,0.00001409,0.00001379,0.0000239
 7,-0.00002029,-0.00026230,0.00045970,0.00011505,0.00011600,-0.00012272
 ,0.00002130,-0.00002068,-0.00002486,-0.00006466,0.12027582,-0.01130816
 ,-0.12344314,0.03439331,-0.00402924,-0.01811941,-0.13309731,0.01574883
 ,0.12997753,0.00008693,-0.00019244,0.00009469,0.00045516,-0.00061999,-
 0.00054884,-0.00242544,-0.00220007,-0.00030234,0.01115289,-0.01769610,
 0.01097407,0.00088897,-0.00123182,0.00007549,0.00049809,0.00026288,0.0
 0023186,0.00001019,0.00002967,-0.00006923,-0.00009692,-0.00017573,-0.0
 0002372,0.00027971,-0.00025159,0.00019009,-0.00024240,-0.00002108,-0.0
 0022942,0.00002838,0.00008219,-0.00001118,-0.14197849,0.11106016,-0.06
 725868,-0.00408715,0.00436513,-0.00246156,-0.01790029,0.02463911,-0.01
 687830,0.15333036,-0.00042787,0.00028324,0.00010876,0.00128203,-0.0005
 5383,-0.00083239,-0.00473442,-0.00430856,0.00054557,0.01976175,-0.0266
 6800,0.01405820,0.00260799,0.00174541,-0.00073706,-0.00009173,-0.00047
 629,-0.00076924,-0.00010252,0.00003275,0.00011860,-0.00021962,-0.00039
 677,-0.00003385,-0.00016440,0.00027211,0.00037417,-0.00123782,0.000776
 17,0.00071034,-0.00005138,0.00001698,0.00005003,0.10620551,-0.20167684
 ,0.08981057,-0.00635463,0.00896593,-0.00399039,0.00157744,-0.00235487,
 0.00070138,-0.11805032,0.22434257,0.00060637,-0.00014539,0.00001584,-0
 .00060126,-0.00072750,0.00004213,-0.00010916,0.00009601,0.00054834,0.0
 0112297,-0.00405072,0.00031849,-0.00017526,-0.00003406,0.00052194,0.00
 011239,0.00036042,-0.00007060,0.00001486,-0.00002178,0.00001332,-0.000
 01188,-0.00003097,-0.00007631,-0.00016934,0.00004409,-0.00002234,0.000
 49913,0.00000588,0.00017105,0.00001260,0.00002121,-0.00002085,-0.06642
 038,0.09194974,-0.11295224,-0.02135915,0.02829643,-0.01645882,0.010261
 03,-0.01564865,0.00985506,0.07621708,-0.10011470,0.11811498\\-0.000016
 93,-0.00001952,-0.00004043,-0.00010299,0.00000670,0.00000702,-0.000005
 24,0.00011649,-0.00003892,-0.00001139,-0.00001787,0.00017853,0.0001069
 3,0.00005504,-0.00003294,0.00005817,-0.00009264,0.00000946,-0.00004462
 ,-0.00007742,0.00001410,0.00000511,-0.00006341,0.00000748,0.00004254,0
 .00002544,-0.00001781,0.00000002,0.00004874,-0.00001932,-0.00005827,-0
 .00002698,0.00000588,0.00001557,0.00002368,-0.00005297,-0.00001946,-0.
 00002984,-0.00003137,0.00000265,0.00003405,0.00000715,0.00002792,0.000
 01753,0.00000412\\\@


 YOU CANNOT THROW TO THE GROUND THE LETTERS OF
 THE GREEK ALPHABET AND PICK UP THE ILIAD.
        - RUFUS CHOATE, 1799-1859
 Job cpu time:       0 days  0 hours  0 minutes  3.1 seconds.
 Elapsed time:       0 days  0 hours  0 minutes  3.1 seconds.
 File lengths (MBytes):  RWF=     18 Int=      0 D2E=      0 Chk=      2 Scr=      1
 Normal termination of Gaussian 16 at Thu Jun 12 20:22:58 2025.
