 Entering Gaussian System, Link 0=g16
 Input=/home/gaussian/Documents/jeeva/Aromaticity/Toluene/toluene_isomer.com
 Output=/home/gaussian/Documents/jeeva/Aromaticity/Toluene/toluene_isomer.log
 Initial command:
 /usr/local/g16/l1.exe "/home/gaussian/tmp/Gau-97798.inp" -scrdir="/home/gaussian/tmp/"
 Entering Link 1 = /usr/local/g16/l1.exe PID=     97801.
  
 Copyright (c) 1988-2017, Gaussian, Inc.  All Rights Reserved.
  
 This is part of the Gaussian(R) 16 program.  It is based on
 the Gaussian(R) 09 system (copyright 2009, Gaussian, Inc.),
 the Gaussian(R) 03 system (copyright 2003, Gaussian, Inc.),
 the Gaussian(R) 98 system (copyright 1998, Gaussian, Inc.),
 the Gaussian(R) 94 system (copyright 1995, Gaussian, Inc.),
 the Gaussian 92(TM) system (copyright 1992, Gaussian, Inc.),
 the Gaussian 90(TM) system (copyright 1990, Gaussian, Inc.),
 the Gaussian 88(TM) system (copyright 1988, Gaussian, Inc.),
 the Gaussian 86(TM) system (copyright 1986, Carnegie Mellon
 University), and the Gaussian 82(TM) system (copyright 1983,
 Carnegie Mellon University). Gaussian is a federally registered
 trademark of Gaussian, Inc.
  
 This software contains proprietary and confidential information,
 including trade secrets, belonging to Gaussian, Inc.
  
 This software is provided under written license and may be
 used, copied, transmitted, or stored only in accord with that
 written license.
  
 The following legend is applicable only to US Government
 contracts under FAR:
  
                    RESTRICTED RIGHTS LEGEND
  
 Use, reproduction and disclosure by the US Government is
 subject to restrictions as set forth in subparagraphs (a)
 and (c) of the Commercial Computer Software - Restricted
 Rights clause in FAR 52.227-19.
  
 Gaussian, Inc.
 340 Quinnipiac St., Bldg. 40, Wallingford CT 06492
  
  
 ---------------------------------------------------------------
 Warning -- This program may not be used in any manner that
 competes with the business of Gaussian, Inc. or will provide
 assistance to any competitor of Gaussian, Inc.  The licensee
 of this program is prohibited from giving any competitor of
 Gaussian, Inc. access to this program.  By using this program,
 the user acknowledges that Gaussian, Inc. is engaged in the
 business of creating and licensing software in the field of
 computational chemistry and represents and warrants to the
 licensee that it is not a competitor of Gaussian, Inc. and that
 it will not use this program in any manner prohibited above.
 ---------------------------------------------------------------
  

 Cite this work as:
 Gaussian 16, Revision B.01,
 M. J. Frisch, G. W. Trucks, H. B. Schlegel, G. E. Scuseria, 
 M. A. Robb, J. R. Cheeseman, G. Scalmani, V. Barone, 
 G. A. Petersson, H. Nakatsuji, X. Li, M. Caricato, A. V. Marenich, 
 J. Bloino, B. G. Janesko, R. Gomperts, B. Mennucci, H. P. Hratchian, 
 J. V. Ortiz, A. F. Izmaylov, J. L. Sonnenberg, D. Williams-Young, 
 F. Ding, F. Lipparini, F. Egidi, J. Goings, B. Peng, A. Petrone, 
 T. Henderson, D. Ranasinghe, V. G. Zakrzewski, J. Gao, N. Rega, 
 G. Zheng, W. Liang, M. Hada, M. Ehara, K. Toyota, R. Fukuda, 
 J. Hasegawa, M. Ishida, T. Nakajima, Y. Honda, O. Kitao, H. Nakai, 
 T. Vreven, K. Throssell, J. A. Montgomery, Jr., J. E. Peralta, 
 F. Ogliaro, M. J. Bearpark, J. J. Heyd, E. N. Brothers, K. N. Kudin, 
 V. N. Staroverov, T. A. Keith, R. Kobayashi, J. Normand, 
 K. Raghavachari, A. P. Rendell, J. C. Burant, S. S. Iyengar, 
 J. Tomasi, M. Cossi, J. M. Millam, M. Klene, C. Adamo, R. Cammi, 
 J. W. Ochterski, R. L. Martin, K. Morokuma, O. Farkas, 
 J. B. Foresman, and D. J. Fox, Gaussian, Inc., Wallingford CT, 2016.
 
 ******************************************
 Gaussian 16:  EM64L-G16RevB.01 20-Dec-2017
                 9-Jun-2025 
 ******************************************
 %chk=toluene_isomer.chk
 -------------------------------------
 # opt freq hf/3-21g geom=connectivity
 -------------------------------------
 1/18=20,19=15,38=1,57=2/1,3;
 2/9=110,12=2,17=6,18=5,40=1/2;
 3/5=5,11=9,25=1,30=1,71=1/1,2,3;
 4//1;
 5/5=2,38=5/2;
 6/7=2,8=2,9=2,10=2,28=1/1;
 7//1,2,3,16;
 1/18=20,19=15/3(2);
 2/9=110/2;
 99//99;
 2/9=110/2;
 3/5=5,11=9,25=1,30=1,71=1/1,2,3;
 4/5=5,16=3,69=1/1;
 5/5=2,38=5/2;
 7//1,2,3,16;
 1/18=20,19=15/3(-5);
 2/9=110/2;
 6/7=2,8=2,9=2,10=2,19=2,28=1/1;
 99/9=1/99;
 ------------
 Optimisation
 ------------
 Symbolic Z-matrix:
 Charge =  0 Multiplicity = 1
 C                    -2.68334   1.32464   4.82388 
 C                    -1.54929   1.28516   5.5753 
 C                    -0.26858   2.02168   5.13616 
 C                    -0.28732   2.82351   4.04937 
 C                    -1.54873   2.89519   3.17909 
 C                    -2.68178   1.87384   3.38007 
 H                    -3.59774   0.95681   5.24038 
 H                    -1.54926   0.73824   6.49497 
 H                     0.63202   1.9117    5.70336 
 H                     0.57078   3.41274   3.80166 
 C                    -1.66061   3.85179   2.2257 
 H                    -0.87102   4.55963   2.08279 
 H                    -2.53852   3.89924   1.61584 
 H                    -2.54826   1.06214   2.69581 
 H                    -3.62072   2.34791   3.18374 
 

 GradGradGradGradGradGradGradGradGradGradGradGradGradGradGradGradGradGrad
 Berny optimization.
 Initialization pass.
                           ----------------------------
                           !    Initial Parameters    !
                           ! (Angstroms and Degrees)  !
 --------------------------                            --------------------------
 ! Name  Definition              Value          Derivative Info.                !
 --------------------------------------------------------------------------------
 ! R1    R(1,2)                  1.361          estimate D2E/DX2                !
 ! R2    R(1,6)                  1.5447         estimate D2E/DX2                !
 ! R3    R(1,7)                  1.07           estimate D2E/DX2                !
 ! R4    R(2,3)                  1.5413         estimate D2E/DX2                !
 ! R5    R(2,8)                  1.07           estimate D2E/DX2                !
 ! R6    R(3,4)                  1.3507         estimate D2E/DX2                !
 ! R7    R(3,9)                  1.07           estimate D2E/DX2                !
 ! R8    R(4,5)                  1.5342         estimate D2E/DX2                !
 ! R9    R(4,10)                 1.07           estimate D2E/DX2                !
 ! R10   R(5,6)                  1.5386         estimate D2E/DX2                !
 ! R11   R(5,11)                 1.3552         estimate D2E/DX2                !
 ! R12   R(6,14)                 1.07           estimate D2E/DX2                !
 ! R13   R(6,15)                 1.07           estimate D2E/DX2                !
 ! R14   R(11,12)                1.07           estimate D2E/DX2                !
 ! R15   R(11,13)                1.07           estimate D2E/DX2                !
 ! A1    A(2,1,6)              121.7029         estimate D2E/DX2                !
 ! A2    A(2,1,7)              119.1568         estimate D2E/DX2                !
 ! A3    A(6,1,7)              119.1374         estimate D2E/DX2                !
 ! A4    A(1,2,3)              121.414          estimate D2E/DX2                !
 ! A5    A(1,2,8)              119.3009         estimate D2E/DX2                !
 ! A6    A(3,2,8)              119.2829         estimate D2E/DX2                !
 ! A7    A(2,3,4)              120.0926         estimate D2E/DX2                !
 ! A8    A(2,3,9)              119.9493         estimate D2E/DX2                !
 ! A9    A(4,3,9)              119.9487         estimate D2E/DX2                !
 ! A10   A(3,4,5)              119.7079         estimate D2E/DX2                !
 ! A11   A(3,4,10)             120.1357         estimate D2E/DX2                !
 ! A12   A(5,4,10)             120.154          estimate D2E/DX2                !
 ! A13   A(4,5,6)              120.0241         estimate D2E/DX2                !
 ! A14   A(4,5,11)             119.9956         estimate D2E/DX2                !
 ! A15   A(6,5,11)             119.9782         estimate D2E/DX2                !
 ! A16   A(1,6,5)              111.0291         estimate D2E/DX2                !
 ! A17   A(1,6,14)             109.1557         estimate D2E/DX2                !
 ! A18   A(1,6,15)             109.1557         estimate D2E/DX2                !
 ! A19   A(5,6,14)             109.1557         estimate D2E/DX2                !
 ! A20   A(5,6,15)             109.1557         estimate D2E/DX2                !
 ! A21   A(14,6,15)            109.163          estimate D2E/DX2                !
 ! A22   A(5,11,12)            120.0            estimate D2E/DX2                !
 ! A23   A(5,11,13)            120.0            estimate D2E/DX2                !
 ! A24   A(12,11,13)           120.0            estimate D2E/DX2                !
 ! D1    D(6,1,2,3)             11.7162         estimate D2E/DX2                !
 ! D2    D(6,1,2,8)           -168.8309         estimate D2E/DX2                !
 ! D3    D(7,1,2,3)           -168.9018         estimate D2E/DX2                !
 ! D4    D(7,1,2,8)             10.5511         estimate D2E/DX2                !
 ! D5    D(2,1,6,5)            -26.4784         estimate D2E/DX2                !
 ! D6    D(2,1,6,14)            93.8995         estimate D2E/DX2                !
 ! D7    D(2,1,6,15)          -146.8564         estimate D2E/DX2                !
 ! D8    D(7,1,6,5)            154.1394         estimate D2E/DX2                !
 ! D9    D(7,1,6,14)           -85.4826         estimate D2E/DX2                !
 ! D10   D(7,1,6,15)            33.7615         estimate D2E/DX2                !
 ! D11   D(1,2,3,4)              5.9895         estimate D2E/DX2                !
 ! D12   D(1,2,3,9)           -175.1267         estimate D2E/DX2                !
 ! D13   D(8,2,3,4)           -173.4634         estimate D2E/DX2                !
 ! D14   D(8,2,3,9)              5.4204         estimate D2E/DX2                !
 ! D15   D(2,3,4,5)             -5.7344         estimate D2E/DX2                !
 ! D16   D(2,3,4,10)           173.7152         estimate D2E/DX2                !
 ! D17   D(9,3,4,5)            175.3818         estimate D2E/DX2                !
 ! D18   D(9,3,4,10)            -5.1686         estimate D2E/DX2                !
 ! D19   D(3,4,5,6)            -11.5018         estimate D2E/DX2                !
 ! D20   D(3,4,5,11)           169.0261         estimate D2E/DX2                !
 ! D21   D(10,4,5,6)           169.0487         estimate D2E/DX2                !
 ! D22   D(10,4,5,11)          -10.4234         estimate D2E/DX2                !
 ! D23   D(4,5,6,1)             26.1333         estimate D2E/DX2                !
 ! D24   D(4,5,6,14)           -94.2447         estimate D2E/DX2                !
 ! D25   D(4,5,6,15)           146.5112         estimate D2E/DX2                !
 ! D26   D(11,5,6,1)          -154.3945         estimate D2E/DX2                !
 ! D27   D(11,5,6,14)           85.2275         estimate D2E/DX2                !
 ! D28   D(11,5,6,15)          -34.0166         estimate D2E/DX2                !
 ! D29   D(4,5,11,12)           -0.2638         estimate D2E/DX2                !
 ! D30   D(4,5,11,13)          179.7362         estimate D2E/DX2                !
 ! D31   D(6,5,11,12)         -179.7362         estimate D2E/DX2                !
 ! D32   D(6,5,11,13)            0.2638         estimate D2E/DX2                !
 --------------------------------------------------------------------------------
 Trust Radius=3.00D-01 FncErr=1.00D-07 GrdErr=1.00D-07 EigMax=2.50D+02 EigMin=1.00D-04
 Number of steps in this run=     81 maximum allowed number of steps=    100.
 GradGradGradGradGradGradGradGradGradGradGradGradGradGradGradGradGradGrad

                          Input orientation:                          
 ---------------------------------------------------------------------
 Center     Atomic      Atomic             Coordinates (Angstroms)
 Number     Number       Type             X           Y           Z
 ---------------------------------------------------------------------
      1          6           0       -2.683341    1.324636    4.823882
      2          6           0       -1.549290    1.285156    5.575303
      3          6           0       -0.268577    2.021684    5.136160
      4          6           0       -0.287323    2.823506    4.049374
      5          6           0       -1.548731    2.895190    3.179090
      6          6           0       -2.681779    1.873843    3.380072
      7          1           0       -3.597741    0.956807    5.240383
      8          1           0       -1.549261    0.738242    6.494969
      9          1           0        0.632025    1.911697    5.703363
     10          1           0        0.570781    3.412738    3.801661
     11          6           0       -1.660605    3.851792    2.225695
     12          1           0       -0.871024    4.559635    2.082794
     13          1           0       -2.538517    3.899237    1.615843
     14          1           0       -2.548260    1.062145    2.695807
     15          1           0       -3.620720    2.347912    3.183736
 ---------------------------------------------------------------------
                    Distance matrix (angstroms):
                    1          2          3          4          5
     1  C    0.000000
     2  C    1.360979   0.000000
     3  C    2.532682   1.541280   0.000000
     4  C    2.930422   2.507497   1.350694   0.000000
     5  C    2.541519   2.886875   2.496383   1.534171   0.000000
     6  C    1.544738   2.539315   2.988184   2.661436   1.538616
     7  H    1.070000   2.101461   3.496878   3.982704   3.493523
     8  H    2.102981   1.070000   2.265775   3.452788   3.955689
     9  H    3.479910   2.273123   1.070000   2.100541   3.477773
    10  H    3.999302   3.488139   2.102484   1.070000   2.268872
    11  C    3.766043   4.221361   3.709157   2.503813   1.355200
    12  H    4.611212   4.835275   4.015866   2.687432   2.105120
    13  H    4.115952   4.846578   4.590258   3.485275   2.105120
    14  H    2.148453   3.056006   3.474621   3.169601   2.143053
    15  H    2.148453   3.337644   3.892974   3.476644   2.143053
                    6          7          8          9         10
     6  C    0.000000
     7  H    2.267311   0.000000
     8  H    3.503537   2.412059   0.000000
     9  H    4.047271   4.360858   2.600316   0.000000
    10  H    3.622855   5.047583   4.347576   2.423498   0.000000
    11  C    2.507522   4.606710   5.285196   4.595029   2.766862
    12  H    3.489304   5.512325   5.876252   4.730671   2.519659
    13  H    2.689842   4.787186   5.897151   5.541703   3.831738
    14  H    1.070000   2.754519   3.941642   4.458850   4.059140
    15  H    1.070000   2.483042   4.224482   4.962322   4.368566
                   11         12         13         14         15
    11  C    0.000000
    12  H    1.070000   0.000000
    13  H    1.070000   1.853294   0.000000
    14  H    2.964974   3.927002   3.035706   0.000000
    15  H    2.649821   3.696569   2.456840   1.743973   0.000000
 Stoichiometry    C7H8
 Framework group  C1[X(C7H8)]
 Deg. of freedom    39
 Full point group                 C1      NOp   1
 Largest Abelian subgroup         C1      NOp   1
 Largest concise Abelian subgroup C1      NOp   1
                         Standard orientation:                         
 ---------------------------------------------------------------------
 Center     Atomic      Atomic             Coordinates (Angstroms)
 Number     Number       Type             X           Y           Z
 ---------------------------------------------------------------------
      1          6           0       -1.192352   -1.203292   -0.141895
      2          6           0       -1.856785   -0.015880   -0.112792
      3          6           0       -1.107793    1.319700    0.062655
      4          6           0        0.242680    1.342880    0.070397
      5          6           0        1.025935    0.024145    0.036764
      6          6           0        0.295154   -1.311242    0.260460
      7          1           0       -1.716347   -2.086655   -0.441892
      8          1           0       -2.921099   -0.008541   -0.222708
      9          1           0       -1.658271    2.231998    0.160557
     10          1           0        0.763807    2.277173    0.090974
     11          6           0        2.363731    0.036043   -0.179402
     12          1           0        2.872966    0.964836   -0.330808
     13          1           0        2.910754   -0.883356   -0.198672
     14          1           0        0.360685   -1.578428    1.294490
     15          1           0        0.764083   -2.071153   -0.329066
 ---------------------------------------------------------------------
 Rotational constants (GHZ):           4.6926043           2.6456848           1.7377476
 Standard basis: 3-21G (6D, 7F)
 There are    79 symmetry adapted cartesian basis functions of A   symmetry.
 There are    79 symmetry adapted basis functions of A   symmetry.
    79 basis functions,   129 primitive gaussians,    79 cartesian basis functions
    25 alpha electrons       25 beta electrons
       nuclear repulsion energy       264.4901089360 Hartrees.
 NAtoms=   15 NActive=   15 NUniq=   15 SFac= 1.00D+00 NAtFMM=   60 NAOKFM=F Big=F
 Integral buffers will be    131072 words long.
 Raffenetti 1 integral format.
 Two-electron integral symmetry is turned on.
 One-electron integrals computed using PRISM.
 NBasis=    79 RedAO= T EigKep=  3.88D-03  NBF=    79
 NBsUse=    79 1.00D-06 EigRej= -1.00D+00 NBFU=    79
 ExpMin= 1.83D-01 ExpMax= 1.72D+02 ExpMxC= 1.72D+02 IAcc=3 IRadAn=         5 AccDes= 0.00D+00
 Harris functional with IExCor=  205 and IRadAn=       5 diagonalized for initial guess.
 HarFok:  IExCor=  205 AccDes= 0.00D+00 IRadAn=         5 IDoV= 1 UseB2=F ITyADJ=14
 ICtDFT=  3500011 ScaDFX=  1.000000  1.000000  1.000000  1.000000
 FoFCou: FMM=F IPFlag=           0 FMFlag=      100000 FMFlg1=           0
         NFxFlg=           0 DoJE=T BraDBF=F KetDBF=T FulRan=T
         wScrn=  0.000000 ICntrl=       500 IOpCl=  0 I1Cent=   200000004 NGrid=           0
         NMat0=    1 NMatS0=      1 NMatT0=    0 NMatD0=    1 NMtDS0=    0 NMtDT0=    0
 Petite list used in FoFCou.
 Keep R1 ints in memory in canonical form, NReq=5830457.
 Requested convergence on RMS density matrix=1.00D-08 within 128 cycles.
 Requested convergence on MAX density matrix=1.00D-06.
 Requested convergence on             energy=1.00D-06.
 No special actions if energy rises.
 SCF Done:  E(RHF) =  -268.167138462     A.U. after   14 cycles
            NFock= 14  Conv=0.32D-08     -V/T= 2.0038

 **********************************************************************

            Population analysis using the SCF Density.

 **********************************************************************

 Orbital symmetries:
       Occupied  (A) (A) (A) (A) (A) (A) (A) (A) (A) (A) (A) (A)
                 (A) (A) (A) (A) (A) (A) (A) (A) (A) (A) (A) (A)
                 (A)
       Virtual   (A) (A) (A) (A) (A) (A) (A) (A) (A) (A) (A) (A)
                 (A) (A) (A) (A) (A) (A) (A) (A) (A) (A) (A) (A)
                 (A) (A) (A) (A) (A) (A) (A) (A) (A) (A) (A) (A)
                 (A) (A) (A) (A) (A) (A) (A) (A) (A) (A) (A) (A)
                 (A) (A) (A) (A) (A) (A)
 The electronic state is 1-A.
 Alpha  occ. eigenvalues --  -11.19812 -11.18573 -11.18423 -11.18352 -11.18279
 Alpha  occ. eigenvalues --  -11.17855 -11.16010  -1.12282  -1.03435  -1.01555
 Alpha  occ. eigenvalues --   -0.91983  -0.81469  -0.76700  -0.68411  -0.66097
 Alpha  occ. eigenvalues --   -0.62789  -0.60015  -0.58535  -0.55681  -0.53487
 Alpha  occ. eigenvalues --   -0.48824  -0.46157  -0.43724  -0.37149  -0.28758
 Alpha virt. eigenvalues --    0.10235   0.20141   0.27116   0.27475   0.30546
 Alpha virt. eigenvalues --    0.30875   0.33384   0.35131   0.36014   0.36849
 Alpha virt. eigenvalues --    0.39641   0.40993   0.45151   0.50902   0.52901
 Alpha virt. eigenvalues --    0.57239   0.66497   0.72398   0.85042   0.92833
 Alpha virt. eigenvalues --    0.95164   0.95789   0.98583   1.00510   1.03538
 Alpha virt. eigenvalues --    1.05454   1.08171   1.09325   1.09774   1.11196
 Alpha virt. eigenvalues --    1.13861   1.15131   1.18143   1.27166   1.31695
 Alpha virt. eigenvalues --    1.31804   1.35108   1.36679   1.37965   1.41290
 Alpha virt. eigenvalues --    1.43312   1.44766   1.50042   1.58040   1.63215
 Alpha virt. eigenvalues --    1.68830   1.70956   1.77133   1.82035   1.83707
 Alpha virt. eigenvalues --    2.01908   2.15475   2.30021   2.56496
          Condensed to atoms (all electrons):
               1          2          3          4          5          6
     1  C    5.259729   0.544672  -0.082675  -0.003576  -0.079450   0.286818
     2  C    0.544672   5.185621   0.349597  -0.088947   0.004301  -0.082905
     3  C   -0.082675   0.349597   5.211589   0.525869  -0.096716   0.002894
     4  C   -0.003576  -0.088947   0.525869   5.173902   0.355890  -0.043112
     5  C   -0.079450   0.004301  -0.096716   0.355890   5.274236   0.279597
     6  C    0.286818  -0.082905   0.002894  -0.043112   0.279597   5.371127
     7  H    0.401015  -0.042458   0.002232  -0.000154   0.002135  -0.030955
     8  H   -0.039703   0.397607  -0.028437   0.001545   0.000075   0.002041
     9  H    0.001317  -0.025385   0.395914  -0.038728   0.002111   0.000042
    10  H   -0.000048   0.001983  -0.037391   0.400150  -0.028312   0.001057
    11  C    0.003065   0.000077   0.001784  -0.072061   0.532093  -0.071562
    12  H   -0.000075   0.000006   0.000097   0.000535  -0.056863   0.002343
    13  H    0.000020   0.000002  -0.000066   0.002184  -0.056265  -0.000825
    14  H   -0.048164  -0.000971   0.000303   0.002628  -0.049379   0.384289
    15  H   -0.041622   0.003060  -0.000272   0.002378  -0.045805   0.389771
               7          8          9         10         11         12
     1  C    0.401015  -0.039703   0.001317  -0.000048   0.003065  -0.000075
     2  C   -0.042458   0.397607  -0.025385   0.001983   0.000077   0.000006
     3  C    0.002232  -0.028437   0.395914  -0.037391   0.001784   0.000097
     4  C   -0.000154   0.001545  -0.038728   0.400150  -0.072061   0.000535
     5  C    0.002135   0.000075   0.002111  -0.028312   0.532093  -0.056863
     6  C   -0.030955   0.002041   0.000042   0.001057  -0.071562   0.002343
     7  H    0.440036  -0.001529  -0.000027   0.000001  -0.000026   0.000000
     8  H   -0.001529   0.435911  -0.000028  -0.000026  -0.000000  -0.000000
     9  H   -0.000027  -0.000028   0.430357  -0.001266  -0.000048  -0.000002
    10  H    0.000001  -0.000026  -0.001266   0.424305   0.000730   0.001329
    11  C   -0.000026  -0.000000  -0.000048   0.000730   5.220546   0.401051
    12  H    0.000000  -0.000000  -0.000002   0.001329   0.401051   0.457804
    13  H   -0.000001  -0.000000   0.000000  -0.000003   0.401401  -0.017582
    14  H    0.000162  -0.000034  -0.000000  -0.000020  -0.002254  -0.000066
    15  H   -0.001360  -0.000035   0.000000  -0.000017  -0.002106   0.000054
              13         14         15
     1  C    0.000020  -0.048164  -0.041622
     2  C    0.000002  -0.000971   0.003060
     3  C   -0.000066   0.000303  -0.000272
     4  C    0.002184   0.002628   0.002378
     5  C   -0.056265  -0.049379  -0.045805
     6  C   -0.000825   0.384289   0.389771
     7  H   -0.000001   0.000162  -0.001360
     8  H   -0.000000  -0.000034  -0.000035
     9  H    0.000000  -0.000000   0.000000
    10  H   -0.000003  -0.000020  -0.000017
    11  C    0.401401  -0.002254  -0.002106
    12  H   -0.017582  -0.000066   0.000054
    13  H    0.460506   0.000262   0.001159
    14  H    0.000262   0.478610  -0.022689
    15  H    0.001159  -0.022689   0.480423
 Mulliken charges:
               1
     1  C   -0.201324
     2  C   -0.246262
     3  C   -0.244722
     4  C   -0.218503
     5  C   -0.037650
     6  C   -0.490620
     7  H    0.230928
     8  H    0.232612
     9  H    0.235742
    10  H    0.237529
    11  C   -0.412689
    12  H    0.211369
    13  H    0.209208
    14  H    0.257323
    15  H    0.237060
 Sum of Mulliken charges =  -0.00000
 Mulliken charges with hydrogens summed into heavy atoms:
               1
     1  C    0.029604
     2  C   -0.013650
     3  C   -0.008980
     4  C    0.019026
     5  C   -0.037650
     6  C    0.003763
    11  C    0.007887
 Electronic spatial extent (au):  <R**2>=            721.0776
 Charge=              0.0000 electrons
 Dipole moment (field-independent basis, Debye):
    X=             -0.1600    Y=             -0.3143    Z=              0.1309  Tot=              0.3762
 Quadrupole moment (field-independent basis, Debye-Ang):
   XX=            -39.7332   YY=            -37.6020   ZZ=            -47.5753
   XY=             -0.2977   XZ=              0.1365   YZ=              0.3146
 Traceless Quadrupole moment (field-independent basis, Debye-Ang):
   XX=              1.9036   YY=              4.0348   ZZ=             -5.9385
   XY=             -0.2977   XZ=              0.1365   YZ=              0.3146
 Octapole moment (field-independent basis, Debye-Ang**2):
  XXX=             -4.0648  YYY=              1.8883  ZZZ=              2.0895  XYY=              0.4471
  XXY=              1.4363  XXZ=             -3.4181  XZZ=              0.4069  YZZ=             -3.0361
  YYZ=             -0.5829  XYZ=             -1.8474
 Hexadecapole moment (field-independent basis, Debye-Ang**3):
 XXXX=           -545.7240 YYYY=           -317.7303 ZZZZ=            -63.6052 XXXY=             -2.7378
 XXXZ=             -1.2385 YYYX=              1.4790 YYYZ=              5.6840 ZZZX=              0.8131
 ZZZY=             -2.5408 XXYY=           -138.7618 XXZZ=           -121.6124 YYZZ=            -72.0295
 XXYZ=              2.3960 YYXZ=              0.2976 ZZXY=             -0.5045
 N-N= 2.644901089360D+02 E-N=-1.151976790869D+03  KE= 2.671493787361D+02
 Calling FoFJK, ICntrl=      2127 FMM=F ISym2X=0 I1Cent= 0 IOpClX= 0 NMat=1 NMatS=1 NMatT=0.
 ***** Axes restored to original set *****
 -------------------------------------------------------------------
 Center     Atomic                   Forces (Hartrees/Bohr)
 Number     Number              X              Y              Z
 -------------------------------------------------------------------
      1        6           0.045248684    0.002669200    0.013018410
      2        6          -0.010041804    0.015640882   -0.038191917
      3        6          -0.030372513   -0.002323890   -0.022273937
      4        6          -0.033568774   -0.028907982    0.014049189
      5        6           0.016814471    0.032769856   -0.016619130
      6        6           0.016292301    0.011523419    0.034177638
      7        1          -0.001788044   -0.007043181   -0.004380227
      8        1           0.001982596    0.006338915    0.005432312
      9        1          -0.002304143   -0.000213021    0.005661543
     10        1          -0.001507360    0.001546125   -0.006101591
     11        6           0.006260908   -0.032478546    0.033340846
     12        1          -0.000480404    0.002527494   -0.004704333
     13        1          -0.000195515    0.004741956   -0.002882995
     14        1           0.000993933   -0.010416800   -0.005968218
     15        1          -0.007334335    0.003625571   -0.004557589
 -------------------------------------------------------------------
 Cartesian Forces:  Max     0.045248684 RMS     0.017342428

 GradGradGradGradGradGradGradGradGradGradGradGradGradGradGradGradGradGrad
 Berny optimization.
 FormGI is forming the generalized inverse of G from B-inverse, IUseBI=4.
 Internal  Forces:  Max     0.048207617 RMS     0.011238374
 Search for a local minimum.
 Step number   1 out of a maximum of   81
 All quantities printed in internal units (Hartrees-Bohrs-Radians)
 Mixed Optimization -- RFO/linear search
 Second derivative matrix not updated -- first step.
 ITU=  0
     Eigenvalues ---    0.00345   0.00719   0.00921   0.01128   0.01325
     Eigenvalues ---    0.01484   0.01653   0.02010   0.02681   0.02681
     Eigenvalues ---    0.04569   0.06625   0.09499   0.10674   0.15997
     Eigenvalues ---    0.15999   0.15999   0.15999   0.16000   0.16000
     Eigenvalues ---    0.21311   0.21995   0.22691   0.24999   0.27462
     Eigenvalues ---    0.27746   0.28445   0.28720   0.37230   0.37230
     Eigenvalues ---    0.37230   0.37230   0.37230   0.37230   0.37230
     Eigenvalues ---    0.37230   0.50717   0.53372   0.53930
 RFO step:  Lambda=-2.58246431D-02 EMin= 3.44803985D-03
 Linear search not attempted -- first point.
 Iteration  1 RMS(Cart)=  0.05555469 RMS(Int)=  0.00133794
 Iteration  2 RMS(Cart)=  0.00155051 RMS(Int)=  0.00043563
 Iteration  3 RMS(Cart)=  0.00000125 RMS(Int)=  0.00043563
 Iteration  4 RMS(Cart)=  0.00000000 RMS(Int)=  0.00043563
 Variable       Old X    -DE/DX   Delta X   Delta X   Delta X     New X
                                 (Linear)    (Quad)   (Total)
    R1        2.57188  -0.04821   0.00000  -0.08796  -0.08821   2.48367
    R2        2.91913  -0.01518   0.00000  -0.04772  -0.04801   2.87112
    R3        2.02201   0.00224   0.00000   0.00564   0.00564   2.02764
    R4        2.91260  -0.03858   0.00000  -0.12788  -0.12779   2.78481
    R5        2.02201   0.00143   0.00000   0.00359   0.00359   2.02560
    R6        2.55244  -0.02921   0.00000  -0.05190  -0.05150   2.50094
    R7        2.02201   0.00108   0.00000   0.00272   0.00272   2.02473
    R8        2.89916  -0.03727   0.00000  -0.11647  -0.11618   2.78299
    R9        2.02201   0.00106   0.00000   0.00265   0.00265   2.02466
   R10        2.90756  -0.01028   0.00000  -0.02964  -0.02986   2.87771
   R11        2.56096  -0.03637   0.00000  -0.06436  -0.06436   2.49659
   R12        2.02201   0.01184   0.00000   0.02975   0.02975   2.05175
   R13        2.02201   0.00888   0.00000   0.02230   0.02230   2.04431
   R14        2.02201   0.00195   0.00000   0.00489   0.00489   2.02689
   R15        2.02201   0.00201   0.00000   0.00506   0.00506   2.02707
    A1        2.12412  -0.00009   0.00000   0.00146   0.00031   2.12442
    A2        2.07968   0.00308   0.00000   0.01564   0.01622   2.09589
    A3        2.07934  -0.00300   0.00000  -0.01711  -0.01654   2.06280
    A4        2.11907  -0.00015   0.00000  -0.00633  -0.00706   2.11201
    A5        2.08219   0.00446   0.00000   0.02665   0.02695   2.10914
    A6        2.08188  -0.00431   0.00000  -0.02048  -0.02021   2.06167
    A7        2.09601   0.00576   0.00000   0.01670   0.01649   2.11250
    A8        2.09351  -0.00769   0.00000  -0.03449  -0.03468   2.05883
    A9        2.09350   0.00189   0.00000   0.01711   0.01679   2.11029
   A10        2.08930   0.00757   0.00000   0.02979   0.02997   2.11927
   A11        2.09676   0.00243   0.00000   0.01845   0.01821   2.11498
   A12        2.09708  -0.01001   0.00000  -0.04846  -0.04870   2.04838
   A13        2.09482  -0.01631   0.00000  -0.05432  -0.05452   2.04030
   A14        2.09432   0.00466   0.00000   0.01437   0.01431   2.10863
   A15        2.09401   0.01164   0.00000   0.03972   0.03965   2.13366
   A16        1.93782   0.00394   0.00000   0.02649   0.02537   1.96319
   A17        1.90513  -0.00400   0.00000  -0.03132  -0.03103   1.87410
   A18        1.90513   0.00194   0.00000   0.02112   0.02099   1.92612
   A19        1.90513  -0.00079   0.00000  -0.01379  -0.01352   1.89161
   A20        1.90513  -0.00095   0.00000   0.00624   0.00590   1.91103
   A21        1.90525  -0.00019   0.00000  -0.00926  -0.00920   1.89606
   A22        2.09440   0.00306   0.00000   0.01649   0.01648   2.11088
   A23        2.09440   0.00359   0.00000   0.01930   0.01930   2.11369
   A24        2.09440  -0.00665   0.00000  -0.03579  -0.03579   2.05860
    D1        0.20449  -0.00446   0.00000  -0.08510  -0.08437   0.12011
    D2       -2.94666  -0.00495   0.00000  -0.10497  -0.10434  -3.05100
    D3       -2.94789  -0.00485   0.00000  -0.08694  -0.08653  -3.03442
    D4        0.18415  -0.00533   0.00000  -0.10681  -0.10650   0.07765
    D5       -0.46214   0.00196   0.00000   0.05795   0.05835  -0.40379
    D6        1.63886   0.00085   0.00000   0.03713   0.03694   1.67580
    D7       -2.56313  -0.00060   0.00000   0.01985   0.01954  -2.54358
    D8        2.69024   0.00230   0.00000   0.05959   0.06027   2.75051
    D9       -1.49195   0.00120   0.00000   0.03877   0.03886  -1.45309
   D10        0.58925  -0.00025   0.00000   0.02149   0.02147   0.61071
   D11        0.10454   0.00167   0.00000   0.03278   0.03348   0.13801
   D12       -3.05654  -0.00003   0.00000  -0.00767  -0.00654  -3.06307
   D13       -3.02751   0.00211   0.00000   0.05239   0.05266  -2.97484
   D14        0.09460   0.00041   0.00000   0.01194   0.01265   0.10726
   D15       -0.10008   0.00232   0.00000   0.03328   0.03390  -0.06619
   D16        3.03190   0.00081   0.00000   0.00690   0.00660   3.03850
   D17        3.06099   0.00412   0.00000   0.07431   0.07566   3.13665
   D18       -0.09021   0.00262   0.00000   0.04793   0.04837  -0.04184
   D19       -0.20074  -0.00161   0.00000  -0.04276  -0.04224  -0.24299
   D20        2.95006  -0.00092   0.00000  -0.01495  -0.01521   2.93486
   D21        2.95046  -0.00017   0.00000  -0.01675  -0.01630   2.93416
   D22       -0.18192   0.00051   0.00000   0.01106   0.01074  -0.17119
   D23        0.45611  -0.00220   0.00000  -0.00431  -0.00485   0.45126
   D24       -1.64488   0.00081   0.00000   0.02690   0.02680  -1.61808
   D25        2.55710   0.00207   0.00000   0.04261   0.04242   2.59952
   D26       -2.69469  -0.00292   0.00000  -0.03225  -0.03245  -2.72715
   D27        1.48750   0.00009   0.00000  -0.00104  -0.00080   1.48670
   D28       -0.59370   0.00135   0.00000   0.01467   0.01482  -0.57888
   D29       -0.00460   0.00078   0.00000   0.00869   0.00833   0.00373
   D30        3.13699   0.00052   0.00000   0.00367   0.00330   3.14029
   D31       -3.13699   0.00162   0.00000   0.03698   0.03735  -3.09964
   D32        0.00460   0.00135   0.00000   0.03196   0.03232   0.03693
         Item               Value     Threshold  Converged?
 Maximum Force            0.048208     0.000450     NO 
 RMS     Force            0.011238     0.000300     NO 
 Maximum Displacement     0.172681     0.001800     NO 
 RMS     Displacement     0.055927     0.001200     NO 
 Predicted change in Energy=-1.466321D-02
 GradGradGradGradGradGradGradGradGradGradGradGradGradGradGradGradGradGrad

                          Input orientation:                          
 ---------------------------------------------------------------------
 Center     Atomic      Atomic             Coordinates (Angstroms)
 Number     Number       Type             X           Y           Z
 ---------------------------------------------------------------------
      1          6           0       -2.639975    1.312826    4.819193
      2          6           0       -1.548382    1.313778    5.551184
      3          6           0       -0.331403    2.010757    5.098582
      4          6           0       -0.346762    2.781988    4.023195
      5          6           0       -1.553058    2.911564    3.188399
      6          6           0       -2.660082    1.890525    3.414119
      7          1           0       -3.545854    0.886300    5.204875
      8          1           0       -1.527387    0.829620    6.507280
      9          1           0        0.552238    1.919031    5.697539
     10          1           0        0.509339    3.363053    3.745062
     11          6           0       -1.637405    3.849630    2.261939
     12          1           0       -0.828910    4.534462    2.095257
     13          1           0       -2.513308    3.947468    1.650501
     14          1           0       -2.512166    1.066650    2.722610
     15          1           0       -3.619247    2.346567    3.208396
 ---------------------------------------------------------------------
                    Distance matrix (angstroms):
                    1          2          3          4          5
     1  C    0.000000
     2  C    1.314300   0.000000
     3  C    2.427894   1.473658   0.000000
     4  C    2.837407   2.436039   1.323439   0.000000
     5  C    2.529198   2.852314   2.439814   1.472693   0.000000
     6  C    1.519334   2.477006   2.876563   2.552867   1.522817
     7  H    1.072983   2.071850   3.407110   3.901819   3.484122
     8  H    2.078696   1.071900   2.193146   3.372876   3.917923
     9  H    3.365888   2.190972   1.071440   2.087181   3.422452
    10  H    3.908371   3.419916   2.089873   1.071402   2.183391
    11  C    3.738994   4.154228   3.624037   2.430564   1.321140
    12  H    4.591157   4.778481   3.954310   2.649637   2.086420
    13  H    4.122863   4.804450   4.516727   3.417886   2.088135
    14  H    2.114853   2.998464   3.360403   3.053339   2.130858
    15  H    2.149945   3.292991   3.807294   3.400389   2.142139
                    6          7          8          9         10
     6  C    0.000000
     7  H    2.236039   0.000000
     8  H    3.460659   2.402849   0.000000
     9  H    3.941297   4.254834   2.483412   0.000000
    10  H    3.510426   4.970911   4.265722   2.428828   0.000000
    11  C    2.492284   4.591773   5.211093   4.508336   2.654227
    12  H    3.476059   5.510045   5.803419   4.660953   2.425895
    13  H    2.713467   4.803174   5.855025   5.467234   3.723590
    14  H    1.085741   2.694936   3.917870   4.355150   3.930441
    15  H    1.081801   2.474610   4.190423   4.876465   4.285613
                   11         12         13         14         15
    11  C    0.000000
    12  H    1.072586   0.000000
    13  H    1.072677   1.838360   0.000000
    14  H    2.953371   3.905463   3.073846   0.000000
    15  H    2.661330   3.716442   2.492593   1.760626   0.000000
 Stoichiometry    C7H8
 Framework group  C1[X(C7H8)]
 Deg. of freedom    39
 Full point group                 C1      NOp   1
 Largest Abelian subgroup         C1      NOp   1
 Largest concise Abelian subgroup C1      NOp   1
                         Standard orientation:                         
 ---------------------------------------------------------------------
 Center     Atomic      Atomic             Coordinates (Angstroms)
 Number     Number       Type             X           Y           Z
 ---------------------------------------------------------------------
      1          6           0       -1.224170   -1.135793   -0.117140
      2          6           0       -1.820543    0.035376   -0.126483
      3          6           0       -1.053667    1.279370    0.063382
      4          6           0        0.269377    1.267505    0.093468
      5          6           0        1.027772    0.007135    0.021844
      6          6           0        0.245459   -1.281048    0.239887
      7          1           0       -1.778343   -2.023496   -0.354137
      8          1           0       -2.875506    0.113541   -0.299434
      9          1           0       -1.597269    2.200897    0.120559
     10          1           0        0.831399    2.178611    0.137286
     11          6           0        2.333272    0.013396   -0.180743
     12          1           0        2.869415    0.935443   -0.293978
     13          1           0        2.890428   -0.901771   -0.232545
     14          1           0        0.299286   -1.540242    1.292862
     15          1           0        0.695585   -2.078632   -0.335907
 ---------------------------------------------------------------------
 Rotational constants (GHZ):           5.0468672           2.7093459           1.8107925
 Standard basis: 3-21G (6D, 7F)
 There are    79 symmetry adapted cartesian basis functions of A   symmetry.
 There are    79 symmetry adapted basis functions of A   symmetry.
    79 basis functions,   129 primitive gaussians,    79 cartesian basis functions
    25 alpha electrons       25 beta electrons
       nuclear repulsion energy       270.0783176193 Hartrees.
 NAtoms=   15 NActive=   15 NUniq=   15 SFac= 1.00D+00 NAtFMM=   60 NAOKFM=F Big=F
 Integral buffers will be    131072 words long.
 Raffenetti 1 integral format.
 Two-electron integral symmetry is turned on.
 One-electron integrals computed using PRISM.
 NBasis=    79 RedAO= T EigKep=  2.86D-03  NBF=    79
 NBsUse=    79 1.00D-06 EigRej= -1.00D+00 NBFU=    79
 Initial guess from the checkpoint file:  "toluene_isomer.chk"
 B after Tr=    -0.000000    0.000000   -0.000000
         Rot=    0.999936   -0.001282    0.000280    0.011250 Ang=  -1.30 deg.
 ExpMin= 1.83D-01 ExpMax= 1.72D+02 ExpMxC= 1.72D+02 IAcc=3 IRadAn=         5 AccDes= 0.00D+00
 Harris functional with IExCor=  205 and IRadAn=       5 diagonalized for initial guess.
 HarFok:  IExCor=  205 AccDes= 0.00D+00 IRadAn=         5 IDoV= 1 UseB2=F ITyADJ=14
 ICtDFT=  3500011 ScaDFX=  1.000000  1.000000  1.000000  1.000000
 FoFCou: FMM=F IPFlag=           0 FMFlag=      100000 FMFlg1=           0
         NFxFlg=           0 DoJE=T BraDBF=F KetDBF=T FulRan=T
         wScrn=  0.000000 ICntrl=       500 IOpCl=  0 I1Cent=   200000004 NGrid=           0
         NMat0=    1 NMatS0=      1 NMatT0=    0 NMatD0=    1 NMtDS0=    0 NMtDT0=    0
 Petite list used in FoFCou.
 Keep R1 ints in memory in canonical form, NReq=5830797.
 Requested convergence on RMS density matrix=1.00D-08 within 128 cycles.
 Requested convergence on MAX density matrix=1.00D-06.
 Requested convergence on             energy=1.00D-06.
 No special actions if energy rises.
 SCF Done:  E(RHF) =  -268.180899916     A.U. after   13 cycles
            NFock= 13  Conv=0.41D-08     -V/T= 2.0016
 Calling FoFJK, ICntrl=      2127 FMM=F ISym2X=0 I1Cent= 0 IOpClX= 0 NMat=1 NMatS=1 NMatT=0.
 ***** Axes restored to original set *****
 -------------------------------------------------------------------
 Center     Atomic                   Forces (Hartrees/Bohr)
 Number     Number              X              Y              Z
 -------------------------------------------------------------------
      1        6          -0.007910068    0.000426921   -0.002618150
      2        6           0.008582028    0.000407912    0.002878480
      3        6          -0.000383951   -0.003728980    0.003689995
      4        6          -0.001633548   -0.000872431   -0.001067471
      5        6           0.003391332    0.001525892   -0.000221713
      6        6           0.000896215    0.002942649    0.007580037
      7        1          -0.000446273   -0.003323816   -0.003667392
      8        1          -0.000047998    0.002040070    0.001604612
      9        1           0.000529235    0.000678907    0.000571865
     10        1           0.001326795   -0.000254326   -0.001116155
     11        6          -0.001818176   -0.001251629   -0.000167861
     12        1          -0.000548606    0.001040755   -0.002289389
     13        1           0.000311908    0.002900759   -0.001153666
     14        1          -0.001239454   -0.001194043   -0.002587441
     15        1          -0.001009438   -0.001338639   -0.001435750
 -------------------------------------------------------------------
 Cartesian Forces:  Max     0.008582028 RMS     0.002733405

 GradGradGradGradGradGradGradGradGradGradGradGradGradGradGradGradGradGrad
 Berny optimization.
 Using GEDIIS/GDIIS optimizer.
 FormGI is forming the generalized inverse of G from B-inverse, IUseBI=4.
 Internal  Forces:  Max     0.009200226 RMS     0.001873380
 Search for a local minimum.
 Step number   2 out of a maximum of   81
 All quantities printed in internal units (Hartrees-Bohrs-Radians)
 Mixed Optimization -- RFO/linear search
 Update second derivatives using D2CorX and points    1    2
 DE= -1.38D-02 DEPred=-1.47D-02 R= 9.39D-01
 TightC=F SS=  1.41D+00  RLast= 3.67D-01 DXNew= 5.0454D-01 1.1017D+00
 Trust test= 9.39D-01 RLast= 3.67D-01 DXMaxT set to 5.05D-01
 ITU=  1  0
 Use linear search instead of GDIIS.
     Eigenvalues ---    0.00347   0.00733   0.00915   0.01175   0.01351
     Eigenvalues ---    0.01519   0.01699   0.02085   0.02677   0.02682
     Eigenvalues ---    0.04324   0.06574   0.09730   0.10916   0.15535
     Eigenvalues ---    0.15972   0.15993   0.15999   0.16000   0.16128
     Eigenvalues ---    0.21402   0.22001   0.22330   0.25016   0.27362
     Eigenvalues ---    0.27547   0.28483   0.29575   0.36974   0.37230
     Eigenvalues ---    0.37230   0.37230   0.37230   0.37230   0.37230
     Eigenvalues ---    0.37257   0.51438   0.53691   0.59346
 RFO step:  Lambda=-2.21676664D-03 EMin= 3.47362048D-03
 Quartic linear search produced a step of  0.02274.
 Iteration  1 RMS(Cart)=  0.04171520 RMS(Int)=  0.00129944
 Iteration  2 RMS(Cart)=  0.00150475 RMS(Int)=  0.00026353
 Iteration  3 RMS(Cart)=  0.00000094 RMS(Int)=  0.00026353
 Variable       Old X    -DE/DX   Delta X   Delta X   Delta X     New X
                                 (Linear)    (Quad)   (Total)
    R1        2.48367   0.00920  -0.00201   0.01874   0.01667   2.50034
    R2        2.87112  -0.00087  -0.00109  -0.00218  -0.00333   2.86779
    R3        2.02764   0.00038   0.00013   0.00103   0.00116   2.02880
    R4        2.78481  -0.00112  -0.00291  -0.00267  -0.00557   2.77924
    R5        2.02560   0.00051   0.00008   0.00138   0.00146   2.02706
    R6        2.50094   0.00437  -0.00117   0.00760   0.00649   2.50742
    R7        2.02473   0.00070   0.00006   0.00189   0.00196   2.02668
    R8        2.78299   0.00167  -0.00264   0.00403   0.00145   2.78443
    R9        2.02466   0.00121   0.00006   0.00329   0.00335   2.02801
   R10        2.87771   0.00245  -0.00068   0.00774   0.00708   2.88478
   R11        2.49659   0.00457  -0.00146   0.00859   0.00712   2.50372
   R12        2.05175   0.00239   0.00068   0.00646   0.00713   2.05889
   R13        2.04431   0.00060   0.00051   0.00162   0.00213   2.04644
   R14        2.02689   0.00061   0.00011   0.00164   0.00176   2.02865
   R15        2.02707   0.00067   0.00012   0.00181   0.00192   2.02899
    A1        2.12442  -0.00116   0.00001  -0.00080  -0.00180   2.12262
    A2        2.09589   0.00321   0.00037   0.01655   0.01713   2.11302
    A3        2.06280  -0.00205  -0.00038  -0.01614  -0.01629   2.04651
    A4        2.11201  -0.00064  -0.00016   0.00248   0.00148   2.11349
    A5        2.10914   0.00102   0.00061   0.00339   0.00428   2.11342
    A6        2.06167  -0.00039  -0.00046  -0.00521  -0.00540   2.05627
    A7        2.11250  -0.00011   0.00037   0.00152   0.00117   2.11367
    A8        2.05883   0.00042  -0.00079   0.00227   0.00166   2.06049
    A9        2.11029  -0.00029   0.00038  -0.00225  -0.00170   2.10859
   A10        2.11927   0.00167   0.00068   0.00510   0.00520   2.12447
   A11        2.11498  -0.00071   0.00041  -0.00211  -0.00146   2.11351
   A12        2.04838  -0.00096  -0.00111  -0.00344  -0.00432   2.04406
   A13        2.04030  -0.00216  -0.00124  -0.01052  -0.01216   2.02814
   A14        2.10863   0.00294   0.00033   0.01282   0.01336   2.12199
   A15        2.13366  -0.00078   0.00090  -0.00223  -0.00113   2.13253
   A16        1.96319   0.00271   0.00058   0.01736   0.01714   1.98033
   A17        1.87410  -0.00005  -0.00071   0.00005  -0.00061   1.87349
   A18        1.92612  -0.00079   0.00048   0.00246   0.00303   1.92915
   A19        1.89161  -0.00152  -0.00031  -0.00877  -0.00882   1.88279
   A20        1.91103   0.00061   0.00013   0.01035   0.01040   1.92143
   A21        1.89606  -0.00112  -0.00021  -0.02350  -0.02376   1.87230
   A22        2.11088   0.00128   0.00037   0.00798   0.00834   2.11922
   A23        2.11369   0.00232   0.00044   0.01450   0.01493   2.12862
   A24        2.05860  -0.00360  -0.00081  -0.02244  -0.02327   2.03534
    D1        0.12011  -0.00186  -0.00192  -0.08020  -0.08192   0.03820
    D2       -3.05100  -0.00176  -0.00237  -0.05381  -0.05580  -3.10680
    D3       -3.03442  -0.00236  -0.00197  -0.11678  -0.11908   3.12969
    D4        0.07765  -0.00227  -0.00242  -0.09039  -0.09296  -0.01531
    D5       -0.40379   0.00129   0.00133   0.07680   0.07816  -0.32562
    D6        1.67580   0.00099   0.00084   0.07626   0.07703   1.75282
    D7       -2.54358  -0.00083   0.00044   0.04940   0.04984  -2.49374
    D8        2.75051   0.00175   0.00137   0.11248   0.11373   2.86424
    D9       -1.45309   0.00145   0.00088   0.11194   0.11260  -1.34050
   D10        0.61071  -0.00037   0.00049   0.08508   0.08541   0.69613
   D11        0.13801   0.00014   0.00076   0.00803   0.00894   0.14696
   D12       -3.06307   0.00032  -0.00015   0.03717   0.03719  -3.02588
   D13       -2.97484   0.00002   0.00120  -0.01780  -0.01649  -2.99134
   D14        0.10726   0.00021   0.00029   0.01134   0.01175   0.11901
   D15       -0.06619   0.00123   0.00077   0.06012   0.06107  -0.00512
   D16        3.03850   0.00092   0.00015   0.04512   0.04526   3.08376
   D17        3.13665   0.00102   0.00172   0.02996   0.03193  -3.11460
   D18       -0.04184   0.00070   0.00110   0.01497   0.01612  -0.02572
   D19       -0.24299  -0.00071  -0.00096  -0.05180  -0.05281  -0.29580
   D20        2.93486  -0.00051  -0.00035  -0.05414  -0.05467   2.88018
   D21        2.93416  -0.00040  -0.00037  -0.03737  -0.03765   2.89650
   D22       -0.17119  -0.00021   0.00024  -0.03971  -0.03951  -0.21070
   D23        0.45126  -0.00012  -0.00011  -0.01169  -0.01224   0.43902
   D24       -1.61808  -0.00071   0.00061  -0.01652  -0.01601  -1.63409
   D25        2.59952   0.00118   0.00096   0.01098   0.01179   2.61132
   D26       -2.72715  -0.00024  -0.00074  -0.00898  -0.01004  -2.73719
   D27        1.48670  -0.00082  -0.00002  -0.01381  -0.01381   1.47289
   D28       -0.57888   0.00107   0.00034   0.01369   0.01399  -0.56489
   D29        0.00373   0.00046   0.00019   0.02050   0.02074   0.02447
   D30        3.14029   0.00069   0.00008   0.02879   0.02892  -3.11397
   D31       -3.09964   0.00069   0.00085   0.01818   0.01898  -3.08067
   D32        0.03693   0.00092   0.00073   0.02647   0.02715   0.06408
         Item               Value     Threshold  Converged?
 Maximum Force            0.009200     0.000450     NO 
 RMS     Force            0.001873     0.000300     NO 
 Maximum Displacement     0.195316     0.001800     NO 
 RMS     Displacement     0.041620     0.001200     NO 
 Predicted change in Energy=-1.267480D-03
 GradGradGradGradGradGradGradGradGradGradGradGradGradGradGradGradGradGrad

                          Input orientation:                          
 ---------------------------------------------------------------------
 Center     Atomic      Atomic             Coordinates (Angstroms)
 Number     Number       Type             X           Y           Z
 ---------------------------------------------------------------------
      1          6           0       -2.638328    1.293442    4.816142
      2          6           0       -1.554943    1.339112    5.574328
      3          6           0       -0.336930    2.025560    5.118021
      4          6           0       -0.336574    2.758104    4.011690
      5          6           0       -1.546781    2.914937    3.185929
      6          6           0       -2.662486    1.900984    3.425701
      7          1           0       -3.523644    0.782943    5.145099
      8          1           0       -1.537197    0.879330    6.543304
      9          1           0        0.545704    1.941299    5.721396
     10          1           0        0.537293    3.301448    3.706995
     11          6           0       -1.638395    3.859646    2.261527
     12          1           0       -0.824515    4.531661    2.065492
     13          1           0       -2.526509    3.995313    1.673591
     14          1           0       -2.533310    1.086864    2.713264
     15          1           0       -3.625749    2.353575    3.225653
 ---------------------------------------------------------------------
                    Distance matrix (angstroms):
                    1          2          3          4          5
     1  C    0.000000
     2  C    1.323123   0.000000
     3  C    2.433837   1.470709   0.000000
     4  C    2.844372   2.437171   1.326871   0.000000
     5  C    2.545254   2.861423   2.446979   1.473458   0.000000
     6  C    1.517569   2.481723   2.878832   2.547136   1.526561
     7  H    1.073594   2.090297   3.420522   3.917051   3.505957
     8  H    2.089752   1.072673   2.187673   3.373478   3.926290
     9  H    3.373019   2.190200   1.072476   2.090138   3.428564
    10  H    3.917508   3.422740   2.093597   1.073176   2.182720
    11  C    3.756505   4.163497   3.635552   2.443605   1.324910
    12  H    4.619747   4.799774   3.979474   2.677924   2.095434
    13  H    4.145871   4.818205   4.531918   3.434124   2.101011
    14  H    2.115608   3.034224   3.389408   3.050344   2.130376
    15  H    2.151404   3.291450   3.808540   3.405902   2.153791
                    6          7          8          9         10
     6  C    0.000000
     7  H    2.224396   0.000000
     8  H    3.468356   2.431098   0.000000
     9  H    3.945164   4.270069   2.478262   0.000000
    10  H    3.504142   4.990212   4.267881   2.430614   0.000000
    11  C    2.498084   4.619010   5.217867   4.518964   2.671064
    12  H    3.485509   5.551771   5.822219   4.685414   2.462210
    13  H    2.733971   4.833732   5.865338   5.481076   3.742067
    14  H    1.089516   2.643284   3.962892   4.388535   3.914139
    15  H    1.082928   2.482253   4.188347   4.878495   4.296635
                   11         12         13         14         15
    11  C    0.000000
    12  H    1.073515   0.000000
    13  H    1.073695   1.827031   0.000000
    14  H    2.948433   3.899515   3.088696   0.000000
    15  H    2.673456   3.733222   2.512475   1.749435   0.000000
 Stoichiometry    C7H8
 Framework group  C1[X(C7H8)]
 Deg. of freedom    39
 Full point group                 C1      NOp   1
 Largest Abelian subgroup         C1      NOp   1
 Largest concise Abelian subgroup C1      NOp   1
                         Standard orientation:                         
 ---------------------------------------------------------------------
 Center     Atomic      Atomic             Coordinates (Angstroms)
 Number     Number       Type             X           Y           Z
 ---------------------------------------------------------------------
      1          6           0       -1.232319   -1.142078   -0.093666
      2          6           0       -1.822432    0.040732   -0.151809
      3          6           0       -1.058051    1.281468    0.046384
      4          6           0        0.266429    1.265545    0.124410
      5          6           0        1.033465    0.011527    0.023538
      6          6           0        0.244568   -1.279422    0.227205
      7          1           0       -1.792678   -2.047977   -0.227647
      8          1           0       -2.873509    0.126311   -0.348125
      9          1           0       -1.600287    2.205384    0.097011
     10          1           0        0.827223    2.175922    0.216221
     11          6           0        2.340784    0.013200   -0.191637
     12          1           0        2.892553    0.929978   -0.278261
     13          1           0        2.901592   -0.896986   -0.291024
     14          1           0        0.324202   -1.557854    1.277528
     15          1           0        0.686232   -2.080606   -0.352253
 ---------------------------------------------------------------------
 Rotational constants (GHZ):           5.0305934           2.6912830           1.8010877
 Standard basis: 3-21G (6D, 7F)
 There are    79 symmetry adapted cartesian basis functions of A   symmetry.
 There are    79 symmetry adapted basis functions of A   symmetry.
    79 basis functions,   129 primitive gaussians,    79 cartesian basis functions
    25 alpha electrons       25 beta electrons
       nuclear repulsion energy       269.4750834938 Hartrees.
 NAtoms=   15 NActive=   15 NUniq=   15 SFac= 1.00D+00 NAtFMM=   60 NAOKFM=F Big=F
 Integral buffers will be    131072 words long.
 Raffenetti 1 integral format.
 Two-electron integral symmetry is turned on.
 One-electron integrals computed using PRISM.
 NBasis=    79 RedAO= T EigKep=  2.84D-03  NBF=    79
 NBsUse=    79 1.00D-06 EigRej= -1.00D+00 NBFU=    79
 Initial guess from the checkpoint file:  "toluene_isomer.chk"
 B after Tr=    -0.000000   -0.000000    0.000000
         Rot=    1.000000   -0.000267   -0.000205    0.000078 Ang=  -0.04 deg.
 ExpMin= 1.83D-01 ExpMax= 1.72D+02 ExpMxC= 1.72D+02 IAcc=3 IRadAn=         5 AccDes= 0.00D+00
 Harris functional with IExCor=  205 and IRadAn=       5 diagonalized for initial guess.
 HarFok:  IExCor=  205 AccDes= 0.00D+00 IRadAn=         5 IDoV= 1 UseB2=F ITyADJ=14
 ICtDFT=  3500011 ScaDFX=  1.000000  1.000000  1.000000  1.000000
 FoFCou: FMM=F IPFlag=           0 FMFlag=      100000 FMFlg1=           0
         NFxFlg=           0 DoJE=T BraDBF=F KetDBF=T FulRan=T
         wScrn=  0.000000 ICntrl=       500 IOpCl=  0 I1Cent=   200000004 NGrid=           0
         NMat0=    1 NMatS0=      1 NMatT0=    0 NMatD0=    1 NMtDS0=    0 NMtDT0=    0
 Petite list used in FoFCou.
 Keep R1 ints in memory in canonical form, NReq=5830754.
 Requested convergence on RMS density matrix=1.00D-08 within 128 cycles.
 Requested convergence on MAX density matrix=1.00D-06.
 Requested convergence on             energy=1.00D-06.
 No special actions if energy rises.
 SCF Done:  E(RHF) =  -268.181938159     A.U. after   13 cycles
            NFock= 13  Conv=0.16D-08     -V/T= 2.0019
 Calling FoFJK, ICntrl=      2127 FMM=F ISym2X=0 I1Cent= 0 IOpClX= 0 NMat=1 NMatS=1 NMatT=0.
 ***** Axes restored to original set *****
 -------------------------------------------------------------------
 Center     Atomic                   Forces (Hartrees/Bohr)
 Number     Number              X              Y              Z
 -------------------------------------------------------------------
      1        6           0.002402792    0.001055372    0.001131521
      2        6          -0.001705672   -0.001069217   -0.000797954
      3        6          -0.001277613    0.000583460   -0.000768870
      4        6           0.000496164    0.001159266    0.000191071
      5        6          -0.000336139    0.000406138   -0.001371001
      6        6           0.001147820   -0.000754788    0.001007849
      7        1           0.000089053    0.000520561   -0.000101195
      8        1          -0.000343386   -0.000324553   -0.000280716
      9        1          -0.000121247    0.000347968   -0.000163425
     10        1           0.000363728   -0.000404389    0.000036737
     11        6          -0.000151081   -0.001887118    0.002076237
     12        1           0.000028342    0.000263692   -0.000196045
     13        1           0.000195423    0.000000988   -0.000070165
     14        1          -0.000519795   -0.000128752   -0.000960193
     15        1          -0.000268391    0.000231373    0.000266150
 -------------------------------------------------------------------
 Cartesian Forces:  Max     0.002402792 RMS     0.000851280

 GradGradGradGradGradGradGradGradGradGradGradGradGradGradGradGradGradGrad
 Berny optimization.
 Using GEDIIS/GDIIS optimizer.
 FormGI is forming the generalized inverse of G from B-inverse, IUseBI=4.
 Internal  Forces:  Max     0.002849012 RMS     0.000568344
 Search for a local minimum.
 Step number   3 out of a maximum of   81
 All quantities printed in internal units (Hartrees-Bohrs-Radians)
 Mixed Optimization -- En-DIIS/RFO-DIIS
 Update second derivatives using D2CorX and points    2    3
 DE= -1.04D-03 DEPred=-1.27D-03 R= 8.19D-01
 TightC=F SS=  1.41D+00  RLast= 3.23D-01 DXNew= 8.4853D-01 9.7023D-01
 Trust test= 8.19D-01 RLast= 3.23D-01 DXMaxT set to 8.49D-01
 ITU=  1  1  0
 Use linear search instead of GDIIS.
     Eigenvalues ---    0.00338   0.00745   0.00919   0.01243   0.01355
     Eigenvalues ---    0.01514   0.01793   0.02152   0.02682   0.02694
     Eigenvalues ---    0.04412   0.06377   0.09911   0.11050   0.15135
     Eigenvalues ---    0.15982   0.15989   0.15999   0.16019   0.16120
     Eigenvalues ---    0.21441   0.22095   0.22594   0.24929   0.27483
     Eigenvalues ---    0.27521   0.28472   0.29572   0.36810   0.37230
     Eigenvalues ---    0.37230   0.37230   0.37230   0.37230   0.37237
     Eigenvalues ---    0.37270   0.51664   0.53611   0.62114
 RFO step:  Lambda=-1.41202086D-04 EMin= 3.38123072D-03
 Quartic linear search produced a step of -0.07307.
 Iteration  1 RMS(Cart)=  0.01793451 RMS(Int)=  0.00017825
 Iteration  2 RMS(Cart)=  0.00020846 RMS(Int)=  0.00002736
 Iteration  3 RMS(Cart)=  0.00000001 RMS(Int)=  0.00002736
 Variable       Old X    -DE/DX   Delta X   Delta X   Delta X     New X
                                 (Linear)    (Quad)   (Total)
    R1        2.50034  -0.00285  -0.00122  -0.00331  -0.00452   2.49582
    R2        2.86779  -0.00082   0.00024  -0.00317  -0.00293   2.86486
    R3        2.02880  -0.00035  -0.00008  -0.00071  -0.00080   2.02800
    R4        2.77924   0.00021   0.00041  -0.00101  -0.00059   2.77865
    R5        2.02706  -0.00012  -0.00011  -0.00010  -0.00021   2.02685
    R6        2.50742  -0.00050  -0.00047  -0.00007  -0.00054   2.50689
    R7        2.02668  -0.00022  -0.00014  -0.00028  -0.00042   2.02626
    R8        2.78443  -0.00040  -0.00011  -0.00050  -0.00061   2.78382
    R9        2.02801   0.00008  -0.00024   0.00065   0.00041   2.02842
   R10        2.88478  -0.00058  -0.00052  -0.00034  -0.00087   2.88391
   R11        2.50372  -0.00242  -0.00052  -0.00332  -0.00384   2.49988
   R12        2.05889   0.00066  -0.00052   0.00264   0.00212   2.06101
   R13        2.04644   0.00029  -0.00016   0.00103   0.00087   2.04731
   R14        2.02865   0.00022  -0.00013   0.00079   0.00067   2.02932
   R15        2.02899  -0.00012  -0.00014  -0.00004  -0.00018   2.02881
    A1        2.12262   0.00061   0.00013   0.00353   0.00363   2.12625
    A2        2.11302  -0.00013  -0.00125   0.00142   0.00021   2.11323
    A3        2.04651  -0.00048   0.00119  -0.00513  -0.00391   2.04261
    A4        2.11349  -0.00045  -0.00011  -0.00158  -0.00173   2.11175
    A5        2.11342  -0.00024  -0.00031  -0.00123  -0.00154   2.11188
    A6        2.05627   0.00069   0.00039   0.00279   0.00320   2.05947
    A7        2.11367   0.00079  -0.00009   0.00469   0.00456   2.11823
    A8        2.06049  -0.00014  -0.00012  -0.00054  -0.00064   2.05985
    A9        2.10859  -0.00064   0.00012  -0.00389  -0.00374   2.10485
   A10        2.12447  -0.00105  -0.00038  -0.00048  -0.00094   2.12354
   A11        2.11351   0.00017   0.00011  -0.00139  -0.00126   2.11226
   A12        2.04406   0.00089   0.00032   0.00221   0.00255   2.04661
   A13        2.02814   0.00022   0.00089   0.00281   0.00357   2.03170
   A14        2.12199   0.00006  -0.00098   0.00041  -0.00057   2.12141
   A15        2.13253  -0.00027   0.00008  -0.00266  -0.00258   2.12994
   A16        1.98033  -0.00010  -0.00125   0.00549   0.00414   1.98448
   A17        1.87349   0.00048   0.00004   0.00728   0.00731   1.88080
   A18        1.92915  -0.00020  -0.00022  -0.00583  -0.00600   1.92314
   A19        1.88279   0.00012   0.00064   0.00225   0.00286   1.88565
   A20        1.92143  -0.00008  -0.00076  -0.00328  -0.00400   1.91743
   A21        1.87230  -0.00020   0.00174  -0.00606  -0.00432   1.86799
   A22        2.11922   0.00025  -0.00061   0.00256   0.00195   2.12117
   A23        2.12862  -0.00000  -0.00109   0.00200   0.00091   2.12953
   A24        2.03534  -0.00024   0.00170  -0.00456  -0.00286   2.03248
    D1        0.03820   0.00043   0.00599   0.00834   0.01431   0.05251
    D2       -3.10680   0.00020   0.00408  -0.00002   0.00405  -3.10275
    D3        3.12969   0.00044   0.00870   0.00380   0.01253  -3.14097
    D4       -0.01531   0.00021   0.00679  -0.00455   0.00226  -0.01305
    D5       -0.32562  -0.00024  -0.00571   0.02224   0.01652  -0.30910
    D6        1.75282   0.00017  -0.00563   0.03320   0.02759   1.78041
    D7       -2.49374   0.00010  -0.00364   0.02702   0.02338  -2.47036
    D8        2.86424  -0.00025  -0.00831   0.02644   0.01813   2.88237
    D9       -1.34050   0.00016  -0.00823   0.03740   0.02920  -1.31130
   D10        0.69613   0.00009  -0.00624   0.03122   0.02499   0.72112
   D11        0.14696  -0.00028  -0.00065  -0.02843  -0.02910   0.11786
   D12       -3.02588  -0.00024  -0.00272  -0.01895  -0.02167  -3.04756
   D13       -2.99134  -0.00006   0.00121  -0.02034  -0.01913  -3.01047
   D14        0.11901  -0.00002  -0.00086  -0.01085  -0.01170   0.10730
   D15       -0.00512   0.00004  -0.00446   0.01370   0.00924   0.00412
   D16        3.08376   0.00022  -0.00331   0.02172   0.01841   3.10218
   D17       -3.11460  -0.00002  -0.00233   0.00389   0.00156  -3.11304
   D18       -0.02572   0.00016  -0.00118   0.01191   0.01074  -0.01499
   D19       -0.29580   0.00011   0.00386   0.01847   0.02236  -0.27344
   D20        2.88018  -0.00010   0.00400   0.00074   0.00474   2.88492
   D21        2.89650  -0.00005   0.00275   0.01085   0.01362   2.91012
   D22       -0.21070  -0.00026   0.00289  -0.00688  -0.00400  -0.21470
   D23        0.43902   0.00002   0.00089  -0.03491  -0.03400   0.40502
   D24       -1.63409  -0.00060   0.00117  -0.04883  -0.04766  -1.68174
   D25        2.61132  -0.00039  -0.00086  -0.04107  -0.04195   2.56937
   D26       -2.73719   0.00024   0.00073  -0.01700  -0.01625  -2.75344
   D27        1.47289  -0.00038   0.00101  -0.03092  -0.02990   1.44299
   D28       -0.56489  -0.00016  -0.00102  -0.02317  -0.02419  -0.58909
   D29        0.02447   0.00010  -0.00152   0.01140   0.00987   0.03433
   D30       -3.11397   0.00002  -0.00211   0.00976   0.00763  -3.10635
   D31       -3.08067  -0.00014  -0.00139  -0.00750  -0.00887  -3.08954
   D32        0.06408  -0.00022  -0.00198  -0.00914  -0.01111   0.05297
         Item               Value     Threshold  Converged?
 Maximum Force            0.002849     0.000450     NO 
 RMS     Force            0.000568     0.000300     NO 
 Maximum Displacement     0.061846     0.001800     NO 
 RMS     Displacement     0.017933     0.001200     NO 
 Predicted change in Energy=-7.888957D-05
 GradGradGradGradGradGradGradGradGradGradGradGradGradGradGradGradGradGrad

                          Input orientation:                          
 ---------------------------------------------------------------------
 Center     Atomic      Atomic             Coordinates (Angstroms)
 Number     Number       Type             X           Y           Z
 ---------------------------------------------------------------------
      1          6           0       -2.632799    1.287975    4.814621
      2          6           0       -1.550205    1.327193    5.570119
      3          6           0       -0.341209    2.035645    5.124595
      4          6           0       -0.337707    2.766612    4.017568
      5          6           0       -1.542374    2.910590    3.182002
      6          6           0       -2.665236    1.907613    3.431394
      7          1           0       -3.516109    0.771793    5.138685
      8          1           0       -1.530619    0.853846    6.532383
      9          1           0        0.538137    1.963714    5.733938
     10          1           0        0.537374    3.310448    3.716495
     11          6           0       -1.632591    3.848437    2.253397
     12          1           0       -0.819122    4.520115    2.052624
     13          1           0       -2.518861    3.980427    1.662029
     14          1           0       -2.566037    1.101626    2.703356
     15          1           0       -3.625006    2.378185    3.254928
 ---------------------------------------------------------------------
                    Distance matrix (angstroms):
                    1          2          3          4          5
     1  C    0.000000
     2  C    1.320729   0.000000
     3  C    2.430324   1.470397   0.000000
     4  C    2.844135   2.439773   1.326587   0.000000
     5  C    2.547027   2.865363   2.445811   1.473133   0.000000
     6  C    1.516021   2.480791   2.878268   2.549288   1.526099
     7  H    1.073172   2.087913   3.417237   3.916433   3.506949
     8  H    2.086618   1.072564   2.189341   3.377278   3.931334
     9  H    3.369956   2.189331   1.072252   2.087505   3.426000
    10  H    3.917431   3.424500   2.092791   1.073391   2.184243
    11  C    3.757159   4.167025   3.632858   2.441181   1.322877
    12  H    4.622204   4.806454   3.979698   2.677225   2.095032
    13  H    4.147423   4.821941   4.529207   3.432105   2.099619
    14  H    2.120524   3.049774   3.418281   3.076489   2.132917
    15  H    2.146083   3.281690   3.794247   3.396885   2.150844
                    6          7          8          9         10
     6  C    0.000000
     7  H    2.220116   0.000000
     8  H    3.466109   2.427198   0.000000
     9  H    3.945435   4.267542   2.479733   0.000000
    10  H    3.507982   4.989801   4.270915   2.425648   0.000000
    11  C    2.494159   4.619336   5.223762   4.514245   2.671860
    12  H    3.483433   5.554046   5.832323   4.682885   2.464111
    13  H    2.729219   4.834974   5.871327   5.476570   3.743031
    14  H    1.090639   2.634816   3.974283   4.423067   3.941637
    15  H    1.083391   2.478083   4.177532   4.863028   4.290404
                   11         12         13         14         15
    11  C    0.000000
    12  H    1.073868   0.000000
    13  H    1.073598   1.825634   0.000000
    14  H    2.935771   3.893742   3.061712   0.000000
    15  H    2.671034   3.729126   2.515564   1.747926   0.000000
 Stoichiometry    C7H8
 Framework group  C1[X(C7H8)]
 Deg. of freedom    39
 Full point group                 C1      NOp   1
 Largest Abelian subgroup         C1      NOp   1
 Largest concise Abelian subgroup C1      NOp   1
                         Standard orientation:                         
 ---------------------------------------------------------------------
 Center     Atomic      Atomic             Coordinates (Angstroms)
 Number     Number       Type             X           Y           Z
 ---------------------------------------------------------------------
      1          6           0       -1.234694   -1.138844   -0.089926
      2          6           0       -1.825943    0.041209   -0.137091
      3          6           0       -1.055946    1.281485    0.038649
      4          6           0        0.268219    1.266849    0.117431
      5          6           0        1.034503    0.011877    0.028129
      6          6           0        0.244133   -1.280561    0.212245
      7          1           0       -1.795258   -2.044889   -0.218572
      8          1           0       -2.880033    0.124177   -0.317102
      9          1           0       -1.594951    2.207509    0.079600
     10          1           0        0.827035    2.178652    0.209679
     11          6           0        2.340748    0.011882   -0.180981
     12          1           0        2.896493    0.927143   -0.262452
     13          1           0        2.901433   -0.898410   -0.279034
     14          1           0        0.342772   -1.591430    1.252978
     15          1           0        0.676385   -2.066134   -0.395842
 ---------------------------------------------------------------------
 Rotational constants (GHZ):           5.0431047           2.6917606           1.7992183
 Standard basis: 3-21G (6D, 7F)
 There are    79 symmetry adapted cartesian basis functions of A   symmetry.
 There are    79 symmetry adapted basis functions of A   symmetry.
    79 basis functions,   129 primitive gaussians,    79 cartesian basis functions
    25 alpha electrons       25 beta electrons
       nuclear repulsion energy       269.5588786001 Hartrees.
 NAtoms=   15 NActive=   15 NUniq=   15 SFac= 1.00D+00 NAtFMM=   60 NAOKFM=F Big=F
 Integral buffers will be    131072 words long.
 Raffenetti 1 integral format.
 Two-electron integral symmetry is turned on.
 One-electron integrals computed using PRISM.
 NBasis=    79 RedAO= T EigKep=  2.80D-03  NBF=    79
 NBsUse=    79 1.00D-06 EigRej= -1.00D+00 NBFU=    79
 Initial guess from the checkpoint file:  "toluene_isomer.chk"
 B after Tr=     0.000000    0.000000   -0.000000
         Rot=    1.000000   -0.000757   -0.000317    0.000355 Ang=  -0.10 deg.
 ExpMin= 1.83D-01 ExpMax= 1.72D+02 ExpMxC= 1.72D+02 IAcc=3 IRadAn=         5 AccDes= 0.00D+00
 Harris functional with IExCor=  205 and IRadAn=       5 diagonalized for initial guess.
 HarFok:  IExCor=  205 AccDes= 0.00D+00 IRadAn=         5 IDoV= 1 UseB2=F ITyADJ=14
 ICtDFT=  3500011 ScaDFX=  1.000000  1.000000  1.000000  1.000000
 FoFCou: FMM=F IPFlag=           0 FMFlag=      100000 FMFlg1=           0
         NFxFlg=           0 DoJE=T BraDBF=F KetDBF=T FulRan=T
         wScrn=  0.000000 ICntrl=       500 IOpCl=  0 I1Cent=   200000004 NGrid=           0
         NMat0=    1 NMatS0=      1 NMatT0=    0 NMatD0=    1 NMtDS0=    0 NMtDT0=    0
 Petite list used in FoFCou.
 Keep R1 ints in memory in canonical form, NReq=5830754.
 Requested convergence on RMS density matrix=1.00D-08 within 128 cycles.
 Requested convergence on MAX density matrix=1.00D-06.
 Requested convergence on             energy=1.00D-06.
 No special actions if energy rises.
 SCF Done:  E(RHF) =  -268.182015442     A.U. after   11 cycles
            NFock= 11  Conv=0.94D-08     -V/T= 2.0018
 Calling FoFJK, ICntrl=      2127 FMM=F ISym2X=0 I1Cent= 0 IOpClX= 0 NMat=1 NMatS=1 NMatT=0.
 ***** Axes restored to original set *****
 -------------------------------------------------------------------
 Center     Atomic                   Forces (Hartrees/Bohr)
 Number     Number              X              Y              Z
 -------------------------------------------------------------------
      1        6           0.000540912   -0.000432245   -0.000872251
      2        6          -0.000366065    0.000786734    0.000892697
      3        6           0.000343162   -0.000500742   -0.000619111
      4        6           0.000313692    0.000044907   -0.000146842
      5        6          -0.000203519    0.000051607    0.001041094
      6        6          -0.000162236   -0.000483253   -0.000305021
      7        1          -0.000089871    0.000017587   -0.000024713
      8        1           0.000024005   -0.000079451   -0.000125614
      9        1           0.000042935    0.000102509    0.000047723
     10        1          -0.000159244    0.000106860    0.000252722
     11        6           0.000225305    0.000088977   -0.000433395
     12        1          -0.000038849    0.000040202    0.000034337
     13        1           0.000006475   -0.000089934   -0.000102724
     14        1          -0.000286051    0.000079631    0.000305520
     15        1          -0.000190653    0.000266612    0.000055577
 -------------------------------------------------------------------
 Cartesian Forces:  Max     0.001041094 RMS     0.000360654

 GradGradGradGradGradGradGradGradGradGradGradGradGradGradGradGradGradGrad
 Berny optimization.
 Using GEDIIS/GDIIS optimizer.
 FormGI is forming the generalized inverse of G from B-inverse, IUseBI=4.
 Internal  Forces:  Max     0.000366894 RMS     0.000157688
 Search for a local minimum.
 Step number   4 out of a maximum of   81
 All quantities printed in internal units (Hartrees-Bohrs-Radians)
 Mixed Optimization -- En-DIIS/RFO-DIIS
 Swapping is turned off.
 Update second derivatives using D2CorX and points    2    3    4
 DE= -7.73D-05 DEPred=-7.89D-05 R= 9.80D-01
 TightC=F SS=  1.41D+00  RLast= 1.20D-01 DXNew= 1.4270D+00 3.6081D-01
 Trust test= 9.80D-01 RLast= 1.20D-01 DXMaxT set to 8.49D-01
 ITU=  1  1  1  0
     Eigenvalues ---    0.00215   0.00804   0.00908   0.01239   0.01419
     Eigenvalues ---    0.01575   0.02083   0.02320   0.02680   0.02716
     Eigenvalues ---    0.04343   0.06425   0.10059   0.11286   0.15063
     Eigenvalues ---    0.15946   0.15989   0.15995   0.16025   0.16032
     Eigenvalues ---    0.21447   0.22188   0.22569   0.24974   0.27168
     Eigenvalues ---    0.27542   0.28548   0.29589   0.36866   0.37206
     Eigenvalues ---    0.37230   0.37230   0.37230   0.37230   0.37246
     Eigenvalues ---    0.37596   0.51871   0.54022   0.63525
 En-DIIS/RFO-DIIS/Sim-DIIS IScMMF=       -3 using points:     4    3
 RFO step:  Lambda=-6.13843850D-05.
 DidBck=F Rises=F RFO-DIIS coefs:    1.88178   -0.88178
 Iteration  1 RMS(Cart)=  0.02083630 RMS(Int)=  0.00019628
 Iteration  2 RMS(Cart)=  0.00023941 RMS(Int)=  0.00006469
 Iteration  3 RMS(Cart)=  0.00000002 RMS(Int)=  0.00006469
 Variable       Old X    -DE/DX   Delta X   Delta X   Delta X     New X
                                 (Linear)    (Quad)   (Total)
    R1        2.49582   0.00026  -0.00399   0.00310  -0.00087   2.49494
    R2        2.86486  -0.00034  -0.00258   0.00049  -0.00211   2.86275
    R3        2.02800   0.00006  -0.00070   0.00053  -0.00018   2.02782
    R4        2.77865   0.00017  -0.00052   0.00074   0.00026   2.77891
    R5        2.02685  -0.00008  -0.00018  -0.00010  -0.00028   2.02657
    R6        2.50689  -0.00020  -0.00047  -0.00002  -0.00046   2.50642
    R7        2.02626   0.00006  -0.00037   0.00037  -0.00000   2.02626
    R8        2.78382   0.00009  -0.00054   0.00106   0.00050   2.78432
    R9        2.02842  -0.00015   0.00036  -0.00053  -0.00017   2.02825
   R10        2.88391   0.00021  -0.00077   0.00190   0.00109   2.88500
   R11        2.49988   0.00037  -0.00339   0.00280  -0.00059   2.49929
   R12        2.06101  -0.00029   0.00187  -0.00172   0.00015   2.06116
   R13        2.04731   0.00028   0.00077   0.00031   0.00108   2.04839
   R14        2.02932  -0.00001   0.00059  -0.00032   0.00027   2.02959
   R15        2.02881   0.00004  -0.00016   0.00021   0.00005   2.02886
    A1        2.12625   0.00028   0.00320   0.00092   0.00392   2.13017
    A2        2.11323  -0.00007   0.00018  -0.00040  -0.00015   2.11308
    A3        2.04261  -0.00021  -0.00344   0.00009  -0.00329   2.03932
    A4        2.11175  -0.00007  -0.00153   0.00087  -0.00080   2.11096
    A5        2.11188   0.00002  -0.00135   0.00068  -0.00066   2.11123
    A6        2.05947   0.00005   0.00282  -0.00131   0.00153   2.06100
    A7        2.11823  -0.00009   0.00402  -0.00251   0.00141   2.11964
    A8        2.05985   0.00009  -0.00057   0.00082   0.00028   2.06013
    A9        2.10485  -0.00001  -0.00330   0.00137  -0.00191   2.10295
   A10        2.12354  -0.00006  -0.00083   0.00086  -0.00012   2.12342
   A11        2.11226  -0.00006  -0.00111  -0.00033  -0.00137   2.11088
   A12        2.04661   0.00011   0.00225  -0.00083   0.00148   2.04810
   A13        2.03170   0.00028   0.00315   0.00111   0.00399   2.03569
   A14        2.12141  -0.00019  -0.00051  -0.00123  -0.00168   2.11973
   A15        2.12994  -0.00009  -0.00228  -0.00023  -0.00245   2.12750
   A16        1.98448  -0.00036   0.00365  -0.00111   0.00226   1.98673
   A17        1.88080  -0.00009   0.00645  -0.00449   0.00198   1.88278
   A18        1.92314   0.00014  -0.00529   0.00215  -0.00306   1.92009
   A19        1.88565   0.00031   0.00252   0.00148   0.00402   1.88967
   A20        1.91743   0.00005  -0.00352   0.00046  -0.00298   1.91446
   A21        1.86799  -0.00003  -0.00381   0.00156  -0.00225   1.86573
   A22        2.12117   0.00003   0.00172  -0.00060   0.00112   2.12229
   A23        2.12953  -0.00003   0.00080  -0.00040   0.00040   2.12994
[...]
 Beta(0;0,0):
               (au)            (10**-30 esu)      (10**-50 SI)
   || (z)     0.783393D+01      0.676791D-01      0.251184D-01
   _|_(z)     0.261131D+01      0.225597D-01      0.837280D-02
   x          0.551867D+02      0.476770D+00      0.176949D+00
   y          0.190563D+02      0.164631D+00      0.611012D-01
   z          0.391697D+02      0.338395D+00      0.125592D+00
   ||         0.140613D+02      0.121478D+00      0.450855D-01
   xxx        0.123724D+02      0.106887D+00      0.396702D-01
   xxy        0.247659D+02      0.213958D+00      0.794085D-01
   yxy       -0.189787D+01     -0.163961D-01     -0.608524D-02
   yyy       -0.102508D+02     -0.885589D-01     -0.328678D-01
   xxz        0.111046D+02      0.959351D-01      0.356053D-01
   yxz        0.729298D+01      0.630057D-01      0.233839D-01
   yyz        0.237100D+02      0.204836D+00      0.760228D-01
   zxz        0.792109D+01      0.684320D-01      0.253979D-01
   zyz       -0.816304D+01     -0.705223D-01     -0.261737D-01
   zzz       -0.217580D+02     -0.187972D+00     -0.697641D-01

 ----------------------------------------------------------------------
 1\1\GINC-IISERK51\Freq\RHF\3-21G\C7H8\GAUSSIAN\09-Jun-2025\0\\#N Geom=
 AllCheck Guess=TCheck SCRF=Check GenChk RHF/3-21G Freq\\Optimisation\\
 0,1\C,-2.6189449618,1.2604865566,4.8059422067\C,-1.5369020183,1.301992
 5622,5.5618081101\C,-0.3452335908,2.052690337,5.139778853\C,-0.3505842
 617,2.7971658191,4.0423616191\C,-1.5429987853,2.9154640687,3.186875063
 \C,-2.6882502,1.9382370892,3.4529818793\H,-3.4873383054,0.7101164485,5
 .1146349008\H,-1.5029713268,0.7917037009,6.5044366321\H,0.5292526854,1
 .9988394884,5.757989802\H,0.5131036089,3.367270771,3.7580987563\C,-1.6
 069154602,3.8144554594,2.2174835493\H,-0.7858342304,4.4738346881,2.007
 7073012\H,-2.4785045346,3.9250287645,1.6001485739\H,-2.6635431301,1.16
 30100198,2.6880355454\H,-3.636698479,2.4539225467,3.3498497278\\Versio
 n=EM64L-G16RevB.01\State=1-A\HF=-268.1820743\RMSD=8.348e-10\RMSF=6.516
 e-06\ZeroPoint=0.137224\Thermal=0.1429181\Dipole=-0.1159214,-0.1344693
 ,0.0210996\DipoleDeriv=-0.0026608,0.057991,0.0395586,0.0562618,-0.1448
 013,-0.1269965,0.1581927,-0.0048551,-0.0143686,-0.1441591,0.0213251,-0
 .0170914,0.1164235,-0.020589,-0.1576556,-0.1710059,-0.273507,0.1130956
 ,0.236182,0.2573275,-0.075701,0.0567841,-0.1000163,-0.059694,0.1455993
 ,0.0266229,-0.1157645,-0.0254638,-0.0547537,0.1091404,0.0398296,-0.114
 7413,-0.0790248,0.0360809,-0.0240503,-0.0803087,-0.0045902,0.0028526,0
 .0685056,0.0270854,0.1285177,-0.0922689,-0.0017194,-0.1201584,0.074025
 4,0.0384384,-0.1049543,0.00118,-0.1367957,0.05437,0.1493544,-0.0426239
 ,-0.01271,0.1536062,-0.040268,-0.1112427,0.0410169,-0.0987114,0.069007
 8,0.0706322,0.0180615,0.0776325,0.0331066,0.0647903,-0.0343354,-0.0244
 966,-0.0344336,0.0877449,0.1220042,-0.0133502,0.1315808,-0.0636559,-0.
 0539983,-0.0244707,-0.0934322,-0.0208831,0.1178049,0.0499433,-0.097678
 4,0.0502096,0.0273645,-0.0436959,-0.0603906,-0.0267407,-0.1068552,0.06
 98481,0.06347,0.024983,0.0775559,0.0676766,0.0477563,0.1818677,0.04558
 79,0.1281084,-0.2787566,-0.0643197,0.1289058,-0.013859,-0.3281076,-0.0
 332122,-0.119496,0.0017434,-0.0869871,0.0472617,0.0881302,-0.0275871,0
 .0592706,0.1042017,-0.0420682,-0.0028759,-0.116063,-0.0393507,0.105733
 3,0.0417619,-0.0762545,0.0798969,0.0337878,0.0755751,-0.0449093,0.0440
 653,0.0064462,-0.0495258,-0.0481544,-0.047164,-0.0806447,-0.047401,-0.
 0726256,0.0360648,0.0027267,0.0930778,0.0281419,0.0428178,-0.0344397,0
 .0270153,0.0427419\Polar=63.1510046,11.5518776,56.1806985,10.4385037,-
 32.7562006,73.4926303\PolarDeriv=-10.1186139,-1.787646,-0.8238156,-0.0
 98889,1.1638132,-0.7398923,5.6041746,-2.9395543,-3.5172531,-2.3541274,
 -1.8091661,-1.6760486,-5.1265389,-5.9385509,-3.5991514,-2.456301,-1.95
 08612,0.0136393,14.9564398,8.2184177,6.2913971,-4.1005482,-3.9610018,0
 .7369752,-0.7151536,6.976068,6.1925636,-0.9615618,-0.1700021,2.8425478
 ,3.3435228,3.1384469,0.7177177,3.615296,3.2762981,-1.1346516,-6.406721
 9,-5.7798977,-1.2828977,4.3932929,1.091535,-2.3110508,-3.2717082,-4.36
 69227,-17.432061,1.7765303,11.3695123,-2.7482452,2.9692992,5.1844484,5
 .799429,-6.110647,-10.3923036,16.48855,0.0689008,0.4657486,-9.9847405,
 -1.7626242,9.0360818,-7.6892241,-0.4363182,0.5087446,13.333963,2.11091
 28,-8.9836469,2.7858025,-2.9743967,-2.082066,-7.5823754,3.0663042,14.4
 807483,-23.3007023,0.8419443,-0.7074486,10.1908212,1.6964264,-8.891317
 4,8.3540547,1.4384751,2.6574216,-13.5717477,-3.2847064,9.7361307,-4.64
 60522,0.3057079,0.064473,6.4359699,0.6264042,-14.1845618,22.6579553,3.
 4719975,-2.3562274,-0.4877703,0.1317486,-0.0172932,-0.7372686,-5.00492
 35,1.1922353,4.7689864,0.6626205,1.9193317,1.3187943,1.0909893,1.61067
 46,4.392101,1.5247166,3.2938056,0.0455995,-6.5319303,-3.8452588,-2.319
 056,2.1166827,1.150989,-1.3152552,-3.0506721,-2.8352245,-3.3244965,1.2
 963547,1.6784332,-0.3062226,1.0591427,1.1998839,0.9579023,-2.173528,-1
 .2452597,1.3893719,0.7103402,-0.2341421,0.4108744,1.5684749,-0.0352071
 ,-0.0121731,0.3884258,-0.1479505,-3.3320869,-0.5608348,2.9810122,-2.93
 13334,0.5938956,-0.525967,1.5109579,0.4521748,-3.787845,8.7663213,6.37
 62914,-1.2897194,-0.2393316,4.2388781,-0.2906697,3.0701685,-0.6451653,
 1.3431266,0.3876905,0.4429378,1.2120853,-0.9046239,2.6268203,-0.072263
 6,1.2798368,3.447001,-1.0354581,4.0397263,6.4943067,2.6240714,1.498069
 8,-1.0527472,-0.248221,-0.1644755,2.5034264,2.6728535,1.9128753,-0.471
 6603,-0.7469082,1.5850849,-1.233968,-0.2138991,-0.6690494,1.1609656,0.
 9043009,-0.1994682,0.0580112,-0.1289969,-5.6981724,0.1399765,1.1218795
 ,4.1355438,-1.141914,-3.5184519,14.893486,3.1311489,-9.4502663,2.77497
 66,1.1865565,-1.2805218,-1.9278564,1.9290325,9.8641253,-18.707823,3.58
 13614,2.9776623,3.0890678,-2.1557279,-1.4330104,0.2791639,1.176939,2.9
 419521,4.1807151,-0.9261378,-2.0654557,2.1600874,-1.0034461,-0.0790587
 ,-1.7199026,0.920461,2.399448,-1.4898471,-4.0177532,1.939675,-0.218864
 7,-3.3842312,1.2838219,-3.4028789,0.8236477,-0.8446241,1.0516841,-0.15
 62332,-2.1200007,1.3826215,-1.2985758,0.6332391,-1.7253864,-3.0367315,
 1.8066371,-4.4297787,-1.4403505,-1.5908785,0.1087455,-1.356667,-0.1400
 907,0.2801513,-0.0154491,-1.3541054,-6.5950347,-0.613321,-3.1018558,-1
 .6941879,-0.8586644,-1.233191,-3.1993903,-0.9700544,-3.5988173,-4.1108
 017,-8.0442236,1.4946404,-0.5343268,-0.3740453,0.1686909,-0.483839,2.3
 462153,-2.2855682,1.0507158,-0.0919224,-0.4492037,0.0567989,-0.6803445
 ,-0.4056477,-0.6708028,-1.9950941,0.1697435,-0.0280911\HyperPolar=-2.2
 451406,22.4432656,2.3652848,-8.8554287,0.9794146,-2.6782165,-11.990221
 4,0.1222159,-28.2935536,29.2564312\Quadrupole=1.7942824,-1.7630977,-0.
 0311847,1.889178,1.5214157,-2.2615617\PG=C01 [X(C7H8)]\NImag=0\\0.8696
 2248,0.18631467,0.34161632,0.20056802,-0.13579571,0.59973229,-0.450585
 92,-0.03051878,-0.23452545,0.74619715,-0.02666863,-0.10125406,0.015806
 51,0.11711594,0.34197644,-0.23771317,0.01349784,-0.28766122,0.23366145
 ,-0.21498847,0.73092555,-0.04660863,-0.02567567,-0.00043796,-0.1943948
 1,-0.05981624,0.02550594,0.63886677,-0.01974627,0.00715767,-0.00487156
 ,-0.05301917,-0.12701446,0.03771436,0.08841583,0.42436797,-0.01153592,
 -0.01030513,0.02055583,0.01135207,0.03215035,-0.12934717,0.15317002,-0
 .32040780,0.74574798,-0.00211268,-0.00173651,0.00178915,0.00406171,-0.
 02495290,0.03305532,-0.13829697,-0.01986555,-0.00996899,0.62322982,0.0
 0462763,0.00107287,0.00369970,-0.01627558,-0.01257667,0.02598004,-0.01
 456160,-0.24740439,0.23844686,0.17331360,0.49515600,-0.00992029,0.0003
 8390,-0.00563092,0.02260106,0.02157276,-0.00491557,-0.01985222,0.22959
 318,-0.43417877,0.02843256,-0.35751558,0.69288463,0.00582192,0.0005995
 5,0.00771223,-0.00712960,0.00149930,-0.00167853,0.00991596,0.01086080,
 -0.01228295,-0.20083219,-0.01257675,-0.05492834,0.51028498,-0.01321622
 ,-0.01434909,0.00571054,0.00295543,-0.00429817,-0.00584610,0.02536214,
 0.00281950,0.02407252,-0.00868396,-0.10163098,0.01581054,0.07637793,0.
 57871972,0.03555732,0.02457464,-0.00428560,-0.00423002,-0.00778845,-0.
 00227195,-0.03317819,0.01765582,-0.03006143,-0.05711164,0.01346495,-0.
 13475290,0.10911592,-0.34536880,0.63785378,-0.10890737,-0.00656568,-0.
 00089694,0.00378518,0.01401412,-0.03601164,0.00157481,0.00431865,0.001
 91923,-0.02424434,-0.02071236,0.00433277,-0.14820713,-0.04482523,0.001
 68499,0.59285581,-0.00346698,-0.11302753,0.04817796,0.00053641,0.01143
 129,0.00204495,0.00381204,-0.00796353,-0.00283073,-0.00128131,0.007071
 25,-0.00033428,-0.04139722,-0.12839444,0.01696323,-0.05372643,0.552196
 58,-0.01060395,0.04205310,-0.17534698,-0.00942851,0.01394935,-0.023437
 21,0.00600831,-0.00055560,-0.00438644,-0.01445029,-0.01140784,0.010882
 46,0.00300939,0.01585247,-0.10023853,0.02453313,0.02375351,0.53484777,
 -0.26448117,-0.12996603,0.06500644,-0.02029390,-0.02028108,0.01155892,
 -0.00036135,-0.00219238,-0.00645831,0.00024856,0.00058295,0.00007235,0
 .00076960,0.00064710,-0.00181010,0.00507560,0.00263007,-0.00376478,0.2
 7936923,-0.13351106,-0.13508323,0.05047617,-0.00030999,0.00848804,0.00
 492957,-0.00372321,0.00940728,0.00462070,0.00074119,-0.00035863,-0.000
 70998,0.00143905,0.00096857,0.00350916,-0.01288334,-0.00419087,0.00392
 403,0.14608898,0.12842894,0.07026426,0.05354340,-0.09143473,-0.0224493
 4,-0.01046216,0.01244898,-0.00456773,0.00542984,0.00017948,-0.00036976
 ,-0.00041050,-0.00037834,-0.00325954,0.00105751,-0.00551781,0.02613263
 ,0.01746984,-0.00435039,-0.06826167,-0.06204524,0.08843894,0.00403169,
 0.01589244,-0.03299711,-0.06924380,-0.00201340,-0.00939183,0.00495996,
 -0.01551807,0.02820441,-0.00565916,-0.00269244,-0.00024602,-0.00055735
 ,-0.00013541,0.00011093,-0.00219395,-0.00521912,-0.00298331,-0.0002581
 4,0.00297067,0.00184007,0.06799655,-0.00318701,0.00834002,-0.00099454,
 -0.00031291,-0.12577221,0.13521671,0.00218949,-0.00428335,0.01670874,-
 0.00348567,-0.00009518,0.00020435,-0.00019312,0.00037212,-0.00077021,-
 0.00503544,0.00973327,0.00427287,0.00333609,-0.00603953,-0.00398871,0.
 00598318,0.11894957,0.00148369,0.01379054,-0.01466428,-0.01199741,0.13
 407901,-0.30040299,-0.00420666,0.00280173,-0.00371566,0.00147478,0.000
 68712,0.00093218,-0.00013824,-0.00055351,0.00038219,-0.00501948,0.0042
 4200,0.00379296,0.00135862,-0.00431572,-0.00102442,0.01630248,-0.15082
 308,0.31559963,-0.00299629,-0.00359757,0.00334644,-0.01732605,0.003297
 42,-0.01942972,-0.27208885,0.00799994,-0.14694233,0.00552975,-0.003417
 48,0.00188254,0.00232086,-0.00421014,-0.00118896,0.00039691,0.00024788
 ,0.00056374,-0.00104154,-0.00004615,-0.00089413,0.00070987,-0.00000397
 ,0.00076043,0.28419699,-0.00277177,-0.00134392,0.00262384,-0.01705900,
 0.00557137,-0.01140604,0.00590144,-0.05907624,0.01586969,0.01840446,0.
 00708181,0.01701177,-0.00482923,0.00635651,0.00827916,0.00032338,-0.00
 035388,0.00006196,-0.00070314,-0.00027782,-0.00067219,0.00074875,-0.00
 008848,-0.00025603,-0.00362425,0.04800916,0.00186230,0.00207374,-0.000
 71771,0.01154084,0.00124145,0.01029739,-0.14417773,0.01752517,-0.16686
 302,-0.03090130,0.00244184,-0.01201636,0.00023784,0.00859941,0.0012220
 1,0.00051274,-0.00006197,-0.00003132,0.00050054,0.00001904,0.00035941,
 -0.00038155,-0.00082413,0.00052915,0.16018327,-0.02661830,0.17058622,0
 .00036513,0.00083492,-0.00060859,0.00254809,-0.00269342,-0.00266346,0.
 00540703,0.00063461,-0.00423770,-0.26452736,-0.13365780,0.06102401,-0.
 01973303,-0.01911066,0.00965046,-0.00162841,0.00207253,-0.00307199,-0.
 00017161,0.00037930,0.00034899,0.00018109,0.00011224,-0.00009329,0.000
 18604,0.00261683,0.00213150,0.27663167,0.00070037,-0.00044995,-0.00017
 822,-0.00142610,0.00687055,0.00809257,-0.02107064,-0.00269676,0.005789
 16,-0.13232855,-0.14346260,0.05280440,0.00139871,0.00493639,0.00066557
 ,0.00068002,0.00198425,0.00107646,0.00036852,-0.00101500,-0.00057059,-
 0.00102621,-0.00055934,0.00021135,0.00285526,-0.00522113,-0.00401114,0
 .14864049,0.13927965,0.00039768,-0.00020689,-0.00039968,-0.00446270,0.
 00720859,-0.00021271,0.02784849,0.02118861,-0.00302330,0.05959011,0.05
 015764,-0.08314397,-0.02065973,-0.01055980,0.00665114,-0.00300758,0.00
 248493,-0.00174857,0.00045340,-0.00075287,-0.00024781,0.00113964,0.000
 60620,-0.00034895,0.00161147,-0.00440433,-0.00193023,-0.06231675,-0.06
 327908,0.08347635,-0.00560899,-0.00317576,-0.00184372,0.00001134,-0.00
 085764,0.00219791,-0.00908052,-0.00194972,-0.00405793,0.00353860,0.027
 63064,-0.03603011,-0.13214739,0.00135292,-0.03109616,0.00358388,-0.026
 11685,0.02306421,0.00032874,-0.00097090,0.00189450,0.00033136,0.000194
 05,0.00002040,0.00012760,0.00083814,-0.00154224,0.00091920,0.00131088,
 -0.00009365,0.64960885,-0.00254130,-0.00148512,0.00011947,-0.00280132,
 -0.00128515,0.00049037,-0.00030823,0.00506821,-0.00514243,0.00672865,0
 .00012022,0.01734395,-0.00223709,-0.32881282,0.26083436,-0.00513291,-0
 .01780782,0.02098080,0.00004880,-0.00030971,0.00118604,0.00011490,-0.0
 0006119,0.00005852,0.00024756,-0.00011691,-0.00047722,-0.00005658,-0.0
 0026930,-0.00215911,0.13553536,0.57512973,-0.00192659,-0.00003206,-0.0
 0111489,0.00263416,0.00088726,0.00099913,-0.00543839,-0.00489837,0.004
 50690,-0.01394348,0.02933200,-0.02881633,-0.02663991,0.26398412,-0.365
 20369,0.00157426,0.00898513,0.00252461,0.00018331,-0.00013277,0.000202
 22,0.00014783,0.00004888,-0.00010071,0.00005369,-0.00018483,-0.0008407
 6,0.00074913,-0.00059953,0.00070803,0.15298636,-0.36845824,0.61332664,
 0.00055282,0.00013162,-0.00033777,-0.00012235,0.00009649,0.00031808,0.
 00045523,-0.00001971,0.00006921,-0.00025228,0.00389775,0.00149533,0.00
 445043,0.00229679,-0.00439966,0.00198929,-0.00158108,-0.00294763,0.000
 09488,-0.00018448,-0.00015489,0.00003091,0.00000638,0.00004386,0.00012
 050,-0.00032824,-0.00007328,0.00047203,-0.00010440,0.00021314,-0.24508
 886,-0.15055110,0.04000059,0.25346967,-0.00204593,-0.00070966,-0.00075
 943,0.00055867,-0.00015630,-0.00018390,-0.00029935,-0.00010378,0.00024
 385,0.00099599,-0.00376107,-0.00603356,-0.02374895,-0.01136706,0.00609
 108,-0.00001086,0.00355406,0.00861007,-0.00002494,0.00002364,0.0007621
 1,0.00008989,0.00006373,0.00005043,-0.00014379,0.00045587,0.00029904,0
 .00111270,0.00061237,0.00060934,-0.14440398,-0.16953351,0.04682119,0.1
 6413160,0.17424086,0.00016616,0.00036401,0.00011882,0.00054068,-0.0001
 0014,-0.00031070,-0.00046718,-0.00031077,0.00046088,0.00353586,-0.0041
 5679,-0.00396741,0.02365156,0.02047912,0.00078696,-0.00419113,0.005888
 64,0.00252216,-0.00017426,0.00037407,-0.00004373,-0.00008131,0.0000134
 6,0.00001164,-0.00020711,0.00044991,0.00026686,-0.00078696,0.00030404,
 -0.00001699,0.03343135,0.04372144,-0.07018342,-0.04018667,-0.05660117,
 0.06360049,-0.00004532,0.00007627,-0.00032306,0.00032032,-0.00025131,-
 0.00004417,-0.00038998,-0.00000419,0.00020738,0.00257125,-0.00317585,-
 0.00322301,0.00268941,-0.00445909,0.00079433,-0.00002208,0.00130473,0.
 00292867,-0.00002762,0.00010197,0.00010625,0.00004518,0.00003540,-0.00
 000963,-0.00016311,0.00053523,0.00025919,0.00051092,0.00003184,0.00033
 091,-0.26766680,0.02000960,-0.14803422,-0.01626588,0.00343889,-0.01579
 303,0.27763099,0.00040175,-0.00000293,0.00026918,-0.00044416,0.0005371
 0,-0.00001718,0.00195654,0.00037024,0.00032188,-0.00484420,0.00313404,
 0.00850259,0.02225049,0.00458610,0.01783211,0.00243345,-0.00231010,-0.
 00428795,0.00005430,-0.00012921,-0.00028378,-0.00006544,-0.00002662,-0
 .00001316,0.00032102,-0.00106514,-0.00017132,0.00021845,-0.00019762,-0
 .00007024,0.01422575,-0.06272303,0.02539184,-0.01746916,0.00573559,-0.
 01138112,-0.01880421,0.05324281,0.00092782,0.00000035,-0.00021210,-0.0
 0054844,0.00007126,0.00089935,-0.00118589,-0.00019324,-0.00087433,-0.0
 0097489,0.00913339,0.00387225,-0.02771517,0.00353738,-0.01022887,0.000
 50364,-0.00364609,-0.00255789,0.00010463,-0.00015880,-0.00014447,0.000
 07280,0.00006490,-0.00000209,0.00040632,-0.00071931,-0.00088434,-0.000
 09676,-0.00035294,-0.00001273,-0.14190916,0.02860263,-0.15698938,0.006
 04366,0.00068556,0.00725132,0.16309332,-0.03671791,0.15987020,0.000245
 41,-0.00137729,-0.00409760,0.00054486,0.00050993,-0.00034152,0.0000448
 8,0.00054015,0.00006151,-0.00106959,-0.00009574,0.00190852,-0.00095827
 ,-0.02584960,-0.02004965,-0.05440710,0.00407278,0.00572147,-0.00006015
 ,-0.00025781,-0.00011802,-0.00020530,0.00027809,0.00005432,0.00007582,
 -0.00018334,-0.00014434,-0.00017400,-0.00025916,-0.00041265,-0.0005430
 1,0.00078741,-0.00040461,-0.00081385,0.00133447,0.00138169,0.00073778,
 -0.00083954,-0.00067972,0.05811631,0.00036330,0.01705833,0.01426647,0.
 00134825,-0.00113178,0.00208853,-0.00165311,0.00018729,0.00059660,-0.0
 0030008,-0.00122342,0.00039628,-0.00272422,-0.02110845,-0.01415319,0.0
 0698713,-0.19026599,-0.13296500,-0.00007542,-0.00018210,-0.00116382,0.
 00075291,-0.00136058,-0.00063149,0.00004104,-0.00002769,-0.00006284,-0
 .00021425,-0.00012179,-0.00030836,-0.00253228,0.00144433,0.00019509,-0
 .00063307,0.00104520,0.00144304,0.00086433,-0.00130318,-0.00065343,-0.
 00388167,0.21184264,-0.00264076,-0.02311547,-0.03268848,0.00258976,0.0
 0330773,-0.00217995,0.00098688,-0.00151312,-0.00006202,-0.00022686,-0.
 00023678,-0.00041948,-0.00081057,0.00690687,0.00594654,0.00746537,-0.1
 3754798,-0.18598451,0.00044051,0.00103271,0.00037831,-0.00151686,0.002
 15935,0.00080383,-0.00008688,-0.00001326,0.00000241,-0.00005759,-0.000
 00685,0.00002526,0.00161780,0.00170481,0.00060658,0.00000570,-0.000249
 31,-0.00013156,-0.00009242,-0.00007897,-0.00017000,-0.00862293,0.14531
 865,0.21066613,0.00070694,-0.00123618,-0.00235408,0.00162777,0.0010014
 1,0.00097641,-0.00000353,-0.00045490,0.00050030,-0.00218512,-0.0028869
 6,0.00245085,-0.02668819,0.01149800,-0.00384957,-0.26965110,0.11811254
 ,-0.01857846,0.00080888,0.00016578,-0.00051161,-0.00016893,0.00008320,
 -0.00003386,-0.00004850,0.00013073,-0.00000778,-0.00098679,0.00022899,
 -0.00063177,0.00168600,0.00015624,-0.00194214,0.00090746,-0.00098441,-
 0.00081968,0.00007493,0.00060497,0.00195783,-0.00153380,0.00165714,0.0
 0094885,0.29545399,0.01474742,-0.00753973,0.00144962,-0.00034767,-0.00
 138599,0.00238674,-0.00052944,-0.00083566,-0.00013426,-0.00270515,-0.0
 0312324,0.00096968,-0.02671923,0.01120210,-0.00178942,0.12013551,-0.12
 165656,0.01468177,-0.00051382,0.00026963,0.00014825,0.00011736,0.00082
 776,0.00067228,0.00003324,0.00009647,0.00002723,-0.00088938,0.00031027
 ,-0.00051461,-0.00108061,0.00064208,-0.00133971,0.00031061,-0.00009995
 ,-0.00048776,0.00029640,0.00015194,0.00034626,0.02522132,-0.01485281,0
 .00233163,-0.12807655,0.13599369,-0.03688659,0.01917374,-0.00625034,0.
 00272184,0.00306495,-0.00483092,-0.00000769,0.00084173,0.00106106,0.00
 006945,0.00038396,-0.00035148,0.00438603,-0.00368227,-0.00028185,-0.01
 953198,0.01441085,-0.05648811,0.00079040,-0.00077008,0.00113435,-0.000
 22017,-0.00189478,-0.00179248,-0.00005880,-0.00002203,0.00002029,0.000
 02901,0.00005479,0.00022416,0.00136045,0.00119461,0.00037505,-0.000089
 65,-0.00034528,-0.00036532,-0.00020052,0.00070402,0.00018309,0.0257435
 1,-0.01436652,0.00320696,0.02189471,-0.01874769,0.06415555\\-0.0000014
 1,0.00001405,-0.00001304,0.00000291,-0.00000726,0.00000584,-0.00000088
 ,0.00001127,0.00000845,-0.00000224,-0.00000619,-0.00000595,-0.00001269
 ,0.00001048,0.00001897,0.00000973,-0.00000726,-0.00000067,-0.00000030,
 -0.00000359,0.00000128,0.00000013,0.00000083,-0.00000326,0.00000401,-0
 .00000296,-0.00000516,0.00000103,-0.00000126,0.00000198,0.00000911,-0.
 00000978,-0.00000774,-0.00000127,-0.00000088,-0.00000011,-0.00000286,0
 .00000506,0.00000178,-0.00000333,-0.00000171,0.00000054,-0.00000193,-0
 .00000080,-0.00000292\\\@


 THE MORE ACCURATE THE CALCULATIONS BECOME, THE MORE THE CONCEPTS
 TEND TO VANISH INTO THIN AIR.
     -- R.S. MULLIKEN, J.C.P. 43,S2(1965)
 Job cpu time:       0 days  0 hours  0 minutes  3.3 seconds.
 Elapsed time:       0 days  0 hours  0 minutes  3.2 seconds.
 File lengths (MBytes):  RWF=     18 Int=      0 D2E=      0 Chk=      2 Scr=      1
 Normal termination of Gaussian 16 at Mon Jun  9 22:10:26 2025.
