 Entering Gaussian System, Link 0=g16
 Input=/home/gaussian/Documents/Summer_Internship/Acid_Base_adduct/Acid/BF3/MX4-/BF4_ion_opt.com
 Output=/home/gaussian/Documents/Summer_Internship/Acid_Base_adduct/Acid/BF3/MX4-/BF4_ion_opt.log
 Initial command:
 /usr/local/g16/l1.exe "/home/gaussian/tmp/Gau-77601.inp" -scrdir="/home/gaussian/tmp/"
 Entering Link 1 = /usr/local/g16/l1.exe PID=     77604.
  
 Copyright (c) 1988-2017, Gaussian, Inc.  All Rights Reserved.
  
 This is part of the Gaussian(R) 16 program.  It is based on
 the Gaussian(R) 09 system (copyright 2009, Gaussian, Inc.),
 the Gaussian(R) 03 system (copyright 2003, Gaussian, Inc.),
 the Gaussian(R) 98 system (copyright 1998, Gaussian, Inc.),
 the Gaussian(R) 94 system (copyright 1995, Gaussian, Inc.),
 the Gaussian 92(TM) system (copyright 1992, Gaussian, Inc.),
 the Gaussian 90(TM) system (copyright 1990, Gaussian, Inc.),
 the Gaussian 88(TM) system (copyright 1988, Gaussian, Inc.),
 the Gaussian 86(TM) system (copyright 1986, Carnegie Mellon
 University), and the Gaussian 82(TM) system (copyright 1983,
 Carnegie Mellon University). Gaussian is a federally registered
 trademark of Gaussian, Inc.
  
 This software contains proprietary and confidential information,
 including trade secrets, belonging to Gaussian, Inc.
  
 This software is provided under written license and may be
 used, copied, transmitted, or stored only in accord with that
 written license.
  
 The following legend is applicable only to US Government
 contracts under FAR:
  
                    RESTRICTED RIGHTS LEGEND
  
 Use, reproduction and disclosure by the US Government is
 subject to restrictions as set forth in subparagraphs (a)
 and (c) of the Commercial Computer Software - Restricted
 Rights clause in FAR 52.227-19.
  
 Gaussian, Inc.
 340 Quinnipiac St., Bldg. 40, Wallingford CT 06492
  
  
 ---------------------------------------------------------------
 Warning -- This program may not be used in any manner that
 competes with the business of Gaussian, Inc. or will provide
 assistance to any competitor of Gaussian, Inc.  The licensee
 of this program is prohibited from giving any competitor of
 Gaussian, Inc. access to this program.  By using this program,
 the user acknowledges that Gaussian, Inc. is engaged in the
 business of creating and licensing software in the field of
 computational chemistry and represents and warrants to the
 licensee that it is not a competitor of Gaussian, Inc. and that
 it will not use this program in any manner prohibited above.
 ---------------------------------------------------------------
  

 Cite this work as:
 Gaussian 16, Revision B.01,
 M. J. Frisch, G. W. Trucks, H. B. Schlegel, G. E. Scuseria, 
 M. A. Robb, J. R. Cheeseman, G. Scalmani, V. Barone, 
 G. A. Petersson, H. Nakatsuji, X. Li, M. Caricato, A. V. Marenich, 
 J. Bloino, B. G. Janesko, R. Gomperts, B. Mennucci, H. P. Hratchian, 
 J. V. Ortiz, A. F. Izmaylov, J. L. Sonnenberg, D. Williams-Young, 
 F. Ding, F. Lipparini, F. Egidi, J. Goings, B. Peng, A. Petrone, 
 T. Henderson, D. Ranasinghe, V. G. Zakrzewski, J. Gao, N. Rega, 
 G. Zheng, W. Liang, M. Hada, M. Ehara, K. Toyota, R. Fukuda, 
 J. Hasegawa, M. Ishida, T. Nakajima, Y. Honda, O. Kitao, H. Nakai, 
 T. Vreven, K. Throssell, J. A. Montgomery, Jr., J. E. Peralta, 
 F. Ogliaro, M. J. Bearpark, J. J. Heyd, E. N. Brothers, K. N. Kudin, 
 V. N. Staroverov, T. A. Keith, R. Kobayashi, J. Normand, 
 K. Raghavachari, A. P. Rendell, J. C. Burant, S. S. Iyengar, 
 J. Tomasi, M. Cossi, J. M. Millam, M. Klene, C. Adamo, R. Cammi, 
 J. W. Ochterski, R. L. Martin, K. Morokuma, O. Farkas, 
 J. B. Foresman, and D. J. Fox, Gaussian, Inc., Wallingford CT, 2016.
 
 ******************************************
 Gaussian 16:  EM64L-G16RevB.01 20-Dec-2017
                16-Jun-2025 
 ******************************************
 %chk=BF4_ion_opt.chk
 ----------------------------------------------
 # opt freq hf/3-21g pop=full geom=connectivity
 ----------------------------------------------
 1/18=20,19=15,38=1,57=2/1,3;
 2/9=110,12=2,17=6,18=5,40=1/2;
 3/5=5,11=9,25=1,30=1,71=1/1,2,3;
 4//1;
 5/5=2,38=5/2;
 6/7=3,28=1/1;
 7//1,2,3,16;
 1/18=20,19=15/3(2);
 2/9=110/2;
 99//99;
 2/9=110/2;
 3/5=5,11=9,25=1,30=1,71=1/1,2,3;
 4/5=5,16=3,69=1/1;
 5/5=2,38=5/2;
 7//1,2,3,16;
 1/18=20,19=15/3(-5);
 2/9=110/2;
 6/7=3,19=2,28=1/1;
 99/9=1/99;
 --------
 BF4- opt
 --------
 Symbolic Z-matrix:
 Charge = -1 Multiplicity = 1
 B                     0.23497   1.12022   0. 
 F                    -1.22503   1.12024   0. 
 F                     0.72165   1.80846  -1.19209 
 F                     0.72162  -0.25629   0. 
 F                     0.72165   1.80846   1.19209 
 

 GradGradGradGradGradGradGradGradGradGradGradGradGradGradGradGradGradGrad
 Berny optimization.
 Initialization pass.
                           ----------------------------
                           !    Initial Parameters    !
                           ! (Angstroms and Degrees)  !
 --------------------------                            --------------------------
 ! Name  Definition              Value          Derivative Info.                !
 --------------------------------------------------------------------------------
 ! R1    R(1,2)                  1.46           estimate D2E/DX2                !
 ! R2    R(1,3)                  1.46           estimate D2E/DX2                !
 ! R3    R(1,4)                  1.46           estimate D2E/DX2                !
 ! R4    R(1,5)                  1.46           estimate D2E/DX2                !
 ! A1    A(2,1,3)              109.4712         estimate D2E/DX2                !
 ! A2    A(2,1,4)              109.4712         estimate D2E/DX2                !
 ! A3    A(2,1,5)              109.4712         estimate D2E/DX2                !
 ! A4    A(3,1,4)              109.4712         estimate D2E/DX2                !
 ! A5    A(3,1,5)              109.4713         estimate D2E/DX2                !
 ! A6    A(4,1,5)              109.4712         estimate D2E/DX2                !
 ! D1    D(2,1,4,3)            120.0            estimate D2E/DX2                !
 ! D2    D(2,1,5,3)           -120.0            estimate D2E/DX2                !
 ! D3    D(2,1,5,4)            120.0            estimate D2E/DX2                !
 ! D4    D(3,1,5,4)           -120.0            estimate D2E/DX2                !
 --------------------------------------------------------------------------------
 Trust Radius=3.00D-01 FncErr=1.00D-07 GrdErr=1.00D-07 EigMax=2.50D+02 EigMin=1.00D-04
 Number of steps in this run=     24 maximum allowed number of steps=    100.
 GradGradGradGradGradGradGradGradGradGradGradGradGradGradGradGradGradGrad

                          Input orientation:                          
 ---------------------------------------------------------------------
 Center     Atomic      Atomic             Coordinates (Angstroms)
 Number     Number       Type             X           Y           Z
 ---------------------------------------------------------------------
      1          5           0        0.234973    1.120219    0.000000
      2          9           0       -1.225027    1.120237    0.000000
      3          9           0        0.721648    1.808463   -1.192085
      4          9           0        0.721623   -0.256289    0.000000
      5          9           0        0.721648    1.808463    1.192085
 ---------------------------------------------------------------------
                    Distance matrix (angstroms):
                    1          2          3          4          5
     1  B    0.000000
     2  F    1.460000   0.000000
     3  F    1.460000   2.384170   0.000000
     4  F    1.460000   2.384170   2.384170   0.000000
     5  F    1.460000   2.384170   2.384170   2.384170   0.000000
 Stoichiometry    BF4(1-)
 Framework group  TD[O(B),4C3(F)]
 Deg. of freedom     1
 Full point group                 TD      NOp  24
 Largest Abelian subgroup         D2      NOp   4
 Largest concise Abelian subgroup D2      NOp   4
                         Standard orientation:                         
 ---------------------------------------------------------------------
 Center     Atomic      Atomic             Coordinates (Angstroms)
 Number     Number       Type             X           Y           Z
 ---------------------------------------------------------------------
      1          5           0        0.000000    0.000000   -0.000000
      2          9           0       -0.842931   -0.842931    0.842931
      3          9           0        0.842931    0.842931    0.842931
      4          9           0       -0.842931    0.842931   -0.842931
      5          9           0        0.842931   -0.842931   -0.842931
 ---------------------------------------------------------------------
 Rotational constants (GHZ):           4.6797821           4.6797821           4.6797821
 Standard basis: 3-21G (6D, 7F)
 There are    12 symmetry adapted cartesian basis functions of A   symmetry.
 There are    11 symmetry adapted cartesian basis functions of B1  symmetry.
 There are    11 symmetry adapted cartesian basis functions of B2  symmetry.
 There are    11 symmetry adapted cartesian basis functions of B3  symmetry.
 There are    12 symmetry adapted basis functions of A   symmetry.
 There are    11 symmetry adapted basis functions of B1  symmetry.
 There are    11 symmetry adapted basis functions of B2  symmetry.
 There are    11 symmetry adapted basis functions of B3  symmetry.
    45 basis functions,    75 primitive gaussians,    45 cartesian basis functions
    21 alpha electrons       21 beta electrons
       nuclear repulsion energy       173.1108982898 Hartrees.
 NAtoms=    5 NActive=    5 NUniq=    2 SFac= 4.00D+00 NAtFMM=   60 NAOKFM=F Big=F
 Integral buffers will be    131072 words long.
 Raffenetti 1 integral format.
 Two-electron integral symmetry is turned on.
 One-electron integrals computed using PRISM.
 NBasis=    45 RedAO= T EigKep=  7.85D-02  NBF=    12    11    11    11
 NBsUse=    45 1.00D-06 EigRej= -1.00D+00 NBFU=    12    11    11    11
 ExpMin= 1.24D-01 ExpMax= 4.14D+02 ExpMxC= 4.14D+02 IAcc=3 IRadAn=         5 AccDes= 0.00D+00
 Harris functional with IExCor=  205 and IRadAn=       5 diagonalized for initial guess.
 HarFok:  IExCor=  205 AccDes= 0.00D+00 IRadAn=         5 IDoV= 1 UseB2=F ITyADJ=14
 ICtDFT=  3500011 ScaDFX=  1.000000  1.000000  1.000000  1.000000
 FoFCou: FMM=F IPFlag=           0 FMFlag=      100000 FMFlg1=           0
         NFxFlg=           0 DoJE=T BraDBF=F KetDBF=T FulRan=T
         wScrn=  0.000000 ICntrl=       500 IOpCl=  0 I1Cent=   200000004 NGrid=           0
         NMat0=    1 NMatS0=      1 NMatT0=    0 NMatD0=    1 NMtDS0=    0 NMtDT0=    0
 Petite list used in FoFCou.
 Initial guess orbital symmetries:
       Occupied  (A1) (T2) (T2) (T2) (A1) (A1) (T2) (T2) (T2) (A1)
                 (T2) (T2) (T2) (E) (E) (T2) (T2) (T2) (T1) (T1)
                 (T1)
       Virtual   (A1) (T2) (T2) (T2) (T2) (T2) (T2) (A1) (E) (E)
                 (T1) (T1) (T1) (T2) (T2) (T2) (A1) (T2) (T2) (T2)
                 (T2) (T2) (T2) (A1)
 The electronic state of the initial guess is 1-A1.
 Keep R1 ints in memory in symmetry-blocked form, NReq=1347688.
 Requested convergence on RMS density matrix=1.00D-08 within 128 cycles.
 Requested convergence on MAX density matrix=1.00D-06.
 Requested convergence on             energy=1.00D-06.
 No special actions if energy rises.
 SCF Done:  E(RHF) =  -420.481388231     A.U. after    9 cycles
            NFock=  9  Conv=0.23D-08     -V/T= 2.0044

 **********************************************************************

            Population analysis using the SCF Density.

 **********************************************************************

 Orbital symmetries:
       Occupied  (A1) (T2) (T2) (T2) (A1) (A1) (T2) (T2) (T2) (A1)
                 (T2) (T2) (T2) (E) (E) (T2) (T2) (T2) (T1) (T1)
                 (T1)
       Virtual   (A1) (T2) (T2) (T2) (T2) (T2) (T2) (A1) (E) (E)
                 (T1) (T1) (T1) (T2) (T2) (T2) (A1) (T2) (T2) (T2)
                 (T2) (T2) (T2) (A1)
 The electronic state is 1-A1.
 Alpha  occ. eigenvalues --  -25.89030 -25.88925 -25.88925 -25.88925  -7.48521
 Alpha  occ. eigenvalues --   -1.34567  -1.29233  -1.29233  -1.29233  -0.53953
 Alpha  occ. eigenvalues --   -0.46536  -0.46536  -0.46536  -0.38556  -0.38556
 Alpha  occ. eigenvalues --   -0.35712  -0.35712  -0.35712  -0.34293  -0.34293
 Alpha  occ. eigenvalues --   -0.34293
 Alpha virt. eigenvalues --    0.63271   0.65011   0.65011   0.65011   0.94384
 Alpha virt. eigenvalues --    0.94384   0.94384   1.09796   2.38234   2.38234
 Alpha virt. eigenvalues --    2.56723   2.56723   2.56723   2.63233   2.63233
 Alpha virt. eigenvalues --    2.63233   2.68735   2.74842   2.74842   2.74842
 Alpha virt. eigenvalues --    4.12659   4.12659   4.12659   4.67421
     Molecular Orbital Coefficients:
                           1         2         3         4         5
                        (A1)--O   (T2)--O   (T2)--O   (T2)--O   (A1)--O
     Eigenvalues --   -25.89030 -25.88925 -25.88925 -25.88925  -7.48521
   1 1   B  1S         -0.00129   0.00000   0.00000   0.00000   0.98702
   2        2S          0.00082   0.00000   0.00000   0.00000   0.08911
   3        2PX         0.00000   0.00000  -0.00284   0.00000   0.00000
   4        2PY         0.00000  -0.00284   0.00000   0.00000   0.00000
   5        2PZ         0.00000   0.00000   0.00000   0.00284   0.00000
   6        3S          0.01964   0.00000   0.00000   0.00000  -0.01852
   7        3PX         0.00000   0.00000  -0.00906   0.00000   0.00000
   8        3PY         0.00000  -0.00906   0.00000   0.00000   0.00000
   9        3PZ         0.00000   0.00000   0.00000   0.00906   0.00000
  10 2   F  1S          0.49113   0.49097   0.49097   0.49097   0.00013
  11        2S          0.04953   0.04793   0.04793   0.04793   0.00248
  12        2PX         0.00088   0.00080   0.00012   0.00080   0.00100
  13        2PY         0.00088   0.00012   0.00080   0.00080   0.00100
  14        2PZ        -0.00088  -0.00080  -0.00080  -0.00012  -0.00100
  15        3S         -0.02028  -0.01626  -0.01626  -0.01626  -0.00470
  16        3PX        -0.00254  -0.00200   0.00053  -0.00200  -0.00477
  17        3PY        -0.00254   0.00053  -0.00200  -0.00200  -0.00477
  18        3PZ         0.00254   0.00200   0.00200  -0.00053   0.00477
  19 3   F  1S          0.49113  -0.49097  -0.49097   0.49097   0.00013
  20        2S          0.04953  -0.04793  -0.04793   0.04793   0.00248
  21        2PX        -0.00088   0.00080   0.00012  -0.00080  -0.00100
  22        2PY        -0.00088   0.00012   0.00080  -0.00080  -0.00100
  23        2PZ        -0.00088   0.00080   0.00080  -0.00012  -0.00100
  24        3S         -0.02028   0.01626   0.01626  -0.01626  -0.00470
  25        3PX         0.00254  -0.00200   0.00053   0.00200   0.00477
  26        3PY         0.00254   0.00053  -0.00200   0.00200   0.00477
  27        3PZ         0.00254  -0.00200  -0.00200  -0.00053   0.00477
  28 4   F  1S          0.49113  -0.49097   0.49097  -0.49097   0.00013
  29        2S          0.04953  -0.04793   0.04793  -0.04793   0.00248
  30        2PX         0.00088  -0.00080   0.00012  -0.00080   0.00100
  31        2PY        -0.00088   0.00012  -0.00080   0.00080  -0.00100
  32        2PZ         0.00088  -0.00080   0.00080  -0.00012   0.00100
  33        3S         -0.02028   0.01626  -0.01626   0.01626  -0.00470
  34        3PX        -0.00254   0.00200   0.00053   0.00200  -0.00477
  35        3PY         0.00254   0.00053   0.00200  -0.00200   0.00477
  36        3PZ        -0.00254   0.00200  -0.00200  -0.00053  -0.00477
  37 5   F  1S          0.49113   0.49097  -0.49097  -0.49097   0.00013
  38        2S          0.04953   0.04793  -0.04793  -0.04793   0.00248
  39        2PX        -0.00088  -0.00080   0.00012   0.00080  -0.00100
  40        2PY         0.00088   0.00012  -0.00080  -0.00080   0.00100
  41        2PZ         0.00088   0.00080  -0.00080  -0.00012   0.00100
  42        3S         -0.02028  -0.01626   0.01626   0.01626  -0.00470
  43        3PX         0.00254   0.00200   0.00053  -0.00200   0.00477
  44        3PY        -0.00254   0.00053   0.00200   0.00200  -0.00477
  45        3PZ        -0.00254  -0.00200   0.00200  -0.00053  -0.00477
                           6         7         8         9        10
                        (A1)--O   (T2)--O   (T2)--O   (T2)--O   (A1)--O
     Eigenvalues --    -1.34567  -1.29233  -1.29233  -1.29233  -0.53953
   1 1   B  1S         -0.07527   0.00000   0.00000   0.00000  -0.13609
   2        2S          0.08150   0.00000   0.00000   0.00000   0.23874
   3        2PX         0.00000  -0.06895   0.00000   0.00000   0.00000
   4        2PY         0.00000   0.00000  -0.06895   0.00000   0.00000
   5        2PZ         0.00000   0.00000   0.00000   0.06895   0.00000
   6        3S          0.04865   0.00000   0.00000   0.00000   0.10241
   7        3PX         0.00000  -0.00445   0.00000   0.00000   0.00000
   8        3PY         0.00000   0.00000  -0.00445   0.00000   0.00000
   9        3PZ         0.00000   0.00000   0.00000   0.00445   0.00000
  10 2   F  1S         -0.11971  -0.12583  -0.12583  -0.12583   0.03868
  11        2S          0.11258   0.11972   0.11972   0.11972  -0.04156
  12        2PX         0.01588   0.00718   0.01242   0.01242   0.12152
  13        2PY         0.01588   0.01242   0.00718   0.01242   0.12152
  14        2PZ        -0.01588  -0.01242  -0.01242  -0.00718  -0.12152
  15        3S          0.37701   0.40122   0.40122   0.40122  -0.14574
  16        3PX         0.02225   0.01039   0.01668   0.01668   0.14158
  17        3PY         0.02225   0.01668   0.01039   0.01668   0.14158
  18        3PZ        -0.02225  -0.01668  -0.01668  -0.01039  -0.14158
  19 3   F  1S         -0.11971   0.12583   0.12583  -0.12583   0.03868
  20        2S          0.11258  -0.11972  -0.11972   0.11972  -0.04156
  21        2PX        -0.01588   0.00718   0.01242  -0.01242  -0.12152
  22        2PY        -0.01588   0.01242   0.00718  -0.01242  -0.12152
  23        2PZ        -0.01588   0.01242   0.01242  -0.00718  -0.12152
  24        3S          0.37701  -0.40122  -0.40122   0.40122  -0.14574
  25        3PX        -0.02225   0.01039   0.01668  -0.01668  -0.14158
  26        3PY        -0.02225   0.01668   0.01039  -0.01668  -0.14158
  27        3PZ        -0.02225   0.01668   0.01668  -0.01039  -0.14158
  28 4   F  1S         -0.11971  -0.12583   0.12583   0.12583   0.03868
  29        2S          0.11258   0.11972  -0.11972  -0.11972  -0.04156
  30        2PX         0.01588   0.00718  -0.01242  -0.01242   0.12152
  31        2PY        -0.01588  -0.01242   0.00718   0.01242  -0.12152
  32        2PZ         0.01588   0.01242  -0.01242  -0.00718   0.12152
  33        3S          0.37701   0.40122  -0.40122  -0.40122  -0.14574
  34        3PX         0.02225   0.01039  -0.01668  -0.01668   0.14158
  35        3PY        -0.02225  -0.01668   0.01039   0.01668  -0.14158
  36        3PZ         0.02225   0.01668  -0.01668  -0.01039   0.14158
  37 5   F  1S         -0.11971   0.12583  -0.12583   0.12583   0.03868
  38        2S          0.11258  -0.11972   0.11972  -0.11972  -0.04156
  39        2PX        -0.01588   0.00718  -0.01242   0.01242  -0.12152
  40        2PY         0.01588  -0.01242   0.00718  -0.01242   0.12152
  41        2PZ         0.01588  -0.01242   0.01242  -0.00718   0.12152
  42        3S          0.37701  -0.40122   0.40122  -0.40122  -0.14574
  43        3PX        -0.02225   0.01039  -0.01668   0.01668  -0.14158
  44        3PY         0.02225  -0.01668   0.01039  -0.01668   0.14158
  45        3PZ         0.02225  -0.01668   0.01668  -0.01039   0.14158
                          11        12        13        14        15
                        (T2)--O   (T2)--O   (T2)--O   (E)--O    (E)--O
     Eigenvalues --    -0.46536  -0.46536  -0.46536  -0.38556  -0.38556
   1 1   B  1S          0.00000   0.00000   0.00000  -0.00000  -0.00000
   2        2S          0.00000   0.00000   0.00000   0.00000  -0.00000
   3        2PX         0.22352   0.00000   0.00000   0.00000   0.00000
   4        2PY         0.00000   0.22352   0.00000   0.00000   0.00000
   5        2PZ         0.00000   0.00000   0.22352   0.00000   0.00000
   6        3S          0.00000   0.00000   0.00000   0.00000   0.00000
   7        3PX         0.10009   0.00000   0.00000   0.00000   0.00000
   8        3PY         0.00000   0.10009   0.00000   0.00000   0.00000
   9        3PZ         0.00000   0.00000   0.10009   0.00000   0.00000
  10 2   F  1S         -0.02155  -0.02155   0.02155   0.00000   0.00000
  11        2S          0.01792   0.01792  -0.01792   0.00000   0.00000
  12        2PX         0.03788  -0.16308   0.16308   0.04800   0.20744
  13        2PY        -0.16308   0.03788   0.16308   0.15565  -0.14529
  14        2PZ         0.16308   0.16308   0.03788   0.20365   0.06216
  15        3S          0.10427   0.10427  -0.10427  -0.00000  -0.00000
  16        3PX         0.04308  -0.17937   0.17937   0.05787   0.25010
  17        3PY        -0.17937   0.04308   0.17937   0.18766  -0.17516
  18        3PZ         0.17937   0.17937   0.04308   0.24553   0.07494
  19 3   F  1S          0.02155   0.02155   0.02155   0.00000   0.00000
  20        2S         -0.01792  -0.01792  -0.01792   0.00000   0.00000
  21        2PX         0.03788  -0.16308  -0.16308  -0.04800  -0.20744
  22        2PY        -0.16308   0.03788  -0.16308  -0.15565   0.14529
  23        2PZ        -0.16308  -0.16308   0.03788   0.20365   0.06216
  24        3S         -0.10427  -0.10427  -0.10427  -0.00000  -0.00000
  25        3PX         0.04308  -0.17937  -0.17937  -0.05787  -0.25010
  26        3PY        -0.17937   0.04308  -0.17937  -0.18766   0.17516
  27        3PZ        -0.17937  -0.17937   0.04308   0.24553   0.07494
  28 4   F  1S         -0.02155   0.02155  -0.02155   0.00000   0.00000
  29        2S          0.01792  -0.01792   0.01792   0.00000   0.00000
  30        2PX         0.03788   0.16308  -0.16308   0.04800   0.20744
  31        2PY         0.16308   0.03788   0.16308  -0.15565   0.14529
  32        2PZ        -0.16308   0.16308   0.03788  -0.20365  -0.06216
  33        3S          0.10427  -0.10427   0.10427  -0.00000  -0.00000
  34        3PX         0.04308   0.17937  -0.17937   0.05787   0.25010
  35        3PY         0.17937   0.04308   0.17937  -0.18766   0.17516
  36        3PZ        -0.17937   0.17937   0.04308  -0.24553  -0.07494
  37 5   F  1S          0.02155  -0.02155  -0.02155   0.00000   0.00000
  38        2S         -0.01792   0.01792   0.01792   0.00000   0.00000
  39        2PX         0.03788   0.16308   0.16308  -0.04800  -0.20744
  40        2PY         0.16308   0.03788  -0.16308   0.15565  -0.14529
  41        2PZ         0.16308  -0.16308   0.03788  -0.20365  -0.06216
  42        3S         -0.10427   0.10427   0.10427  -0.00000  -0.00000
  43        3PX         0.04308   0.17937   0.17937  -0.05787  -0.25010
  44        3PY         0.17937   0.04308  -0.17937   0.18766  -0.17516
  45        3PZ         0.17937  -0.17937   0.04308  -0.24553  -0.07494
                          16        17        18        19        20
                        (T2)--O   (T2)--O   (T2)--O   (T1)--O   (T1)--O
     Eigenvalues --    -0.35712  -0.35712  -0.35712  -0.34293  -0.34293
   1 1   B  1S          0.00000   0.00000   0.00000   0.00000   0.00000
   2        2S          0.00000   0.00000   0.00000   0.00000   0.00000
   3        2PX         0.00000   0.00000  -0.11120  -0.00000   0.00000
   4        2PY         0.00000  -0.11120   0.00000   0.00000  -0.00000
   5        2PZ        -0.11120   0.00000   0.00000   0.00000   0.00000
   6        3S          0.00000   0.00000   0.00000   0.00000   0.00000
   7        3PX         0.00000   0.00000   0.15417  -0.00000   0.00000
   8        3PY         0.00000   0.15417   0.00000   0.00000  -0.00000
   9        3PZ         0.15417   0.00000   0.00000   0.00000   0.00000
  10 2   F  1S         -0.00286   0.00286   0.00286   0.00000   0.00000
  11        2S          0.01076  -0.01076  -0.01076  -0.00000  -0.00000
  12        2PX        -0.02333   0.02333   0.26083   0.00000   0.19289
  13        2PY        -0.02333   0.26083   0.02333   0.19289  -0.00000
  14        2PZ         0.26083  -0.02333  -0.02333   0.19289   0.19289
  15        3S         -0.01952   0.01952   0.01952  -0.00000  -0.00000
  16        3PX        -0.03768   0.03768   0.29457   0.00000   0.22034
  17        3PY        -0.03768   0.29457   0.03768   0.22034  -0.00000
  18        3PZ         0.29457  -0.03768  -0.03768   0.22034   0.22034
  19 3   F  1S         -0.00286  -0.00286  -0.00286  -0.00000  -0.00000
  20        2S          0.01076   0.01076   0.01076   0.00000   0.00000
  21        2PX         0.02333   0.02333   0.26083   0.00000   0.19289
  22        2PY         0.02333   0.26083   0.02333   0.19289  -0.00000
  23        2PZ         0.26083   0.02333   0.02333  -0.19289  -0.19289
  24        3S         -0.01952  -0.01952  -0.01952   0.00000   0.00000
  25        3PX         0.03768   0.03768   0.29457   0.00000   0.22034
  26        3PY         0.03768   0.29457   0.03768   0.22034  -0.00000
  27        3PZ         0.29457   0.03768   0.03768  -0.22034  -0.22034
  28 4   F  1S          0.00286  -0.00286   0.00286   0.00000  -0.00000
  29        2S         -0.01076   0.01076  -0.01076  -0.00000   0.00000
  30        2PX         0.02333  -0.02333   0.26083   0.00000  -0.19289
  31        2PY        -0.02333   0.26083  -0.02333  -0.19289  -0.00000
  32        2PZ         0.26083  -0.02333   0.02333  -0.19289   0.19289
  33        3S          0.01952  -0.01952   0.01952  -0.00000   0.00000
  34        3PX         0.03768  -0.03768   0.29457   0.00000  -0.22034
  35        3PY        -0.03768   0.29457  -0.03768  -0.22034  -0.00000
  36        3PZ         0.29457  -0.03768   0.03768  -0.22034   0.22034
  37 5   F  1S          0.00286   0.00286  -0.00286  -0.00000   0.00000
  38        2S         -0.01076  -0.01076   0.01076   0.00000  -0.00000
  39        2PX        -0.02333  -0.02333   0.26083   0.00000  -0.19289
  40        2PY         0.02333   0.26083  -0.02333  -0.19289  -0.00000
  41        2PZ         0.26083   0.02333  -0.02333   0.19289  -0.19289
  42        3S          0.01952   0.01952  -0.01952   0.00000  -0.00000
  43        3PX        -0.03768  -0.03768   0.29457   0.00000  -0.22034
  44        3PY         0.03768   0.29457  -0.03768  -0.22034  -0.00000
  45        3PZ         0.29457   0.03768  -0.03768   0.22034  -0.22034
                          21        22        23        24        25
                        (T1)--O   (A1)--V   (T2)--V   (T2)--V   (T2)--V
     Eigenvalues --    -0.34293   0.63271   0.65011   0.65011   0.65011
   1 1   B  1S          0.00000  -0.20323   0.00000   0.00000   0.00000
   2        2S          0.00000  -0.09704   0.00000   0.00000   0.00000
   3        2PX         0.00000   0.00000   0.00000   0.25035   0.00000
   4        2PY         0.00000   0.00000   0.00000   0.00000   0.25035
   5        2PZ        -0.00000   0.00000   0.25035   0.00000   0.00000
   6        3S          0.00000   1.65342   0.00000   0.00000   0.00000
   7        3PX         0.00000   0.00000   0.00000   1.26840   0.00000
   8        3PY         0.00000   0.00000   0.00000   0.00000   1.26840
   9        3PZ         0.00000   0.00000   1.26840   0.00000   0.00000
  10 2   F  1S         -0.00000   0.06456   0.04508  -0.04508  -0.04508
  11        2S          0.00000  -0.05069  -0.01970   0.01970   0.01970
  12        2PX         0.19289  -0.08150  -0.08555  -0.07188   0.08555
  13        2PY        -0.19289  -0.08150  -0.08555   0.08555  -0.07188
  14        2PZ         0.00000   0.08150  -0.07188  -0.08555  -0.08555
  15        3S         -0.00000  -0.46848  -0.40335   0.40335   0.40335
  16        3PX         0.22034  -0.15589  -0.16864  -0.08498   0.16864
  17        3PY        -0.22034  -0.15589  -0.16864   0.16864  -0.08498
  18        3PZ         0.00000   0.15589  -0.08498  -0.16864  -0.16864
  19 3   F  1S         -0.00000   0.06456   0.04508   0.04508   0.04508
  20        2S          0.00000  -0.05069  -0.01970  -0.01970  -0.01970
  21        2PX        -0.19289   0.08150   0.08555  -0.07188   0.08555
  22        2PY         0.19289   0.08150   0.08555   0.08555  -0.07188
  23        2PZ         0.00000   0.08150  -0.07188   0.08555   0.08555
  24        3S         -0.00000  -0.46848  -0.40335  -0.40335  -0.40335
  25        3PX        -0.22034   0.15589   0.16864  -0.08498   0.16864
  26        3PY         0.22034   0.15589   0.16864   0.16864  -0.08498
  27        3PZ         0.00000   0.15589  -0.08498   0.16864   0.16864
  28 4   F  1S          0.00000   0.06456  -0.04508  -0.04508   0.04508
  29        2S         -0.00000  -0.05069   0.01970   0.01970  -0.01970
  30        2PX        -0.19289  -0.08150   0.08555  -0.07188  -0.08555
  31        2PY        -0.19289   0.08150  -0.08555  -0.08555  -0.07188
  32        2PZ         0.00000  -0.08150  -0.07188   0.08555  -0.08555
  33        3S          0.00000  -0.46848   0.40335   0.40335  -0.40335
  34        3PX        -0.22034  -0.15589   0.16864  -0.08498  -0.16864
  35        3PY        -0.22034   0.15589  -0.16864  -0.16864  -0.08498
  36        3PZ         0.00000  -0.15589  -0.08498   0.16864  -0.16864
  37 5   F  1S          0.00000   0.06456  -0.04508   0.04508  -0.04508
  38        2S         -0.00000  -0.05069   0.01970  -0.01970   0.01970
  39        2PX         0.19289   0.08150  -0.08555  -0.07188  -0.08555
  40        2PY         0.19289  -0.08150   0.08555  -0.08555  -0.07188
  41        2PZ         0.00000  -0.08150  -0.07188  -0.08555   0.08555
  42        3S          0.00000  -0.46848   0.40335  -0.40335   0.40335
  43        3PX         0.22034   0.15589  -0.16864  -0.08498  -0.16864
  44        3PY         0.22034  -0.15589   0.16864  -0.16864  -0.08498
  45        3PZ         0.00000  -0.15589  -0.08498  -0.16864   0.16864
                          26        27        28        29        30
                        (T2)--V   (T2)--V   (T2)--V   (A1)--V   (E)--V
     Eigenvalues --     0.94384   0.94384   0.94384   1.09796   2.38234
   1 1   B  1S          0.00000   0.00000   0.00000  -0.09245  -0.00000
   2        2S          0.00000   0.00000   0.00000   1.63972   0.00000
   3        2PX         0.00000   0.00000   1.23621   0.00000  -0.00000
   4        2PY         0.00000   1.23621   0.00000   0.00000  -0.00000
   5        2PZ         1.23621   0.00000   0.00000   0.00000  -0.00000
   6        3S          0.00000   0.00000   0.00000  -1.43027   0.00000
   7        3PX         0.00000   0.00000  -0.91710   0.00000  -0.00000
   8        3PY         0.00000  -0.91710   0.00000   0.00000  -0.00000
   9        3PZ        -0.91710   0.00000   0.00000   0.00000  -0.00000
  10 2   F  1S          0.00665  -0.00665  -0.00665  -0.00226   0.00000
  11        2S         -0.02023   0.02023   0.02023  -0.01798  -0.00000
  12        2PX        -0.07578   0.07578   0.07033  -0.08944   0.36989
  13        2PY        -0.07578   0.07033   0.07578  -0.08944  -0.34719
  14        2PZ         0.07033  -0.07578  -0.07578   0.08944   0.02270
  15        3S          0.07518  -0.07518  -0.07518   0.18301  -0.00000
  16        3PX        -0.07820   0.07820   0.13063  -0.04266  -0.33994
  17        3PY        -0.07820   0.13063   0.07820  -0.04266   0.31908
  18        3PZ         0.13063  -0.07820  -0.07820   0.04266  -0.02086
  19 3   F  1S          0.00665   0.00665   0.00665  -0.00226   0.00000
  20        2S         -0.02023  -0.02023  -0.02023  -0.01798  -0.00000
  21        2PX         0.07578   0.07578   0.07033   0.08944  -0.36989
  22        2PY         0.07578   0.07033   0.07578   0.08944   0.34719
  23        2PZ         0.07033   0.07578   0.07578   0.08944   0.02270
  24        3S          0.07518   0.07518   0.07518   0.18301  -0.00000
  25        3PX         0.07820   0.07820   0.13063   0.04266   0.33994
  26        3PY         0.07820   0.13063   0.07820   0.04266  -0.31908
  27        3PZ         0.13063   0.07820   0.07820   0.04266  -0.02086
  28 4   F  1S         -0.00665   0.00665  -0.00665  -0.00226   0.00000
  29        2S          0.02023  -0.02023   0.02023  -0.01798  -0.00000
  30        2PX         0.07578  -0.07578   0.07033  -0.08944   0.36989
  31        2PY        -0.07578   0.07033  -0.07578   0.08944   0.34719
  32        2PZ         0.07033  -0.07578   0.07578  -0.08944  -0.02270
  33        3S         -0.07518   0.07518  -0.07518   0.18301  -0.00000
  34        3PX         0.07820  -0.07820   0.13063  -0.04266  -0.33994
  35        3PY        -0.07820   0.13063  -0.07820   0.04266  -0.31908
  36        3PZ         0.13063  -0.07820   0.07820  -0.04266   0.02086
  37 5   F  1S         -0.00665  -0.00665   0.00665  -0.00226   0.00000
  38        2S          0.02023   0.02023  -0.02023  -0.01798  -0.00000
  39        2PX        -0.07578  -0.07578   0.07033   0.08944  -0.36989
  40        2PY         0.07578   0.07033  -0.07578  -0.08944  -0.34719
  41        2PZ         0.07033   0.07578  -0.07578  -0.08944  -0.02270
  42        3S         -0.07518  -0.07518   0.07518   0.18301  -0.00000
  43        3PX        -0.07820  -0.07820   0.13063   0.04266   0.33994
  44        3PY         0.07820   0.13063  -0.07820  -0.04266   0.31908
  45        3PZ         0.13063   0.07820  -0.07820  -0.04266   0.02086
                          31        32        33        34        35
                        (E)--V    (T1)--V   (T1)--V   (T1)--V   (T2)--V
     Eigenvalues --     2.38234   2.56723   2.56723   2.56723   2.63233
   1 1   B  1S         -0.00000   0.00000   0.00000   0.00000   0.00000
   2        2S          0.00000   0.00000   0.00000   0.00000   0.00000
   3        2PX         0.00000   0.00000   0.00000   0.00000   0.31950
   4        2PY         0.00000   0.00000   0.00000   0.00000   0.00000
   5        2PZ         0.00000   0.00000   0.00000   0.00000   0.00000
   6        3S          0.00000   0.00000   0.00000   0.00000   0.00000
   7        3PX         0.00000   0.00000   0.00000   0.00000   0.29084
   8        3PY         0.00000   0.00000   0.00000   0.00000   0.00000
   9        3PZ         0.00000   0.00000   0.00000   0.00000   0.00000
  10 2   F  1S          0.00000  -0.00000   0.00000  -0.00000  -0.02748
  11        2S         -0.00000   0.00000  -0.00000   0.00000   0.14134
  12        2PX         0.18735   0.35919   0.35919   0.00000   0.11256
  13        2PY         0.22666   0.00000  -0.35919   0.35919  -0.34008
  14        2PZ         0.41401   0.35919  -0.00000   0.35919   0.34008
  15        3S         -0.00000   0.00000   0.00000   0.00000   0.01100
  16        3PX        -0.17218  -0.35404  -0.35404  -0.00000  -0.11315
  17        3PY        -0.20831  -0.00000   0.35404  -0.35404   0.39498
  18        3PZ        -0.38049  -0.35404   0.00000  -0.35404  -0.39498
  19 3   F  1S          0.00000   0.00000   0.00000   0.00000   0.02748
  20        2S         -0.00000  -0.00000  -0.00000  -0.00000  -0.14134
  21        2PX        -0.18735   0.35919  -0.35919   0.00000   0.11256
  22        2PY        -0.22666   0.00000   0.35919   0.35919  -0.34008
  23        2PZ         0.41401  -0.35919  -0.00000  -0.35919  -0.34008
  24        3S         -0.00000  -0.00000   0.00000  -0.00000  -0.01100
  25        3PX         0.17218  -0.35404   0.35404  -0.00000  -0.11315
  26        3PY         0.20831  -0.00000  -0.35404  -0.35404   0.39498
  27        3PZ        -0.38049   0.35404   0.00000   0.35404   0.39498
  28 4   F  1S          0.00000   0.00000  -0.00000  -0.00000  -0.02748
  29        2S         -0.00000  -0.00000   0.00000   0.00000   0.14134
  30        2PX         0.18735  -0.35919  -0.35919   0.00000   0.11256
  31        2PY        -0.22666   0.00000  -0.35919  -0.35919   0.34008
  32        2PZ        -0.41401   0.35919  -0.00000  -0.35919  -0.34008
  33        3S         -0.00000  -0.00000  -0.00000   0.00000   0.01100
  34        3PX        -0.17218   0.35404   0.35404  -0.00000  -0.11315
  35        3PY         0.20831  -0.00000   0.35404   0.35404  -0.39498
  36        3PZ         0.38049  -0.35404   0.00000   0.35404   0.39498
  37 5   F  1S          0.00000  -0.00000  -0.00000   0.00000   0.02748
  38        2S         -0.00000   0.00000   0.00000  -0.00000  -0.14134
  39        2PX        -0.18735  -0.35919   0.35919   0.00000   0.11256
  40        2PY         0.22666   0.00000   0.35919  -0.35919   0.34008
  41        2PZ        -0.41401  -0.35919  -0.00000   0.35919   0.34008
  42        3S         -0.00000   0.00000  -0.00000  -0.00000  -0.01100
  43        3PX         0.17218   0.35404  -0.35404  -0.00000  -0.11315
  44        3PY        -0.20831  -0.00000  -0.35404   0.35404  -0.39498
  45        3PZ         0.38049   0.35404   0.00000  -0.35404  -0.39498
                          36        37        38        39        40
                        (T2)--V   (T2)--V   (A1)--V   (T2)--V   (T2)--V
     Eigenvalues --     2.63233   2.63233   2.68735   2.74842   2.74842
   1 1   B  1S          0.00000   0.00000  -0.01046   0.00000   0.00000
   2        2S          0.00000   0.00000   0.69843   0.00000   0.00000
   3        2PX         0.00000   0.00000   0.00000   0.00000   0.30298
   4        2PY         0.00000   0.31950   0.00000   0.00000   0.00000
   5        2PZ        -0.31950   0.00000   0.00000   0.30298   0.00000
   6        3S          0.00000   0.00000   0.01406   0.00000   0.00000
   7        3PX         0.00000   0.00000   0.00000   0.00000  -0.42576
   8        3PY         0.00000   0.29084   0.00000   0.00000   0.00000
   9        3PZ        -0.29084   0.00000   0.00000  -0.42576   0.00000
  10 2   F  1S         -0.02748  -0.02748   0.02724  -0.00525   0.00525
  11        2S          0.14134   0.14134  -0.13919   0.02385  -0.02385
  12        2PX        -0.34008  -0.34008   0.28316   0.08686  -0.49745
  13        2PY        -0.34008   0.11256   0.28316   0.08686  -0.08686
  14        2PZ        -0.11256   0.34008  -0.28316  -0.49745   0.08686
  15        3S          0.01100   0.01100   0.02495   0.04432  -0.04432
  16        3PX         0.39498   0.39498  -0.34517  -0.08961   0.55475
  17        3PY         0.39498  -0.11315  -0.34517  -0.08961   0.08961
  18        3PZ         0.11315  -0.39498   0.34517   0.55475  -0.08961
  19 3   F  1S         -0.02748   0.02748   0.02724  -0.00525  -0.00525
  20        2S          0.14134  -0.14134  -0.13919   0.02385   0.02385
  21        2PX         0.34008  -0.34008  -0.28316  -0.08686  -0.49745
  22        2PY         0.34008   0.11256  -0.28316  -0.08686  -0.08686
  23        2PZ        -0.11256  -0.34008  -0.28316  -0.49745  -0.08686
  24        3S          0.01100  -0.01100   0.02495   0.04432   0.04432
  25        3PX        -0.39498   0.39498   0.34517   0.08961   0.55475
  26        3PY        -0.39498  -0.11315   0.34517   0.08961   0.08961
  27        3PZ         0.11315   0.39498   0.34517   0.55475   0.08961
  28 4   F  1S          0.02748   0.02748   0.02724   0.00525   0.00525
  29        2S         -0.14134  -0.14134  -0.13919  -0.02385  -0.02385
  30        2PX         0.34008   0.34008   0.28316  -0.08686  -0.49745
  31        2PY        -0.34008   0.11256  -0.28316   0.08686   0.08686
  32        2PZ        -0.11256   0.34008   0.28316  -0.49745  -0.08686
  33        3S         -0.01100  -0.01100   0.02495  -0.04432  -0.04432
  34        3PX        -0.39498  -0.39498  -0.34517   0.08961   0.55475
  35        3PY         0.39498  -0.11315   0.34517  -0.08961  -0.08961
  36        3PZ         0.11315  -0.39498  -0.34517   0.55475   0.08961
  37 5   F  1S          0.02748  -0.02748   0.02724   0.00525  -0.00525
  38        2S         -0.14134   0.14134  -0.13919  -0.02385   0.02385
  39        2PX        -0.34008   0.34008  -0.28316   0.08686  -0.49745
  40        2PY         0.34008   0.11256   0.28316  -0.08686   0.08686
  41        2PZ        -0.11256  -0.34008   0.28316  -0.49745   0.08686
  42        3S         -0.01100   0.01100   0.02495  -0.04432   0.04432
  43        3PX         0.39498  -0.39498   0.34517  -0.08961   0.55475
  44        3PY        -0.39498  -0.11315  -0.34517   0.08961  -0.08961
  45        3PZ         0.11315   0.39498  -0.34517   0.55475  -0.08961
                          41        42        43        44        45
                        (T2)--V   (T2)--V   (T2)--V   (T2)--V   (A1)--V
     Eigenvalues --     2.74842   4.12659   4.12659   4.12659   4.67421
   1 1   B  1S          0.00000   0.00000   0.00000   0.00000  -0.09502
   2        2S          0.00000   0.00000   0.00000   0.00000   0.18605
   3        2PX         0.00000   0.00000   0.25085   0.00000   0.00000
   4        2PY         0.30298   0.00000   0.00000   0.25085   0.00000
   5        2PZ         0.00000  -0.25085   0.00000   0.00000   0.00000
   6        3S          0.00000   0.00000   0.00000   0.00000   1.13963
   7        3PX         0.00000   0.00000   0.60579   0.00000   0.00000
   8        3PY        -0.42576   0.00000   0.00000   0.60579   0.00000
   9        3PZ         0.00000  -0.60579   0.00000   0.00000   0.00000
  10 2   F  1S          0.00525   0.05361   0.05361   0.05361  -0.04101
  11        2S         -0.02385  -0.77133  -0.77133  -0.77133   0.82265
  12        2PX        -0.08686  -0.09009   0.04891  -0.09009   0.08130
  13        2PY        -0.49745  -0.09009  -0.09009   0.04891   0.08130
  14        2PZ         0.08686  -0.04891   0.09009   0.09009  -0.08130
  15        3S         -0.04432   0.86127   0.86127   0.86127  -1.04501
  16        3PX         0.08961   0.18890  -0.08211   0.18890  -0.20360
  17        3PY         0.55475   0.18890   0.18890  -0.08211  -0.20360
  18        3PZ        -0.08961   0.08211  -0.18890  -0.18890   0.20360
  19 3   F  1S         -0.00525   0.05361  -0.05361  -0.05361  -0.04101
  20        2S          0.02385  -0.77133   0.77133   0.77133   0.82265
  21        2PX        -0.08686   0.09009   0.04891  -0.09009  -0.08130
  22        2PY        -0.49745   0.09009  -0.09009   0.04891  -0.08130
  23        2PZ        -0.08686  -0.04891  -0.09009  -0.09009  -0.08130
  24        3S          0.04432   0.86127  -0.86127  -0.86127  -1.04501
  25        3PX         0.08961  -0.18890  -0.08211   0.18890   0.20360
  26        3PY         0.55475  -0.18890   0.18890  -0.08211   0.20360
  27        3PZ         0.08961   0.08211   0.18890   0.18890   0.20360
  28 4   F  1S         -0.00525  -0.05361   0.05361  -0.05361  -0.04101
  29        2S          0.02385   0.77133  -0.77133   0.77133   0.82265
  30        2PX         0.08686   0.09009   0.04891   0.09009   0.08130
  31        2PY        -0.49745  -0.09009   0.09009   0.04891  -0.08130
  32        2PZ         0.08686  -0.04891  -0.09009   0.09009   0.08130
  33        3S          0.04432  -0.86127   0.86127  -0.86127  -1.04501
  34        3PX        -0.08961  -0.18890  -0.08211  -0.18890  -0.20360
  35        3PY         0.55475   0.18890  -0.18890  -0.08211   0.20360
  36        3PZ        -0.08961   0.08211   0.18890  -0.18890  -0.20360
  37 5   F  1S          0.00525  -0.05361  -0.05361   0.05361  -0.04101
  38        2S         -0.02385   0.77133   0.77133  -0.77133   0.82265
  39        2PX         0.08686  -0.09009   0.04891   0.09009  -0.08130
  40        2PY        -0.49745   0.09009   0.09009   0.04891   0.08130
  41        2PZ        -0.08686  -0.04891   0.09009  -0.09009   0.08130
  42        3S         -0.04432  -0.86127  -0.86127   0.86127  -1.04501
  43        3PX        -0.08961   0.18890  -0.08211  -0.18890   0.20360
  44        3PY         0.55475  -0.18890  -0.18890  -0.08211  -0.20360
  45        3PZ         0.08961   0.08211  -0.18890   0.18890  -0.20360
     Density Matrix:
                           1         2         3         4         5
   1 1   B  1S          1.99677
   2        2S          0.09866   0.14316
   3        2PX         0.00000   0.00000   0.13417
   4        2PY         0.00000   0.00000  -0.00000   0.13417
   5        2PZ         0.00000   0.00000  -0.00000   0.00000   0.13417
   6        3S         -0.07180   0.05356   0.00000   0.00000   0.00000
   7        3PX         0.00000   0.00000   0.01112  -0.00000  -0.00000
   8        3PY         0.00000   0.00000  -0.00000   0.01112   0.00000
   9        3PZ         0.00000   0.00000  -0.00000   0.00000   0.01112
  10 2   F  1S          0.00649  -0.00022   0.00429   0.00429  -0.00429
  11        2S         -0.00087  -0.00097  -0.00638  -0.00638   0.00638
  12        2PX        -0.03349   0.06079  -0.04207  -0.07981   0.07981
  13        2PY        -0.03349   0.06079  -0.07981  -0.04207   0.07981
  14        2PZ         0.03349  -0.06079   0.07981   0.07981  -0.04207
  15        3S         -0.02632  -0.00900  -0.01296  -0.01296   0.01296
  16        3PX        -0.05129   0.07037  -0.04769  -0.09085   0.09085
  17        3PY        -0.05129   0.07037  -0.09085  -0.04769   0.09085
  18        3PZ         0.05129  -0.07037   0.09085   0.09085  -0.04769
  19 3   F  1S          0.00649  -0.00022  -0.00429  -0.00429  -0.00429
  20        2S         -0.00087  -0.00097   0.00638   0.00638   0.00638
  21        2PX         0.03349  -0.06079  -0.04207  -0.07981  -0.07981
  22        2PY         0.03349  -0.06079  -0.07981  -0.04207  -0.07981
  23        2PZ         0.03349  -0.06079  -0.07981  -0.07981  -0.04207
  24        3S         -0.02632  -0.00900   0.01296   0.01296   0.01296
  25        3PX         0.05129  -0.07037  -0.04769  -0.09085  -0.09085
  26        3PY         0.05129  -0.07037  -0.09085  -0.04769  -0.09085
  27        3PZ         0.05129  -0.07037  -0.09085  -0.09085  -0.04769
  28 4   F  1S          0.00649  -0.00022   0.00429  -0.00429   0.00429
  29        2S         -0.00087  -0.00097  -0.00638   0.00638  -0.00638
  30        2PX        -0.03349   0.06079  -0.04207   0.07981  -0.07981
  31        2PY         0.03349  -0.06079   0.07981  -0.04207   0.07981
  32        2PZ        -0.03349   0.06079  -0.07981   0.07981  -0.04207
  33        3S         -0.02632  -0.00900  -0.01296   0.01296  -0.01296
  34        3PX        -0.05129   0.07037  -0.04769   0.09085  -0.09085
  35        3PY         0.05129  -0.07037   0.09085  -0.04769   0.09085
  36        3PZ        -0.05129   0.07037  -0.09085   0.09085  -0.04769
  37 5   F  1S          0.00649  -0.00022  -0.00429   0.00429   0.00429
  38        2S         -0.00087  -0.00097   0.00638  -0.00638  -0.00638
  39        2PX         0.03349  -0.06079  -0.04207   0.07981   0.07981
  40        2PY        -0.03349   0.06079   0.07981  -0.04207  -0.07981
  41        2PZ        -0.03349   0.06079   0.07981  -0.07981  -0.04207
  42        3S         -0.02632  -0.00900   0.01296  -0.01296  -0.01296
  43        3PX         0.05129  -0.07037  -0.04769   0.09085   0.09085
  44        3PY        -0.05129   0.07037   0.09085  -0.04769  -0.09085
  45        3PZ        -0.05129   0.07037   0.09085  -0.09085  -0.04769
                           6         7         8         9        10
   6        3S          0.02716
   7        3PX         0.00000   0.06778
   8        3PY         0.00000  -0.00000   0.06778
   9        3PZ         0.00000  -0.00000   0.00000   0.06778
  10 2   F  1S          0.01556  -0.01121  -0.01121   0.01121   2.05818
  11        2S          0.00429  -0.00166  -0.00166   0.00166   0.06678
  12        2PX         0.02643   0.08794  -0.02558   0.02558   0.01427
  13        2PY         0.02643  -0.02558   0.08794   0.02558   0.01427
  14        2PZ        -0.02643   0.02558   0.02558   0.08794  -0.01427
  15        3S          0.00621   0.02362   0.02362  -0.02362  -0.48541
  16        3PX         0.03124   0.09935  -0.02440   0.02440   0.00443
  17        3PY         0.03124  -0.02440   0.09935   0.02440   0.00443
  18        3PZ        -0.03124   0.02440   0.02440   0.09935  -0.00443
  19 3   F  1S          0.01556   0.01121   0.01121   0.01121  -0.00064
  20        2S          0.00429   0.00166   0.00166   0.00166   0.00238
  21        2PX        -0.02643   0.08794  -0.02558  -0.02558  -0.00830
  22        2PY        -0.02643  -0.02558   0.08794  -0.02558  -0.00830
  23        2PZ        -0.02643  -0.02558  -0.02558   0.08794   0.00500
  24        3S          0.00621  -0.02362  -0.02362  -0.02362  -0.00013
  25        3PX        -0.03124   0.09935  -0.02440  -0.02440  -0.00539
  26        3PY        -0.03124  -0.02440   0.09935  -0.02440  -0.00539
  27        3PZ        -0.03124  -0.02440  -0.02440   0.09935   0.00270
  28 4   F  1S          0.01556  -0.01121   0.01121  -0.01121  -0.00064
  29        2S          0.00429  -0.00166   0.00166  -0.00166   0.00238
  30        2PX         0.02643   0.08794   0.02558  -0.02558  -0.00500
  31        2PY        -0.02643   0.02558   0.08794   0.02558  -0.00830
  32        2PZ         0.02643  -0.02558   0.02558   0.08794   0.00830
  33        3S          0.00621   0.02362  -0.02362   0.02362  -0.00013
  34        3PX         0.03124   0.09935   0.02440  -0.02440  -0.00270
  35        3PY        -0.03124   0.02440   0.09935   0.02440  -0.00539
  36        3PZ         0.03124  -0.02440   0.02440   0.09935   0.00539
  37 5   F  1S          0.01556   0.01121  -0.01121  -0.01121  -0.00064
  38        2S          0.00429   0.00166  -0.00166  -0.00166   0.00238
  39        2PX        -0.02643   0.08794   0.02558   0.02558  -0.00830
  40        2PY         0.02643   0.02558   0.08794  -0.02558  -0.00500
  41        2PZ         0.02643   0.02558  -0.02558   0.08794   0.00830
  42        3S          0.00621  -0.02362   0.02362   0.02362  -0.00013
  43        3PX        -0.03124   0.09935   0.02440   0.02440  -0.00539
  44        3PY         0.03124   0.02440   0.09935  -0.02440  -0.00270
  45        3PZ         0.03124   0.02440  -0.02440   0.09935   0.00539
                          11        12        13        14        15
  11        2S          0.13613
  12        2PX        -0.01555   0.51776
  13        2PY        -0.01555  -0.03513   0.51776
  14        2PZ         0.01555   0.03513   0.03513   0.51776
  15        3S          0.38846  -0.04598  -0.04598   0.04598   1.36262
  16        3PX        -0.01617   0.59285  -0.03763   0.03763  -0.04052
  17        3PY        -0.01617  -0.03763   0.59285   0.03763  -0.04052
  18        3PZ         0.01617   0.03763   0.03763   0.59285   0.04052
  19 3   F  1S          0.00238   0.00830   0.00830   0.00500  -0.00013
  20        2S         -0.00041  -0.00390  -0.00390   0.00236  -0.00285
  21        2PX         0.00390   0.01832   0.03510   0.00453   0.04732
  22        2PY         0.00390   0.03510   0.01832   0.00453   0.04732
  23        2PZ         0.00236  -0.00453  -0.00453   0.00175  -0.04667
  24        3S         -0.00285  -0.04732  -0.04732  -0.04667  -0.01737
  25        3PX         0.00478   0.01266   0.05014   0.01113   0.05314
  26        3PY         0.00478   0.05014   0.01266   0.01113   0.05314
  27        3PZ         0.00242   0.00159   0.00159   0.01015  -0.04943
  28 4   F  1S          0.00238  -0.00500   0.00830  -0.00830  -0.00013
  29        2S         -0.00041  -0.00236  -0.00390   0.00390  -0.00285
  30        2PX        -0.00236   0.00175   0.00453  -0.00453   0.04667
  31        2PY         0.00390  -0.00453   0.01832  -0.03510   0.04732
  32        2PZ        -0.00390   0.00453  -0.03510   0.01832  -0.04732
  33        3S         -0.00285   0.04667  -0.04732   0.04732  -0.01737
  34        3PX        -0.00242   0.01015  -0.00159   0.00159   0.04943
  35        3PY         0.00478  -0.01113   0.01266  -0.05014   0.05314
  36        3PZ        -0.00478   0.01113  -0.05014   0.01266  -0.05314
  37 5   F  1S          0.00238   0.00830  -0.00500  -0.00830  -0.00013
  38        2S         -0.00041  -0.00390  -0.00236   0.00390  -0.00285
  39        2PX         0.00390   0.01832  -0.00453  -0.03510   0.04732
  40        2PY        -0.00236   0.00453   0.00175  -0.00453   0.04667
  41        2PZ        -0.00390  -0.03510   0.00453   0.01832  -0.04732
  42        3S         -0.00285  -0.04732   0.04667   0.04732  -0.01737
  43        3PX         0.00478   0.01266  -0.01113  -0.05014   0.05314
  44        3PY        -0.00242  -0.00159   0.01015   0.00159   0.04943
  45        3PZ        -0.00478  -0.05014   0.01113   0.01266  -0.05314
                          16        17        18        19        20
  16        3PX         0.68010
  17        3PY        -0.03993   0.68010
  18        3PZ         0.03993   0.03993   0.68010
  19 3   F  1S          0.00539   0.00539   0.00270   2.05818
  20        2S         -0.00478  -0.00478   0.00242   0.06678   0.13613
  21        2PX         0.01266   0.05014  -0.00159  -0.01427   0.01555
  22        2PY         0.05014   0.01266  -0.00159  -0.01427   0.01555
  23        2PZ        -0.01113  -0.01113   0.01015  -0.01427   0.01555
  24        3S         -0.05314  -0.05314  -0.04943  -0.48541   0.38846
  25        3PX         0.00454   0.06828   0.00458  -0.00443   0.01617
  26        3PY         0.06828   0.00454   0.00458  -0.00443   0.01617
  27        3PZ        -0.00458  -0.00458   0.02072  -0.00443   0.01617
  28 4   F  1S         -0.00270   0.00539  -0.00539  -0.00064   0.00238
  29        2S         -0.00242  -0.00478   0.00478   0.00238  -0.00041
  30        2PX         0.01015   0.01113  -0.01113   0.00830  -0.00390
  31        2PY         0.00159   0.01266  -0.05014   0.00500   0.00236
  32        2PZ        -0.00159  -0.05014   0.01266   0.00830  -0.00390
  33        3S          0.04943  -0.05314   0.05314  -0.00013  -0.00285
  34        3PX         0.02072   0.00458  -0.00458   0.00539  -0.00478
  35        3PY        -0.00458   0.00454  -0.06828   0.00270   0.00242
  36        3PZ         0.00458  -0.06828   0.00454   0.00539  -0.00478
  37 5   F  1S          0.00539  -0.00270  -0.00539  -0.00064   0.00238
  38        2S         -0.00478  -0.00242   0.00478   0.00238  -0.00041
  39        2PX         0.01266   0.00159  -0.05014   0.00500   0.00236
  40        2PY         0.01113   0.01015  -0.01113   0.00830  -0.00390
  41        2PZ        -0.05014  -0.00159   0.01266   0.00830  -0.00390
  42        3S         -0.05314   0.04943   0.05314  -0.00013  -0.00285
  43        3PX         0.00454  -0.00458  -0.06828   0.00270   0.00242
  44        3PY         0.00458   0.02072  -0.00458   0.00539  -0.00478
  45        3PZ        -0.06828   0.00458   0.00454   0.00539  -0.00478
                          21        22        23        24        25
  21        2PX         0.51776
  22        2PY        -0.03513   0.51776
  23        2PZ        -0.03513  -0.03513   0.51776
  24        3S          0.04598   0.04598   0.04598   1.36262
  25        3PX         0.59285  -0.03763  -0.03763   0.04052   0.68010
  26        3PY        -0.03763   0.59285  -0.03763   0.04052  -0.03993
  27        3PZ        -0.03763  -0.03763   0.59285   0.04052  -0.03993
  28 4   F  1S         -0.00830   0.00500  -0.00830  -0.00013  -0.00539
  29        2S          0.00390   0.00236   0.00390  -0.00285   0.00478
  30        2PX         0.01832  -0.00453   0.03510  -0.04732   0.01266
  31        2PY         0.00453   0.00175   0.00453  -0.04667   0.01113
  32        2PZ         0.03510  -0.00453   0.01832  -0.04732   0.05014
  33        3S          0.04732  -0.04667   0.04732  -0.01737   0.05314
  34        3PX         0.01266  -0.01113   0.05014  -0.05314   0.00454
  35        3PY        -0.00159   0.01015  -0.00159  -0.04943   0.00458
  36        3PZ         0.05014  -0.01113   0.01266  -0.05314   0.06828
  37 5   F  1S          0.00500  -0.00830  -0.00830  -0.00013   0.00270
  38        2S          0.00236   0.00390   0.00390  -0.00285   0.00242
  39        2PX         0.00175   0.00453   0.00453  -0.04667   0.01015
  40        2PY        -0.00453   0.01832   0.03510  -0.04732   0.00159
  41        2PZ        -0.00453   0.03510   0.01832  -0.04732   0.00159
  42        3S         -0.04667   0.04732   0.04732  -0.01737  -0.04943
  43        3PX         0.01015  -0.00159  -0.00159  -0.04943   0.02072
  44        3PY        -0.01113   0.01266   0.05014  -0.05314  -0.00458
  45        3PZ        -0.01113   0.05014   0.01266  -0.05314  -0.00458
                          26        27        28        29        30
  26        3PY         0.68010
  27        3PZ        -0.03993   0.68010
  28 4   F  1S          0.00270  -0.00539   2.05818
  29        2S          0.00242   0.00478   0.06678   0.13613
  30        2PX         0.00159   0.05014   0.01427  -0.01555   0.51776
  31        2PY         0.01015   0.01113  -0.01427   0.01555   0.03513
  32        2PZ         0.00159   0.01266   0.01427  -0.01555  -0.03513
  33        3S         -0.04943   0.05314  -0.48541   0.38846  -0.04598
  34        3PX        -0.00458   0.06828   0.00443  -0.01617   0.59285
  35        3PY         0.02072   0.00458  -0.00443   0.01617   0.03763
  36        3PZ        -0.00458   0.00454   0.00443  -0.01617  -0.03763
  37 5   F  1S         -0.00539  -0.00539  -0.00064   0.00238   0.00830
  38        2S          0.00478   0.00478   0.00238  -0.00041  -0.00390
  39        2PX         0.01113   0.01113  -0.00830   0.00390   0.01832
  40        2PY         0.01266   0.05014   0.00830  -0.00390  -0.03510
  41        2PZ         0.05014   0.01266  -0.00500  -0.00236   0.00453
  42        3S          0.05314   0.05314  -0.00013  -0.00285  -0.04732
  43        3PX         0.00458   0.00458  -0.00539   0.00478   0.01266
  44        3PY         0.00454   0.06828   0.00539  -0.00478  -0.05014
  45        3PZ         0.06828   0.00454  -0.00270  -0.00242  -0.00159
                          31        32        33        34        35
  31        2PY         0.51776
  32        2PZ         0.03513   0.51776
  33        3S          0.04598  -0.04598   1.36262
  34        3PX         0.03763  -0.03763  -0.04052   0.68010
  35        3PY         0.59285   0.03763   0.04052   0.03993   0.68010
  36        3PZ         0.03763   0.59285  -0.04052  -0.03993   0.03993
  37 5   F  1S         -0.00830  -0.00500  -0.00013   0.00539  -0.00539
  38        2S          0.00390  -0.00236  -0.00285  -0.00478   0.00478
  39        2PX        -0.03510  -0.00453   0.04732   0.01266  -0.05014
  40        2PY         0.01832   0.00453  -0.04732  -0.05014   0.01266
  41        2PZ        -0.00453   0.00175   0.04667   0.01113  -0.01113
  42        3S          0.04732   0.04667  -0.01737  -0.05314   0.05314
  43        3PX        -0.05014  -0.01113   0.05314   0.00454  -0.06828
  44        3PY         0.01266   0.01113  -0.05314  -0.06828   0.00454
  45        3PZ         0.00159   0.01015   0.04943   0.00458  -0.00458
                          36        37        38        39        40
  36        3PZ         0.68010
  37 5   F  1S         -0.00270   2.05818
  38        2S         -0.00242   0.06678   0.13613
  39        2PX         0.00159  -0.01427   0.01555   0.51776
  40        2PY        -0.00159   0.01427  -0.01555   0.03513   0.51776
  41        2PZ         0.01015   0.01427  -0.01555   0.03513  -0.03513
  42        3S          0.04943  -0.48541   0.38846   0.04598  -0.04598
  43        3PX        -0.00458  -0.00443   0.01617   0.59285   0.03763
  44        3PY         0.00458   0.00443  -0.01617   0.03763   0.59285
  45        3PZ         0.02072   0.00443  -0.01617   0.03763  -0.03763
                          41        42        43        44        45
  41        2PZ         0.51776
  42        3S         -0.04598   1.36262
  43        3PX         0.03763   0.04052   0.68010
  44        3PY        -0.03763  -0.04052   0.03993   0.68010
  45        3PZ         0.59285  -0.04052   0.03993  -0.03993   0.68010
    Full Mulliken population analysis:
                           1         2         3         4         5
   1 1   B  1S          1.99677
   2        2S          0.01804   0.14316
   3        2PX         0.00000   0.00000   0.13417
   4        2PY         0.00000   0.00000   0.00000   0.13417
   5        2PZ         0.00000   0.00000   0.00000   0.00000   0.13417
   6        3S         -0.01248   0.04152   0.00000   0.00000   0.00000
   7        3PX         0.00000   0.00000   0.00613   0.00000   0.00000
   8        3PY         0.00000   0.00000   0.00000   0.00613   0.00000
   9        3PZ         0.00000   0.00000   0.00000   0.00000   0.00613
  10 2   F  1S          0.00000  -0.00000  -0.00005  -0.00005  -0.00005
  11        2S         -0.00000  -0.00005   0.00041   0.00041   0.00041
  12        2PX        -0.00000   0.00202   0.00089   0.00346   0.00346
  13        2PY        -0.00000   0.00202   0.00346   0.00089   0.00346
  14        2PZ        -0.00000   0.00202   0.00346   0.00346   0.00089
  15        3S         -0.00042  -0.00167   0.00213   0.00213   0.00213
  16        3PX        -0.00161   0.01360   0.00165   0.01662   0.01662
  17        3PY        -0.00161   0.01360   0.01662   0.00165   0.01662
  18        3PZ        -0.00161   0.01360   0.01662   0.01662   0.00165
  19 3   F  1S          0.00000  -0.00000  -0.00005  -0.00005  -0.00005
  20        2S         -0.00000  -0.00005   0.00041   0.00041   0.00041
  21        2PX        -0.00000   0.00202   0.00089   0.00346   0.00346
  22        2PY        -0.00000   0.00202   0.00346   0.00089   0.00346
  23        2PZ        -0.00000   0.00202   0.00346   0.00346   0.00089
  24        3S         -0.00042  -0.00167   0.00213   0.00213   0.00213
  25        3PX        -0.00161   0.01360   0.00165   0.01662   0.01662
  26        3PY        -0.00161   0.01360   0.01662   0.00165   0.01662
  27        3PZ        -0.00161   0.01360   0.01662   0.01662   0.00165
  28 4   F  1S          0.00000  -0.00000  -0.00005  -0.00005  -0.00005
  29        2S         -0.00000  -0.00005   0.00041   0.00041   0.00041
  30        2PX        -0.00000   0.00202   0.00089   0.00346   0.00346
  31        2PY        -0.00000   0.00202   0.00346   0.00089   0.00346
  32        2PZ        -0.00000   0.00202   0.00346   0.00346   0.00089
  33        3S         -0.00042  -0.00167   0.00213   0.00213   0.00213
  34        3PX        -0.00161   0.01360   0.00165   0.01662   0.01662
  35        3PY        -0.00161   0.01360   0.01662   0.00165   0.01662
  36        3PZ        -0.00161   0.01360   0.01662   0.01662   0.00165
  37 5   F  1S          0.00000  -0.00000  -0.00005  -0.00005  -0.00005
  38        2S         -0.00000  -0.00005   0.00041   0.00041   0.00041
  39        2PX        -0.00000   0.00202   0.00089   0.00346   0.00346
  40        2PY        -0.00000   0.00202   0.00346   0.00089   0.00346
  41        2PZ        -0.00000   0.00202   0.00346   0.00346   0.00089
  42        3S         -0.00042  -0.00167   0.00213   0.00213   0.00213
  43        3PX        -0.00161   0.01360   0.00165   0.01662   0.01662
  44        3PY        -0.00161   0.01360   0.01662   0.00165   0.01662
  45        3PZ        -0.00161   0.01360   0.01662   0.01662   0.00165
                           6         7         8         9        10
   6        3S          0.02716
   7        3PX         0.00000   0.06778
   8        3PY         0.00000   0.00000   0.06778
   9        3PZ         0.00000   0.00000   0.00000   0.06778
  10 2   F  1S          0.00042   0.00034   0.00034   0.00034   2.05818
  11        2S          0.00060   0.00025   0.00025   0.00025   0.01434
  12        2PX         0.00078   0.00186   0.00080   0.00080   0.00000
  13        2PY         0.00078   0.00080   0.00186   0.00080   0.00000
  14        2PZ         0.00078   0.00080   0.00080   0.00186   0.00000
  15        3S          0.00212  -0.00721  -0.00721  -0.00721  -0.08911
  16        3PX         0.00484   0.01366   0.00338   0.00338   0.00000
  17        3PY         0.00484   0.00338   0.01366   0.00338   0.00000
  18        3PZ         0.00484   0.00338   0.00338   0.01366   0.00000
  19 3   F  1S          0.00042   0.00034   0.00034   0.00034   0.00000
  20        2S          0.00060   0.00025   0.00025   0.00025   0.00000
  21        2PX         0.00078   0.00186   0.00080   0.00080   0.00000
  22        2PY         0.00078   0.00080   0.00186   0.00080   0.00000
  23        2PZ         0.00078   0.00080   0.00080   0.00186  -0.00000
  24        3S          0.00212  -0.00721  -0.00721  -0.00721  -0.00000
  25        3PX         0.00484   0.01366   0.00338   0.00338   0.00000
  26        3PY         0.00484   0.00338   0.01366   0.00338   0.00000
  27        3PZ         0.00484   0.00338   0.00338   0.01366  -0.00000
  28 4   F  1S          0.00042   0.00034   0.00034   0.00034   0.00000
  29        2S          0.00060   0.00025   0.00025   0.00025   0.00000
  30        2PX         0.00078   0.00186   0.00080   0.00080  -0.00000
  31        2PY         0.00078   0.00080   0.00186   0.00080   0.00000
  32        2PZ         0.00078   0.00080   0.00080   0.00186   0.00000
  33        3S          0.00212  -0.00721  -0.00721  -0.00721  -0.00000
  34        3PX         0.00484   0.01366   0.00338   0.00338  -0.00000
  35        3PY         0.00484   0.00338   0.01366   0.00338   0.00000
  36        3PZ         0.00484   0.00338   0.00338   0.01366   0.00000
  37 5   F  1S          0.00042   0.00034   0.00034   0.00034   0.00000
  38        2S          0.00060   0.00025   0.00025   0.00025   0.00000
  39        2PX         0.00078   0.00186   0.00080   0.00080   0.00000
  40        2PY         0.00078   0.00080   0.00186   0.00080  -0.00000
  41        2PZ         0.00078   0.00080   0.00080   0.00186   0.00000
  42        3S          0.00212  -0.00721  -0.00721  -0.00721  -0.00000
  43        3PX         0.00484   0.01366   0.00338   0.00338   0.00000
  44        3PY         0.00484   0.00338   0.01366   0.00338  -0.00000
  45        3PZ         0.00484   0.00338   0.00338   0.01366   0.00000
                          11        12        13        14        15
  11        2S          0.13613
  12        2PX         0.00000   0.51776
  13        2PY         0.00000   0.00000   0.51776
  14        2PZ         0.00000  -0.00000   0.00000   0.51776
  15        3S          0.28443   0.00000   0.00000   0.00000   1.36262
  16        3PX         0.00000   0.28953   0.00000  -0.00000   0.00000
  17        3PY         0.00000   0.00000   0.28953   0.00000   0.00000
  18        3PZ         0.00000  -0.00000   0.00000   0.28953   0.00000
  19 3   F  1S          0.00000   0.00000   0.00000  -0.00000  -0.00000
  20        2S         -0.00000  -0.00000  -0.00000   0.00000  -0.00000
  21        2PX        -0.00000  -0.00000  -0.00000  -0.00000  -0.00002
  22        2PY        -0.00000  -0.00000  -0.00000  -0.00000  -0.00002
  23        2PZ        -0.00000   0.00000   0.00000   0.00000   0.00000
  24        3S         -0.00000  -0.00002  -0.00002   0.00000  -0.00013
  25        3PX        -0.00000  -0.00001  -0.00007   0.00000  -0.00088
  26        3PY        -0.00000  -0.00007  -0.00001   0.00000  -0.00088
  27        3PZ         0.00000   0.00000   0.00000   0.00000   0.00000
  28 4   F  1S          0.00000  -0.00000   0.00000   0.00000  -0.00000
  29        2S         -0.00000   0.00000  -0.00000  -0.00000  -0.00000
  30        2PX        -0.00000   0.00000   0.00000   0.00000   0.00000
  31        2PY        -0.00000  -0.00000  -0.00000  -0.00000  -0.00002
  32        2PZ        -0.00000  -0.00000  -0.00000  -0.00000  -0.00002
  33        3S         -0.00000   0.00000  -0.00002  -0.00002  -0.00013
  34        3PX         0.00000   0.00000   0.00000   0.00000   0.00000
  35        3PY        -0.00000   0.00000  -0.00001  -0.00007  -0.00088
  36        3PZ        -0.00000   0.00000  -0.00007  -0.00001  -0.00088
  37 5   F  1S          0.00000   0.00000  -0.00000   0.00000  -0.00000
  38        2S         -0.00000  -0.00000   0.00000  -0.00000  -0.00000
  39        2PX        -0.00000  -0.00000  -0.00000  -0.00000  -0.00002
  40        2PY        -0.00000   0.00000   0.00000   0.00000   0.00000
  41        2PZ        -0.00000  -0.00000  -0.00000  -0.00000  -0.00002
  42        3S         -0.00000  -0.00002   0.00000  -0.00002  -0.00013
  43        3PX        -0.00000  -0.00001   0.00000  -0.00007  -0.00088
  44        3PY         0.00000   0.00000   0.00000   0.00000   0.00000
  45        3PZ        -0.00000  -0.00007   0.00000  -0.00001  -0.00088
                          16        17        18        19        20
  16        3PX         0.68010
  17        3PY         0.00000   0.68010
  18        3PZ        -0.00000   0.00000   0.68010
  19 3   F  1S          0.00000   0.00000  -0.00000   2.05818
  20        2S         -0.00000  -0.00000   0.00000   0.01434   0.13613
  21        2PX        -0.00001  -0.00007   0.00000   0.00000   0.00000
  22        2PY        -0.00007  -0.00001   0.00000   0.00000   0.00000
  23        2PZ         0.00000   0.00000   0.00000   0.00000   0.00000
  24        3S         -0.00088  -0.00088  -0.00000  -0.08911   0.28443
  25        3PX        -0.00013  -0.00250  -0.00000   0.00000   0.00000
  26        3PY        -0.00250  -0.00013  -0.00000   0.00000   0.00000
  27        3PZ         0.00000   0.00000   0.00015   0.00000   0.00000
  28 4   F  1S         -0.00000   0.00000   0.00000   0.00000   0.00000
  29        2S          0.00000  -0.00000  -0.00000   0.00000  -0.00000
  30        2PX         0.00000   0.00000   0.00000   0.00000  -0.00000
  31        2PY         0.00000  -0.00001  -0.00007  -0.00000   0.00000
  32        2PZ         0.00000  -0.00007  -0.00001   0.00000  -0.00000
  33        3S         -0.00000  -0.00088  -0.00088  -0.00000  -0.00000
  34        3PX         0.00015   0.00000   0.00000   0.00000  -0.00000
  35        3PY        -0.00000  -0.00013  -0.00250  -0.00000   0.00000
  36        3PZ        -0.00000  -0.00250  -0.00013   0.00000  -0.00000
  37 5   F  1S          0.00000  -0.00000   0.00000   0.00000   0.00000
  38        2S         -0.00000   0.00000  -0.00000   0.00000  -0.00000
  39        2PX        -0.00001   0.00000  -0.00007  -0.00000  -0.00000
  40        2PY         0.00000   0.00000   0.00000   0.00000  -0.00000
  41        2PZ        -0.00007   0.00000  -0.00001   0.00000  -0.00000
  42        3S         -0.00088  -0.00000  -0.00088  -0.00000  -0.00000
  43        3PX        -0.00013  -0.00000  -0.00250  -0.00000   0.00000
  44        3PY         0.00000   0.00015   0.00000   0.00000  -0.00000
  45        3PZ        -0.00250  -0.00000  -0.00013   0.00000  -0.00000
                          21        22        23        24        25
  21        2PX         0.51776
  22        2PY         0.00000   0.51776
  23        2PZ        -0.00000  -0.00000   0.51776
  24        3S          0.00000   0.00000   0.00000   1.36262
  25        3PX         0.28953   0.00000  -0.00000   0.00000   0.68010
  26        3PY         0.00000   0.28953  -0.00000   0.00000   0.00000
  27        3PZ        -0.00000  -0.00000   0.28953   0.00000  -0.00000
  28 4   F  1S          0.00000  -0.00000   0.00000  -0.00000   0.00000
  29        2S         -0.00000  -0.00000  -0.00000  -0.00000  -0.00000
  30        2PX        -0.00000   0.00000  -0.00000  -0.00002  -0.00001
  31        2PY        -0.00000   0.00000  -0.00000   0.00000   0.00000
  32        2PZ        -0.00000   0.00000  -0.00000  -0.00002  -0.00007
  33        3S         -0.00002   0.00000  -0.00002  -0.00013  -0.00088
  34        3PX        -0.00001   0.00000  -0.00007  -0.00088  -0.00013
  35        3PY         0.00000   0.00000   0.00000  -0.00000  -0.00000
  36        3PZ        -0.00007   0.00000  -0.00001  -0.00088  -0.00250
  37 5   F  1S         -0.00000   0.00000   0.00000  -0.00000  -0.00000
  38        2S          0.00000  -0.00000  -0.00000  -0.00000   0.00000
  39        2PX         0.00000   0.00000   0.00000   0.00000   0.00000
  40        2PY        -0.00000  -0.00000  -0.00000  -0.00002   0.00000
  41        2PZ        -0.00000  -0.00000  -0.00000  -0.00002   0.00000
  42        3S          0.00000  -0.00002  -0.00002  -0.00013  -0.00000
  43        3PX         0.00000   0.00000   0.00000   0.00000   0.00015
  44        3PY         0.00000  -0.00001  -0.00007  -0.00088  -0.00000
  45        3PZ         0.00000  -0.00007  -0.00001  -0.00088  -0.00000
                          26        27        28        29        30
  26        3PY         0.68010
  27        3PZ        -0.00000   0.68010
  28 4   F  1S         -0.00000   0.00000   2.05818
  29        2S          0.00000  -0.00000   0.01434   0.13613
  30        2PX         0.00000  -0.00007   0.00000   0.00000   0.51776
  31        2PY         0.00000   0.00000   0.00000   0.00000  -0.00000
  32        2PZ         0.00000  -0.00001   0.00000   0.00000  -0.00000
  33        3S          0.00000  -0.00088  -0.08911   0.28443   0.00000
  34        3PX         0.00000  -0.00250   0.00000   0.00000   0.28953
  35        3PY         0.00015  -0.00000   0.00000   0.00000  -0.00000
  36        3PZ         0.00000  -0.00013   0.00000   0.00000  -0.00000
  37 5   F  1S          0.00000   0.00000   0.00000   0.00000   0.00000
  38        2S         -0.00000  -0.00000   0.00000  -0.00000  -0.00000
  39        2PX         0.00000   0.00000   0.00000  -0.00000  -0.00000
  40        2PY        -0.00001  -0.00007   0.00000  -0.00000  -0.00000
  41        2PZ        -0.00007  -0.00001  -0.00000  -0.00000   0.00000
  42        3S         -0.00088  -0.00088  -0.00000  -0.00000  -0.00002
  43        3PX         0.00000   0.00000   0.00000  -0.00000  -0.00001
  44        3PY        -0.00013  -0.00250   0.00000  -0.00000  -0.00007
  45        3PZ        -0.00250  -0.00013  -0.00000   0.00000   0.00000
                          31        32        33        34        35
  31        2PY         0.51776
  32        2PZ         0.00000   0.51776
  33        3S          0.00000   0.00000   1.36262
  34        3PX        -0.00000  -0.00000   0.00000   0.68010
  35        3PY         0.28953   0.00000   0.00000  -0.00000   0.68010
  36        3PZ         0.00000   0.28953   0.00000  -0.00000   0.00000
  37 5   F  1S          0.00000  -0.00000  -0.00000   0.00000   0.00000
  38        2S         -0.00000   0.00000  -0.00000  -0.00000  -0.00000
  39        2PX        -0.00000  -0.00000  -0.00002  -0.00001  -0.00007
  40        2PY        -0.00000  -0.00000  -0.00002  -0.00007  -0.00001
  41        2PZ         0.00000   0.00000   0.00000   0.00000   0.00000
  42        3S         -0.00002   0.00000  -0.00013  -0.00088  -0.00088
  43        3PX        -0.00007   0.00000  -0.00088  -0.00013  -0.00250
  44        3PY        -0.00001   0.00000  -0.00088  -0.00250  -0.00013
  45        3PZ         0.00000   0.00000   0.00000   0.00000   0.00000
                          36        37        38        39        40
  36        3PZ         0.68010
  37 5   F  1S         -0.00000   2.05818
  38        2S          0.00000   0.01434   0.13613
  39        2PX         0.00000   0.00000   0.00000   0.51776
  40        2PY         0.00000   0.00000   0.00000  -0.00000   0.51776
  41        2PZ         0.00000   0.00000   0.00000  -0.00000  -0.00000
  42        3S         -0.00000  -0.08911   0.28443   0.00000   0.00000
  43        3PX        -0.00000   0.00000   0.00000   0.28953  -0.00000
  44        3PY        -0.00000   0.00000   0.00000  -0.00000   0.28953
  45        3PZ         0.00015   0.00000   0.00000  -0.00000  -0.00000
                          41        42        43        44        45
  41        2PZ         0.51776
  42        3S          0.00000   1.36262
  43        3PX        -0.00000   0.00000   0.68010
  44        3PY        -0.00000   0.00000  -0.00000   0.68010
  45        3PZ         0.28953   0.00000  -0.00000  -0.00000   0.68010
     Gross orbital populations:
                           1
   1 1   B  1S          1.98131
   2        2S          0.38324
   3        2PX         0.32112
   4        2PY         0.32112
   5        2PZ         0.32112
   6        3S          0.13622
   7        3PX         0.14293
   8        3PY         0.14293
   9        3PZ         0.14293
  10 2   F  1S          1.98470
  11        2S          0.43738
  12        2PX         0.82118
  13        2PY         0.82118
  14        2PZ         0.82118
  15        3S          1.53695
  16        3PX         1.03474
  17        3PY         1.03474
  18        3PZ         1.03474
  19 3   F  1S          1.98470
  20        2S          0.43738
  21        2PX         0.82118
  22        2PY         0.82118
  23        2PZ         0.82118
  24        3S          1.53695
  25        3PX         1.03474
  26        3PY         1.03474
  27        3PZ         1.03474
  28 4   F  1S          1.98470
  29        2S          0.43738
  30        2PX         0.82118
  31        2PY         0.82118
  32        2PZ         0.82118
  33        3S          1.53695
  34        3PX         1.03474
  35        3PY         1.03474
  36        3PZ         1.03474
  37 5   F  1S          1.98470
  38        2S          0.43738
  39        2PX         0.82118
  40        2PY         0.82118
  41        2PZ         0.82118
  42        3S          1.53695
  43        3PX         1.03474
  44        3PY         1.03474
  45        3PZ         1.03474
          Condensed to atoms (all electrons):
               1          2          3          4          5
     1  B    2.903891   0.247258   0.247258   0.247258   0.247258
     2  F    0.247258   9.306995  -0.009161  -0.009161  -0.009161
     3  F    0.247258  -0.009161   9.306995  -0.009161  -0.009161
     4  F    0.247258  -0.009161  -0.009161   9.306995  -0.009161
     5  F    0.247258  -0.009161  -0.009161  -0.009161   9.306995
 Mulliken charges:
               1
     1  B    1.107076
     2  F   -0.526769
     3  F   -0.526769
     4  F   -0.526769
     5  F   -0.526769
 Sum of Mulliken charges =  -1.00000
 Mulliken charges with hydrogens summed into heavy atoms:
               1
     1  B    1.107076
     2  F   -0.526769
     3  F   -0.526769
     4  F   -0.526769
     5  F   -0.526769
 Electronic spatial extent (au):  <R**2>=            342.0023
 Charge=             -1.0000 electrons
 Dipole moment (field-independent basis, Debye):
    X=              0.0000    Y=             -0.0000    Z=             -0.0000  Tot=              0.0000
 Quadrupole moment (field-independent basis, Debye-Ang):
   XX=            -30.4728   YY=            -30.4728   ZZ=            -30.4728
   XY=              0.0000   XZ=             -0.0000   YZ=             -0.0000
 Traceless Quadrupole moment (field-independent basis, Debye-Ang):
   XX=              0.0000   YY=             -0.0000   ZZ=              0.0000
   XY=              0.0000   XZ=             -0.0000   YZ=             -0.0000
 Octapole moment (field-independent basis, Debye-Ang**2):
  XXX=              0.0000  YYY=              0.0000  ZZZ=              0.0000  XYY=             -0.0000
  XXY=             -0.0000  XXZ=             -0.0000  XZZ=             -0.0000  YZZ=              0.0000
  YYZ=              0.0000  XYZ=             -6.0032
 Hexadecapole moment (field-independent basis, Debye-Ang**3):
 XXXX=           -101.9043 YYYY=           -101.9043 ZZZZ=           -101.9043 XXXY=              0.0000
 XXXZ=              0.0000 YYYX=             -0.0000 YYYZ=             -0.0000 ZZZX=              0.0000
 ZZZY=             -0.0000 XXYY=            -37.0059 XXZZ=            -37.0059 YYZZ=            -37.0059
 XXYZ=             -0.0000 YYXZ=              0.0000 ZZXY=             -0.0000
 N-N= 1.731108982898D+02 E-N=-1.363663554764D+03  KE= 4.186246626022D+02
 Symmetry A    KE= 1.200540936930D+02
 Symmetry B1   KE= 9.952352296974D+01
 Symmetry B2   KE= 9.952352296974D+01
 Symmetry B3   KE= 9.952352296974D+01
 Orbital energies and kinetic energies (alpha):
[...]
 Raman Activ --      0.3944                 0.3944                 0.6537
 Depolar (P) --      0.7500                 0.7500                 0.7500
 Depolar (U) --      0.8571                 0.8571                 0.8571
  Atom  AN      X      Y      Z        X      Y      Z        X      Y      Z
     1   5     0.00   0.00   0.00     0.00  -0.00   0.00     0.22   0.22  -0.22
     2   9     0.20   0.21   0.41     0.36  -0.35   0.01     0.34   0.34  -0.34
     3   9    -0.20  -0.21   0.41    -0.36   0.35   0.01    -0.03  -0.03   0.41
     4   9     0.20  -0.21  -0.41     0.36   0.35  -0.01    -0.41  -0.03   0.03
     5   9    -0.20   0.21  -0.41    -0.36  -0.35  -0.01    -0.03  -0.41   0.03
                      4                      5                      6
                     ?A                     ?A                     T2
 Frequencies --    560.6628               560.6628               854.4260
 Red. masses --     17.8365                17.8365                18.9984
 Frc consts  --      3.3034                 3.3034                 8.1718
 IR Inten    --     20.0819                20.0819                 0.0000
 Raman Activ --      0.6537                 0.6537                 1.5249
 Depolar (P) --      0.7500                 0.7500                -0.0000
 Depolar (U) --      0.8571                 0.8571                -0.0000
  Atom  AN      X      Y      Z        X      Y      Z        X      Y      Z
     1   5    -0.21  -0.09  -0.30     0.23  -0.30  -0.07    -0.00  -0.00   0.00
     2   9     0.21   0.09   0.30    -0.22   0.30   0.07     0.29   0.29  -0.29
     3   9    -0.30  -0.43  -0.21    -0.35   0.17  -0.05    -0.29  -0.29  -0.29
     4   9    -0.15   0.45  -0.06     0.16  -0.09   0.46     0.29  -0.29   0.29
     5   9     0.36  -0.06   0.15     0.28  -0.21  -0.44    -0.29   0.29   0.29
                      7                      8                      9
                     ?A                     ?A                     ?A
 Frequencies --   1358.1567              1358.1567              1358.1567
 Red. masses --     12.1109                12.1109                12.1109
 Frc consts  --     13.1622                13.1622                13.1622
 IR Inten    --    403.1538               403.1538               403.1538
 Raman Activ --      0.0262                 0.0262                 0.0262
 Depolar (P) --      0.7500                 0.7500                 0.7500
 Depolar (U) --      0.8571                 0.8571                 0.8571
  Atom  AN      X      Y      Z        X      Y      Z        X      Y      Z
     1   5     0.53   0.21   0.74    -0.54   0.73   0.19    -0.54  -0.54   0.54
     2   9    -0.03  -0.01  -0.03     0.03  -0.03  -0.01     0.18   0.18  -0.18
     3   9    -0.17  -0.15  -0.18    -0.01  -0.07  -0.04     0.08   0.08   0.03
     4   9    -0.13   0.09  -0.14     0.13  -0.14   0.10    -0.03   0.08  -0.08
     5   9     0.02  -0.05  -0.08     0.17  -0.18  -0.15     0.08  -0.03  -0.08

 -------------------
 - Thermochemistry -
 -------------------
 Temperature   298.150 Kelvin.  Pressure   1.00000 Atm.
 Atom     1 has atomic number  5 and mass  11.00931
 Atom     2 has atomic number  9 and mass  18.99840
 Atom     3 has atomic number  9 and mass  18.99840
 Atom     4 has atomic number  9 and mass  18.99840
 Atom     5 has atomic number  9 and mass  18.99840
 Molecular mass:    87.00292 amu.
 Principal axes and moments of inertia in atomic units:
                           1         2         3
     Eigenvalues --   355.91661 355.91661 355.91661
           X            0.69275   0.71821   0.06530
           Y            0.69684  -0.68995   0.19589
           Z           -0.18574   0.09020   0.97845
 This molecule is a spherical top.
 Rotational symmetry number 12.
 Rotational temperatures (Kelvin)      0.24335     0.24335     0.24335
 Rotational constants (GHZ):           5.07069     5.07069     5.07069
 Zero-point vibrational energy      44029.7 (Joules/Mol)
                                   10.52336 (Kcal/Mol)
 Warning -- explicit consideration of   5 degrees of freedom as
           vibrations may cause significant error
 Vibrational temperatures:    539.77   539.77   806.67   806.67   806.67
          (Kelvin)           1229.33  1954.08  1954.08  1954.08
 
 Zero-point correction=                           0.016770 (Hartree/Particle)
 Thermal correction to Energy=                    0.020911
 Thermal correction to Enthalpy=                  0.021855
 Thermal correction to Gibbs Free Energy=        -0.008361
 Sum of electronic and zero-point Energies=           -420.475699
 Sum of electronic and thermal Energies=              -420.471559
 Sum of electronic and thermal Enthalpies=            -420.470614
 Sum of electronic and thermal Free Energies=         -420.500831
 
                     E (Thermal)             CV                S
                      KCal/Mol        Cal/Mol-Kelvin    Cal/Mol-Kelvin
 Total                   13.122             13.288             63.596
 Electronic               0.000              0.000              0.000
 Translational            0.889              2.981             39.303
 Rotational               0.889              2.981             20.376
 Vibrational             11.344              7.326              3.916
 Vibration     1          0.746              1.523              1.059
 Vibration     2          0.746              1.523              1.059
 Vibration     3          0.916              1.116              0.523
 Vibration     4          0.916              1.116              0.523
 Vibration     5          0.916              1.116              0.523
                       Q            Log10(Q)             Ln(Q)
 Total Bot       0.701448D+04          3.845995          8.855731
 Total V=0       0.362803D+12         11.559671         26.617127
 Vib (Bot)       0.347179D-07         -7.459446        -17.176009
 Vib (Bot)    1  0.483573D+00         -0.315538         -0.726554
 Vib (Bot)    2  0.483573D+00         -0.315538         -0.726554
 Vib (Bot)    3  0.277032D+00         -0.557469         -1.283620
 Vib (Bot)    4  0.277032D+00         -0.557469         -1.283620
 Vib (Bot)    5  0.277032D+00         -0.557469         -1.283620
 Vib (V=0)       0.179568D+01          0.254230          0.585386
 Vib (V=0)    1  0.119559D+01          0.077581          0.178638
 Vib (V=0)    2  0.119559D+01          0.077581          0.178638
 Vib (V=0)    3  0.107162D+01          0.030040          0.069170
 Vib (V=0)    4  0.107162D+01          0.030040          0.069170
 Vib (V=0)    5  0.107162D+01          0.030040          0.069170
 Electronic      0.100000D+01          0.000000          0.000000
 Translational   0.318974D+08          7.503755         17.278034
 Rotational      0.633413D+04          3.801687          8.753707
 ***** Axes restored to original set *****
 -------------------------------------------------------------------
 Center     Atomic                   Forces (Hartrees/Bohr)
 Number     Number              X              Y              Z
 -------------------------------------------------------------------
      1        5           0.000000000   -0.000000000    0.000000000
      2        9           0.000020518   -0.000000000   -0.000000000
      3        9          -0.000006839   -0.000009672    0.000016753
      4        9          -0.000006839    0.000019344   -0.000000000
      5        9          -0.000006839   -0.000009672   -0.000016753
 -------------------------------------------------------------------
 Cartesian Forces:  Max     0.000020518 RMS     0.000010595
 FormGI is forming the generalized inverse of G from B-inverse, IUseBI=4.

 GradGradGradGradGradGradGradGradGradGradGradGradGradGradGradGradGradGrad
 Berny optimization.
 Internal  Forces:  Max     0.000020518 RMS     0.000010967
 Search for a local minimum.
 Step number   1 out of a maximum of    2
 All quantities printed in internal units (Hartrees-Bohrs-Radians)
 Second derivative matrix not updated -- analytic derivatives used.
 The second derivative matrix:
                          R1        R2        R3        R4        A1
           R1           0.42317
           R2           0.03390   0.42317
           R3           0.03390   0.03390   0.42317
           R4           0.03390   0.03390   0.03390   0.42317
           A1           0.00699   0.00699  -0.00439  -0.00960   0.03885
           A2           0.01096  -0.00283   0.01220  -0.02033  -0.01206
           A3           0.02142  -0.01719  -0.01903   0.01480  -0.02380
           A4          -0.00283   0.01096   0.01220  -0.02033  -0.01206
           A5          -0.01719   0.02142  -0.01903   0.01480  -0.02380
           A6          -0.01935  -0.01935   0.01805   0.02066   0.03287
           D1           0.01355   0.01355   0.00956  -0.03665   0.03280
           D2          -0.01115  -0.01115   0.02868  -0.00637  -0.01843
           D3           0.01469  -0.02584   0.01434  -0.00319  -0.00922
           D4           0.02584  -0.01469  -0.01434   0.00319   0.00922
                          A2        A3        A4        A5        A6
           A2           0.07850
           A3          -0.04468   0.15312
           A4           0.00520   0.03029   0.07850
           A5           0.03029  -0.06550  -0.04468   0.15312
           A6          -0.05724  -0.04944  -0.05724  -0.04944   0.18049
           D1           0.03648  -0.03796   0.03648  -0.03796  -0.02985
           D2           0.02359  -0.02452   0.02359  -0.02452   0.02029
           D3           0.03372   0.00877  -0.01013  -0.03328   0.01015
           D4           0.01013   0.03328  -0.03372  -0.00877  -0.01015
                          D1        D2        D3        D4
           D1           0.08485
           D2           0.00631   0.05260
           D3           0.00316   0.02630   0.05288
           D4          -0.00316  -0.02630   0.02658   0.05288
 ITU=  0
     Eigenvalues ---    0.09676   0.11063   0.17313   0.24505   0.24804
     Eigenvalues ---    0.40494   0.40496   0.41007   0.52488
 Angle between quadratic step and forces=   0.00 degrees.
 Linear search not attempted -- first point.
 Iteration  1 RMS(Cart)=  0.00002089 RMS(Int)=  0.00000000
 Iteration  2 RMS(Cart)=  0.00000000 RMS(Int)=  0.00000000
 ClnCor:  largest displacement from symmetrization is 2.95D-13 for atom     4.
 Variable       Old X    -DE/DX   Delta X   Delta X   Delta X     New X
                                 (Linear)    (Quad)   (Total)
    R1        2.65052  -0.00002   0.00000  -0.00004  -0.00004   2.65048
    R2        2.65052  -0.00002   0.00000  -0.00004  -0.00004   2.65048
    R3        2.65052  -0.00002   0.00000  -0.00004  -0.00004   2.65048
    R4        2.65052  -0.00002   0.00000  -0.00004  -0.00004   2.65048
    A1        1.91063  -0.00000   0.00000   0.00000   0.00000   1.91063
    A2        1.91063   0.00000   0.00000   0.00000   0.00000   1.91063
    A3        1.91063   0.00000   0.00000   0.00000   0.00000   1.91063
    A4        1.91063  -0.00000   0.00000  -0.00000   0.00000   1.91063
    A5        1.91063   0.00000   0.00000  -0.00000  -0.00000   1.91063
    A6        1.91063  -0.00000   0.00000  -0.00000   0.00000   1.91063
    D1        2.09440  -0.00000   0.00000   0.00000  -0.00000   2.09440
    D2       -2.09440  -0.00000   0.00000  -0.00000   0.00000  -2.09440
    D3        2.09440   0.00000   0.00000   0.00000   0.00000   2.09440
    D4       -2.09440   0.00000   0.00000   0.00000   0.00000  -2.09440
         Item               Value     Threshold  Converged?
 Maximum Force            0.000021     0.000450     YES
 RMS     Force            0.000011     0.000300     YES
 Maximum Displacement     0.000039     0.001800     YES
 RMS     Displacement     0.000021     0.001200     YES
 Predicted change in Energy=-1.604074D-09
 Optimization completed.
    -- Stationary point found.
                           ----------------------------
                           !   Optimized Parameters   !
                           ! (Angstroms and Degrees)  !
 --------------------------                            --------------------------
 ! Name  Definition              Value          Derivative Info.                !
 --------------------------------------------------------------------------------
 ! R1    R(1,2)                  1.4026         -DE/DX =    0.0                 !
 ! R2    R(1,3)                  1.4026         -DE/DX =    0.0                 !
 ! R3    R(1,4)                  1.4026         -DE/DX =    0.0                 !
 ! R4    R(1,5)                  1.4026         -DE/DX =    0.0                 !
 ! A1    A(2,1,3)              109.4712         -DE/DX =    0.0                 !
 ! A2    A(2,1,4)              109.4712         -DE/DX =    0.0                 !
 ! A3    A(2,1,5)              109.4712         -DE/DX =    0.0                 !
 ! A4    A(3,1,4)              109.4712         -DE/DX =    0.0                 !
 ! A5    A(3,1,5)              109.4712         -DE/DX =    0.0                 !
 ! A6    A(4,1,5)              109.4712         -DE/DX =    0.0                 !
 ! D1    D(2,1,4,3)            120.0            -DE/DX =    0.0                 !
 ! D2    D(2,1,5,3)           -120.0            -DE/DX =    0.0                 !
 ! D3    D(2,1,5,4)            120.0            -DE/DX =    0.0                 !
 ! D4    D(3,1,5,4)           -120.0            -DE/DX =    0.0                 !
 --------------------------------------------------------------------------------
 GradGradGradGradGradGradGradGradGradGradGradGradGradGradGradGradGradGrad

 Dipole is zero, so no output in dipole orientation.

 ----------------------------------------------------------------------

 Electric dipole moment (input orientation):
 (Debye = 10**-18 statcoulomb cm , SI units = C m)
                  (au)            (Debye)         (10**-30 SI)
   Tot        0.000000D+00      0.000000D+00      0.000000D+00
   x          0.000000D+00      0.000000D+00      0.000000D+00
   y          0.000000D+00      0.000000D+00      0.000000D+00
   z          0.000000D+00      0.000000D+00      0.000000D+00

 Dipole polarizability, Alpha (input orientation).
 (esu units = cm**3 , SI units = C**2 m**2 J**-1)
 Alpha(0;0):
               (au)            (10**-24 esu)      (10**-40 SI)
   iso        0.790090D+01      0.117079D+01      0.130268D+01
   aniso      0.000000D+00      0.000000D+00      0.000000D+00
   xx         0.790090D+01      0.117079D+01      0.130268D+01
   yx         0.000000D+00      0.000000D+00      0.000000D+00
   yy         0.790090D+01      0.117079D+01      0.130268D+01
   zx         0.000000D+00      0.000000D+00      0.000000D+00
   zy         0.000000D+00      0.000000D+00      0.000000D+00
   zz         0.790090D+01      0.117079D+01      0.130268D+01

 First dipole hyperpolarizability, Beta (input orientation).
 ||, _|_  parallel and perpendicular components, (z) with respect to z axis,
 vector components x,y,z.  Values do not include the 1/n! factor of 1/2.
 (esu units = statvolt**-1 cm**4 , SI units = C**3 m**3 J**-2)
 Beta(0;0,0):
               (au)            (10**-30 esu)      (10**-50 SI)
   || (z)     0.000000D+00      0.000000D+00      0.000000D+00
   _|_(z)     0.000000D+00      0.000000D+00      0.000000D+00
   x          0.000000D+00      0.000000D+00      0.000000D+00
   y          0.000000D+00      0.000000D+00      0.000000D+00
   z          0.000000D+00      0.000000D+00      0.000000D+00
   ||         0.000000D+00      0.000000D+00      0.000000D+00
   xxx        0.451231D+01      0.389828D-01      0.144681D-01
   xxy       -0.112533D-03     -0.972202D-06     -0.360823D-06
   yxy       -0.225611D+01     -0.194911D-01     -0.723392D-02
   yyy        0.319077D+01      0.275658D-01      0.102308D-01
   xxz        0.000000D+00      0.000000D+00      0.000000D+00
   yxz        0.000000D+00      0.000000D+00      0.000000D+00
   yyz        0.000000D+00      0.000000D+00      0.000000D+00
   zxz       -0.225619D+01     -0.194918D-01     -0.723417D-02
   zyz       -0.319066D+01     -0.275648D-01     -0.102304D-01
   zzz        0.000000D+00      0.000000D+00      0.000000D+00

 ----------------------------------------------------------------------
 1\1\GINC-IISERK51\Freq\RHF\3-21G\B1F4(1-)\GAUSSIAN\16-Jun-2025\0\\#N G
 eom=AllCheck Guess=TCheck SCRF=Check GenChk RHF/3-21G Freq\\BF4- opt\\
 -1,1\B,0.2349727029,1.1202183783,0.\F,-1.1676224803,1.1202358682,0.000
 0001442\F,0.7025125577,1.7814020862,-1.1452143192\F,0.702487941,-0.202
 1668721,0.000000151\F,0.7025127932,1.7814024309,1.145214024\\Version=E
 M64L-G16RevB.01\HF=-420.4924693\RMSD=4.973e-10\RMSF=1.060e-05\ZeroPoin
 t=0.01677\Thermal=0.0209107\Dipole=0.,0.,0.\DipoleDeriv=1.9050563,0.,0
 .,0.,1.9050563,0.,0.,0.,1.9050563,-0.9426607,0.000004,0.,0.000004,-0.6
 180658,0.,0.,0.,-0.6180658,-0.6541332,-0.0510056,0.0883451,-0.0510056,
 -0.6901967,0.1249355,0.0883451,0.1249355,-0.8344625,-0.6541294,0.10200
 72,0.,0.1020072,-0.9065972,0.,0.,0.,-0.6180658,-0.6541332,-0.0510057,-
 0.0883451,-0.0510057,-0.6901968,-0.1249356,-0.0883451,-0.1249356,-0.83
 44624\Polar=7.9009039,0.,7.9009039,0.,0.,7.9009039\PolarDeriv=-0.29541
 76,0.0000074,0.1477062,0.,0.,0.1477114,0.0000074,0.1477062,-0.2088974,
 0.,0.,0.2088901,0.,0.,0.,0.1477115,0.2088901,-0.0000001,-3.6267214,0.0
 000226,-0.335611,0.0000002,0.,-0.3356169,0.0000084,-1.4747155,0.238341
 9,0.,0.,-0.2382968,0.,0.,0.,-1.4747214,-0.2382826,0.0000004,1.3073985,
 0.6777688,-0.0250792,-1.1739554,-0.1519332,0.1503554,0.1407947,0.35462
 89,1.6726307,-0.1519332,-1.2813799,0.212629,-0.2438804,-0.1519332,-0.3
 513049,0.5300635,0.7496031,-2.9140761,1.3073428,-1.355568,0.2380624,0.
 ,0.,-0.1128059,-0.2816053,0.6177505,-3.3747059,0.,0.0000002,-0.3958521
 ,0.,0.,0.,0.2668822,-1.4698148,0.0000005,1.307399,0.6777692,-0.025079,
 1.1739551,0.1519332,0.1503554,0.1407948,0.3546293,1.6726315,0.1519332,
 1.2813796,0.212629,0.2438803,0.1519332,0.3513048,0.5300637,0.7496034,2
 .9140753\HyperPolar=4.5123087,-0.0001125,-2.2561146,3.1907685,-0.00000
 09,-0.0000003,-0.0000012,-2.2561941,-3.1906559,0.0000021\Quadrupole=0.
 ,0.,0.,0.,0.,0.\PG=TD [O(B1),4C3(F1)]\NImag=0\\0.61403249,0.,0.6140324
 9,0.,0.,0.61403249,-0.32157970,0.00000314,0.00000003,0.42316979,0.0000
 0314,-0.06947233,0.,-0.00000448,0.06404368,0.00000003,0.,-0.06947233,-
 0.00000004,0.,0.06404368,-0.09748523,-0.03961518,0.06861613,-0.0338637
 9,-0.02199983,0.03810586,0.10394797,-0.03961518,-0.12549517,0.09703530
 ,-0.01199267,0.00762791,0.01007647,0.05643169,0.14384804,0.06861614,0.
 09703530,-0.23754395,0.02077295,0.01007669,-0.00400839,-0.09774346,-0.
 13822647,0.30346115,-0.09748228,0.07922726,0.,-0.03386252,0.04400100,0
 .,0.01370052,-0.00518464,0.00257665,0.10394377,0.07922726,-0.29356974,
 0.00000003,0.02398668,-0.00982716,0.,0.00482252,-0.03993640,0.02294375
 ,-0.11285897,0.38326971,0.,0.00000003,-0.06947233,0.,0.,0.01344541,-0.
 00320078,0.03928545,-0.00400839,0.00000001,-0.00000004,0.06404368,-0.0
 9748526,-0.03961522,-0.06861615,-0.03386380,-0.02199984,-0.03810585,0.
 01370053,0.00036079,0.00577773,0.01370052,0.00482252,0.00320078,0.1039
 4801,-0.03961522,-0.12549523,-0.09703533,-0.01199268,0.00762790,-0.010
 07647,0.00036079,0.01395563,0.00817073,-0.00518465,-0.03993642,-0.0392
 8544,0.05643175,0.14384812,-0.06861615,-0.09703533,-0.23754386,-0.0207
 7294,-0.01007669,-0.00400837,-0.00577775,-0.00817075,-0.05790044,-0.00
 257665,-0.02294374,-0.00400837,0.09774348,0.13822650,0.30346103\\0.,0.
 ,0.,-0.00002052,0.,0.,0.00000684,0.00000967,-0.00001675,0.00000684,-0.
 00001934,0.,0.00000684,0.00000967,0.00001675\\\@


 NEVER TEACH A PIG TO SING.
 IT WASTES YOUR TIME AND ANNOYS THE PIG.
     -- SEEN ON A GREETING CARD
 Job cpu time:       0 days  0 hours  0 minutes  0.8 seconds.
 Elapsed time:       0 days  0 hours  0 minutes  0.8 seconds.
 File lengths (MBytes):  RWF=      6 Int=      0 D2E=      0 Chk=      1 Scr=      1
 Normal termination of Gaussian 16 at Mon Jun 16 19:48:19 2025.
