 Entering Gaussian System, Link 0=g16
 Input=/home/gaussian/Documents/Summer_Internship/Acid_Base_adduct/Acid/BH3/ideal_pyramid_MX3/BH3_pyramid_sp.com
 Output=/home/gaussian/Documents/Summer_Internship/Acid_Base_adduct/Acid/BH3/ideal_pyramid_MX3/BH3_pyramid_sp.log
 Initial command:
 /usr/local/g16/l1.exe "/home/gaussian/tmp/Gau-30172.inp" -scrdir="/home/gaussian/tmp/"
 Entering Link 1 = /usr/local/g16/l1.exe PID=     30175.
  
 Copyright (c) 1988-2017, Gaussian, Inc.  All Rights Reserved.
  
 This is part of the Gaussian(R) 16 program.  It is based on
 the Gaussian(R) 09 system (copyright 2009, Gaussian, Inc.),
 the Gaussian(R) 03 system (copyright 2003, Gaussian, Inc.),
 the Gaussian(R) 98 system (copyright 1998, Gaussian, Inc.),
 the Gaussian(R) 94 system (copyright 1995, Gaussian, Inc.),
 the Gaussian 92(TM) system (copyright 1992, Gaussian, Inc.),
 the Gaussian 90(TM) system (copyright 1990, Gaussian, Inc.),
 the Gaussian 88(TM) system (copyright 1988, Gaussian, Inc.),
 the Gaussian 86(TM) system (copyright 1986, Carnegie Mellon
 University), and the Gaussian 82(TM) system (copyright 1983,
 Carnegie Mellon University). Gaussian is a federally registered
 trademark of Gaussian, Inc.
  
 This software contains proprietary and confidential information,
 including trade secrets, belonging to Gaussian, Inc.
  
 This software is provided under written license and may be
 used, copied, transmitted, or stored only in accord with that
 written license.
  
 The following legend is applicable only to US Government
 contracts under FAR:
  
                    RESTRICTED RIGHTS LEGEND
  
 Use, reproduction and disclosure by the US Government is
 subject to restrictions as set forth in subparagraphs (a)
 and (c) of the Commercial Computer Software - Restricted
 Rights clause in FAR 52.227-19.
  
 Gaussian, Inc.
 340 Quinnipiac St., Bldg. 40, Wallingford CT 06492
  
  
 ---------------------------------------------------------------
 Warning -- This program may not be used in any manner that
 competes with the business of Gaussian, Inc. or will provide
 assistance to any competitor of Gaussian, Inc.  The licensee
 of this program is prohibited from giving any competitor of
 Gaussian, Inc. access to this program.  By using this program,
 the user acknowledges that Gaussian, Inc. is engaged in the
 business of creating and licensing software in the field of
 computational chemistry and represents and warrants to the
 licensee that it is not a competitor of Gaussian, Inc. and that
 it will not use this program in any manner prohibited above.
 ---------------------------------------------------------------
  

 Cite this work as:
 Gaussian 16, Revision B.01,
 M. J. Frisch, G. W. Trucks, H. B. Schlegel, G. E. Scuseria, 
 M. A. Robb, J. R. Cheeseman, G. Scalmani, V. Barone, 
 G. A. Petersson, H. Nakatsuji, X. Li, M. Caricato, A. V. Marenich, 
 J. Bloino, B. G. Janesko, R. Gomperts, B. Mennucci, H. P. Hratchian, 
 J. V. Ortiz, A. F. Izmaylov, J. L. Sonnenberg, D. Williams-Young, 
 F. Ding, F. Lipparini, F. Egidi, J. Goings, B. Peng, A. Petrone, 
 T. Henderson, D. Ranasinghe, V. G. Zakrzewski, J. Gao, N. Rega, 
 G. Zheng, W. Liang, M. Hada, M. Ehara, K. Toyota, R. Fukuda, 
 J. Hasegawa, M. Ishida, T. Nakajima, Y. Honda, O. Kitao, H. Nakai, 
 T. Vreven, K. Throssell, J. A. Montgomery, Jr., J. E. Peralta, 
 F. Ogliaro, M. J. Bearpark, J. J. Heyd, E. N. Brothers, K. N. Kudin, 
 V. N. Staroverov, T. A. Keith, R. Kobayashi, J. Normand, 
 K. Raghavachari, A. P. Rendell, J. C. Burant, S. S. Iyengar, 
 J. Tomasi, M. Cossi, J. M. Millam, M. Klene, C. Adamo, R. Cammi, 
 J. W. Ochterski, R. L. Martin, K. Morokuma, O. Farkas, 
 J. B. Foresman, and D. J. Fox, Gaussian, Inc., Wallingford CT, 2016.
 
 ******************************************
 Gaussian 16:  EM64L-G16RevB.01 20-Dec-2017
                13-Jun-2025 
 ******************************************
 %chk=BH3_pyramid_sp.chk
 -------------------------------------
 # hf/3-21g pop=full geom=connectivity
 -------------------------------------
 1/38=1,57=2,172=1/1;
 2/12=2,17=6,18=5,40=1/2;
 3/5=5,11=9,25=1,30=1/1,2,3;
 4//1;
 5/5=2,38=5/2;
 6/7=3,28=1/1;
 99/5=1,9=1/99;
 -------------------
 Title Card Required
 -------------------
 Symbolic Z-matrix:
 Charge =  0 Multiplicity = 1
 B                     0.        0.        0. 
 H                    -0.7164    0.7164   -0.7164 
 H                     0.7164   -0.7164   -0.7164 
 H                    -0.7164   -0.7164    0.7164 
 
                          Input orientation:                          
 ---------------------------------------------------------------------
 Center     Atomic      Atomic             Coordinates (Angstroms)
 Number     Number       Type             X           Y           Z
 ---------------------------------------------------------------------
      1          5           0        0.000000    0.000000    0.000000
      2          1           0       -0.716403    0.716403   -0.716403
      3          1           0        0.716403   -0.716403   -0.716403
      4          1           0       -0.716403   -0.716403    0.716403
 ---------------------------------------------------------------------
                    Distance matrix (angstroms):
                    1          2          3          4
     1  B    0.000000
     2  H    1.240846   0.000000
     3  H    1.240846   2.026294   0.000000
     4  H    1.240846   2.026294   2.026294   0.000000
 Stoichiometry    BH3
 Framework group  C3V[C3(B),3SGV(H)]
 Deg. of freedom     2
 Full point group                 C3V     NOp   6
 Largest Abelian subgroup         CS      NOp   2
 Largest concise Abelian subgroup CS      NOp   2
                         Standard orientation:                         
 ---------------------------------------------------------------------
 Center     Atomic      Atomic             Coordinates (Angstroms)
 Number     Number       Type             X           Y           Z
 ---------------------------------------------------------------------
      1          5           0       -0.000000   -0.000000    0.155106
      2          1           0        0.000000    1.169881   -0.258510
      3          1           0        1.013147   -0.584941   -0.258510
      4          1           0       -1.013147   -0.584941   -0.258510
 ---------------------------------------------------------------------
 Rotational constants (GHZ):         204.2099484         204.2099484         122.1313838
 Standard basis: 3-21G (6D, 7F)
 There are    11 symmetry adapted cartesian basis functions of A'  symmetry.
 There are     4 symmetry adapted cartesian basis functions of A"  symmetry.
 There are    11 symmetry adapted basis functions of A'  symmetry.
 There are     4 symmetry adapted basis functions of A"  symmetry.
    15 basis functions,    24 primitive gaussians,    15 cartesian basis functions
     4 alpha electrons        4 beta electrons
       nuclear repulsion energy         7.1804365267 Hartrees.
 NAtoms=    4 NActive=    4 NUniq=    2 SFac= 4.00D+00 NAtFMM=   60 NAOKFM=F Big=F
 Integral buffers will be    131072 words long.
 Raffenetti 1 integral format.
 Two-electron integral symmetry is turned on.
 One-electron integrals computed using PRISM.
 NBasis=    15 RedAO= T EigKep=  2.83D-02  NBF=    11     4
 NBsUse=    15 1.00D-06 EigRej= -1.00D+00 NBFU=    11     4
 ExpMin= 1.24D-01 ExpMax= 1.16D+02 ExpMxC= 1.16D+02 IAcc=3 IRadAn=         5 AccDes= 0.00D+00
 Harris functional with IExCor=  205 and IRadAn=       5 diagonalized for initial guess.
 HarFok:  IExCor=  205 AccDes= 0.00D+00 IRadAn=         5 IDoV= 1 UseB2=F ITyADJ=14
 ICtDFT=  3500011 ScaDFX=  1.000000  1.000000  1.000000  1.000000
 FoFCou: FMM=F IPFlag=           0 FMFlag=      100000 FMFlg1=           0
         NFxFlg=           0 DoJE=T BraDBF=F KetDBF=T FulRan=T
         wScrn=  0.000000 ICntrl=       500 IOpCl=  0 I1Cent=   200000004 NGrid=           0
         NMat0=    1 NMatS0=      1 NMatT0=    0 NMatD0=    1 NMtDS0=    0 NMtDT0=    0
 Petite list used in FoFCou.
 Initial guess orbital symmetries:
       Occupied  (A1) (A1) (E) (E)
       Virtual   (A1) (E) (E) (A1) (E) (E) (A1) (A1) (A1) (E) (E)
 The electronic state of the initial guess is 1-A1.
 Keep R1 ints in memory in symmetry-blocked form, NReq=811246.
 Requested convergence on RMS density matrix=1.00D-08 within 128 cycles.
 Requested convergence on MAX density matrix=1.00D-06.
 Requested convergence on             energy=1.00D-06.
 No special actions if energy rises.
 SCF Done:  E(RHF) =  -26.1961117322     A.U. after    8 cycles
            NFock=  8  Conv=0.61D-08     -V/T= 2.0085

 **********************************************************************

            Population analysis using the SCF Density.

 **********************************************************************

 Orbital symmetries:
       Occupied  (A1) (A1) (E) (E)
       Virtual   (A1) (E) (E) (A1) (E) (E) (A1) (A1) (E) (E) (A1)
 The electronic state is 1-A1.
 Alpha  occ. eigenvalues --   -7.59606  -0.69987  -0.47278  -0.47278
 Alpha virt. eigenvalues --    0.04238   0.29716   0.29716   0.37404   0.60581
 Alpha virt. eigenvalues --    0.60581   0.66202   0.85210   1.37111   1.37111
 Alpha virt. eigenvalues --    1.37333
     Molecular Orbital Coefficients:
                           1         2         3         4         5
                        (A1)--O   (A1)--O   (E)--O    (E)--O    (A1)--V
     Eigenvalues --    -7.59606  -0.69987  -0.47278  -0.47278   0.04238
   1 1   B  1S          0.98804  -0.18968   0.00000  -0.00000  -0.06585
   2        2S          0.08740   0.23893   0.00000   0.00000   0.04064
   3        2PX         0.00000   0.00000   0.36688   0.00000   0.00000
   4        2PY        -0.00000  -0.00000   0.00000   0.36688   0.00000
   5        2PZ         0.00065  -0.06763   0.00000   0.00000   0.31432
   6        3S         -0.05562   0.41552   0.00000  -0.00000   0.41107
   7        3PX         0.00000   0.00000   0.20474   0.00000   0.00000
   8        3PY         0.00000   0.00000   0.00000   0.20474   0.00000
   9        3PZ         0.00711  -0.01923   0.00000   0.00000   0.68190
  10 2   H  1S         -0.00402   0.14953   0.00000   0.24664  -0.04602
  11        2S          0.01459   0.11419   0.00000   0.33381  -0.08644
  12 3   H  1S         -0.00402   0.14953   0.21359  -0.12332  -0.04602
  13        2S          0.01459   0.11419   0.28909  -0.16691  -0.08644
  14 4   H  1S         -0.00402   0.14953  -0.21359  -0.12332  -0.04602
  15        2S          0.01459   0.11419  -0.28909  -0.16691  -0.08644
                           6         7         8         9        10
                        (E)--V    (E)--V    (A1)--V   (E)--V    (E)--V
     Eigenvalues --     0.29716   0.29716   0.37404   0.60581   0.60581
   1 1   B  1S         -0.00000   0.00000  -0.16631   0.00000   0.00000
   2        2S         -0.00000   0.00000   0.16972  -0.00000   0.00000
   3        2PX         0.00000   0.17452   0.00000   0.00000   1.05790
   4        2PY         0.17452   0.00000  -0.00000   1.05790   0.00000
   5        2PZ        -0.00000   0.00000  -0.07586   0.00000   0.00000
   6        3S          0.00000   0.00000   2.86479  -0.00000   0.00000
   7        3PX         0.00000   1.72639   0.00000   0.00000  -0.91175
   8        3PY         1.72639   0.00000  -0.00000  -0.91175   0.00000
   9        3PZ        -0.00000   0.00000  -1.01428  -0.00000   0.00000
  10 2   H  1S         -0.10106   0.00000  -0.02463   0.15595   0.00000
  11        2S         -1.59742   0.00000  -1.48519  -0.17559   0.00000
  12 3   H  1S          0.05053  -0.08752  -0.02463  -0.07797   0.13506
  13        2S          0.79871  -1.38340  -1.48519   0.08780  -0.15207
  14 4   H  1S          0.05053   0.08752  -0.02463  -0.07797  -0.13506
  15        2S          0.79871   1.38340  -1.48519   0.08780   0.15207
                          11        12        13        14        15
                        (A1)--V   (A1)--V   (E)--V    (E)--V    (A1)--V
     Eigenvalues --     0.66202   0.85210   1.37111   1.37111   1.37333
   1 1   B  1S         -0.01696  -0.00004  -0.00000   0.00000   0.06909
   2        2S         -0.05802  -1.51893   0.00000   0.00000  -0.89671
   3        2PX         0.00000   0.00000   0.00000   0.45549   0.00000
   4        2PY        -0.00000  -0.00000   0.45549   0.00000   0.00000
   5        2PZ         1.12649  -0.15349  -0.00000   0.00000   0.21935
   6        3S          0.18309   2.56882  -0.00000   0.00000   2.46251
   7        3PX         0.00000   0.00000   0.00000  -0.87416   0.00000
   8        3PY         0.00000  -0.00000  -0.87416   0.00000  -0.00000
   9        3PZ        -0.95376  -0.37201   0.00000   0.00000  -0.58673
  10 2   H  1S         -0.07778  -0.27236  -1.11142   0.00000   0.71774
  11        2S         -0.01234  -0.48192   1.53740   0.00000  -1.28229
  12 3   H  1S         -0.07778  -0.27236   0.55571  -0.96252   0.71774
  13        2S         -0.01234  -0.48192  -0.76870   1.33143  -1.28229
  14 4   H  1S         -0.07778  -0.27236   0.55571   0.96252   0.71774
  15        2S         -0.01234  -0.48192  -0.76870  -1.33143  -1.28229
     Density Matrix:
                           1         2         3         4         5
   1 1   B  1S          2.02438
   2        2S          0.08207   0.12946
   3        2PX        -0.00000   0.00000   0.26920
   4        2PY         0.00000  -0.00000   0.00000   0.26920
   5        2PZ         0.02694  -0.03220  -0.00000   0.00000   0.00915
   6        3S         -0.26754   0.18884   0.00000  -0.00000  -0.05627
   7        3PX        -0.00000   0.00000   0.15023   0.00000  -0.00000
   8        3PY         0.00000  -0.00000   0.00000   0.15023   0.00000
   9        3PZ         0.02134  -0.00795  -0.00000   0.00000   0.00261
  10 2   H  1S         -0.06468   0.07075   0.00000   0.18097  -0.02023
  11        2S         -0.01448   0.05712   0.00000   0.24494  -0.01543
  12 3   H  1S         -0.06468   0.07075   0.15673  -0.09049  -0.02023
  13        2S         -0.01448   0.05712   0.21212  -0.12247  -0.01543
  14 4   H  1S         -0.06468   0.07075  -0.15673  -0.09049  -0.02023
  15        2S         -0.01448   0.05712  -0.21212  -0.12247  -0.01543
                           6         7         8         9        10
   6        3S          0.35150
   7        3PX         0.00000   0.08384
   8        3PY        -0.00000   0.00000   0.08384
   9        3PZ        -0.01677  -0.00000   0.00000   0.00084
  10 2   H  1S          0.12471   0.00000   0.10099  -0.00581   0.16641
  11        2S          0.09327   0.00000   0.13669  -0.00418   0.19869
  12 3   H  1S          0.12471   0.08746  -0.05050  -0.00581  -0.01608
  13        2S          0.09327   0.11838  -0.06834  -0.00418  -0.04830
  14 4   H  1S          0.12471  -0.08746  -0.05050  -0.00581  -0.01608
  15        2S          0.09327  -0.11838  -0.06834  -0.00418  -0.04830
                          11        12        13        14        15
  11        2S          0.24936
  12 3   H  1S         -0.04830   0.16641
  13        2S         -0.08492   0.19869   0.24936
  14 4   H  1S         -0.04830  -0.01608  -0.04830   0.16641
  15        2S         -0.08492  -0.04830  -0.08492   0.19869   0.24936
    Full Mulliken population analysis:
                           1         2         3         4         5
   1 1   B  1S          2.02438
   2        2S          0.01501   0.12946
   3        2PX         0.00000   0.00000   0.26920
   4        2PY         0.00000   0.00000   0.00000   0.26920
   5        2PZ         0.00000   0.00000   0.00000   0.00000   0.00915
   6        3S         -0.04651   0.14641   0.00000   0.00000   0.00000
   7        3PX         0.00000   0.00000   0.08282   0.00000   0.00000
   8        3PY         0.00000   0.00000   0.00000   0.08282   0.00000
   9        3PZ         0.00000   0.00000   0.00000   0.00000   0.00144
  10 2   H  1S         -0.00076   0.01388   0.00000   0.05473   0.00216
  11        2S         -0.00126   0.02527   0.00000   0.07923   0.00176
  12 3   H  1S         -0.00076   0.01388   0.04105   0.01368   0.00216
  13        2S         -0.00126   0.02527   0.05942   0.01981   0.00176
  14 4   H  1S         -0.00076   0.01388   0.04105   0.01368   0.00216
  15        2S         -0.00126   0.02527   0.05942   0.01981   0.00176
                           6         7         8         9        10
   6        3S          0.35150
   7        3PX         0.00000   0.08384
   8        3PY         0.00000   0.00000   0.08384
   9        3PZ         0.00000   0.00000   0.00000   0.00084
  10 2   H  1S          0.03614   0.00000   0.03987   0.00081   0.16641
  11        2S          0.06036   0.00000   0.08215   0.00089   0.12834
  12 3   H  1S          0.03614   0.02990   0.00997   0.00081  -0.00003
  13        2S          0.06036   0.06161   0.02054   0.00089  -0.00341
  14 4   H  1S          0.03614   0.02990   0.00997   0.00081  -0.00003
  15        2S          0.06036   0.06161   0.02054   0.00089  -0.00341
                          11        12        13        14        15
  11        2S          0.24936
  12 3   H  1S         -0.00341   0.16641
  13        2S         -0.02217   0.12834   0.24936
  14 4   H  1S         -0.00341  -0.00003  -0.00341   0.16641
  15        2S         -0.02217  -0.00341  -0.02217   0.12834   0.24936
     Gross orbital populations:
                           1
   1 1   B  1S          1.98682
   2        2S          0.40831
   3        2PX         0.55297
   4        2PY         0.55297
   5        2PZ         0.02237
   6        3S          0.74088
   7        3PX         0.34968
   8        3PY         0.34968
   9        3PZ         0.00738
  10 2   H  1S          0.43470
  11        2S          0.57495
  12 3   H  1S          0.43470
  13        2S          0.57495
  14 4   H  1S          0.43470
  15        2S          0.57495
          Condensed to atoms (all electrons):
               1          2          3          4
     1  B    3.785357   0.395231   0.395231   0.395231
     2  H    0.395231   0.672445  -0.029013  -0.029013
     3  H    0.395231  -0.029013   0.672445  -0.029013
     4  H    0.395231  -0.029013  -0.029013   0.672445
 Mulliken charges:
               1
     1  B    0.028950
     2  H   -0.009650
     3  H   -0.009650
     4  H   -0.009650
 Sum of Mulliken charges =   0.00000
 Mulliken charges with hydrogens summed into heavy atoms:
               1
     1  B    0.000000
 Electronic spatial extent (au):  <R**2>=             35.9898
 Charge=              0.0000 electrons
 Dipole moment (field-independent basis, Debye):
    X=             -0.0000    Y=             -0.0000    Z=              1.0708  Tot=              1.0708
 Quadrupole moment (field-independent basis, Debye-Ang):
   XX=            -10.0425   YY=            -10.0425   ZZ=             -7.0605
   XY=             -0.0000   XZ=              0.0000   YZ=              0.0000
 Traceless Quadrupole moment (field-independent basis, Debye-Ang):
   XX=             -0.9940   YY=             -0.9940   ZZ=              1.9880
   XY=             -0.0000   XZ=              0.0000   YZ=              0.0000
 Octapole moment (field-independent basis, Debye-Ang**2):
  XXX=              0.0000  YYY=             -0.2075  ZZZ=              1.3631  XYY=              0.0000
  XXY=              0.2075  XXZ=             -0.0450  XZZ=              0.0000  YZZ=              0.0000
  YYZ=             -0.0450  XYZ=             -0.0000
 Hexadecapole moment (field-independent basis, Debye-Ang**3):
 XXXX=            -25.7268 YYYY=            -25.7268 ZZZZ=             -8.8900 XXXY=              0.0000
 XXXZ=              0.0000 YYYX=              0.0000 YYYZ=             -0.2132 ZZZX=              0.0000
 ZZZY=             -0.0000 XXYY=             -8.5756 XXZZ=             -5.7605 YYZZ=             -5.7605
 XXYZ=              0.2132 YYXZ=              0.0000 ZZXY=              0.0000
 N-N= 7.180436526706D+00 E-N=-7.424584196828D+01  KE= 2.597569902887D+01
 Symmetry A'   KE= 2.461301472402D+01
 Symmetry A"   KE= 1.362684304847D+00
 Orbital energies and kinetic energies (alpha):
                                 1                 2
   1         (A1)--O          -7.596061         10.805967
   2         (A1)--O          -0.699865          0.819198
   3         (E)--O           -0.472775          0.681342
   4         (E)--O           -0.472775          0.681342
   5         (A1)--V           0.042378          0.544187
   6         (E)--V            0.297160          0.573589
   7         (E)--V            0.297160          0.573589
   8         (A1)--V           0.374038          0.962937
   9         (E)--V            0.605815          1.516933
  10         (E)--V            0.605815          1.516933
  11         (A1)--V           0.662023          1.697384
  12         (A1)--V           0.852103          1.458245
  13         (E)--V            1.371108          2.436733
  14         (E)--V            1.371108          2.436733
  15         (A1)--V           1.373330          2.556857
 Total kinetic energy from orbitals= 2.597569902887D+01
 1\1\GINC-IISERK51\SP\RHF\3-21G\B1H3\GAUSSIAN\13-Jun-2025\0\\# hf/3-21g
  pop=full geom=connectivity\\Title Card Required\\0,1\B,0,0.,0.,0.\H,0
 ,-0.716403,0.716403,-0.716403\H,0,0.716403,-0.716403,-0.716403\H,0,-0.
 716403,-0.716403,0.716403\\Version=EM64L-G16RevB.01\State=1-A1\HF=-26.
 1961117\RMSD=6.133e-09\Dipole=0.2432394,0.2432394,0.2432394\Quadrupole
 =0.,0.,0.,0.7390202,0.7390202,0.7390202\PG=C03V [C3(B1),3SGV(H1)]\\@


 YOU KNOW YOU'RE A TEACHER WHEN YOU SAY 2, WRITE 3, AND MEAN 4.
 -- RONALD ANSTROM, HIGH SCHOOL TEACHER, UNDERWOOD, N.D. 1974
 Job cpu time:       0 days  0 hours  0 minutes  0.4 seconds.
 Elapsed time:       0 days  0 hours  0 minutes  0.4 seconds.
 File lengths (MBytes):  RWF=      6 Int=      0 D2E=      0 Chk=      1 Scr=      1
 Normal termination of Gaussian 16 at Fri Jun 13 20:37:05 2025.
