 Entering Gaussian System, Link 0=g16
 Input=/home/gaussian/Documents/Summer_Internship/Acid_Base_adduct/Adduct/AlCl3_only_adduct_sp.com
 Output=/home/gaussian/Documents/Summer_Internship/Acid_Base_adduct/Adduct/AlCl3_only_adduct_sp.log
 Initial command:
 /usr/local/g16/l1.exe "/home/gaussian/tmp/Gau-33360.inp" -scrdir="/home/gaussian/tmp/"
 Entering Link 1 = /usr/local/g16/l1.exe PID=     33363.
  
 Copyright (c) 1988-2017, Gaussian, Inc.  All Rights Reserved.
  
 This is part of the Gaussian(R) 16 program.  It is based on
 the Gaussian(R) 09 system (copyright 2009, Gaussian, Inc.),
 the Gaussian(R) 03 system (copyright 2003, Gaussian, Inc.),
 the Gaussian(R) 98 system (copyright 1998, Gaussian, Inc.),
 the Gaussian(R) 94 system (copyright 1995, Gaussian, Inc.),
 the Gaussian 92(TM) system (copyright 1992, Gaussian, Inc.),
 the Gaussian 90(TM) system (copyright 1990, Gaussian, Inc.),
 the Gaussian 88(TM) system (copyright 1988, Gaussian, Inc.),
 the Gaussian 86(TM) system (copyright 1986, Carnegie Mellon
 University), and the Gaussian 82(TM) system (copyright 1983,
 Carnegie Mellon University). Gaussian is a federally registered
 trademark of Gaussian, Inc.
  
 This software contains proprietary and confidential information,
 including trade secrets, belonging to Gaussian, Inc.
  
 This software is provided under written license and may be
 used, copied, transmitted, or stored only in accord with that
 written license.
  
 The following legend is applicable only to US Government
 contracts under FAR:
  
                    RESTRICTED RIGHTS LEGEND
  
 Use, reproduction and disclosure by the US Government is
 subject to restrictions as set forth in subparagraphs (a)
 and (c) of the Commercial Computer Software - Restricted
 Rights clause in FAR 52.227-19.
  
 Gaussian, Inc.
 340 Quinnipiac St., Bldg. 40, Wallingford CT 06492
  
  
 ---------------------------------------------------------------
 Warning -- This program may not be used in any manner that
 competes with the business of Gaussian, Inc. or will provide
 assistance to any competitor of Gaussian, Inc.  The licensee
 of this program is prohibited from giving any competitor of
 Gaussian, Inc. access to this program.  By using this program,
 the user acknowledges that Gaussian, Inc. is engaged in the
 business of creating and licensing software in the field of
 computational chemistry and represents and warrants to the
 licensee that it is not a competitor of Gaussian, Inc. and that
 it will not use this program in any manner prohibited above.
 ---------------------------------------------------------------
  

 Cite this work as:
 Gaussian 16, Revision B.01,
 M. J. Frisch, G. W. Trucks, H. B. Schlegel, G. E. Scuseria, 
 M. A. Robb, J. R. Cheeseman, G. Scalmani, V. Barone, 
 G. A. Petersson, H. Nakatsuji, X. Li, M. Caricato, A. V. Marenich, 
 J. Bloino, B. G. Janesko, R. Gomperts, B. Mennucci, H. P. Hratchian, 
 J. V. Ortiz, A. F. Izmaylov, J. L. Sonnenberg, D. Williams-Young, 
 F. Ding, F. Lipparini, F. Egidi, J. Goings, B. Peng, A. Petrone, 
 T. Henderson, D. Ranasinghe, V. G. Zakrzewski, J. Gao, N. Rega, 
 G. Zheng, W. Liang, M. Hada, M. Ehara, K. Toyota, R. Fukuda, 
 J. Hasegawa, M. Ishida, T. Nakajima, Y. Honda, O. Kitao, H. Nakai, 
 T. Vreven, K. Throssell, J. A. Montgomery, Jr., J. E. Peralta, 
 F. Ogliaro, M. J. Bearpark, J. J. Heyd, E. N. Brothers, K. N. Kudin, 
 V. N. Staroverov, T. A. Keith, R. Kobayashi, J. Normand, 
 K. Raghavachari, A. P. Rendell, J. C. Burant, S. S. Iyengar, 
 J. Tomasi, M. Cossi, J. M. Millam, M. Klene, C. Adamo, R. Cammi, 
 J. W. Ochterski, R. L. Martin, K. Morokuma, O. Farkas, 
 J. B. Foresman, and D. J. Fox, Gaussian, Inc., Wallingford CT, 2016.
 
 ******************************************
 Gaussian 16:  EM64L-G16RevB.01 20-Dec-2017
                13-Jun-2025 
 ******************************************
 %chk=AlCl3_only_adduct_sp.chk
 -------------------------------------
 # hf/3-21g pop=full geom=connectivity
 -------------------------------------
 1/38=1,57=2,172=1/1;
 2/12=2,17=6,18=5,40=1/2;
 3/5=5,11=9,25=1,30=1/1,2,3;
 4//1;
 5/5=2,38=5/2;
 6/7=3,28=1/1;
 99/5=1,9=1/99;
 -------------------------------
 NH3 - AlCl3 Adduct Optimisation
 -------------------------------
 Symbolic Z-matrix:
 Charge =  0 Multiplicity = 1
 Al                    0.00013   0.00002   0.00527 
 Cl                   -1.06547   1.87737  -0.41047 
 Cl                   -1.09337  -1.86112  -0.41076 
 Cl                    2.1587   -0.01604  -0.41067 
 
                          Input orientation:                          
 ---------------------------------------------------------------------
 Center     Atomic      Atomic             Coordinates (Angstroms)
 Number     Number       Type             X           Y           Z
 ---------------------------------------------------------------------
      1         13           0        0.000132    0.000023    0.005271
      2         17           0       -1.065468    1.877366   -0.410467
      3         17           0       -1.093369   -1.861122   -0.410755
      4         17           0        2.158702   -0.016037   -0.410674
 ---------------------------------------------------------------------
                    Distance matrix (angstroms):
                    1          2          3          4
     1  Al   0.000000
     2  Cl   2.198354   0.000000
     3  Cl   2.198336   3.738592   0.000000
     4  Cl   2.198339   3.739017   3.739025   0.000000
 Stoichiometry    AlCl3
 Framework group  C1[X(AlCl3)]
 Deg. of freedom     6
 Full point group                 C1      NOp   1
 Largest Abelian subgroup         C1      NOp   1
 Largest concise Abelian subgroup C1      NOp   1
                         Standard orientation:                         
 ---------------------------------------------------------------------
 Center     Atomic      Atomic             Coordinates (Angstroms)
 Number     Number       Type             X           Y           Z
 ---------------------------------------------------------------------
      1         13           0        0.000141   -0.000037    0.331423
      2         17           0       -1.064935    1.877604   -0.084315
      3         17           0       -1.093879   -1.860876   -0.084603
      4         17           0        2.158706   -0.016699   -0.084522
 ---------------------------------------------------------------------
 Rotational constants (GHZ):           2.0370513           2.0364380           1.0338398
 Standard basis: 3-21G (6D, 7F)
 There are    52 symmetry adapted cartesian basis functions of A   symmetry.
 There are    52 symmetry adapted basis functions of A   symmetry.
    52 basis functions,   108 primitive gaussians,    52 cartesian basis functions
    32 alpha electrons       32 beta electrons
       nuclear repulsion energy       282.3047023844 Hartrees.
 NAtoms=    4 NActive=    4 NUniq=    4 SFac= 1.00D+00 NAtFMM=   60 NAOKFM=F Big=F
 Integral buffers will be    131072 words long.
 Raffenetti 1 integral format.
 Two-electron integral symmetry is turned on.
 One-electron integrals computed using PRISM.
 NBasis=    52 RedAO= T EigKep=  4.17D-02  NBF=    52
 NBsUse=    52 1.00D-06 EigRej= -1.00D+00 NBFU=    52
 ExpMin= 6.39D-02 ExpMax= 1.38D+03 ExpMxC= 1.38D+03 IAcc=3 IRadAn=         5 AccDes= 0.00D+00
 Harris functional with IExCor=  205 and IRadAn=       5 diagonalized for initial guess.
 HarFok:  IExCor=  205 AccDes= 0.00D+00 IRadAn=         5 IDoV= 1 UseB2=F ITyADJ=14
 ICtDFT=  3500011 ScaDFX=  1.000000  1.000000  1.000000  1.000000
 FoFCou: FMM=F IPFlag=           0 FMFlag=      100000 FMFlg1=           0
         NFxFlg=           0 DoJE=T BraDBF=F KetDBF=T FulRan=T
         wScrn=  0.000000 ICntrl=       500 IOpCl=  0 I1Cent=   200000004 NGrid=           0
         NMat0=    1 NMatS0=      1 NMatT0=    0 NMatD0=    1 NMtDS0=    0 NMtDT0=    0
 Petite list used in FoFCou.
 Keep R1 ints in memory in canonical form, NReq=1760641.
 Requested convergence on RMS density matrix=1.00D-08 within 128 cycles.
 Requested convergence on MAX density matrix=1.00D-06.
 Requested convergence on             energy=1.00D-06.
 No special actions if energy rises.
 SCF Done:  E(RHF) =  -1612.68555884     A.U. after   10 cycles
            NFock= 10  Conv=0.43D-08     -V/T= 2.0011

 **********************************************************************

            Population analysis using the SCF Density.

 **********************************************************************

 Orbital symmetries:
       Occupied  (A) (A) (A) (A) (A) (A) (A) (A) (A) (A) (A) (A)
                 (A) (A) (A) (A) (A) (A) (A) (A) (A) (A) (A) (A)
                 (A) (A) (A) (A) (A) (A) (A) (A)
       Virtual   (A) (A) (A) (A) (A) (A) (A) (A) (A) (A) (A) (A)
                 (A) (A) (A) (A) (A) (A) (A) (A)
 The electronic state is 1-A.
 Alpha  occ. eigenvalues -- -104.13369-104.13361-104.13360 -58.24805 -10.52534
 Alpha  occ. eigenvalues --  -10.52506 -10.52505  -7.98806  -7.98804  -7.98794
 Alpha  occ. eigenvalues --   -7.98505  -7.98490  -7.98490  -7.98471  -7.98467
 Alpha  occ. eigenvalues --   -7.98466  -5.04581  -3.35007  -3.35007  -3.34983
 Alpha  occ. eigenvalues --   -1.12478  -1.10627  -1.10625  -0.62180  -0.54181
 Alpha  occ. eigenvalues --   -0.54180  -0.51583  -0.49155  -0.49155  -0.48809
 Alpha  occ. eigenvalues --   -0.48808  -0.47916
 Alpha virt. eigenvalues --   -0.04409   0.07657   0.12995   0.12999   0.23119
 Alpha virt. eigenvalues --    0.29004   0.32580   0.32582   0.72585   0.72586
 Alpha virt. eigenvalues --    0.75808   0.77109   0.77112   0.84993   0.85272
 Alpha virt. eigenvalues --    0.87767   0.87772   0.96451   0.96452   0.99674
     Molecular Orbital Coefficients:
                           1         2         3         4         5
                           O         O         O         O         O
     Eigenvalues --  -104.13369-104.13361-104.13360 -58.24805 -10.52534
   1 1   Al 1S         -0.00000   0.00000  -0.00000   0.98853   0.00005
   2        2S          0.00017  -0.00002   0.00000   0.04418  -0.00099
   3        2PX        -0.00001  -0.00005   0.00000  -0.00000   0.00001
   4        2PY         0.00000  -0.00000  -0.00005   0.00000  -0.00000
   5        2PZ        -0.00000   0.00000  -0.00000  -0.00005   0.00003
   6        3S          0.00014  -0.00002   0.00000  -0.01163  -0.00087
   7        3PX        -0.00009  -0.00074   0.00004   0.00000   0.00014
   8        3PY         0.00001  -0.00004  -0.00075  -0.00000  -0.00002
   9        3PZ         0.00030  -0.00003   0.00001   0.00053  -0.00175
  10        4S         -0.00650   0.00074  -0.00011   0.00074   0.03761
  11        4PX        -0.00043  -0.00376   0.00022   0.00000   0.00071
  12        4PY         0.00004  -0.00023  -0.00378  -0.00000  -0.00009
  13        4PZ         0.00148  -0.00017   0.00003   0.00076  -0.00844
  14 2   Cl 1S          0.51297  -0.41611   0.73189  -0.00001  -0.17157
  15        2S          0.02767  -0.02243   0.03945   0.00003   0.55120
  16        2PX         0.00007   0.00001   0.00010  -0.00002   0.00240
  17        2PY        -0.00011   0.00011  -0.00012   0.00003  -0.00424
  18        2PZ        -0.00001  -0.00002   0.00005  -0.00003   0.00141
  19        3S         -0.01048   0.00825  -0.01443  -0.00126   0.08288
  20        3PX        -0.00029  -0.00012  -0.00042  -0.00004   0.00205
  21        3PY         0.00044  -0.00045   0.00041   0.00007  -0.00351
  22        3PZ         0.00008   0.00009  -0.00019   0.00010  -0.00009
  23        4S          0.00752  -0.00558   0.00967   0.00257  -0.04687
  24        4PX         0.00098   0.00042   0.00125   0.00099  -0.00554
  25        4PY        -0.00150   0.00138  -0.00116  -0.00175   0.00942
  26        4PZ        -0.00018  -0.00025   0.00055   0.00005   0.00071
  27 3   Cl 1S          0.52659  -0.51013  -0.65911  -0.00001  -0.17324
  28        2S          0.02840  -0.02750  -0.03552   0.00003   0.55657
  29        2PX         0.00007  -0.00001  -0.00010  -0.00002   0.00249
  30        2PY         0.00011  -0.00012  -0.00010  -0.00003   0.00425
  31        2PZ        -0.00000  -0.00003  -0.00005  -0.00003   0.00142
  32        3S         -0.01075   0.01010   0.01299  -0.00126   0.08366
  33        3PX        -0.00030  -0.00006   0.00043  -0.00004   0.00213
  34        3PY        -0.00044   0.00050   0.00033  -0.00007   0.00350
  35        3PZ         0.00007   0.00011   0.00018   0.00010  -0.00008
  36        4S          0.00770  -0.00682  -0.00869   0.00257  -0.04729
  37        4PX         0.00102   0.00022  -0.00129   0.00102  -0.00575
  38        4PY         0.00150  -0.00152  -0.00091   0.00174  -0.00938
  39        4PZ        -0.00017  -0.00032  -0.00051   0.00005   0.00069
  40 4   Cl 1S          0.65690   0.73388  -0.04317  -0.00001  -0.18468
  41        2S          0.03543   0.03955  -0.00233   0.00003   0.59332
  42        2PX        -0.00016  -0.00015   0.00001   0.00004  -0.00525
  43        2PY         0.00000   0.00001   0.00007  -0.00000   0.00004
  44        2PZ         0.00000   0.00006  -0.00000  -0.00003   0.00151
  45        3S         -0.01332  -0.01443   0.00084  -0.00126   0.08905
  46        3PX         0.00064   0.00054  -0.00003   0.00008  -0.00432
  47        3PY        -0.00000  -0.00003  -0.00037  -0.00000   0.00003
  48        3PZ         0.00004  -0.00022   0.00002   0.00010  -0.00001
  49        4S          0.00942   0.00960  -0.00056   0.00257  -0.05013
  50        4PX        -0.00210  -0.00154   0.00009  -0.00202   0.01148
  51        4PY         0.00000   0.00009   0.00117   0.00002  -0.00006
  52        4PZ        -0.00007   0.00062  -0.00004   0.00005   0.00052
                           6         7         8         9        10
                           O         O         O         O         O
     Eigenvalues --   -10.52506 -10.52505  -7.98806  -7.98804  -7.98794
   1 1   Al 1S         -0.00000   0.00000   0.00001  -0.00000   0.00007
   2        2S          0.00003  -0.00001  -0.00008   0.00002  -0.00102
   3        2PX         0.00019  -0.00001  -0.00047   0.00002   0.00004
   4        2PY         0.00001   0.00019  -0.00002  -0.00047  -0.00001
   5        2PZ        -0.00000   0.00000   0.00001  -0.00000   0.00009
   6        3S          0.00003  -0.00001  -0.00037   0.00007  -0.00472
   7        3PX         0.00437  -0.00026  -0.00390   0.00017   0.00030
   8        3PY         0.00026   0.00437  -0.00018  -0.00391  -0.00005
   9        3PZ         0.00006  -0.00001   0.00010  -0.00002   0.00124
  10        4S         -0.00122   0.00023  -0.00111   0.00023  -0.01430
  11        4PX         0.02165  -0.00126  -0.00488   0.00022   0.00038
  12        4PY         0.00127   0.02165  -0.00022  -0.00489  -0.00006
  13        4PZ         0.00027  -0.00005   0.00016  -0.00003   0.00212
  14 2   Cl 1S          0.11597  -0.22514   0.00110  -0.00244  -0.00209
  15        2S         -0.37261   0.72336  -0.00380   0.00842   0.00723
  16        2PX        -0.00185   0.00311   0.15530  -0.33352  -0.28810
  17        2PY         0.00280  -0.00571  -0.26477   0.59256   0.50719
  18        2PZ        -0.00085   0.00165   0.07362  -0.16275  -0.13726
  19        3S         -0.05470   0.10607   0.00189  -0.00432  -0.00450
  20        3PX         0.00045   0.00294   0.01315  -0.02825  -0.02430
  21        3PY         0.00288  -0.00338  -0.02244   0.05018   0.04278
  22        3PZ        -0.00068   0.00139   0.00623  -0.01376  -0.01145
  23        4S          0.02896  -0.05597  -0.00327   0.00764   0.00910
  24        4PX        -0.00265  -0.00723  -0.00415   0.01062   0.00931
  25        4PY        -0.00727   0.00686   0.00847  -0.01813  -0.01649
  26        4PZ         0.00155  -0.00319  -0.00229   0.00499   0.00374
  27 3   Cl 1S          0.14458   0.20654   0.00135   0.00235  -0.00204
  28        2S         -0.46453  -0.66359  -0.00468  -0.00814   0.00704
  29        2PX        -0.00230  -0.00290   0.19529   0.33053  -0.28810
  30        2PY        -0.00349  -0.00522   0.32391   0.56756  -0.48922
  31        2PZ        -0.00106  -0.00151   0.09073   0.15722  -0.13362
  32        3S         -0.06818  -0.09729   0.00235   0.00420  -0.00440
  33        3PX         0.00000  -0.00300   0.01654   0.02799  -0.02430
  34        3PY        -0.00330  -0.00290   0.02744   0.04805  -0.04126
  35        3PZ        -0.00086  -0.00129   0.00768   0.01329  -0.01114
  36        4S          0.03607   0.05130  -0.00407  -0.00745   0.00893
  37        4PX        -0.00155   0.00756  -0.00543  -0.01060   0.00931
  38        4PY         0.00814   0.00565  -0.01029  -0.01734   0.01593
  39        4PZ         0.00196   0.00297  -0.00281  -0.00480   0.00363
  40 4   Cl 1S         -0.24337   0.01541  -0.00291   0.00018  -0.00174
  41        2S          0.78194  -0.04953   0.01006  -0.00061   0.00602
  42        2PX        -0.00703   0.00044   0.81169  -0.04889   0.48526
  43        2PY         0.00004  -0.00026  -0.00599   0.00541  -0.00368
  44        2PZ         0.00178  -0.00011  -0.19415   0.01168  -0.11384
  45        3S          0.11459  -0.00725  -0.00523   0.00032  -0.00388
  46        3PX        -0.00472   0.00031   0.06872  -0.00414   0.04090
  47        3PY         0.00017   0.00201  -0.00051   0.00045  -0.00031
  48        3PZ         0.00155  -0.00010  -0.01640   0.00098  -0.00947
  49        4S         -0.06034   0.00381   0.00936  -0.00059   0.00800
  50        4PX         0.01016  -0.00068  -0.02516   0.00153  -0.01591
  51        4PY        -0.00051  -0.00655   0.00023   0.00063   0.00013
  52        4PZ        -0.00358   0.00024   0.00590  -0.00035   0.00303
                          11        12        13        14        15
                           O         O         O         O         O
     Eigenvalues --    -7.98505  -7.98490  -7.98490  -7.98471  -7.98467
   1 1   Al 1S         -0.00001   0.00000  -0.00000   0.00000   0.00000
   2        2S          0.00024  -0.00001   0.00000  -0.00000  -0.00000
   3        2PX        -0.00000  -0.00004   0.00000   0.00000  -0.00000
   4        2PY         0.00000  -0.00000  -0.00004   0.00000   0.00000
   5        2PZ         0.00013  -0.00001   0.00000  -0.00000  -0.00000
   6        3S          0.00064  -0.00003   0.00001  -0.00000  -0.00000
   7        3PX         0.00000   0.00014  -0.00001   0.00001  -0.00004
   8        3PY        -0.00000   0.00001   0.00016   0.00007   0.00037
   9        3PZ        -0.00040   0.00002  -0.00000   0.00000   0.00000
  10        4S         -0.00576   0.00030  -0.00006   0.00000   0.00002
  11        4PX         0.00033   0.00817  -0.00059   0.00018  -0.00091
  12        4PY        -0.00004   0.00057   0.00862   0.00152   0.00905
  13        4PZ         0.00977  -0.00051   0.00010  -0.00000  -0.00003
  14 2   Cl 1S         -0.00000  -0.00004   0.00009   0.00001   0.00005
  15        2S          0.00006   0.00016  -0.00035  -0.00003  -0.00022
  16        2PX        -0.05233   0.32157   0.06712  -0.40978   0.37154
  17        2PY         0.11141   0.09413   0.20318  -0.25320   0.11110
  18        2PZ         0.52253  -0.32570   0.60999  -0.07275  -0.34532
  19        3S         -0.00167  -0.00085   0.00204   0.00035   0.00235
  20        3PX        -0.00439   0.02673   0.00576  -0.03347   0.03026
  21        3PY         0.00936   0.00799   0.01664  -0.02066   0.00915
  22        3PZ         0.04314  -0.02650   0.04960  -0.00582  -0.02750
  23        4S          0.00407   0.00241  -0.00575  -0.00095  -0.00639
  24        4PX         0.00208  -0.00959  -0.00311   0.01023  -0.01029
  25        4PY        -0.00433  -0.00374  -0.00458   0.00650  -0.00212
  26        4PZ        -0.01497   0.00826  -0.01539   0.00155   0.00703
  27 3   Cl 1S         -0.00000  -0.00005  -0.00008  -0.00001  -0.00004
  28        2S          0.00006   0.00021   0.00032   0.00003   0.00019
  29        2PX        -0.05378   0.31068  -0.11613   0.42381  -0.47347
  30        2PY        -0.11299  -0.06857   0.21788  -0.27242   0.19005
  31        2PZ         0.53037  -0.41687  -0.54746   0.08066   0.30306
  32        3S         -0.00165  -0.00114  -0.00190  -0.00040  -0.00206
  33        3PX        -0.00451   0.02578  -0.00983   0.03462  -0.03858
  34        3PY        -0.00949  -0.00590   0.01789  -0.02222   0.01558
  35        3PZ         0.04378  -0.03391  -0.04450   0.00645   0.02413
  36        4S          0.00402   0.00323   0.00534   0.00108   0.00562
  37        4PX         0.00213  -0.00907   0.00458  -0.01060   0.01299
  38        4PY         0.00435   0.00318  -0.00518   0.00702  -0.00435
  39        4PZ        -0.01516   0.01055   0.01378  -0.00171  -0.00615
  40 4   Cl 1S          0.00001   0.00010  -0.00001   0.00000  -0.00001
  41        2S          0.00003  -0.00038   0.00003  -0.00000   0.00003
  42        2PX         0.13808   0.15514  -0.00769   0.00317   0.01398
  43        2PY        -0.00252   0.02973   0.41030   0.67185   0.57090
  44        2PZ         0.58699   0.65633  -0.04607  -0.00806   0.03798
  45        3S         -0.00153   0.00224  -0.00019   0.00005  -0.00027
  46        3PX         0.01155   0.01255  -0.00061   0.00026   0.00113
  47        3PY        -0.00021   0.00248   0.03411   0.05482   0.04655
  48        3PZ         0.04837   0.05330  -0.00374  -0.00064   0.00302
  49        4S          0.00368  -0.00626   0.00053  -0.00013   0.00074
  50        4PX        -0.00509  -0.00256   0.00006  -0.00006  -0.00048
  51        4PY         0.00009  -0.00093  -0.01258  -0.01716  -0.01550
  52        4PZ        -0.01656  -0.01636   0.00114   0.00017  -0.00076
                          16        17        18        19        20
                           O         O         O         O         O
     Eigenvalues --    -7.98466  -5.04581  -3.35007  -3.35007  -3.34983
   1 1   Al 1S         -0.00000  -0.28412   0.00000  -0.00000   0.00113
   2        2S          0.00000   1.01100  -0.00000   0.00000  -0.00403
   3        2PX        -0.00000   0.00000   0.95240  -0.22182   0.00003
   4        2PY        -0.00000  -0.00000   0.22182   0.95240  -0.00017
   5        2PZ         0.00000   0.00445   0.00001   0.00018   0.97953
   6        3S          0.00001   0.09369  -0.00000  -0.00000  -0.00126
   7        3PX         0.00038  -0.00000   0.09086  -0.02116   0.00000
   8        3PY         0.00004   0.00000   0.02116   0.09086  -0.00002
   9        3PZ        -0.00000  -0.00193   0.00000   0.00002   0.08332
  10        4S         -0.00006  -0.02527  -0.00000   0.00000  -0.00383
  11        4PX         0.00957  -0.00000  -0.02450   0.00571  -0.00000
  12        4PY         0.00088   0.00000  -0.00571  -0.02451   0.00000
  13        4PZ         0.00010  -0.00152   0.00000  -0.00001  -0.02850
  14 2   Cl 1S         -0.00002   0.00001  -0.00002   0.00008  -0.00002
  15        2S          0.00011   0.00004   0.00005  -0.00017   0.00007
  16        2PX         0.56013   0.00001  -0.00006  -0.00013   0.00003
  17        2PY         0.36127  -0.00002  -0.00010   0.00016  -0.00006
  18        2PZ         0.15032   0.00005   0.00002  -0.00007   0.00006
  19        3S         -0.00113   0.00271  -0.00017   0.00056  -0.00044
  20        3PX         0.04572   0.00016   0.00053  -0.00057   0.00010
  21        3PY         0.02944  -0.00028  -0.00016   0.00123  -0.00017
  22        3PZ         0.01197  -0.00017   0.00005  -0.00017  -0.00031
  23        4S          0.00308  -0.00537   0.00149  -0.00504   0.00166
  24        4PX        -0.01485  -0.00413   0.00001  -0.00627   0.00124
  25        4PY        -0.01012   0.00727  -0.00397   0.00989  -0.00218
  26        4PZ        -0.00304  -0.00089   0.00078  -0.00263   0.00070
  27 3   Cl 1S         -0.00003   0.00001  -0.00006  -0.00006  -0.00002
  28        2S          0.00015   0.00004   0.00012   0.00013   0.00007
  29        2PX         0.44902   0.00001   0.00001   0.00014   0.00003
  30        2PY        -0.32613   0.00002   0.00017   0.00010   0.00006
  31        2PZ         0.21249   0.00005   0.00005   0.00005   0.00006
  32        3S         -0.00159   0.00271  -0.00040  -0.00042  -0.00044
  33        3PX         0.03666   0.00016   0.00074   0.00028   0.00010
  34        3PY        -0.02656   0.00028   0.00069   0.00102   0.00017
  35        3PZ         0.01691  -0.00017   0.00012   0.00013  -0.00031
  36        4S          0.00434  -0.00537   0.00362   0.00380   0.00166
  37        4PX        -0.01182  -0.00424   0.00299   0.00569   0.00127
  38        4PY         0.00936  -0.00721   0.00800   0.00691   0.00216
  39        4PZ        -0.00428  -0.00090   0.00189   0.00198   0.00070
  40 4   Cl 1S          0.00005   0.00001   0.00008  -0.00002  -0.00002
  41        2S         -0.00026   0.00004  -0.00017   0.00004   0.00007
  42        2PX        -0.08689  -0.00003   0.00021  -0.00005  -0.00007
  43        2PY         0.04935   0.00000  -0.00003  -0.00010   0.00000
  44        2PZ        -0.34545   0.00005  -0.00007   0.00002   0.00006
  45        3S          0.00267   0.00271   0.00057  -0.00014  -0.00044
  46        3PX        -0.00698  -0.00032   0.00137  -0.00033  -0.00020
  47        3PY         0.00402   0.00000   0.00008   0.00039   0.00000
  48        3PZ        -0.02744  -0.00017  -0.00017   0.00004  -0.00031
  49        4S         -0.00729  -0.00537  -0.00511   0.00123   0.00165
  50        4PX         0.00338   0.00836   0.01186  -0.00287  -0.00250
  51        4PY        -0.00137  -0.00006  -0.00057  -0.00196   0.00002
  52        4PZ         0.00683  -0.00090  -0.00266   0.00064   0.00070
                          21        22        23        24        25
                           O         O         O         O         O
     Eigenvalues --    -1.12478  -1.10627  -1.10625  -0.62180  -0.54181
   1 1   Al 1S          0.01786  -0.00001   0.00000   0.04297  -0.00000
   2        2S         -0.08331   0.00003  -0.00001  -0.20424   0.00000
   3        2PX        -0.00001  -0.05108   0.00354   0.00000   0.12023
   4        2PY         0.00000  -0.00354  -0.05107   0.00000   0.00330
   5        2PZ         0.01171  -0.00000  -0.00000   0.01547  -0.00000
   6        3S          0.13061  -0.00005   0.00002   0.39342   0.00000
   7        3PX         0.00002   0.07266  -0.00504  -0.00000  -0.27012
   8        3PY        -0.00001   0.00504   0.07264  -0.00000  -0.00742
   9        3PZ        -0.01303   0.00000   0.00000  -0.02860  -0.00000
  10        4S         -0.04918   0.00002  -0.00001   0.06218  -0.00000
  11        4PX        -0.00001  -0.04278   0.00297   0.00001  -0.01368
  12        4PY         0.00000  -0.00297  -0.04277  -0.00000  -0.00037
  13        4PZ         0.01572  -0.00000  -0.00000   0.01990  -0.00000
  14 2   Cl 1S          0.04410  -0.02792   0.05827  -0.01467  -0.00528
  15        2S         -0.25932   0.16426  -0.34287   0.08831   0.03202
  16        2PX        -0.01061   0.00402  -0.01155  -0.05964   0.05011
  17        2PY         0.01871  -0.00996   0.01899   0.10515   0.11852
  18        2PZ        -0.00434   0.00248  -0.00517  -0.01769  -0.01742
  19        3S          0.31452  -0.20071   0.41895  -0.12949  -0.04619
  20        3PX         0.02071  -0.00809   0.02211   0.12647  -0.11002
  21        3PY        -0.03651   0.01901  -0.03670  -0.22298  -0.25451
  22        3PZ         0.00863  -0.00460   0.00960   0.03709   0.03705
  23        4S          0.30743  -0.19307   0.40300  -0.09971  -0.04709
  24        4PX         0.02157  -0.00511   0.02452   0.09749  -0.09417
  25        4PY        -0.03803   0.02158  -0.03720  -0.17188  -0.19794
  26        4PZ         0.00696  -0.00591   0.01234   0.02718   0.02783
  27 3   Cl 1S          0.04411  -0.03652  -0.05329  -0.01467  -0.00596
  28        2S         -0.25938   0.21490   0.31357   0.08832   0.03618
  29        2PX        -0.01091   0.00594   0.01106  -0.06127   0.03961
  30        2PY        -0.01855   0.01267   0.01707  -0.10422  -0.12600
  31        2PZ        -0.00434   0.00325   0.00473  -0.01770  -0.01971
  32        3S          0.31460  -0.26259  -0.38315  -0.12949  -0.05219
  33        3PX         0.02128  -0.01176  -0.02112   0.12992  -0.08748
  34        3PY         0.03619  -0.02424  -0.03302   0.22100   0.27043
  35        3PZ         0.00864  -0.00602  -0.00878   0.03713   0.04190
  36        4S          0.30751  -0.25260  -0.36856  -0.09971  -0.05320
  37        4PX         0.02216  -0.00923  -0.02396   0.10015  -0.07666
  38        4PY         0.03769  -0.02689  -0.03307   0.17035   0.20983
  39        4PZ         0.00696  -0.00774  -0.01129   0.02720   0.03148
  40 4   Cl 1S          0.04414   0.06440  -0.00496  -0.01467   0.01124
  41        2S         -0.25955  -0.37890   0.02921   0.08831  -0.06819
  42        2PX         0.02153   0.02455  -0.00190   0.12090  -0.16687
  43        2PY        -0.00017  -0.00031  -0.00155  -0.00093   0.00536
  44        2PZ        -0.00434  -0.00572   0.00044  -0.01770   0.03714
  45        3S          0.31481   0.46299  -0.03569  -0.12949   0.09837
  46        3PX        -0.04200  -0.04733   0.00367  -0.25637   0.35577
  47        3PY         0.00032   0.00057   0.00256   0.00198  -0.01156
  48        3PZ         0.00864   0.01061  -0.00082   0.03712  -0.07897
  49        4S          0.30770   0.44536  -0.03433  -0.09971   0.10025
  50        4PX        -0.04375  -0.04911   0.00384  -0.19762   0.26767
  51        4PY         0.00034   0.00091   0.00683   0.00153  -0.00922
  52        4PZ         0.00697   0.01364  -0.00105   0.02720  -0.05933
                          26        27        28        29        30
                           O         O         O         O         O
     Eigenvalues --    -0.54180  -0.51583  -0.49155  -0.49155  -0.48809
   1 1   Al 1S          0.00000   0.00371  -0.00000  -0.00000   0.00000
   2        2S         -0.00000  -0.01790   0.00001   0.00000  -0.00000
   3        2PX         0.00330   0.00000  -0.03170  -0.00116   0.02069
   4        2PY        -0.12022   0.00000  -0.00116   0.03174   0.00086
   5        2PZ        -0.00001  -0.06512   0.00001   0.00001   0.00001
   6        3S          0.00000   0.03174  -0.00002  -0.00000   0.00001
   7        3PX        -0.00742  -0.00000   0.06501   0.00238  -0.03974
   8        3PY         0.27008  -0.00001   0.00237  -0.06509  -0.00166
   9        3PZ         0.00002   0.14125  -0.00002  -0.00001  -0.00003
  10        4S          0.00000   0.00562  -0.00003  -0.00000   0.00000
  11        4PX        -0.00038   0.00001  -0.05551  -0.00204   0.09672
  12        4PY         0.01372  -0.00001  -0.00202   0.05566   0.00403
  13        4PZ         0.00000   0.08237  -0.00001   0.00000  -0.00002
  14 2   Cl 1S         -0.00993  -0.00058   0.00175   0.00337  -0.00106
  15        2S          0.06025   0.00338  -0.01054  -0.02029   0.00628
  16        2PX        -0.11994   0.01389   0.12690  -0.03246  -0.11955
  17        2PY         0.10150  -0.02448   0.04014  -0.07987  -0.00597
  18        2PZ        -0.03279  -0.14886   0.07364   0.14146   0.07052
  19        3S         -0.08691  -0.01275   0.02437   0.04694  -0.01977
  20        3PX         0.25741  -0.03094  -0.27351   0.07194   0.25999
  21        3PY        -0.21545   0.05451  -0.08840   0.16965   0.01537
  22        3PZ         0.06973   0.32268  -0.15779  -0.30308  -0.15285
  23        4S         -0.08859   0.01774  -0.01188  -0.02294   0.02635
  24        4PX         0.19972  -0.01923  -0.24259   0.05870   0.21768
  25        4PY        -0.15867   0.03387  -0.07357   0.15692  -0.00287
  26        4PZ         0.05239   0.26738  -0.14639  -0.28121  -0.13328
  27 3   Cl 1S          0.00953  -0.00058   0.00204  -0.00320  -0.00125
  28        2S         -0.05784   0.00338  -0.01228   0.01927   0.00746
  29        2PX         0.12460   0.01427   0.12302   0.04229  -0.11946
  30        2PY         0.09099   0.02429  -0.03489  -0.08375  -0.00388
  31        2PZ         0.03150  -0.14888   0.08589  -0.13442   0.08370
  32        3S          0.08344  -0.01275   0.02841  -0.04459  -0.02348
  33        3PX        -0.26754  -0.03179  -0.26495  -0.09315   0.25951
  34        3PY        -0.19287  -0.05409   0.07730   0.17822   0.00573
  35        3PZ        -0.06698   0.32272  -0.18402   0.28799  -0.18142
  36        4S          0.08506   0.01773  -0.01385   0.02179   0.03129
  37        4PX        -0.20807  -0.01976  -0.23552  -0.07744   0.21919
  38        4PY        -0.14113  -0.03362   0.06319   0.16398   0.02254
  39        4PZ        -0.05033   0.26741  -0.17073   0.26721  -0.15820
  40 4   Cl 1S          0.00040  -0.00058  -0.00379  -0.00017   0.00231
  41        2S         -0.00240   0.00338   0.02281   0.00101  -0.01373
  42        2PX        -0.00677  -0.02818   0.06002   0.00154  -0.11771
  43        2PY        -0.11552   0.00023   0.00605  -0.14686  -0.00504
  44        2PZ         0.00130  -0.14895  -0.15947  -0.00705  -0.15414
  45        3S          0.00346  -0.01275  -0.05277  -0.00234   0.04324
  46        3PX         0.01446   0.06277  -0.12582  -0.00315   0.25142
  47        3PY         0.25044  -0.00051  -0.01311   0.31761   0.01107
  48        3PZ        -0.00276   0.32288   0.34167   0.01510   0.33408
  49        4S          0.00353   0.01773   0.02575   0.00115  -0.05766
  50        4PX         0.01099   0.03902  -0.12071  -0.00322   0.24047
  51        4PY         0.20325  -0.00032  -0.01144   0.27897   0.00861
  52        4PZ        -0.00207   0.26755   0.31699   0.01401   0.29132
                          31        32        33        34        35
                           O         O         V         V         V
     Eigenvalues --    -0.48808  -0.47916  -0.04409   0.07657   0.12995
   1 1   Al 1S         -0.00000  -0.00000   0.03348   0.03321   0.00000
   2        2S          0.00000   0.00000  -0.18672  -0.18333  -0.00000
   3        2PX        -0.00086  -0.00000  -0.00002  -0.00004   0.00171
   4        2PY         0.02066  -0.00003   0.00001  -0.00001  -0.12158
   5        2PZ        -0.00000  -0.00000  -0.13269   0.12455  -0.00001
   6        3S         -0.00000   0.00000   0.20423   0.24763   0.00002
   7        3PX         0.00165   0.00001   0.00005   0.00012  -0.00426
   8        3PY        -0.03968   0.00006  -0.00002   0.00002   0.30262
   9        3PZ         0.00000   0.00000   0.30993  -0.31124   0.00002
  10        4S         -0.00000   0.00000   0.89404   0.98044  -0.00000
  11        4PX        -0.00402  -0.00001   0.00005   0.00030  -0.02140
  12        4PY         0.09662  -0.00013  -0.00003   0.00005   1.52083
  13        4PZ         0.00001  -0.00000   0.39055  -0.75607   0.00011
  14 2   Cl 1S          0.00205  -0.00000  -0.00750  -0.01211  -0.01422
  15        2S         -0.01221   0.00001   0.04662   0.07584   0.09060
  16        2PX         0.00414   0.14297   0.03080   0.03977   0.05290
  17        2PY        -0.11808   0.08122  -0.05427  -0.07006  -0.02095
  18        2PZ        -0.13754   0.00003   0.05942  -0.03544   0.02783
  19        3S          0.03845  -0.00004  -0.03676  -0.07504  -0.03405
  20        3PX        -0.00648  -0.31094  -0.06547  -0.08525  -0.11002
  21        3PY         0.25357  -0.17664   0.11538   0.15017   0.03755
  22        3PZ         0.29811  -0.00006  -0.12637   0.07785  -0.06240
  23        4S         -0.05129   0.00006  -0.22078  -0.36363  -0.74890
  24        4PX        -0.02206  -0.26867  -0.10646  -0.17221  -0.30942
  25        4PY         0.23351  -0.15265   0.18764   0.30343   0.22520
  26        4PZ         0.25998  -0.00004  -0.19938   0.12825  -0.11997
  27 3   Cl 1S         -0.00194   0.00000  -0.00750  -0.01211   0.01386
  28        2S          0.01153  -0.00001   0.04663   0.07584  -0.08835
  29        2PX         0.00581  -0.14166   0.03163   0.04085  -0.05507
  30        2PY        -0.11821   0.08342   0.05378   0.06944  -0.01776
  31        2PZ         0.12987  -0.00002   0.05943  -0.03543  -0.02714
  32        3S         -0.03631   0.00005  -0.03676  -0.07504   0.03320
  33        3PX        -0.01519   0.30808  -0.06725  -0.08756   0.11471
  34        3PY         0.25412  -0.18142  -0.11434  -0.14884   0.03089
  35        3PZ        -0.28147   0.00004  -0.12639   0.07783   0.06086
  36        4S          0.04845  -0.00007  -0.22078  -0.36364   0.73027
  37        4PX         0.00415   0.26621  -0.10936  -0.17689   0.31917
  38        4PY         0.23207  -0.15678  -0.18594  -0.30075   0.20659
  39        4PZ        -0.24548   0.00002  -0.19941   0.12820   0.11701
  40 4   Cl 1S         -0.00011  -0.00000  -0.00750  -0.01211   0.00035
  41        2S          0.00068   0.00000   0.04664   0.07588  -0.00225
  42        2PX         0.00488  -0.00126  -0.06241  -0.08060   0.00167
  43        2PY        -0.12001  -0.16411   0.00048   0.00063   0.07413
  44        2PZ         0.00763  -0.00001   0.05943  -0.03542  -0.00069
  45        3S         -0.00213  -0.00001  -0.03677  -0.07507   0.00085
  46        3PX        -0.01038   0.00274   0.13268   0.17275  -0.00340
  47        3PY         0.26232   0.35691  -0.00102  -0.00134  -0.16036
  48        3PZ        -0.01653   0.00002  -0.12639   0.07781   0.00154
  49        4S          0.00285   0.00001  -0.22084  -0.36392   0.01862
  50        4PX        -0.01024   0.00236   0.21576   0.34906  -0.01120
  51        4PY         0.21090   0.30843  -0.00165  -0.00271  -0.32831
  52        4PZ        -0.01442   0.00002  -0.19941   0.12816   0.00296
                          36        37        38        39        40
                           V         V         V         V         V
     Eigenvalues --     0.12999   0.23119   0.29004   0.32580   0.32582
   1 1   Al 1S         -0.00002  -0.05184   0.02037  -0.00000  -0.00001
   2        2S          0.00008   0.08569  -0.03748  -0.00000   0.00002
   3        2PX        -0.12155   0.00003  -0.00002   0.02131  -0.32748
   4        2PY        -0.00171  -0.00001  -0.00002  -0.32747  -0.02131
   5        2PZ        -0.00002   0.10271   0.27673  -0.00003  -0.00002
   6        3S         -0.00015  -1.71697   0.65850  -0.00000  -0.00018
   7        3PX         0.30253  -0.00011   0.00011  -0.10006   1.53745
   8        3PY         0.00426   0.00004   0.00011   1.53735   0.10006
   9        3PZ         0.00004  -0.44044  -1.25282   0.00013   0.00008
  10        4S         -0.00043   1.99441  -0.65799  -0.00001   0.00013
  11        4PX         1.52121  -0.00007  -0.00007   0.07859  -1.20745
  12        4PY         0.02141  -0.00000  -0.00011  -1.20755  -0.07858
  13        4PZ         0.00021   0.28702   1.25668  -0.00010  -0.00007
  14 2   Cl 1S          0.00781  -0.00253   0.00005  -0.00447   0.00217
  15        2S         -0.04975   0.01685  -0.00063   0.02830  -0.01371
  16        2PX         0.04453  -0.01940   0.01372   0.03539  -0.01417
  17        2PY         0.05324   0.03420  -0.02420  -0.05969   0.03060
  18        2PZ        -0.01527  -0.01265   0.01304   0.01163  -0.00564
  19        3S          0.01871   0.01083  -0.00969  -0.04792   0.02323
  20        3PX        -0.09876   0.04754  -0.03209  -0.07941   0.02697
  21        3PY        -0.11091  -0.08380   0.05658   0.12953  -0.06927
  22        3PZ         0.03423   0.03196  -0.02760  -0.02358   0.01143
  23        4S          0.41121  -0.32650   0.14992   0.17024  -0.08244
  24        4PX        -0.15606  -0.01596  -0.02013  -0.13644   0.14392
  25        4PY        -0.30859   0.02817   0.03549   0.31167  -0.10681
  26        4PZ         0.06581  -0.01809  -0.11209  -0.05790   0.02806
  27 3   Cl 1S          0.00842  -0.00253   0.00005   0.00411   0.00279
  28        2S         -0.05366   0.01685  -0.00063  -0.02601  -0.01767
  29        2PX         0.04134  -0.01993   0.01410  -0.03380  -0.01975
  30        2PY        -0.05475  -0.03389   0.02398  -0.05411  -0.03863
  31        2PZ        -0.01647  -0.01265   0.01304  -0.01070  -0.00727
  32        3S          0.02018   0.01083  -0.00969   0.04405   0.02993
  33        3PX        -0.09211   0.04883  -0.03296   0.07649   0.03954
  34        3PY         0.11387   0.08305  -0.05607   0.11695   0.08671
  35        3PZ         0.03694   0.03197  -0.02761   0.02169   0.01474
  36        4S          0.44350  -0.32648   0.14990  -0.15648  -0.10623
  37        4PX        -0.13747  -0.01638  -0.02068   0.11867   0.16450
  38        4PY         0.32027  -0.02791  -0.03516   0.29110   0.14834
  39        4PZ         0.07103  -0.01809  -0.11209   0.05328   0.03618
  40 4   Cl 1S         -0.01621  -0.00253   0.00005   0.00036  -0.00496
  41        2S          0.10331   0.01683  -0.00062  -0.00228   0.03136
  42        2PX        -0.05049   0.03933  -0.02782   0.00562  -0.07687
  43        2PY         0.00201  -0.00030   0.00021   0.00302   0.00082
  44        2PZ         0.03175  -0.01265   0.01305  -0.00094   0.01290
  45        3S         -0.03882   0.01083  -0.00969   0.00387  -0.05310
  46        3PX         0.09902  -0.09635   0.06506  -0.01235   0.16824
  47        3PY        -0.00426   0.00074  -0.00050  -0.01176  -0.00216
  48        3PZ        -0.07120   0.03198  -0.02761   0.00190  -0.02615
  49        4S         -0.85406  -0.32639   0.14992  -0.01374   0.18855
  50        4PX         0.39728   0.03229   0.04085  -0.02670   0.37508
  51        4PY        -0.01023  -0.00025  -0.00031   0.08054   0.00296
  52        4PZ        -0.13688  -0.01807  -0.11210   0.00468  -0.06421
                          41        42        43        44        45
                           V         V         V         V         V
     Eigenvalues --     0.72585   0.72586   0.75808   0.77109   0.77112
   1 1   Al 1S         -0.00000   0.00000  -0.00056   0.00000  -0.00000
   2        2S          0.00003  -0.00000   0.05899  -0.00001   0.00000
   3        2PX         0.00813  -0.00009  -0.00000   0.00691  -0.00015
   4        2PY         0.00009   0.00813   0.00000   0.00015   0.00690
   5        2PZ        -0.00000   0.00000  -0.00435   0.00000   0.00000
   6        3S          0.00011  -0.00001   0.39554  -0.00002  -0.00000
   7        3PX         0.01789  -0.00019  -0.00003   0.00199  -0.00004
   8        3PY         0.00019   0.01788   0.00000   0.00004   0.00204
   9        3PZ         0.00000   0.00000  -0.02905  -0.00001   0.00000
  10        4S         -0.00028   0.00002  -0.44060   0.00018  -0.00001
  11        4PX        -0.13803   0.00146   0.00002  -0.19101   0.00406
  12        4PY        -0.00147  -0.13808  -0.00000  -0.00406  -0.19093
  13        4PZ         0.00001  -0.00001  -0.02385  -0.00001  -0.00002
  14 2   Cl 1S          0.01933  -0.03497  -0.02584   0.00713  -0.01321
  15        2S         -0.11807   0.21367   0.15795  -0.04343   0.08042
  16        2PX        -0.09484  -0.12257  -0.07481   0.05253   0.02445
  17        2PY        -0.12301   0.05573   0.13204   0.02600   0.02089
  18        2PZ        -0.00946   0.01712   0.02829   0.12818  -0.23770
  19        3S          0.52377  -0.94786  -0.70516   0.20443  -0.37851
  20        3PX         0.32490   0.42173   0.26125  -0.18589  -0.08814
  21        3PY         0.42321  -0.19312  -0.46113  -0.09360  -0.07194
  22        3PZ         0.03312  -0.05991  -0.09884  -0.44663   0.82820
  23        4S         -0.52792   0.95542   0.73867  -0.23765   0.44000
  24        4PX        -0.28639  -0.37608  -0.24845   0.19812   0.11161
  25        4PY        -0.37736   0.17554   0.43853   0.11701   0.05480
  26        4PZ        -0.03487   0.06309   0.10081   0.42546  -0.78898
  27 3   Cl 1S          0.02060   0.03424  -0.02584   0.00789   0.01277
  28        2S         -0.12583  -0.20919   0.15794  -0.04802  -0.07776
  29        2PX        -0.08833   0.12675  -0.07684   0.05063  -0.02710
  30        2PY         0.12636   0.04923  -0.13087  -0.02556   0.02275
  31        2PZ        -0.01007  -0.01676   0.02827   0.14175   0.22987
  32        3S          0.55821   0.92802  -0.70511   0.22603   0.36602
  33        3PX         0.30251  -0.43608   0.26834  -0.17907   0.09756
  34        3PY        -0.43477  -0.17075   0.45705   0.09214  -0.07865
  35        3PZ         0.03523   0.05863  -0.09877  -0.49389  -0.80093
  36        4S         -0.56263  -0.93543   0.73862  -0.26277  -0.42547
  37        4PX        -0.26642   0.38881  -0.25520   0.18953  -0.12195
  38        4PY         0.38774   0.15560  -0.43465  -0.11666   0.06328
  39        4PZ        -0.03710  -0.06175   0.10074   0.47048   0.76300
  40 4   Cl 1S         -0.03996   0.00073  -0.02582  -0.01500   0.00044
  41        2S          0.24417  -0.00449   0.15784   0.09134  -0.00265
  42        2PX         0.12448  -0.00355   0.15168   0.00691   0.00031
  43        2PY        -0.00397  -0.16354  -0.00118   0.00190   0.06648
  44        2PZ         0.01957  -0.00037   0.02823  -0.26994   0.00784
  45        3S         -1.08318   0.01991  -0.70468  -0.42992   0.01247
  46        3PX        -0.42968   0.01224  -0.52972  -0.02160  -0.00120
  47        3PY         0.01365   0.56130   0.00412  -0.00676  -0.23615
  48        3PZ        -0.06849   0.00130  -0.09863   0.94055  -0.02732
  49        4S          1.09187  -0.02007   0.73820   0.49975  -0.01450
  50        4PX         0.38646  -0.01095   0.50376  -0.00848   0.00226
  51        4PY        -0.01214  -0.49720  -0.00392   0.00772   0.26133
  52        4PZ         0.07212  -0.00137   0.10061  -0.89600   0.02603
                          46        47        48        49        50
                           V         V         V         V         V
     Eigenvalues --     0.84993   0.85272   0.87767   0.87772   0.96451
   1 1   Al 1S         -0.00000  -0.00495  -0.00000   0.00000   0.00001
   2        2S         -0.00000  -0.00214  -0.00001  -0.00000  -0.00007
   3        2PX         0.00000  -0.00000   0.00314  -0.00004   0.02946
   4        2PY         0.00001   0.00000   0.00004   0.00314   0.00037
   5        2PZ         0.00000  -0.00419  -0.00000   0.00000   0.00001
   6        3S         -0.00000  -0.32843  -0.00006   0.00001   0.00007
   7        3PX         0.00002   0.00003   0.29693  -0.00402  -0.44595
   8        3PY         0.00040  -0.00000   0.00402   0.29677  -0.00568
   9        3PZ         0.00000   0.08892   0.00000   0.00002  -0.00009
  10        4S         -0.00000  -0.34578   0.00006  -0.00001   0.00136
  11        4PX        -0.00002   0.00012  -0.38440   0.00521  -1.15471
  12        4PY        -0.00036   0.00003  -0.00520  -0.38478  -0.01470
  13        4PZ        -0.00000  -0.40951  -0.00006  -0.00002  -0.00044
  14 2   Cl 1S         -0.00000  -0.00771  -0.00132   0.00239   0.01912
  15        2S          0.00001   0.04619   0.00799  -0.01454  -0.11492
  16        2PX        -0.17677   0.03220   0.18626  -0.02641   0.07961
  17        2PY        -0.09994  -0.05679  -0.02122   0.21588   0.11787
  18        2PZ         0.00004   0.18943  -0.02173   0.03964  -0.04266
  19        3S          0.00001  -0.27343  -0.04178   0.07597   0.66140
  20        3PX         0.62772  -0.12070  -0.66967   0.09616  -0.30138
  21        3PY         0.35487   0.21289   0.07748  -0.77767  -0.45101
  22        3PZ        -0.00015  -0.68096   0.07737  -0.14111   0.15945
  23        4S          0.00003   0.36608   0.00250  -0.00432  -0.97952
  24        4PX        -0.64059   0.17191   0.73914  -0.10802   0.41076
  25        4PY        -0.36206  -0.30320  -0.08738   0.86062   0.72717
  26        4PZ         0.00014   0.77207  -0.07892   0.14400  -0.22414
  27 3   Cl 1S          0.00000  -0.00771  -0.00142  -0.00234   0.02053
  28        2S         -0.00001   0.04619   0.00860   0.01419  -0.12336
  29        2PX         0.17522   0.03308   0.18765   0.02178   0.07286
  30        2PY        -0.10266   0.05626   0.02749   0.21448  -0.12158
  31        2PZ        -0.00006   0.18943  -0.02339  -0.03865  -0.04581
  32        3S         -0.00000  -0.27345  -0.04500  -0.07415   0.70997
  33        3PX        -0.62221  -0.12399  -0.67473  -0.07955  -0.27554
  34        3PY         0.36453  -0.21092  -0.10011  -0.77255   0.46527
  35        3PZ         0.00022  -0.68098   0.08328   0.13760   0.17125
  36        4S         -0.00003   0.36610   0.00271   0.00425  -1.05145
  37        4PX         0.63497   0.17659   0.74484   0.08972   0.36904
  38        4PY        -0.37192   0.30041   0.11245   0.85487  -0.75213
  39        4PZ        -0.00021   0.77210  -0.08495  -0.14040  -0.24075
  40 4   Cl 1S         -0.00000  -0.00771   0.00274  -0.00006  -0.03958
  41        2S          0.00000   0.04617  -0.01662   0.00035   0.23786
  42        2PX         0.00159  -0.06530   0.22914  -0.00354  -0.13090
  43        2PY         0.20334   0.00049   0.00189   0.17269   0.00398
  44        2PZ         0.00002   0.18940   0.04517  -0.00095   0.08863
  45        3S         -0.00000  -0.27330   0.08690  -0.00184  -1.36887
  46        3PX        -0.00563   0.24480  -0.82602   0.01277   0.50412
  47        3PY        -0.72205  -0.00185  -0.00675  -0.62023  -0.01520
  48        3PZ        -0.00007  -0.68089  -0.16082   0.00339  -0.33128
  49        4S          0.00001   0.36587  -0.00538   0.00011   2.02717
  50        4PX         0.00575  -0.34858   0.91509  -0.01417  -0.88929
  51        4PY         0.73686   0.00264   0.00741   0.68367   0.02358
  52        4PZ         0.00007   0.77200   0.16407  -0.00346   0.46558
                          51        52
                           V         V
     Eigenvalues --     0.96452   0.99674
   1 1   Al 1S         -0.00000   0.01206
   2        2S          0.00000  -0.07577
   3        2PX        -0.00038  -0.00001
   4        2PY         0.02945  -0.00000
   5        2PZ         0.00000   0.01112
   6        3S          0.00001   0.22905
   7        3PX         0.00568   0.00023
   8        3PY        -0.44592   0.00001
   9        3PZ        -0.00003  -0.13652
  10        4S         -0.00003   1.68937
  11        4PX         0.01469   0.00065
  12        4PY        -1.15420   0.00004
  13        4PZ        -0.00008  -0.60761
  14 2   Cl 1S         -0.03470   0.03055
  15        2S          0.20853  -0.18352
  16        2PX         0.11765  -0.05794
  17        2PY        -0.06535   0.10190
  18        2PZ         0.07757   0.06819
  19        3S         -1.20003   1.08652
  20        3PX        -0.45022   0.23039
  21        3PY         0.25329  -0.40527
  22        3PZ        -0.28995  -0.25348
  23        4S          1.77697  -1.59900
  24        4PX         0.72762  -0.43143
  25        4PY        -0.48425   0.75937
  26        4PZ         0.40751   0.31593
  27 3   Cl 1S          0.03389   0.03055
  28        2S         -0.20365  -0.18352
  29        2PX        -0.12173  -0.05951
  30        2PY        -0.05858  -0.10100
  31        2PZ        -0.07577   0.06818
  32        3S          1.17196   1.08652
  33        3PX         0.46574   0.23664
  34        3PY         0.22738   0.40169
  35        3PZ         0.28321  -0.25342
  36        4S         -1.73541  -1.59901
  37        4PX        -0.75076  -0.44315
  38        4PY        -0.44244  -0.75264
  39        4PZ        -0.39806   0.31582
  40 4   Cl 1S          0.00081   0.03059
  41        2S         -0.00487  -0.18375
  42        2PX         0.00381   0.11738
  43        2PY         0.14537  -0.00091
  44        2PZ        -0.00180   0.06812
  45        3S          0.02801   1.08782
  46        3PX        -0.01461  -0.46678
  47        3PY        -0.55300   0.00362
  48        3PZ         0.00673  -0.25322
  49        4S         -0.04148  -1.60089
  50        4PX         0.02453   0.87432
  51        4PY         0.81695  -0.00678
  52        4PZ        -0.00946   0.31552
     Density Matrix:
                           1         2         3         4         5
   1 1   Al 1S          2.12020
   2        2S         -0.50782   2.14615
   3        2PX         0.00000  -0.00000   1.94958
   4        2PY        -0.00000   0.00000   0.00000   1.94957
   5        2PZ         0.00086  -0.00486  -0.00000   0.00000   1.92825
   6        3S         -0.03753   0.00482   0.00000  -0.00000   0.00947
   7        3PX         0.00000   0.00000   0.10424  -0.00000   0.00000
   8        3PY        -0.00000  -0.00000  -0.00000   0.10424  -0.00000
   9        3PZ         0.00045   0.00428   0.00000  -0.00000   0.14362
  10        4S          0.01945  -0.06845  -0.00001   0.00000  -0.00769
  11        4PX         0.00000  -0.00001  -0.04056   0.00000   0.00000
  12        4PY        -0.00000   0.00000   0.00000  -0.04057   0.00000
  13        4PZ         0.00519  -0.01645   0.00000   0.00000  -0.06559
  14 2   Cl 1S          0.00026  -0.00076   0.00176  -0.00311   0.00060
  15        2S         -0.00156   0.00599  -0.01009   0.01778  -0.00361
  16        2PX        -0.00548   0.02618  -0.00242   0.02796  -0.00390
  17        2PY         0.00966  -0.04614   0.02796  -0.03585   0.00688
  18        2PZ        -0.00290   0.01391  -0.00653   0.01152   0.01899
  19        3S         -0.00400   0.00614   0.00865  -0.01526   0.00420
  20        3PX         0.01121  -0.05366   0.00542  -0.06024   0.00861
  21        3PY        -0.01975   0.09459  -0.06024   0.07745  -0.01518
  22        3PZ         0.00619  -0.02844   0.01394  -0.02458  -0.04128
  23        4S          0.01068  -0.02171   0.01774  -0.03127   0.00500
  24        4PX         0.01332  -0.05101   0.00646  -0.05930   0.00841
  25        4PY        -0.02348   0.08991  -0.05930   0.07737  -0.01482
  26        4PZ         0.00519  -0.02366   0.01435  -0.02529  -0.03248
  27 3   Cl 1S          0.00026  -0.00076   0.00181   0.00308   0.00060
  28        2S         -0.00156   0.00599  -0.01036  -0.01763  -0.00361
  29        2PX        -0.00563   0.02689  -0.00329  -0.02846  -0.00401
  30        2PY        -0.00958   0.04573  -0.02846  -0.03497  -0.00683
  31        2PZ        -0.00290   0.01391  -0.00671  -0.01142   0.01899
  32        3S         -0.00400   0.00613   0.00889   0.01512   0.00420
  33        3PX         0.01151  -0.05512   0.00730   0.06133   0.00886
  34        3PY         0.01958  -0.09374   0.06132   0.07557   0.01507
  35        3PZ         0.00619  -0.02845   0.01433   0.02438  -0.04128
  36        4S          0.01068  -0.02171   0.01822   0.03099   0.00501
  37        4PX         0.01368  -0.05239   0.00831   0.06037   0.00865
  38        4PY         0.02327  -0.08911   0.06036   0.07552   0.01471
  39        4PZ         0.00519  -0.02368   0.01475   0.02508  -0.03248
  40 4   Cl 1S          0.00026  -0.00076  -0.00358   0.00003   0.00060
  41        2S         -0.00156   0.00599   0.02045  -0.00016  -0.00361
  42        2PX         0.01111  -0.05305  -0.05170   0.00050   0.00792
  43        2PY        -0.00009   0.00041   0.00050   0.01344  -0.00006
  44        2PZ        -0.00290   0.01391   0.01325  -0.00010   0.01899
  45        3S         -0.00400   0.00613  -0.01754   0.00014   0.00420
  46        3PX        -0.02271   0.10875   0.11161  -0.00108  -0.01747
  47        3PY         0.00018  -0.00084  -0.00108  -0.02875   0.00014
  48        3PZ         0.00619  -0.02845  -0.02828   0.00022  -0.04128
  49        4S          0.01067  -0.02170  -0.03595   0.00028   0.00501
  50        4PX        -0.02700   0.10337   0.11100  -0.00107  -0.01706
  51        4PY         0.00021  -0.00080  -0.00107  -0.02717   0.00013
  52        4PZ         0.00519  -0.02367  -0.02909   0.00023  -0.03248
                           6         7         8         9        10
   6        3S          0.36357
   7        3PX        -0.00001   0.18575
   8        3PY         0.00000   0.00000   0.18572
   9        3PZ        -0.01753  -0.00000   0.00001   0.05578
  10        4S          0.03175  -0.00000   0.00000  -0.00139   0.01734
  11        4PX         0.00001  -0.01823  -0.00000  -0.00000   0.00000
  12        4PY        -0.00000  -0.00000  -0.01822  -0.00000  -0.00000
  13        4PZ         0.02477  -0.00000  -0.00000   0.01701   0.00132
  14 2   Cl 1S          0.00044   0.00035  -0.00061   0.00049  -0.02686
  15        2S          0.00090   0.00373  -0.00659   0.00072   0.07864
  16        2PX        -0.04636   0.00023  -0.05939   0.00699   0.00244
  17        2PY         0.08172  -0.05938   0.07124  -0.01232  -0.00431
  18        2PZ        -0.02257   0.01382  -0.02437  -0.04169  -0.00597
  19        3S         -0.02008  -0.00264   0.00465  -0.00479  -0.04062
  20        3PX         0.10321  -0.00165   0.13295  -0.01655   0.01423
  21        3PY        -0.18194   0.13294  -0.16063   0.02918  -0.02504
  22        3PZ         0.05206  -0.03069   0.05410   0.08872   0.00719
  23        4S          0.00195  -0.00847   0.01496   0.00319  -0.04621
  24        4PX         0.08027  -0.00144   0.10370  -0.01130   0.00930
  25        4PY        -0.14149   0.10368  -0.12545   0.01992  -0.01636
  26        4PZ         0.03995  -0.02543   0.04483   0.07396   0.00588
  27 3   Cl 1S          0.00044   0.00036   0.00061   0.00049  -0.02686
  28        2S          0.00090   0.00384   0.00653   0.00072   0.07864
  29        2PX        -0.04762   0.00208   0.06046   0.00719   0.00250
  30        2PY        -0.08099   0.06045   0.06938   0.01223   0.00428
  31        2PZ        -0.02259   0.01421   0.02417  -0.04169  -0.00596
  32        3S         -0.02008  -0.00271  -0.00461  -0.00479  -0.04062
  33        3PX         0.10602  -0.00580  -0.13534  -0.01702   0.01461
  34        3PY         0.18032  -0.13533  -0.15646  -0.02895   0.02481
  35        3PZ         0.05209  -0.03155  -0.05366   0.08871   0.00719
  36        4S          0.00195  -0.00871  -0.01482   0.00319  -0.04621
  37        4PX         0.08245  -0.00468  -0.10557  -0.01163   0.00955
  38        4PY         0.14023  -0.10555  -0.12220  -0.01978   0.01621
  39        4PZ         0.03998  -0.02614  -0.04446   0.07395   0.00588
  40 4   Cl 1S          0.00043  -0.00070   0.00001   0.00049  -0.02685
  41        2S          0.00091  -0.00757   0.00006   0.00072   0.07863
  42        2PX         0.09395   0.10492  -0.00107  -0.01417  -0.00496
  43        2PY        -0.00072  -0.00107  -0.03345   0.00011   0.00004
  44        2PZ        -0.02258  -0.02803   0.00022  -0.04169  -0.00596
  45        3S         -0.02008   0.00535  -0.00004  -0.00479  -0.04062
  46        3PX        -0.20917  -0.23601   0.00239   0.03357  -0.02879
  47        3PY         0.00161   0.00239   0.07375  -0.00026   0.00022
  48        3PZ         0.05208   0.06224  -0.00048   0.08871   0.00717
  49        4S          0.00195   0.01719  -0.00013   0.00319  -0.04622
  50        4PX        -0.16267  -0.18424   0.00187   0.02293  -0.01881
  51        4PY         0.00125   0.00187   0.05736  -0.00018   0.00014
  52        4PZ         0.03997   0.05157  -0.00040   0.07395   0.00586
                          11        12        13        14        15
  11        4PX         0.03157
  12        4PY         0.00000   0.03156
  13        4PZ        -0.00000   0.00000   0.01683
  14 2   Cl 1S          0.01080  -0.01904   0.00538   2.14405
  15        2S         -0.03142   0.05537  -0.01355  -0.57294   2.38767
  16        2PX        -0.02574   0.00467  -0.00285   0.00230  -0.01229
  17        2PY         0.00467  -0.03132   0.00502  -0.00405   0.02166
  18        2PZ         0.00311  -0.00548  -0.01523   0.00119  -0.00662
  19        3S          0.01132  -0.01996   0.00113  -0.03319  -0.27300
  20        3PX         0.08512   0.01643   0.00034  -0.00628   0.02902
  21        3PY         0.01642   0.06548  -0.00061   0.01108  -0.05115
  22        3PZ        -0.01412   0.02488   0.05578  -0.00304   0.01530
  23        4S          0.02858  -0.05039   0.00949   0.16401  -0.68015
  24        4PX         0.07145   0.00819   0.00151   0.00516  -0.00267
  25        4PY         0.00819   0.06165  -0.00267  -0.00909   0.00472
  26        4PZ        -0.01058   0.01865   0.04502   0.00122   0.00238
  27 3   Cl 1S          0.01110   0.01887   0.00538  -0.00002   0.00006
  28        2S         -0.03227  -0.05488  -0.01356   0.00006   0.00007
  29        2PX        -0.02588  -0.00475  -0.00293  -0.00035   0.00152
  30        2PY        -0.00475  -0.03117  -0.00498   0.00125  -0.00686
  31        2PZ         0.00319   0.00543  -0.01523  -0.00014   0.00042
  32        3S          0.01163   0.01978   0.00113  -0.00097   0.00113
  33        3PX         0.08461  -0.01672   0.00035   0.00135  -0.00447
  34        3PY        -0.01672   0.06600   0.00060  -0.00330   0.01575
  35        3PZ        -0.01451  -0.02466   0.05577   0.00068  -0.00158
  36        4S          0.02936   0.04994   0.00950   0.00263  -0.00649
  37        4PX         0.07120  -0.00834   0.00155  -0.00291   0.00593
  38        4PY        -0.00834   0.06191   0.00265   0.00286  -0.00091
  39        4PZ        -0.01087  -0.01848   0.04502  -0.00194   0.00445
  40 4   Cl 1S         -0.02189   0.00017   0.00538  -0.00002   0.00006
  41        2S          0.06366  -0.00049  -0.01355   0.00006   0.00007
  42        2PX        -0.03397   0.00008   0.00578  -0.00089   0.00511
  43        2PY         0.00008  -0.02309  -0.00005   0.00094  -0.00483
  44        2PZ        -0.00630   0.00005  -0.01523  -0.00014   0.00042
  45        3S         -0.02294   0.00018   0.00113  -0.00097   0.00112
  46        3PX         0.05617   0.00030  -0.00070   0.00214  -0.01121
  47        3PY         0.00029   0.09443   0.00001  -0.00285   0.01191
  48        3PZ         0.02862  -0.00022   0.05578   0.00068  -0.00158
  49        4S         -0.05794   0.00045   0.00950   0.00262  -0.00647
  50        4PX         0.05701   0.00015  -0.00307  -0.00096  -0.00226
  51        4PY         0.00015   0.07609   0.00003   0.00396  -0.00556
  52        4PZ         0.02145  -0.00016   0.04502  -0.00195   0.00446
                          16        17        18        19        20
  16        2PX         2.04311
  17        2PY         0.01358   2.02688
  18        2PZ        -0.00448   0.00790   2.04465
  19        3S          0.02892  -0.05098   0.01402   0.73516
  20        3PX        -0.15844  -0.03151   0.01030  -0.04762   0.69415
  21        3PY        -0.03151  -0.12079  -0.01816   0.08393   0.06882
  22        3PZ         0.01027  -0.01810  -0.16116  -0.02469  -0.02247
  23        4S         -0.00891   0.01571   0.00281   0.62235  -0.01183
  24        4PX        -0.31828  -0.02484   0.00875  -0.03365   0.56870
  25        4PY        -0.02484  -0.28858  -0.01543   0.05930   0.06637
  26        4PZ         0.00819  -0.01444  -0.32543  -0.01755  -0.02102
  27 3   Cl 1S         -0.00037  -0.00125  -0.00014  -0.00097   0.00140
  28        2S          0.00163   0.00684   0.00042   0.00113  -0.00471
  29        2PX        -0.00170   0.00114   0.00033   0.00213   0.00391
  30        2PY        -0.00085   0.01714  -0.00194   0.00477   0.00113
  31        2PZ         0.00036   0.00194  -0.00606   0.00082  -0.00008
  32        3S          0.00205  -0.00480   0.00082   0.00250  -0.01148
  33        3PX         0.00393  -0.00176  -0.00002  -0.01151  -0.00841
  34        3PY         0.00210  -0.03703   0.00410  -0.00203  -0.00328
  35        3PZ        -0.00041  -0.00369   0.01263  -0.00636  -0.00298
  36        4S         -0.01638  -0.02116  -0.00514   0.00440   0.05698
  37        4PX        -0.00156  -0.00511  -0.00530  -0.01081   0.00236
  38        4PY        -0.00799  -0.03959   0.00152   0.00270   0.02224
  39        4PZ        -0.00291  -0.00660   0.01478  -0.00525   0.01041
  40 4   Cl 1S          0.00126  -0.00032  -0.00014  -0.00097  -0.00353
  41        2S         -0.00670   0.00211   0.00042   0.00112   0.01587
  42        2PX         0.01231  -0.00922   0.00149  -0.00518  -0.02694
  43        2PY        -0.00724   0.00314  -0.00128   0.00062   0.01572
  44        2PZ        -0.00185   0.00068  -0.00606   0.00082   0.00357
  45        3S          0.00306  -0.00423   0.00082   0.00250   0.00401
  46        3PX        -0.02609   0.02005  -0.00351   0.00765   0.05716
  47        3PY         0.01619  -0.00702   0.00212   0.00885  -0.03458
  48        3PZ         0.00337  -0.00154   0.01263  -0.00637  -0.00523
  49        4S          0.02656   0.00321  -0.00515   0.00440  -0.08782
  50        4PX        -0.03533   0.01220   0.00142   0.00323   0.08307
  51        4PY         0.01510  -0.00581   0.00533   0.01067  -0.03648
  52        4PZ         0.00715  -0.00089   0.01477  -0.00526  -0.01752
                          21        22        23        24        25
  21        3PY         0.61190
  22        3PZ         0.03961   0.69445
  23        4S          0.02086  -0.01851   0.65039
  24        4PX         0.06637  -0.02221   0.00685   0.48596
  25        4PY         0.48937   0.03914  -0.01206   0.05942   0.41492
  26        4PZ         0.03705   0.59276  -0.00807  -0.01968   0.03470
  27 3   Cl 1S          0.00328   0.00068   0.00263  -0.00295  -0.00282
  28        2S         -0.01567  -0.00158  -0.00649   0.00594   0.00082
  29        2PX        -0.00274  -0.00035  -0.01605  -0.00137   0.00739
  30        2PY        -0.03702   0.00369   0.02141   0.00452  -0.03978
  31        2PZ        -0.00411   0.01263  -0.00514  -0.00532  -0.00145
  32        3S          0.00221  -0.00636   0.00440  -0.01085  -0.00253
  33        3PX         0.00464  -0.00310   0.05592   0.00186  -0.02086
  34        3PY         0.07981  -0.00781  -0.06913  -0.01042   0.09209
  35        3PZ         0.00787  -0.02389   0.02354   0.01698   0.00047
  36        4S          0.06826   0.02355  -0.00312   0.04177   0.05294
  37        4PX         0.01181   0.01697   0.04095   0.00881  -0.00986
  38        4PY         0.09158  -0.00071  -0.05359   0.01123   0.09716
  39        4PZ         0.01420  -0.03644   0.01637   0.02475   0.00755
  40 4   Cl 1S          0.00048   0.00068   0.00262   0.00393   0.00109
  41        2S         -0.00400  -0.00158  -0.00647  -0.00376  -0.00468
  42        2PX         0.01958  -0.00298  -0.01012  -0.02440   0.01828
  43        2PY        -0.00616   0.00219   0.02476   0.02118  -0.01673
  44        2PZ        -0.00204   0.01263  -0.00515   0.00397   0.00383
  45        3S          0.01099  -0.00636   0.00440   0.00775   0.00802
  46        3PX        -0.04248   0.00830   0.03059   0.05452  -0.04189
  47        3PY         0.01423  -0.00135  -0.08347  -0.05238   0.03941
  48        3PZ         0.00660  -0.02388   0.02357  -0.00910  -0.01434
  49        4S         -0.01389   0.02357  -0.00313  -0.06687  -0.00870
  50        4PX        -0.02599  -0.00811   0.02494   0.07447  -0.02800
  51        4PY         0.01086  -0.01492  -0.06264  -0.04917   0.03147
  52        4PZ        -0.00165  -0.03643   0.01639  -0.01916  -0.01738
                          26        27        28        29        30
  26        4PZ         0.52502
  27 3   Cl 1S         -0.00194   2.14405
  28        2S          0.00445  -0.57294   2.38767
  29        2PX        -0.00280   0.00236  -0.01262   2.04268
  30        2PY         0.00663   0.00401  -0.02147  -0.01382   2.02731
  31        2PZ         0.01478   0.00119  -0.00663  -0.00461  -0.00783
  32        3S         -0.00525  -0.03319  -0.27300   0.02971   0.05052
  33        3PX         0.01018  -0.00646   0.02981  -0.15746   0.03207
  34        3PY        -0.01434  -0.01098   0.05069   0.03207  -0.12178
  35        3PZ        -0.03644  -0.00304   0.01531   0.01055   0.01794
  36        4S          0.01637   0.16401  -0.68015  -0.00915  -0.01557
  37        4PX         0.02462   0.00530  -0.00275  -0.31750   0.02529
  38        4PY        -0.00791   0.00901  -0.00468   0.02529  -0.28936
  39        4PZ        -0.04479   0.00122   0.00238   0.00842   0.01432
  40 4   Cl 1S         -0.00195  -0.00002   0.00006   0.00126   0.00030
  41        2S          0.00446   0.00006   0.00007  -0.00673  -0.00201
  42        2PX        -0.00425  -0.00091   0.00518   0.01256   0.00907
  43        2PY         0.00581  -0.00093   0.00475   0.00710   0.00289
  44        2PZ         0.01477  -0.00014   0.00042  -0.00186  -0.00065
  45        3S         -0.00526  -0.00097   0.00112   0.00313   0.00418
  46        3PX         0.00707   0.00218  -0.01140  -0.02665  -0.01975
  47        3PY        -0.01610   0.00281  -0.01174  -0.01589  -0.00646
  48        3PZ        -0.03643   0.00068  -0.00158   0.00339   0.00149
  49        4S          0.01639   0.00262  -0.00647   0.02651  -0.00362
  50        4PX        -0.00587  -0.00102  -0.00217  -0.03574  -0.01173
  51        4PY        -0.02519  -0.00395   0.00559  -0.01463  -0.00539
  52        4PZ        -0.04478  -0.00195   0.00446   0.00716   0.00078
                          31        32        33        34        35
  31        2PZ         2.04465
  32        3S          0.01402   0.73516
  33        3PX         0.01058  -0.04891   0.69200
  34        3PY         0.01800  -0.08317  -0.07006   0.61406
  35        3PZ        -0.16115  -0.02470  -0.02309  -0.03927   0.69444
  36        4S          0.00281   0.62235  -0.01215  -0.02068  -0.01852
  37        4PX         0.00899  -0.03456   0.56662  -0.06756  -0.02282
  38        4PY         0.01530  -0.05877  -0.06756   0.49145  -0.03881
  39        4PZ        -0.32542  -0.01756  -0.02160  -0.03674   0.59275
  40 4   Cl 1S         -0.00014  -0.00097  -0.00354  -0.00043   0.00068
  41        2S          0.00042   0.00112   0.01593   0.00375  -0.00158
  42        2PX         0.00152  -0.00519  -0.02749  -0.01924  -0.00302
  43        2PY         0.00126  -0.00054  -0.01539  -0.00562  -0.00215
  44        2PZ        -0.00606   0.00082   0.00360   0.00198   0.01263
  45        3S          0.00082   0.00250   0.00384  -0.01105  -0.00637
  46        3PX        -0.00355   0.00751   0.05834   0.04180   0.00832
  47        3PY        -0.00207  -0.00896   0.03389   0.01305   0.00123
  48        3PZ         0.01263  -0.00637  -0.00532  -0.00651  -0.02388
  49        4S         -0.00515   0.00440  -0.08760   0.01525   0.02357
  50        4PX         0.00133   0.00307   0.08402   0.02486  -0.00787
  51        4PY        -0.00536  -0.01072   0.03535   0.00991   0.01505
  52        4PZ         0.01477  -0.00526  -0.01749   0.00193  -0.03643
                          36        37        38        39        40
  36        4S          0.65039
  37        4PX         0.00703   0.48410
  38        4PY         0.01196  -0.06049   0.41678
  39        4PZ        -0.00807  -0.02023  -0.03441   0.52500
  40 4   Cl 1S          0.00262   0.00391  -0.00115  -0.00195   2.14405
  41        2S         -0.00647  -0.00369   0.00473   0.00446  -0.57294
  42        2PX        -0.01050  -0.02501  -0.01815  -0.00435  -0.00466
  43        2PY        -0.02460  -0.02106  -0.01612  -0.00575   0.00004
  44        2PZ        -0.00515   0.00391  -0.00390   0.01477   0.00119
  45        3S          0.00440   0.00763  -0.00814  -0.00526  -0.03319
  46        3PX         0.03188   0.05597   0.04163   0.00733   0.01274
  47        3PY         0.08299   0.05213   0.03795   0.01600  -0.00010
  48        3PZ         0.02359  -0.00887   0.01449  -0.03643  -0.00304
  49        4S         -0.00313  -0.06673   0.00973   0.01639   0.16401
  50        4PX         0.02591   0.07565   0.02731  -0.00547  -0.01045
  51        4PY         0.06225   0.04850   0.03028   0.02529   0.00008
  52        4PZ         0.01640  -0.01888   0.01769  -0.04478   0.00122
                          41        42        43        44        45
  41        2S          2.38767
  42        2PX         0.02490   2.01918
  43        2PY        -0.00019   0.00024   2.05081
  44        2PZ        -0.00663   0.00909  -0.00007   2.04465
  45        3S         -0.27300  -0.05861   0.00045   0.01402   0.73517
  46        3PX        -0.05881  -0.10292  -0.00057  -0.02088   0.09649
  47        3PY         0.00045  -0.00057  -0.17631   0.00016  -0.00074
  48        3PZ         0.01531  -0.02081   0.00016  -0.16115  -0.02470
  49        4S         -0.68015   0.01806  -0.00014   0.00281   0.62235
  50        4PX         0.00542  -0.27449  -0.00045  -0.01774   0.06818
  51        4PY        -0.00004  -0.00045  -0.33237   0.00014  -0.00053
  52        4PZ         0.00238  -0.01661   0.00013  -0.32542  -0.01755
                          46        47        48        49        50
  46        3PX         0.57286
  47        3PY         0.00124   0.73319
  48        3PZ         0.04556  -0.00035   0.69445
  49        4S          0.02398  -0.00018  -0.01852   0.65039
  50        4PX         0.45172   0.00119   0.04502  -0.01387   0.38121
  51        4PY         0.00119   0.60634  -0.00035   0.00011   0.00107
  52        4PZ         0.04261  -0.00033   0.59275  -0.00808   0.03991
                          51        52
  51        4PY         0.51965
  52        4PZ        -0.00031   0.52500
    Full Mulliken population analysis:
                           1         2         3         4         5
   1 1   Al 1S          2.12020
   2        2S         -0.12240   2.14615
   3        2PX         0.00000   0.00000   1.94958
   4        2PY         0.00000   0.00000   0.00000   1.94957
   5        2PZ         0.00000   0.00000   0.00000   0.00000   1.92825
   6        3S         -0.00046   0.00123   0.00000   0.00000   0.00000
   7        3PX         0.00000   0.00000   0.02519   0.00000   0.00000
   8        3PY         0.00000   0.00000   0.00000   0.02519   0.00000
   9        3PZ         0.00000   0.00000   0.00000   0.00000   0.03471
  10        4S          0.00049  -0.01494   0.00000   0.00000   0.00000
  11        4PX         0.00000   0.00000  -0.00238   0.00000   0.00000
  12        4PY         0.00000   0.00000   0.00000  -0.00238   0.00000
  13        4PZ         0.00000   0.00000   0.00000   0.00000  -0.00386
  14 2   Cl 1S          0.00000  -0.00000  -0.00000  -0.00000  -0.00000
  15        2S         -0.00000   0.00000   0.00000   0.00000   0.00000
  16        2PX        -0.00000   0.00000   0.00000   0.00000   0.00000
  17        2PY        -0.00000   0.00000   0.00000   0.00000   0.00000
  18        2PZ        -0.00000   0.00000   0.00000   0.00000  -0.00000
  19        3S         -0.00000   0.00000  -0.00001  -0.00002  -0.00000
  20        3PX         0.00000  -0.00007  -0.00000  -0.00011  -0.00000
  21        3PY         0.00000  -0.00021  -0.00011  -0.00023  -0.00001
  22        3PZ         0.00000  -0.00001  -0.00001  -0.00002  -0.00001
  23        4S          0.00003  -0.00065  -0.00018  -0.00055  -0.00002
  24        4PX         0.00006  -0.00228  -0.00002  -0.00158  -0.00005
  25        4PY         0.00020  -0.00708  -0.00158  -0.00269  -0.00015
  26        4PZ         0.00001  -0.00041  -0.00008  -0.00026  -0.00032
  27 3   Cl 1S          0.00000  -0.00000  -0.00000  -0.00000  -0.00000
  28        2S         -0.00000   0.00000   0.00000   0.00000   0.00000
  29        2PX        -0.00000   0.00000   0.00000   0.00000   0.00000
  30        2PY        -0.00000   0.00000   0.00000   0.00000   0.00000
  31        2PZ        -0.00000   0.00000   0.00000   0.00000  -0.00000
  32        3S         -0.00000   0.00000  -0.00001  -0.00002  -0.00000
  33        3PX         0.00000  -0.00007  -0.00001  -0.00012  -0.00000
  34        3PY         0.00000  -0.00021  -0.00012  -0.00022  -0.00001
  35        3PZ         0.00000  -0.00001  -0.00001  -0.00002  -0.00001
  36        4S          0.00003  -0.00065  -0.00019  -0.00054  -0.00002
  37        4PX         0.00007  -0.00241  -0.00003  -0.00164  -0.00005
  38        4PY         0.00020  -0.00696  -0.00164  -0.00257  -0.00015
  39        4PZ         0.00001  -0.00041  -0.00009  -0.00026  -0.00032
  40 4   Cl 1S          0.00000  -0.00000  -0.00000  -0.00000  -0.00000
  41        2S         -0.00000   0.00000   0.00000   0.00000   0.00000
  42        2PX        -0.00000   0.00000   0.00000   0.00000   0.00000
  43        2PY        -0.00000   0.00000   0.00000   0.00000   0.00000
  44        2PZ        -0.00000   0.00000   0.00000   0.00000  -0.00000
  45        3S         -0.00000   0.00000  -0.00002  -0.00000  -0.00000
  46        3PX         0.00000  -0.00028  -0.00046  -0.00000  -0.00001
  47        3PY         0.00000  -0.00000  -0.00000  -0.00001  -0.00000
  48        3PZ         0.00000  -0.00001  -0.00002  -0.00000  -0.00001
  49        4S          0.00003  -0.00065  -0.00073  -0.00000  -0.00002
  50        4PX         0.00026  -0.00936  -0.00554  -0.00000  -0.00020
  51        4PY         0.00000  -0.00000  -0.00000  -0.00033  -0.00000
  52        4PZ         0.00001  -0.00041  -0.00035  -0.00000  -0.00032
                           6         7         8         9        10
   6        3S          0.36357
   7        3PX         0.00000   0.18575
   8        3PY         0.00000   0.00000   0.18572
   9        3PZ         0.00000   0.00000   0.00000   0.05578
  10        4S          0.02622   0.00000   0.00000   0.00000   0.01734
  11        4PX         0.00000  -0.01211   0.00000   0.00000   0.00000
  12        4PY         0.00000   0.00000  -0.01210   0.00000   0.00000
  13        4PZ         0.00000   0.00000   0.00000   0.01130   0.00000
  14 2   Cl 1S          0.00000  -0.00000  -0.00000  -0.00000  -0.00015
  15        2S          0.00001  -0.00006  -0.00020  -0.00000   0.00336
  16        2PX        -0.00015  -0.00000  -0.00050  -0.00001   0.00001
  17        2PY        -0.00048  -0.00050  -0.00083  -0.00004   0.00003
  18        2PZ        -0.00003  -0.00003  -0.00008  -0.00010  -0.00001
  19        3S         -0.00175   0.00025   0.00077   0.00017  -0.00795
  20        3PX         0.00583   0.00002   0.01485   0.00041   0.00074
  21        3PY         0.01810   0.01485   0.02319   0.00127   0.00229
  22        3PZ         0.00115   0.00076   0.00236   0.00380   0.00015
  23        4S          0.00044   0.00140   0.00434  -0.00021  -0.01763
  24        4PX         0.01568  -0.00007   0.02727   0.00066   0.00162
  25        4PY         0.04873   0.02727   0.03304   0.00205   0.00501
  26        4PZ         0.00305   0.00148   0.00460   0.01313   0.00040
  27 3   Cl 1S          0.00000  -0.00000  -0.00000  -0.00000  -0.00015
  28        2S          0.00001  -0.00007  -0.00020  -0.00000   0.00336
  29        2PX        -0.00016  -0.00000  -0.00051  -0.00001   0.00001
  30        2PY        -0.00047  -0.00051  -0.00079  -0.00004   0.00003
  31        2PZ        -0.00003  -0.00003  -0.00008  -0.00010  -0.00001
  32        3S         -0.00175   0.00026   0.00075   0.00017  -0.00795
  33        3PX         0.00615   0.00008   0.01539   0.00043   0.00078
  34        3PY         0.01778   0.01539   0.02204   0.00125   0.00225
  35        3PZ         0.00115   0.00080   0.00232   0.00380   0.00015
  36        4S          0.00044   0.00147   0.00426  -0.00021  -0.01763
  37        4PX         0.01655  -0.00020   0.02827   0.00070   0.00170
  38        4PY         0.04786   0.02826   0.03117   0.00201   0.00492
  39        4PZ         0.00305   0.00156   0.00453   0.01313   0.00040
  40 4   Cl 1S          0.00000  -0.00000  -0.00000  -0.00000  -0.00015
  41        2S          0.00001  -0.00026  -0.00000  -0.00000   0.00336
  42        2PX        -0.00064  -0.00173  -0.00000  -0.00005   0.00004
  43        2PY        -0.00000  -0.00000  -0.00010  -0.00000   0.00000
  44        2PZ        -0.00003  -0.00011  -0.00000  -0.00010  -0.00001
  45        3S         -0.00175   0.00101   0.00000   0.00017  -0.00795
  46        3PX         0.02393   0.04902   0.00000   0.00168   0.00303
  47        3PY         0.00000   0.00000   0.00387   0.00000   0.00000
  48        3PZ         0.00115   0.00312   0.00000   0.00380   0.00015
  49        4S          0.00044   0.00574   0.00000  -0.00021  -0.01763
  50        4PX         0.06441   0.07599   0.00001   0.00271   0.00662
  51        4PY         0.00000   0.00001   0.01149   0.00000   0.00000
  52        4PZ         0.00305   0.00609   0.00000   0.01313   0.00040
                          11        12        13        14        15
  11        4PX         0.03157
  12        4PY         0.00000   0.03156
  13        4PZ         0.00000   0.00000   0.01683
  14 2   Cl 1S         -0.00006  -0.00019  -0.00001   2.14405
[...]
  37        4PX         0.01471   0.00191  -0.00008  -0.00000   0.00000
  38        4PY         0.00191  -0.00301  -0.00023   0.00000  -0.00000
  39        4PZ         0.00056   0.00161   0.01450  -0.00000   0.00000
  40 4   Cl 1S         -0.00025  -0.00000  -0.00001   0.00000   0.00000
  41        2S          0.00552   0.00000   0.00023   0.00000   0.00000
  42        2PX         0.00028   0.00000   0.00002   0.00000   0.00000
  43        2PY         0.00000  -0.00017   0.00000   0.00000   0.00000
  44        2PZ        -0.00002  -0.00000  -0.00011   0.00000   0.00000
  45        3S         -0.00820  -0.00000  -0.00008  -0.00000   0.00000
  46        3PX        -0.00520   0.00000  -0.00003  -0.00000   0.00000
  47        3PY         0.00000   0.00963  -0.00000  -0.00000   0.00000
  48        3PZ         0.00107   0.00000   0.00529   0.00000  -0.00000
  49        4S         -0.03296  -0.00000  -0.00104   0.00000  -0.00000
  50        4PX        -0.01047   0.00000  -0.00031   0.00000   0.00000
  51        4PY         0.00000   0.02599  -0.00000   0.00000  -0.00000
  52        4PZ         0.00217   0.00000   0.01450  -0.00000   0.00000
                          16        17        18        19        20
  16        2PX         2.04311
  17        2PY         0.00000   2.02688
  18        2PZ         0.00000   0.00000   2.04465
  19        3S          0.00000   0.00000   0.00000   0.73516
  20        3PX        -0.05091   0.00000   0.00000   0.00000   0.69415
  21        3PY         0.00000  -0.03881   0.00000   0.00000   0.00000
  22        3PZ         0.00000   0.00000  -0.05178   0.00000   0.00000
  23        4S          0.00000   0.00000   0.00000   0.51300   0.00000
  24        4PX        -0.02233   0.00000   0.00000   0.00000   0.35422
  25        4PY         0.00000  -0.02024   0.00000   0.00000   0.00000
  26        4PZ         0.00000   0.00000  -0.02283   0.00000   0.00000
  27 3   Cl 1S          0.00000   0.00000   0.00000  -0.00000  -0.00000
  28        2S          0.00000   0.00000   0.00000   0.00000   0.00000
  29        2PX         0.00000   0.00000   0.00000   0.00000   0.00000
  30        2PY         0.00000   0.00000   0.00000   0.00000  -0.00000
  31        2PZ         0.00000   0.00000   0.00000   0.00000   0.00000
  32        3S         -0.00000   0.00000  -0.00000   0.00000   0.00000
  33        3PX         0.00000   0.00000   0.00000  -0.00000  -0.00000
  34        3PY        -0.00000   0.00000  -0.00000  -0.00000   0.00000
  35        3PZ         0.00000   0.00000   0.00000  -0.00000   0.00000
  36        4S          0.00000   0.00000   0.00000   0.00001  -0.00000
  37        4PX        -0.00000   0.00000   0.00000  -0.00000   0.00000
  38        4PY         0.00000   0.00001  -0.00000   0.00002  -0.00000
  39        4PZ         0.00000   0.00000   0.00000  -0.00000  -0.00000
  40 4   Cl 1S          0.00000   0.00000   0.00000  -0.00000  -0.00000
  41        2S          0.00000   0.00000   0.00000   0.00000   0.00000
  42        2PX         0.00000   0.00000   0.00000   0.00000   0.00000
  43        2PY         0.00000   0.00000   0.00000   0.00000   0.00000
  44        2PZ         0.00000   0.00000   0.00000   0.00000   0.00000
  45        3S          0.00000   0.00000  -0.00000   0.00000   0.00000
  46        3PX         0.00000   0.00000  -0.00000  -0.00000  -0.00000
  47        3PY         0.00000   0.00000  -0.00000   0.00000  -0.00000
  48        3PZ         0.00000   0.00000   0.00000  -0.00000  -0.00000
  49        4S          0.00000  -0.00000   0.00000   0.00001  -0.00023
  50        4PX         0.00001   0.00000   0.00000  -0.00002  -0.00073
  51        4PY         0.00000   0.00000  -0.00000   0.00004  -0.00021
  52        4PZ         0.00000   0.00000   0.00000  -0.00000  -0.00000
                          21        22        23        24        25
  21        3PY         0.61190
  22        3PZ         0.00000   0.69445
  23        4S          0.00000   0.00000   0.65039
  24        4PX         0.00000   0.00000   0.00000   0.48596
  25        4PY         0.30481   0.00000   0.00000   0.00000   0.41492
  26        4PZ         0.00000   0.36921   0.00000   0.00000   0.00000
  27 3   Cl 1S         -0.00000  -0.00000   0.00000   0.00000   0.00000
  28        2S          0.00000   0.00000  -0.00000  -0.00000  -0.00000
  29        2PX         0.00000   0.00000  -0.00000  -0.00000  -0.00000
  30        2PY         0.00000  -0.00000   0.00000  -0.00000   0.00001
  31        2PZ         0.00000   0.00000  -0.00000   0.00000   0.00000
  32        3S         -0.00000   0.00000   0.00001   0.00000   0.00002
  33        3PX        -0.00000   0.00000   0.00000   0.00000   0.00000
  34        3PY        -0.00000   0.00000  -0.00021   0.00000  -0.00112
  35        3PZ        -0.00000  -0.00000   0.00000  -0.00000  -0.00000
  36        4S         -0.00020  -0.00000  -0.00005  -0.00001  -0.00238
  37        4PX        -0.00000  -0.00000   0.00001   0.00014   0.00001
  38        4PY        -0.00112   0.00000  -0.00241  -0.00001  -0.01110
  39        4PZ        -0.00000  -0.00004   0.00000  -0.00000  -0.00000
  40 4   Cl 1S         -0.00000  -0.00000   0.00000   0.00000  -0.00000
  41        2S          0.00000   0.00000  -0.00000  -0.00000   0.00000
  42        2PX         0.00000  -0.00000   0.00000   0.00001   0.00000
  43        2PY         0.00000  -0.00000   0.00000   0.00000   0.00000
  44        2PZ         0.00000   0.00000  -0.00000   0.00000  -0.00000
  45        3S         -0.00000   0.00000   0.00001   0.00005  -0.00003
  46        3PX        -0.00000   0.00000  -0.00008  -0.00048  -0.00024
  47        3PY        -0.00000   0.00000  -0.00013  -0.00030  -0.00009
  48        3PZ        -0.00000  -0.00000   0.00000  -0.00000   0.00000
  49        4S          0.00002  -0.00000  -0.00005  -0.00259   0.00020
  50        4PX        -0.00015  -0.00000  -0.00097  -0.00602  -0.00159
  51        4PY        -0.00003   0.00000  -0.00143  -0.00279  -0.00056
  52        4PZ         0.00000  -0.00004   0.00000  -0.00000   0.00000
                          26        27        28        29        30
  26        4PZ         0.52502
  27 3   Cl 1S          0.00000   2.14405
  28        2S         -0.00000  -0.14864   2.38767
  29        2PX         0.00000   0.00000   0.00000   2.04268
  30        2PY        -0.00000   0.00000   0.00000   0.00000   2.02731
  31        2PZ         0.00000   0.00000   0.00000   0.00000   0.00000
  32        3S          0.00000  -0.00196  -0.11870   0.00000   0.00000
  33        3PX        -0.00000   0.00000   0.00000  -0.05059   0.00000
  34        3PY         0.00000   0.00000   0.00000   0.00000  -0.03913
  35        3PZ        -0.00004   0.00000   0.00000   0.00000   0.00000
  36        4S         -0.00000   0.00556  -0.16998   0.00000   0.00000
  37        4PX        -0.00000   0.00000   0.00000  -0.02227   0.00000
  38        4PY         0.00000   0.00000   0.00000   0.00000  -0.02030
  39        4PZ        -0.00070   0.00000   0.00000   0.00000   0.00000
  40 4   Cl 1S          0.00000   0.00000   0.00000   0.00000   0.00000
  41        2S         -0.00000   0.00000   0.00000   0.00000   0.00000
  42        2PX        -0.00000   0.00000   0.00000   0.00000   0.00000
  43        2PY        -0.00000   0.00000   0.00000   0.00000   0.00000
  44        2PZ         0.00000   0.00000   0.00000   0.00000   0.00000
  45        3S          0.00000  -0.00000   0.00000   0.00000   0.00000
  46        3PX         0.00000  -0.00000   0.00000   0.00000   0.00000
  47        3PY         0.00000  -0.00000   0.00000   0.00000   0.00000
  48        3PZ        -0.00004  -0.00000   0.00000  -0.00000  -0.00000
  49        4S         -0.00000   0.00000  -0.00000   0.00000  -0.00000
  50        4PX        -0.00000   0.00000   0.00000   0.00001   0.00000
  51        4PY         0.00000   0.00000  -0.00000   0.00000   0.00000
  52        4PZ        -0.00070   0.00000  -0.00000  -0.00000  -0.00000
                          31        32        33        34        35
  31        2PZ         2.04465
  32        3S          0.00000   0.73516
  33        3PX         0.00000   0.00000   0.69200
  34        3PY         0.00000   0.00000   0.00000   0.61406
  35        3PZ        -0.05178   0.00000   0.00000   0.00000   0.69444
  36        4S          0.00000   0.51300   0.00000   0.00000   0.00000
  37        4PX         0.00000   0.00000   0.35293   0.00000   0.00000
  38        4PY         0.00000   0.00000   0.00000   0.30611   0.00000
  39        4PZ        -0.02283   0.00000   0.00000   0.00000   0.36920
  40 4   Cl 1S          0.00000  -0.00000  -0.00000  -0.00000   0.00000
  41        2S          0.00000   0.00000   0.00000   0.00000  -0.00000
  42        2PX         0.00000   0.00000   0.00000   0.00000   0.00000
  43        2PY         0.00000   0.00000   0.00000   0.00000   0.00000
  44        2PZ         0.00000  -0.00000  -0.00000  -0.00000   0.00000
  45        3S          0.00000   0.00000   0.00000  -0.00000  -0.00000
  46        3PX         0.00000  -0.00000  -0.00000  -0.00000  -0.00000
  47        3PY         0.00000   0.00000  -0.00000  -0.00000  -0.00000
  48        3PZ         0.00000   0.00000   0.00000   0.00000  -0.00000
  49        4S         -0.00000   0.00001  -0.00023   0.00002   0.00000
  50        4PX        -0.00000  -0.00002  -0.00075  -0.00014   0.00000
  51        4PY         0.00000   0.00004  -0.00020  -0.00002  -0.00000
  52        4PZ         0.00000   0.00000   0.00000  -0.00000  -0.00004
                          36        37        38        39        40
  36        4S          0.65039
  37        4PX         0.00000   0.48410
  38        4PY         0.00000   0.00000   0.41678
  39        4PZ         0.00000   0.00000   0.00000   0.52500
  40 4   Cl 1S          0.00000   0.00000  -0.00000  -0.00000   2.14405
  41        2S         -0.00000  -0.00000   0.00000   0.00000  -0.14864
  42        2PX         0.00000   0.00001   0.00000   0.00000   0.00000
  43        2PY         0.00000   0.00000   0.00000   0.00000   0.00000
  44        2PZ         0.00000  -0.00000   0.00000   0.00000   0.00000
  45        3S          0.00001   0.00005  -0.00003  -0.00000  -0.00196
  46        3PX        -0.00008  -0.00050  -0.00024  -0.00000   0.00000
  47        3PY        -0.00012  -0.00030  -0.00008  -0.00000   0.00000
  48        3PZ        -0.00000   0.00000  -0.00000  -0.00004   0.00000
  49        4S         -0.00005  -0.00261   0.00022   0.00000   0.00556
  50        4PX        -0.00101  -0.00625  -0.00152   0.00000   0.00000
  51        4PY        -0.00138  -0.00270  -0.00048  -0.00000   0.00000
  52        4PZ        -0.00000   0.00000  -0.00000  -0.00070   0.00000
                          41        42        43        44        45
  41        2S          2.38767
  42        2PX         0.00000   2.01918
  43        2PY         0.00000   0.00000   2.05081
  44        2PZ         0.00000   0.00000   0.00000   2.04465
  45        3S         -0.11870   0.00000   0.00000   0.00000   0.73517
  46        3PX         0.00000  -0.03307   0.00000   0.00000   0.00000
  47        3PY         0.00000   0.00000  -0.05665   0.00000   0.00000
  48        3PZ         0.00000   0.00000   0.00000  -0.05178   0.00000
  49        4S         -0.16998   0.00000   0.00000   0.00000   0.51300
  50        4PX         0.00000  -0.01926   0.00000   0.00000   0.00000
  51        4PY         0.00000   0.00000  -0.02332   0.00000   0.00000
  52        4PZ         0.00000   0.00000   0.00000  -0.02283   0.00000
                          46        47        48        49        50
  46        3PX         0.57286
  47        3PY         0.00000   0.73319
  48        3PZ         0.00000   0.00000   0.69445
  49        4S          0.00000   0.00000   0.00000   0.65039
  50        4PX         0.28136   0.00000   0.00000   0.00000   0.38121
  51        4PY         0.00000   0.37767   0.00000   0.00000   0.00000
  52        4PZ         0.00000   0.00000   0.36920   0.00000   0.00000
                          51        52
  51        4PY         0.51965
  52        4PZ         0.00000   0.52500
     Gross orbital populations:
                           1
   1 1   Al 1S          1.99876
   2        2S          1.97791
   3        2PX         1.96118
   4        2PY         1.96119
   5        2PZ         1.95740
   6        3S          0.66230
   7        3PX         0.43009
   8        3PY         0.43003
   9        3PZ         0.16520
  10        4S         -0.00732
  11        4PX        -0.00184
  12        4PY        -0.00180
  13        4PZ         0.07965
  14 2   Cl 1S          1.99860
  15        2S          1.95919
  16        2PX         1.96917
  17        2PY         1.96621
  18        2PZ         1.96967
  19        3S          1.11074
  20        3PX         1.02396
  21        3PY         0.93394
  22        3PZ         1.02633
  23        4S          0.94666
  24        4PX         0.86418
  25        4PY         0.78558
  26        4PZ         0.90819
  27 3   Cl 1S          1.99860
  28        2S          1.95919
  29        2PX         1.96909
  30        2PY         1.96629
  31        2PZ         1.96967
  32        3S          1.11074
  33        3PX         1.02161
  34        3PY         0.93631
  35        3PZ         1.02632
  36        4S          0.94666
  37        4PX         0.86212
  38        4PY         0.78764
  39        4PZ         0.90818
  40 4   Cl 1S          1.99860
  41        2S          1.95919
  42        2PX         1.96480
  43        2PY         1.97058
  44        2PZ         1.96967
  45        3S          1.11075
  46        3PX         0.89122
  47        3PY         1.06668
  48        3PZ         1.02633
  49        4S          0.94665
  50        4PX         0.74830
  51        4PY         0.90145
  52        4PZ         0.90817
          Condensed to atoms (all electrons):
               1          2          3          4
     1  Al  10.889279   0.241158   0.241159   0.241155
     2  Cl   0.241158  17.259535  -0.019144  -0.019122
     3  Cl   0.241159  -0.019144  17.259528  -0.019122
     4  Cl   0.241155  -0.019122  -0.019122  17.259492
 Mulliken charges:
               1
     1  Al   1.387249
     2  Cl  -0.462426
     3  Cl  -0.462421
     4  Cl  -0.462402
 Sum of Mulliken charges =  -0.00000
 Mulliken charges with hydrogens summed into heavy atoms:
               1
     1  Al   1.387249
     2  Cl  -0.462426
     3  Cl  -0.462421
     4  Cl  -0.462402
 Electronic spatial extent (au):  <R**2>=            982.4058
 Charge=             -0.0000 electrons
 Dipole moment (field-independent basis, Debye):
    X=              0.0014    Y=             -0.0003    Z=              2.7756  Tot=              2.7756
 Quadrupole moment (field-independent basis, Debye-Ang):
   XX=            -62.2711   YY=            -62.2683   ZZ=            -46.7583
   XY=              0.0000   XZ=              0.0007   YZ=             -0.0012
 Traceless Quadrupole moment (field-independent basis, Debye-Ang):
   XX=             -5.1719   YY=             -5.1690   ZZ=             10.3409
   XY=              0.0000   XZ=              0.0007   YZ=             -0.0012
 Octapole moment (field-independent basis, Debye-Ang**2):
  XXX=            -11.2616  YYY=             -0.2620  ZZZ=              4.7040  XYY=             11.2617
  XXY=              0.2614  XXZ=              0.2672  XZZ=              0.0009  YZZ=             -0.0004
  YYZ=              0.2673  XYZ=              0.0009
 Hexadecapole moment (field-independent basis, Debye-Ang**3):
 XXXX=           -659.6100 YYYY=           -659.4305 ZZZZ=            -60.7498 XXXY=              0.0004
 XXXZ=             -1.7615 YYYX=             -0.0002 YYYZ=             -0.0649 ZZZX=              0.0045
 ZZZY=             -0.0221 XXYY=           -219.8389 XXZZ=           -116.0507 YYZZ=           -116.0222
 XXYZ=              0.0330 YYXZ=              1.7677 ZZXY=              0.0003
 N-N= 2.823047023844D+02 E-N=-4.406545168147D+03  KE= 1.610944810720D+03
 Orbital energies and kinetic energies (alpha):
                                 1                 2
   1         O              -104.133693        136.076669
   2         O              -104.133610        136.078780
   3         O              -104.133598        136.078808
   4         O               -58.248053         78.663473
   5         O               -10.525339         22.338945
   6         O               -10.525062         22.345901
   7         O               -10.525049         22.345913
   8         O                -7.988058         20.340125
   9         O                -7.988044         20.340100
  10         O                -7.987939         20.343861
  11         O                -7.985054         20.360060
  12         O                -7.984902         20.364942
  13         O                -7.984895         20.364538
  14         O                -7.984713         20.365568
  15         O                -7.984671         20.369054
  16         O                -7.984665         20.368803
  17         O                -5.045807         11.072628
  18         O                -3.350071          9.716277
  19         O                -3.350071          9.716290
  20         O                -3.349830          9.742975
  21         O                -1.124777          2.791047
  22         O                -1.106265          2.953581
  23         O                -1.106248          2.953610
  24         O                -0.621798          2.007595
  25         O                -0.541810          2.088123
  26         O                -0.541796          2.088071
  27         O                -0.515826          2.006907
  28         O                -0.491555          2.195664
  29         O                -0.491547          2.195774
  30         O                -0.488093          2.243106
  31         O                -0.488082          2.243120
  32         O                -0.479163          2.312097
  33         V                -0.044086          1.355013
  34         V                 0.076569          1.543825
  35         V                 0.129949          1.009918
  36         V                 0.129990          1.009848
  37         V                 0.231192          1.136427
  38         V                 0.290037          1.337602
  39         V                 0.325801          1.834144
  40         V                 0.325818          1.834390
  41         V                 0.725850          3.295946
  42         V                 0.725860          3.295844
  43         V                 0.758085          3.283071
  44         V                 0.771089          3.512929
  45         V                 0.771121          3.512981
  46         V                 0.849928          3.569873
  47         V                 0.852721          3.590872
  48         V                 0.877666          3.669896
  49         V                 0.877721          3.669857
  50         V                 0.964512          3.610950
  51         V                 0.964518          3.611180
  52         V                 0.996740          3.568198
 Total kinetic energy from orbitals= 1.610944810720D+03
 1\1\GINC-IISERK51\SP\RHF\3-21G\Al1Cl3\GAUSSIAN\13-Jun-2025\0\\# hf/3-2
 1g pop=full geom=connectivity\\NH3 - AlCl3 Adduct Optimisation\\0,1\Al
 ,0,0.000132,0.000023,0.005271\Cl,0,-1.065468,1.877366,-0.410467\Cl,0,-
 1.093369,-1.861122,-0.410755\Cl,0,2.158702,-0.016037,-0.410674\\Versio
 n=EM64L-G16RevB.01\State=1-A\HF=-1612.6855588\RMSD=4.253e-09\Dipole=0.
 0005556,-0.0001357,1.0919908\Quadrupole=-3.8451443,-3.843049,7.6881934
 ,0.0000286,0.000519,-0.0009131\PG=C01 [X(Al1Cl3)]\\@


 BLACK HOLES SUCK.
 Job cpu time:       0 days  0 hours  0 minutes  0.4 seconds.
 Elapsed time:       0 days  0 hours  0 minutes  0.4 seconds.
 File lengths (MBytes):  RWF=      6 Int=      0 D2E=      0 Chk=      1 Scr=      1
 Normal termination of Gaussian 16 at Fri Jun 13 22:54:51 2025.
