 Entering Gaussian System, Link 0=g16
 Input=/home/gaussian/Documents/Summer_Internship/Acid_Base_adduct/Adduct/NH3_AlCl3_sp.com
 Output=/home/gaussian/Documents/Summer_Internship/Acid_Base_adduct/Adduct/NH3_AlCl3_sp.log
 Initial command:
 /usr/local/g16/l1.exe "/home/gaussian/tmp/Gau-32866.inp" -scrdir="/home/gaussian/tmp/"
 Entering Link 1 = /usr/local/g16/l1.exe PID=     32869.
  
 Copyright (c) 1988-2017, Gaussian, Inc.  All Rights Reserved.
  
 This is part of the Gaussian(R) 16 program.  It is based on
 the Gaussian(R) 09 system (copyright 2009, Gaussian, Inc.),
 the Gaussian(R) 03 system (copyright 2003, Gaussian, Inc.),
 the Gaussian(R) 98 system (copyright 1998, Gaussian, Inc.),
 the Gaussian(R) 94 system (copyright 1995, Gaussian, Inc.),
 the Gaussian 92(TM) system (copyright 1992, Gaussian, Inc.),
 the Gaussian 90(TM) system (copyright 1990, Gaussian, Inc.),
 the Gaussian 88(TM) system (copyright 1988, Gaussian, Inc.),
 the Gaussian 86(TM) system (copyright 1986, Carnegie Mellon
 University), and the Gaussian 82(TM) system (copyright 1983,
 Carnegie Mellon University). Gaussian is a federally registered
 trademark of Gaussian, Inc.
  
 This software contains proprietary and confidential information,
 including trade secrets, belonging to Gaussian, Inc.
  
 This software is provided under written license and may be
 used, copied, transmitted, or stored only in accord with that
 written license.
  
 The following legend is applicable only to US Government
 contracts under FAR:
  
                    RESTRICTED RIGHTS LEGEND
  
 Use, reproduction and disclosure by the US Government is
 subject to restrictions as set forth in subparagraphs (a)
 and (c) of the Commercial Computer Software - Restricted
 Rights clause in FAR 52.227-19.
  
 Gaussian, Inc.
 340 Quinnipiac St., Bldg. 40, Wallingford CT 06492
  
  
 ---------------------------------------------------------------
 Warning -- This program may not be used in any manner that
 competes with the business of Gaussian, Inc. or will provide
 assistance to any competitor of Gaussian, Inc.  The licensee
 of this program is prohibited from giving any competitor of
 Gaussian, Inc. access to this program.  By using this program,
 the user acknowledges that Gaussian, Inc. is engaged in the
 business of creating and licensing software in the field of
 computational chemistry and represents and warrants to the
 licensee that it is not a competitor of Gaussian, Inc. and that
 it will not use this program in any manner prohibited above.
 ---------------------------------------------------------------
  

 Cite this work as:
 Gaussian 16, Revision B.01,
 M. J. Frisch, G. W. Trucks, H. B. Schlegel, G. E. Scuseria, 
 M. A. Robb, J. R. Cheeseman, G. Scalmani, V. Barone, 
 G. A. Petersson, H. Nakatsuji, X. Li, M. Caricato, A. V. Marenich, 
 J. Bloino, B. G. Janesko, R. Gomperts, B. Mennucci, H. P. Hratchian, 
 J. V. Ortiz, A. F. Izmaylov, J. L. Sonnenberg, D. Williams-Young, 
 F. Ding, F. Lipparini, F. Egidi, J. Goings, B. Peng, A. Petrone, 
 T. Henderson, D. Ranasinghe, V. G. Zakrzewski, J. Gao, N. Rega, 
 G. Zheng, W. Liang, M. Hada, M. Ehara, K. Toyota, R. Fukuda, 
 J. Hasegawa, M. Ishida, T. Nakajima, Y. Honda, O. Kitao, H. Nakai, 
 T. Vreven, K. Throssell, J. A. Montgomery, Jr., J. E. Peralta, 
 F. Ogliaro, M. J. Bearpark, J. J. Heyd, E. N. Brothers, K. N. Kudin, 
 V. N. Staroverov, T. A. Keith, R. Kobayashi, J. Normand, 
 K. Raghavachari, A. P. Rendell, J. C. Burant, S. S. Iyengar, 
 J. Tomasi, M. Cossi, J. M. Millam, M. Klene, C. Adamo, R. Cammi, 
 J. W. Ochterski, R. L. Martin, K. Morokuma, O. Farkas, 
 J. B. Foresman, and D. J. Fox, Gaussian, Inc., Wallingford CT, 2016.
 
 ******************************************
 Gaussian 16:  EM64L-G16RevB.01 20-Dec-2017
                13-Jun-2025 
 ******************************************
 %chk=NH3_AlCl3_sp.chk
 -------------------------------------
 # hf/3-21g pop=full geom=connectivity
 -------------------------------------
 1/38=1,57=2,172=1/1;
 2/12=2,17=6,18=5,40=1/2;
 3/5=5,11=9,25=1,30=1/1,2,3;
 4//1;
 5/5=2,38=5/2;
 6/7=3,28=1/1;
 99/5=1,9=1/99;
 -------------------------------
 NH3 - AlCl3 Adduct Optimisation
 -------------------------------
 Symbolic Z-matrix:
 Charge =  0 Multiplicity = 1
 Al                    0.00013   0.00002   0.00527 
 Cl                   -1.06579   1.87719  -0.41047 
 Cl                   -1.09305  -1.86131  -0.41076 
 Cl                    2.1587   -0.01567  -0.41067 
 N                     0.00006  -0.00036   1.98164 
 H                    -0.95234   0.00627   2.33403 
 H                     0.47043  -0.82859   2.33393 
 H                     0.48205   0.82101   2.33426 
 
                          Input orientation:                          
 ---------------------------------------------------------------------
 Center     Atomic      Atomic             Coordinates (Angstroms)
 Number     Number       Type             X           Y           Z
 ---------------------------------------------------------------------
      1         13           0        0.000132    0.000023    0.005271
      2         17           0       -1.065787    1.877185   -0.410467
      3         17           0       -1.093053   -1.861308   -0.410755
      4         17           0        2.158705   -0.015671   -0.410674
      5          7           0        0.000064   -0.000358    1.981641
      6          1           0       -0.952340    0.006269    2.334034
      7          1           0        0.470428   -0.828586    2.333930
      8          1           0        0.482049    0.821014    2.334260
 ---------------------------------------------------------------------
                    Distance matrix (angstroms):
                    1          2          3          4          5
     1  Al   0.000000
     2  Cl   2.198354   0.000000
     3  Cl   2.198337   3.738592   0.000000
     4  Cl   2.198339   3.739018   3.739025   0.000000
     5  N    1.976370   3.222326   3.222049   3.222287   0.000000
     6  H    2.516024   3.323474   3.322877   4.148796   1.015528
     7  H    2.516033   4.148839   3.323294   3.323246   1.015535
     8  H    2.516041   3.323375   4.148603   3.323534   1.015530
                    6          7          8
     6  H    0.000000
     7  H    1.649622   0.000000
     8  H    1.649631   1.649641   0.000000
 Stoichiometry    AlCl3H3N
 Framework group  C1[X(AlCl3H3N)]
 Deg. of freedom    18
 Full point group                 C1      NOp   1
 Largest Abelian subgroup         C1      NOp   1
 Largest concise Abelian subgroup C1      NOp   1
                         Standard orientation:                         
 ---------------------------------------------------------------------
 Center     Atomic      Atomic             Coordinates (Angstroms)
 Number     Number       Type             X           Y           Z
 ---------------------------------------------------------------------
      1         13           0        0.000132    0.000023    0.005271
      2         17           0       -1.065468    1.877366   -0.410467
      3         17           0       -1.093369   -1.861122   -0.410755
      4         17           0        2.158702   -0.016037   -0.410674
      5          7           0        0.000064   -0.000358    1.981641
      6          1           0       -0.952339    0.006431    2.334034
      7          1           0        0.470287   -0.828666    2.333930
      8          1           0        0.482188    0.820932    2.334260
 ---------------------------------------------------------------------
 Rotational constants (GHZ):           1.5110350           1.5106976           1.0280717
 Standard basis: 3-21G (6D, 7F)
 There are    67 symmetry adapted cartesian basis functions of A   symmetry.
 There are    67 symmetry adapted basis functions of A   symmetry.
    67 basis functions,   132 primitive gaussians,    67 cartesian basis functions
    37 alpha electrons       37 beta electrons
       nuclear repulsion energy       408.1538228504 Hartrees.
 NAtoms=    8 NActive=    8 NUniq=    8 SFac= 1.00D+00 NAtFMM=   60 NAOKFM=F Big=F
 Integral buffers will be    131072 words long.
 Raffenetti 1 integral format.
 Two-electron integral symmetry is turned on.
 One-electron integrals computed using PRISM.
 NBasis=    67 RedAO= T EigKep=  2.22D-02  NBF=    67
 NBsUse=    67 1.00D-06 EigRej= -1.00D+00 NBFU=    67
 ExpMin= 6.39D-02 ExpMax= 1.38D+03 ExpMxC= 1.38D+03 IAcc=3 IRadAn=         5 AccDes= 0.00D+00
 Harris functional with IExCor=  205 and IRadAn=       5 diagonalized for initial guess.
 HarFok:  IExCor=  205 AccDes= 0.00D+00 IRadAn=         5 IDoV= 1 UseB2=F ITyADJ=14
 ICtDFT=  3500011 ScaDFX=  1.000000  1.000000  1.000000  1.000000
 FoFCou: FMM=F IPFlag=           0 FMFlag=      100000 FMFlg1=           0
         NFxFlg=           0 DoJE=T BraDBF=F KetDBF=T FulRan=T
         wScrn=  0.000000 ICntrl=       500 IOpCl=  0 I1Cent=   200000004 NGrid=           0
         NMat0=    1 NMatS0=      1 NMatT0=    0 NMatD0=    1 NMtDS0=    0 NMtDT0=    0
 Petite list used in FoFCou.
 Keep R1 ints in memory in canonical form, NReq=3416128.
 Requested convergence on RMS density matrix=1.00D-08 within 128 cycles.
 Requested convergence on MAX density matrix=1.00D-06.
 Requested convergence on             energy=1.00D-06.
 No special actions if energy rises.
 SCF Done:  E(RHF) =  -1668.67503702     A.U. after   11 cycles
            NFock= 11  Conv=0.12D-08     -V/T= 2.0012

 **********************************************************************

            Population analysis using the SCF Density.

 **********************************************************************

 Orbital symmetries:
       Occupied  (A) (A) (A) (A) (A) (A) (A) (A) (A) (A) (A) (A)
                 (A) (A) (A) (A) (A) (A) (A) (A) (A) (A) (A) (A)
                 (A) (A) (A) (A) (A) (A) (A) (A) (A) (A) (A) (A)
                 (A)
       Virtual   (A) (A) (A) (A) (A) (A) (A) (A) (A) (A) (A) (A)
                 (A) (A) (A) (A) (A) (A) (A) (A) (A) (A) (A) (A)
                 (A) (A) (A) (A) (A) (A)
 The electronic state is 1-A.
 Alpha  occ. eigenvalues -- -104.09399-104.09375-104.09374 -58.19686 -15.63222
 Alpha  occ. eigenvalues --  -10.48578 -10.48500 -10.48499  -7.94814  -7.94813
 Alpha  occ. eigenvalues --   -7.94807  -7.94546  -7.94520  -7.94520  -7.94508
 Alpha  occ. eigenvalues --   -7.94505  -7.94504  -4.99048  -3.29635  -3.29635
 Alpha  occ. eigenvalues --   -3.29436  -1.31069  -1.08934  -1.07194  -1.07192
 Alpha  occ. eigenvalues --   -0.78862  -0.78862  -0.69175  -0.55535  -0.50919
 Alpha  occ. eigenvalues --   -0.50917  -0.47077  -0.46339  -0.46338  -0.45547
 Alpha  occ. eigenvalues --   -0.45546  -0.44596
 Alpha virt. eigenvalues --    0.09964   0.12673   0.17377   0.17382   0.24204
 Alpha virt. eigenvalues --    0.24205   0.25147   0.33003   0.37448   0.37450
 Alpha virt. eigenvalues --    0.39761   0.75353   0.75354   0.78072   0.78075
 Alpha virt. eigenvalues --    0.79750   0.87844   0.90425   0.90431   0.96264
 Alpha virt. eigenvalues --    1.01508   1.01510   1.12431   1.17324   1.17330
 Alpha virt. eigenvalues --    1.19627   1.43336   1.43338   1.53018   2.54800
     Molecular Orbital Coefficients:
                           1         2         3         4         5
                           O         O         O         O         O
     Eigenvalues --  -104.09399-104.09375-104.09374 -58.19686 -15.63222
   1 1   Al 1S         -0.00002   0.00000  -0.00000   0.98848   0.00012
   2        2S          0.00048  -0.00002   0.00000   0.04464  -0.00040
   3        2PX        -0.00000  -0.00004   0.00000  -0.00000   0.00000
   4        2PY        -0.00000   0.00000   0.00004  -0.00000   0.00000
   5        2PZ         0.00003  -0.00000   0.00000   0.00017  -0.00065
   6        3S          0.00103  -0.00004   0.00001  -0.01160   0.00445
   7        3PX        -0.00003  -0.00070   0.00007   0.00000  -0.00000
   8        3PY        -0.00000   0.00007   0.00070   0.00000  -0.00000
   9        3PZ         0.00030  -0.00001   0.00000  -0.00100   0.00563
  10        4S         -0.01141   0.00046  -0.00011  -0.00528   0.00060
  11        4PX        -0.00020  -0.00489   0.00048   0.00000  -0.00000
  12        4PY        -0.00003   0.00048   0.00489   0.00000   0.00000
  13        4PZ        -0.00109   0.00004  -0.00001  -0.00143  -0.00258
  14 2   Cl 1S          0.55677  -0.48654  -0.65209  -0.00002   0.00000
  15        2S          0.03010  -0.02624  -0.03517   0.00012  -0.00003
  16        2PX         0.00008   0.00001  -0.00011  -0.00000  -0.00000
  17        2PY        -0.00013   0.00013   0.00010   0.00001   0.00000
  18        2PZ         0.00004  -0.00003  -0.00004   0.00002   0.00002
  19        3S         -0.01214   0.00984   0.01313  -0.00236   0.00075
  20        3PX        -0.00036  -0.00015   0.00050  -0.00014   0.00005
  21        3PY         0.00059  -0.00054  -0.00031   0.00024  -0.00009
  22        3PZ        -0.00020   0.00012   0.00016  -0.00016  -0.00005
  23        4S          0.00983  -0.00703  -0.00930   0.00498  -0.00149
  24        4PX         0.00129   0.00046  -0.00154   0.00146  -0.00037
  25        4PY        -0.00216   0.00169   0.00095  -0.00258   0.00064
  26        4PZ         0.00072  -0.00040  -0.00052   0.00102  -0.00014
  27 3   Cl 1S          0.54797  -0.35981   0.73635  -0.00002   0.00000
  28        2S          0.02962  -0.01941   0.03971   0.00012  -0.00003
  29        2PX         0.00008   0.00003   0.00011  -0.00000  -0.00000
  30        2PY         0.00013  -0.00011   0.00012  -0.00001  -0.00000
  31        2PZ         0.00004  -0.00002   0.00005   0.00002   0.00002
  32        3S         -0.01196   0.00729  -0.01485  -0.00236   0.00075
  33        3PX        -0.00036  -0.00023  -0.00048  -0.00014   0.00005
  34        3PY        -0.00058   0.00048  -0.00041  -0.00024   0.00009
  35        3PZ        -0.00020   0.00009  -0.00019  -0.00016  -0.00005
  36        4S          0.00970  -0.00522   0.01055   0.00499  -0.00149
  37        4PX         0.00131   0.00071   0.00147   0.00150  -0.00037
  38        4PY         0.00213  -0.00149   0.00124   0.00256  -0.00064
  39        4PZ         0.00072  -0.00030   0.00059   0.00102  -0.00014
  40 4   Cl 1S          0.60137   0.77831  -0.06723  -0.00002   0.00000
  41        2S          0.03250   0.04197  -0.00363   0.00012  -0.00003
  42        2PX        -0.00017  -0.00017   0.00001   0.00001   0.00001
  43        2PY         0.00000  -0.00001  -0.00009  -0.00000  -0.00000
  44        2PZ         0.00005   0.00005  -0.00000   0.00002   0.00002
  45        3S         -0.01303  -0.01565   0.00135  -0.00236   0.00075
  46        3PX         0.00073   0.00061  -0.00005   0.00028  -0.00011
  47        3PY        -0.00001   0.00004   0.00049  -0.00000   0.00000
  48        3PZ        -0.00021  -0.00019   0.00002  -0.00016  -0.00005
  49        4S          0.01046   0.01105  -0.00094   0.00498  -0.00149
  50        4PX        -0.00263  -0.00186   0.00014  -0.00296   0.00074
  51        4PY         0.00003  -0.00012  -0.00151   0.00002  -0.00001
  52        4PZ         0.00076   0.00061  -0.00005   0.00102  -0.00014
  53 5   N  1S         -0.00003   0.00000  -0.00000  -0.00020   0.98565
  54        2S         -0.00023   0.00001  -0.00000  -0.00152   0.09954
  55        2PX         0.00000   0.00002  -0.00000   0.00000  -0.00000
  56        2PY        -0.00000  -0.00000  -0.00002  -0.00000  -0.00000
  57        2PZ         0.00033  -0.00001   0.00000   0.00069   0.00123
  58        3S          0.00037  -0.00001   0.00000   0.00322  -0.05269
  59        3PX        -0.00000  -0.00001   0.00000  -0.00000   0.00000
  60        3PY         0.00000   0.00000   0.00002   0.00000   0.00000
  61        3PZ        -0.00172   0.00007  -0.00002  -0.00364  -0.00276
  62 6   H  1S         -0.00012   0.00026  -0.00002  -0.00049   0.00183
  63        2S          0.00150  -0.00128   0.00013   0.00130   0.00875
  64 7   H  1S         -0.00013  -0.00015  -0.00021  -0.00049   0.00183
  65        2S          0.00157   0.00064   0.00101   0.00130   0.00875
  66 8   H  1S         -0.00013  -0.00010   0.00024  -0.00049   0.00183
  67        2S          0.00158   0.00045  -0.00109   0.00130   0.00875
                           6         7         8         9        10
                           O         O         O         O         O
     Eigenvalues --   -10.48578 -10.48500 -10.48499  -7.94814  -7.94813
   1 1   Al 1S          0.00014  -0.00000   0.00000   0.00001   0.00000
   2        2S         -0.00264   0.00003  -0.00001  -0.00007  -0.00002
   3        2PX         0.00000   0.00018  -0.00001  -0.00050  -0.00003
   4        2PY         0.00000  -0.00001  -0.00018   0.00003  -0.00050
   5        2PZ        -0.00012   0.00000  -0.00000   0.00001   0.00000
   6        3S         -0.00593   0.00007  -0.00002  -0.00038  -0.00009
   7        3PX         0.00005   0.00408  -0.00033  -0.00364  -0.00021
   8        3PY         0.00001  -0.00033  -0.00408   0.00022  -0.00367
   9        3PZ        -0.00188   0.00002  -0.00001   0.00021   0.00005
  10        4S          0.06439  -0.00078   0.00017  -0.00280  -0.00068
  11        4PX         0.00033   0.02789  -0.00224  -0.00488  -0.00028
  12        4PY         0.00004  -0.00224  -0.02787   0.00030  -0.00491
  13        4PZ         0.00599  -0.00007   0.00001  -0.00023  -0.00006
  14 2   Cl 1S         -0.17538   0.14232   0.20622   0.00117  -0.00224
  15        2S          0.56325  -0.45722  -0.66248  -0.00404   0.00776
  16        2PX         0.00224  -0.00213  -0.00256   0.17973  -0.32973
  17        2PY        -0.00396   0.00317   0.00490  -0.30474   0.58865
  18        2PZ         0.00120  -0.00100  -0.00145   0.05985  -0.11675
  19        3S          0.08891  -0.06825  -0.09879   0.00197  -0.00431
  20        3PX         0.00239   0.00050  -0.00330   0.01521  -0.02787
  21        3PY        -0.00415   0.00355   0.00282  -0.02576   0.04978
  22        3PZ         0.00137  -0.00085  -0.00123   0.00507  -0.00993
  23        4S         -0.05712   0.03829   0.05525  -0.00326   0.00765
  24        4PX        -0.00723  -0.00278   0.00884  -0.00488   0.01051
  25        4PY         0.01255  -0.00927  -0.00598   0.00945  -0.01796
  26        4PZ        -0.00413   0.00216   0.00309  -0.00189   0.00388
  27 3   Cl 1S         -0.17466   0.11094  -0.22522   0.00093   0.00225
  28        2S          0.56096  -0.35640   0.72353  -0.00322  -0.00780
  29        2PX         0.00229  -0.00177   0.00293   0.14834   0.34147
  30        2PY         0.00391  -0.00241   0.00528   0.24018   0.58754
  31        2PZ         0.00119  -0.00078   0.00159   0.04754   0.11708
  32        3S          0.08857  -0.05322   0.10792   0.00152   0.00422
  33        3PX         0.00244   0.00092   0.00326   0.01256   0.02886
  34        3PY         0.00410  -0.00311   0.00327   0.02030   0.04968
  35        3PZ         0.00136  -0.00067   0.00134   0.00402   0.00995
  36        4S         -0.05694   0.02987  -0.06040  -0.00246  -0.00738
  37        4PX        -0.00739  -0.00390  -0.00848  -0.00388  -0.01076
  38        4PY        -0.01241   0.00836  -0.00717  -0.00750  -0.01784
  39        4PZ        -0.00412   0.00169  -0.00339  -0.00148  -0.00384
  40 4   Cl 1S         -0.17953  -0.24698   0.01767  -0.00281  -0.00018
  41        2S          0.57658   0.79342  -0.05676   0.00974   0.00064
  42        2PX        -0.00466  -0.00662   0.00048   0.84566   0.05545
  43        2PY         0.00003   0.00007   0.00034  -0.00667   0.00669
  44        2PZ         0.00123   0.00174  -0.00012  -0.14727  -0.00987
  45        3S          0.09089   0.11827  -0.00845  -0.00558  -0.00041
  46        3PX        -0.00487  -0.00489   0.00033   0.07150   0.00469
  47        3PY         0.00004  -0.00015  -0.00263  -0.00057   0.00059
  48        3PZ         0.00139   0.00147  -0.00010  -0.01255  -0.00084
  49        4S         -0.05823  -0.06610   0.00471   0.01006   0.00078
  50        4PX         0.01467   0.01140  -0.00074  -0.02625  -0.00176
  51        4PY        -0.00012   0.00053   0.00843   0.00017   0.00053
  52        4PZ        -0.00419  -0.00369   0.00026   0.00495   0.00035
  53 5   N  1S          0.00014  -0.00000   0.00000  -0.00000  -0.00000
  54        2S          0.00109  -0.00001   0.00000  -0.00000  -0.00000
  55        2PX        -0.00000  -0.00010   0.00001   0.00047   0.00003
  56        2PY         0.00000   0.00001   0.00010  -0.00003   0.00047
  57        2PZ        -0.00163   0.00002  -0.00000   0.00001   0.00000
  58        3S         -0.00184   0.00002  -0.00000   0.00008   0.00002
  59        3PX         0.00000   0.00005  -0.00000  -0.00159  -0.00009
  60        3PY        -0.00000  -0.00000  -0.00006   0.00010  -0.00161
  61        3PZ         0.00933  -0.00011   0.00002  -0.00023  -0.00006
  62 6   H  1S          0.00064  -0.00139   0.00010  -0.00038  -0.00002
  63        2S         -0.00856   0.00687  -0.00051  -0.00093   0.00001
  64 7   H  1S          0.00067   0.00077   0.00115   0.00019  -0.00031
  65        2S         -0.00867  -0.00371  -0.00564   0.00096  -0.00097
  66 8   H  1S          0.00067   0.00060  -0.00125   0.00016   0.00033
  67        2S         -0.00869  -0.00285   0.00608   0.00085   0.00117
                          11        12        13        14        15
                           O         O         O         O         O
     Eigenvalues --    -7.94807  -7.94546  -7.94520  -7.94520  -7.94508
   1 1   Al 1S         -0.00005   0.00000  -0.00000  -0.00000  -0.00000
   2        2S          0.00055  -0.00046   0.00000   0.00001   0.00000
   3        2PX        -0.00006   0.00000  -0.00000  -0.00002   0.00000
   4        2PY        -0.00001   0.00000  -0.00002   0.00000  -0.00001
   5        2PZ        -0.00010   0.00025  -0.00000  -0.00001  -0.00000
   6        3S          0.00293  -0.00279   0.00001   0.00007   0.00000
   7        3PX        -0.00047   0.00000   0.00002   0.00035  -0.00001
   8        3PY        -0.00008   0.00000   0.00037  -0.00002   0.00002
   9        3PZ        -0.00166  -0.00220   0.00001   0.00005   0.00000
  10        4S          0.02194   0.00778  -0.00003  -0.00019  -0.00000
  11        4PX        -0.00063   0.00017   0.00067   0.01344  -0.00019
  12        4PY        -0.00011   0.00002   0.01412  -0.00059   0.00044
  13        4PZ         0.00182   0.01788  -0.00007  -0.00043  -0.00000
  14 2   Cl 1S          0.00197   0.00013   0.00020  -0.00014  -0.00003
  15        2S         -0.00686  -0.00047  -0.00077   0.00051   0.00011
  16        2PX         0.28774  -0.04692   0.24107   0.47421  -0.46169
  17        2PY        -0.50506   0.09270   0.20718   0.21562  -0.28831
  18        2PZ         0.11011   0.54329   0.38330  -0.28548  -0.12987
  19        3S          0.00565   0.00041   0.00340  -0.00205   0.00012
  20        3PX         0.02434  -0.00382   0.02013   0.03931  -0.03779
  21        3PY        -0.04271   0.00758   0.01706   0.01802  -0.02357
  22        3PZ         0.00954   0.04564   0.03139  -0.02337  -0.01050
  23        4S         -0.01169  -0.00058  -0.00917   0.00551  -0.00035
  24        4PX        -0.00972   0.00117  -0.00851  -0.01373   0.01174
  25        4PY         0.01725  -0.00242  -0.00446  -0.00774   0.00736
  26        4PZ        -0.00435  -0.01801  -0.01040   0.00769   0.00305
  27 3   Cl 1S          0.00208   0.00013  -0.00021  -0.00012   0.00003
  28        2S         -0.00723  -0.00047   0.00081   0.00045  -0.00009
  29        2PX         0.31157  -0.04849  -0.19710   0.47669   0.44000
  30        2PY         0.52883  -0.09090   0.19068  -0.23291  -0.28011
  31        2PZ         0.11578   0.53793  -0.40364  -0.24916   0.10617
  32        3S          0.00585   0.00040  -0.00356  -0.00181  -0.00006
  33        3PX         0.02635  -0.00395  -0.01649   0.03954   0.03602
  34        3PY         0.04472  -0.00744   0.01568  -0.01945  -0.02291
  35        3PZ         0.01002   0.04520  -0.03307  -0.02040   0.00859
  36        4S         -0.01206  -0.00055   0.00961   0.00486   0.00021
  37        4PX        -0.01050   0.00122   0.00726  -0.01392  -0.01117
  38        4PY        -0.01796   0.00238  -0.00389   0.00814   0.00712
  39        4PZ        -0.00453  -0.01787   0.01098   0.00674  -0.00250
  40 4   Cl 1S          0.00153   0.00015   0.00001   0.00024   0.00001
  41        2S         -0.00532  -0.00051  -0.00003  -0.00093  -0.00002
  42        2PX        -0.44713   0.10914   0.00721   0.07968   0.00860
  43        2PY         0.00350  -0.00011   0.68002  -0.02836   0.59322
  44        2PZ         0.08706   0.57485   0.01402   0.49518   0.02351
  45        3S          0.00480   0.00048   0.00016   0.00383  -0.00005
  46        3PX        -0.03782   0.00891   0.00059   0.00638   0.00070
  47        3PY         0.00030  -0.00001   0.05639  -0.00235   0.04848
  48        3PZ         0.00758   0.04820   0.00115   0.04046   0.00190
  49        4S         -0.01021  -0.00076  -0.00043  -0.01032   0.00015
  50        4PX         0.01568  -0.00277  -0.00012   0.00012  -0.00024
  51        4PY        -0.00010  -0.00000  -0.02041   0.00082  -0.01505
  52        4PZ        -0.00359  -0.01878  -0.00038  -0.01313  -0.00054
  53 5   N  1S          0.00003  -0.00001   0.00000   0.00000  -0.00000
  54        2S          0.00003  -0.00021   0.00000   0.00000  -0.00000
  55        2PX         0.00006  -0.00001   0.00000  -0.00006  -0.00002
  56        2PY         0.00001  -0.00000  -0.00000   0.00000   0.00012
  57        2PZ        -0.00007  -0.00015   0.00000   0.00000   0.00000
  58        3S         -0.00062   0.00031  -0.00000  -0.00001   0.00000
  59        3PX        -0.00021   0.00004  -0.00002  -0.00000   0.00008
  60        3PY        -0.00004   0.00000  -0.00021  -0.00001  -0.00040
  61        3PZ         0.00181   0.00211  -0.00001  -0.00005  -0.00000
  62 6   H  1S          0.00002   0.00012  -0.00002  -0.00019   0.00004
  63        2S         -0.00246  -0.00443   0.00011   0.00212  -0.00005
  64 7   H  1S          0.00009   0.00009  -0.00026   0.00010  -0.00020
  65        2S         -0.00225  -0.00445   0.00185  -0.00096   0.00017
  66 8   H  1S          0.00010   0.00009   0.00027   0.00009   0.00016
  67        2S         -0.00220  -0.00445  -0.00190  -0.00084  -0.00012
                          16        17        18        19        20
                           O         O         O         O         O
     Eigenvalues --    -7.94505  -7.94504  -4.99048  -3.29635  -3.29635
   1 1   Al 1S         -0.00000  -0.00000  -0.28390   0.00000  -0.00000
   2        2S          0.00001  -0.00000   1.00996  -0.00000   0.00000
   3        2PX         0.00006  -0.00000   0.00000   0.93868  -0.27284
   4        2PY        -0.00000  -0.00006   0.00000   0.27284   0.93868
   5        2PZ        -0.00000   0.00000  -0.00194   0.00007   0.00016
   6        3S          0.00005  -0.00001   0.09828   0.00000  -0.00000
   7        3PX        -0.00030   0.00001  -0.00000   0.09124  -0.02652
   8        3PY         0.00001   0.00027  -0.00000   0.02652   0.09123
   9        3PZ         0.00004  -0.00001   0.00536   0.00001   0.00001
  10        4S         -0.00014   0.00002  -0.01847  -0.00001   0.00000
  11        4PX        -0.00868   0.00015  -0.00000  -0.02348   0.00682
  12        4PY         0.00029   0.00753   0.00000  -0.00683  -0.02349
  13        4PZ        -0.00032   0.00005  -0.00247  -0.00000  -0.00000
  14 2   Cl 1S         -0.00005  -0.00010   0.00004  -0.00002   0.00009
  15        2S          0.00015   0.00029  -0.00011   0.00005  -0.00019
  16        2PX        -0.33713   0.33578  -0.00002  -0.00010  -0.00013
  17        2PY        -0.25646   0.08123   0.00003  -0.00011   0.00015
  18        2PZ        -0.31289  -0.53029   0.00003   0.00001  -0.00003
  19        3S          0.00122   0.00174   0.00446  -0.00022   0.00092
  20        3PX        -0.02766   0.02742   0.00034   0.00067  -0.00058
  21        3PY        -0.02096   0.00673  -0.00060  -0.00000   0.00130
  22        3PZ        -0.02523  -0.04274   0.00000   0.00007  -0.00032
  23        4S         -0.00342  -0.00489  -0.00919   0.00146  -0.00612
  24        4PX         0.00920  -0.00933  -0.00499  -0.00075  -0.00659
  25        4PY         0.00751  -0.00166   0.00880  -0.00379   0.01040
  26        4PZ         0.00708   0.01196  -0.00176   0.00062  -0.00259
  27 3   Cl 1S         -0.00005   0.00010   0.00004  -0.00007  -0.00006
  28        2S          0.00015  -0.00031  -0.00011   0.00014   0.00014
  29        2PX        -0.37995  -0.32630  -0.00002  -0.00001   0.00016
  30        2PY         0.28659   0.07723  -0.00003   0.00018   0.00007
  31        2PZ        -0.30218   0.55006   0.00003   0.00002   0.00002
  32        3S          0.00111  -0.00176   0.00446  -0.00069  -0.00065
  33        3PX        -0.03116  -0.02665   0.00035   0.00089   0.00013
  34        3PY         0.02343   0.00641   0.00059   0.00070   0.00108
  35        3PZ        -0.02437   0.04435   0.00000   0.00024   0.00022
  36        4S         -0.00312   0.00495  -0.00919   0.00458   0.00432
  37        4PX         0.01034   0.00909  -0.00512   0.00312   0.00602
  38        4PY        -0.00826  -0.00156  -0.00872   0.00883   0.00653
  39        4PZ         0.00686  -0.01245  -0.00176   0.00194   0.00183
  40 4   Cl 1S          0.00010  -0.00000   0.00004   0.00009  -0.00003
  41        2S         -0.00027   0.00001  -0.00011  -0.00019   0.00006
  42        2PX         0.10557   0.00017   0.00004   0.00019  -0.00006
  43        2PY        -0.00903   0.36542  -0.00000  -0.00004  -0.00014
  44        2PZ         0.58559  -0.01453   0.00003  -0.00003   0.00001
  45        3S         -0.00236   0.00002   0.00446   0.00091  -0.00027
  46        3PX         0.00853   0.00002  -0.00069   0.00140  -0.00041
  47        3PY        -0.00073   0.02991   0.00001   0.00016   0.00058
  48        3PZ         0.04712  -0.00117   0.00000  -0.00031   0.00009
  49        4S          0.00658  -0.00007  -0.00919  -0.00603   0.00180
  50        4PX        -0.00372  -0.00001   0.01011   0.01211  -0.00364
  51        4PY         0.00020  -0.01026  -0.00008  -0.00083  -0.00245
  52        4PZ        -0.01297   0.00032  -0.00176  -0.00255   0.00076
  53 5   N  1S          0.00000  -0.00000   0.00066  -0.00000  -0.00000
  54        2S          0.00000  -0.00000   0.00509  -0.00000  -0.00000
  55        2PX        -0.00067   0.00002  -0.00000   0.00154  -0.00045
  56        2PY         0.00002   0.00066   0.00000   0.00045   0.00154
  57        2PZ         0.00000  -0.00000  -0.00126   0.00000   0.00000
  58        3S         -0.00001   0.00000  -0.01488   0.00000   0.00000
  59        3PX         0.00242  -0.00007   0.00000  -0.00850   0.00247
  60        3PY        -0.00006  -0.00238  -0.00000  -0.00247  -0.00850
  61        3PZ        -0.00004   0.00000   0.00983  -0.00000  -0.00000
  62 6   H  1S          0.00131  -0.00003   0.00119  -0.00188   0.00056
  63        2S         -0.00183   0.00002   0.00164  -0.00467   0.00139
  64 7   H  1S         -0.00068  -0.00109   0.00119   0.00045  -0.00191
  65        2S          0.00107   0.00147   0.00164   0.00113  -0.00475
  66 8   H  1S         -0.00064   0.00112   0.00119   0.00142   0.00134
  67        2S          0.00099  -0.00152   0.00164   0.00355   0.00335
                          21        22        23        24        25
                           O         O         O         O         O
     Eigenvalues --    -3.29436  -1.31069  -1.08934  -1.07194  -1.07192
   1 1   Al 1S         -0.00016   0.00617   0.01716  -0.00001   0.00000
   2        2S          0.00085  -0.02955  -0.07951   0.00003  -0.00000
   3        2PX        -0.00002   0.00000  -0.00001  -0.05041   0.00040
   4        2PY        -0.00018   0.00001   0.00000  -0.00040  -0.05041
   5        2PZ         0.97788  -0.02501   0.01271  -0.00000  -0.00000
   6        3S          0.00600   0.02257   0.12537  -0.00005   0.00000
   7        3PX        -0.00000  -0.00000   0.00002   0.06883  -0.00055
   8        3PY        -0.00002  -0.00000   0.00000   0.00055   0.06881
   9        3PZ         0.09353   0.01063  -0.01411   0.00000   0.00000
  10        4S         -0.00620   0.01833  -0.06540   0.00003   0.00000
  11        4PX         0.00000  -0.00000  -0.00001  -0.04696   0.00037
  12        4PY         0.00001  -0.00000   0.00000  -0.00037  -0.04695
  13        4PZ        -0.03600   0.01151   0.00155   0.00000  -0.00000
  14 2   Cl 1S         -0.00001   0.00163   0.04400  -0.03136   0.05628
  15        2S          0.00001  -0.00944  -0.25869   0.18450  -0.33107
  16        2PX         0.00001  -0.00098  -0.01034   0.00464  -0.01099
  17        2PY        -0.00001   0.00173   0.01821  -0.01081   0.01788
  18        2PZ         0.00010  -0.00137  -0.00489   0.00338  -0.00606
  19        3S          0.00020   0.01168   0.30964  -0.22290   0.39999
  20        3PX         0.00023   0.00192   0.02016  -0.00948   0.02094
  21        3PY        -0.00040  -0.00339  -0.03552   0.02059  -0.03471
  22        3PZ        -0.00047   0.00278   0.00937  -0.00646   0.01159
  23        4S          0.00056   0.00724   0.31569  -0.22208   0.39849
  24        4PX         0.00086   0.00067   0.02182  -0.00544   0.02467
  25        4PY        -0.00152  -0.00118  -0.03844   0.02436  -0.03524
  26        4PZ         0.00136   0.00051   0.01182  -0.00789   0.01415
  27 3   Cl 1S         -0.00001   0.00163   0.04400  -0.03308  -0.05528
  28        2S          0.00001  -0.00945  -0.25870   0.19461   0.32523
  29        2PX         0.00001  -0.00101  -0.01061   0.00514   0.01110
  30        2PY         0.00001  -0.00171  -0.01806   0.01128   0.01738
  31        2PZ         0.00010  -0.00137  -0.00489   0.00356   0.00596
  32        3S          0.00020   0.01169   0.30965  -0.23511  -0.39292
  33        3PX         0.00024   0.00198   0.02069  -0.01044  -0.02114
  34        3PY         0.00040   0.00336   0.03522  -0.02150  -0.03375
  35        3PZ        -0.00047   0.00279   0.00938  -0.00682  -0.01140
  36        4S          0.00056   0.00724   0.31570  -0.23424  -0.39146
  37        4PX         0.00088   0.00069   0.02240  -0.00658  -0.02501
  38        4PY         0.00150   0.00117   0.03811  -0.02533  -0.03410
  39        4PZ         0.00135   0.00051   0.01183  -0.00832  -0.01391
  40 4   Cl 1S         -0.00001   0.00163   0.04404   0.06439  -0.00099
  41        2S          0.00001  -0.00944  -0.25891  -0.37881   0.00583
  42        2PX        -0.00001   0.00199   0.02095   0.02400  -0.00038
  43        2PY         0.00000  -0.00001  -0.00016  -0.00020  -0.00149
  44        2PZ         0.00010  -0.00137  -0.00489  -0.00694   0.00011
  45        3S          0.00020   0.01168   0.30991   0.45767  -0.00704
  46        3PX        -0.00047  -0.00390  -0.04087  -0.04637   0.00073
  47        3PY         0.00000   0.00003   0.00030   0.00038   0.00219
  48        3PZ        -0.00047   0.00278   0.00939   0.01327  -0.00020
  49        4S          0.00056   0.00724   0.31595   0.45595  -0.00702
  50        4PX        -0.00174  -0.00136  -0.04423  -0.04900   0.00082
  51        4PY         0.00001   0.00001   0.00033   0.00049   0.00834
  52        4PZ         0.00136   0.00051   0.01183   0.01620  -0.00025
  53 5   N  1S         -0.00001  -0.22255   0.01387  -0.00001  -0.00000
  54        2S          0.00458   0.19834  -0.01141   0.00000   0.00000
  55        2PX        -0.00000  -0.00000   0.00000   0.00935  -0.00007
  56        2PY        -0.00000  -0.00001   0.00000   0.00008   0.00935
  57        2PZ         0.00006   0.04388  -0.02138   0.00001   0.00000
  58        3S         -0.01934   0.70169  -0.04943   0.00002   0.00001
  59        3PX        -0.00000  -0.00000   0.00000   0.00345  -0.00003
  60        3PY        -0.00000  -0.00001   0.00000   0.00003   0.00345
  61        3PZ         0.00658   0.03282  -0.02048   0.00001   0.00000
  62 6   H  1S          0.00122   0.11091  -0.01062  -0.00403   0.00006
  63        2S          0.00701   0.00301   0.00527  -0.01241   0.00019
  64 7   H  1S          0.00122   0.11091  -0.01062   0.00197  -0.00353
  65        2S          0.00701   0.00301   0.00527   0.00604  -0.01084
  66 8   H  1S          0.00122   0.11091  -0.01062   0.00208   0.00347
  67        2S          0.00701   0.00301   0.00527   0.00636   0.01065
                          26        27        28        29        30
                           O         O         O         O         O
     Eigenvalues --    -0.78862  -0.78862  -0.69175  -0.55535  -0.50919
   1 1   Al 1S          0.00000   0.00000  -0.02965   0.02827   0.00000
   2        2S         -0.00000  -0.00000   0.14318  -0.13293  -0.00000
   3        2PX        -0.00696  -0.01283  -0.00000  -0.00000   0.11614
   4        2PY        -0.01283   0.00696  -0.00001  -0.00002   0.00158
   5        2PZ        -0.00000   0.00000   0.07027   0.07789   0.00000
   6        3S         -0.00000   0.00000  -0.21890   0.27873   0.00001
   7        3PX         0.00961   0.01772   0.00000   0.00000  -0.25183
   8        3PY         0.01772  -0.00961   0.00002   0.00003  -0.00343
   9        3PZ         0.00000  -0.00000  -0.08880  -0.13496  -0.00000
  10        4S          0.00000   0.00000  -0.07583  -0.02068  -0.00001
  11        4PX         0.00861   0.01588  -0.00000   0.00001  -0.00770
  12        4PY         0.01588  -0.00861   0.00000   0.00001  -0.00010
  13        4PZ         0.00000   0.00000  -0.01838  -0.02420  -0.00000
  14 2   Cl 1S         -0.00170   0.00272   0.00914  -0.01054  -0.00515
  15        2S          0.01013  -0.01625  -0.05478   0.06348   0.03120
  16        2PX        -0.00363   0.00058   0.01861  -0.06141   0.04138
  17        2PY         0.00091  -0.00444  -0.03278   0.10820   0.11829
  18        2PZ        -0.00361   0.00579   0.01853   0.01342  -0.02215
  19        3S         -0.01223   0.01961   0.07165  -0.09727  -0.04482
  20        3PX         0.00801  -0.00109  -0.03925   0.13023  -0.09027
  21        3PY        -0.00182   0.00959   0.06915  -0.22944  -0.25295
  22        3PZ         0.00724  -0.01161  -0.03925  -0.02944   0.04764
  23        4S         -0.01729   0.02772   0.07785  -0.05910  -0.04492
  24        4PX         0.00179   0.00003  -0.02588   0.10801  -0.08106
  25        4PY        -0.00012   0.00184   0.04560  -0.19028  -0.20386
  26        4PZ         0.00763  -0.01224  -0.02680  -0.02178   0.03615
  27 3   Cl 1S          0.00321   0.00011   0.00914  -0.01054  -0.00554
  28        2S         -0.01915  -0.00066  -0.05479   0.06347   0.03357
  29        2PX         0.00257  -0.00267   0.01910  -0.06301   0.03449
  30        2PY         0.00415   0.00176   0.03250  -0.10726  -0.12313
  31        2PZ         0.00683   0.00024   0.01854   0.01341  -0.02384
  32        3S          0.02312   0.00079   0.07166  -0.09726  -0.04822
  33        3PX        -0.00551   0.00598  -0.04028   0.13362  -0.07554
  34        3PY        -0.00889  -0.00393  -0.06856   0.22745   0.26324
  35        3PZ        -0.01368  -0.00047  -0.03927  -0.02942   0.05129
  36        4S          0.03266   0.00112   0.07786  -0.05909  -0.04832
  37        4PX        -0.00100   0.00149  -0.02656   0.11082  -0.06919
  38        4PY        -0.00158  -0.00095  -0.04520   0.18864   0.21192
  39        4PZ        -0.01442  -0.00050  -0.02681  -0.02177   0.03892
  40 4   Cl 1S         -0.00151  -0.00283   0.00914  -0.01054   0.01068
  41        2S          0.00900   0.01690  -0.05478   0.06348  -0.06475
  42        2PX         0.00228   0.00432  -0.03770   0.12443  -0.17109
  43        2PY        -0.00284   0.00147   0.00028  -0.00093   0.00354
  44        2PZ        -0.00321  -0.00603   0.01854   0.01341   0.04601
  45        3S         -0.01087  -0.02041   0.07166  -0.09727   0.09303
  46        3PX        -0.00487  -0.00926   0.07952  -0.26385   0.36402
  47        3PY         0.00635  -0.00330  -0.00059   0.00198  -0.00760
  48        3PZ         0.00643   0.01208  -0.03927  -0.02942  -0.09897
  49        4S         -0.01536  -0.02884   0.07785  -0.05910   0.09321
  50        4PX        -0.00086  -0.00165   0.05243  -0.21883   0.28488
  51        4PY         0.00157  -0.00082  -0.00039   0.00164  -0.00623
  52        4PZ         0.00678   0.01273  -0.02681  -0.02177  -0.07511
  53 5   N  1S          0.00000  -0.00000   0.02760   0.02658   0.00000
  54        2S         -0.00000  -0.00000  -0.01581  -0.01910  -0.00000
  55        2PX         0.19093   0.35209  -0.00002  -0.00001   0.03134
  56        2PY         0.35208  -0.19092  -0.00008  -0.00004   0.00043
  57        2PZ         0.00008  -0.00003   0.38643   0.17416   0.00000
  58        3S         -0.00000   0.00000  -0.14121  -0.12695  -0.00001
  59        3PX         0.19074   0.35174  -0.00002  -0.00001   0.04480
  60        3PY         0.35174  -0.19074  -0.00010  -0.00005   0.00061
  61        3PZ         0.00008  -0.00003   0.46746   0.22985   0.00001
  62 6   H  1S         -0.11622  -0.21806   0.06311   0.02113  -0.02350
  63        2S         -0.06987  -0.13109   0.04805   0.02855  -0.01374
  64 7   H  1S         -0.13074   0.20968   0.06311   0.02113   0.01133
  65        2S         -0.07860   0.12606   0.04806   0.02855   0.00662
  66 8   H  1S          0.24696   0.00838   0.06311   0.02113   0.01218
  67        2S          0.14847   0.00504   0.04806   0.02855   0.00712
                          31        32        33        34        35
                           O         O         O         O         O
     Eigenvalues --    -0.50917  -0.47077  -0.46339  -0.46338  -0.45547
   1 1   Al 1S          0.00000   0.00336  -0.00000   0.00000   0.00000
   2        2S         -0.00000  -0.01849   0.00002  -0.00000  -0.00000
   3        2PX        -0.00158  -0.00000  -0.02008   0.00109   0.02378
   4        2PY         0.11613   0.00000  -0.00109  -0.02011   0.00010
   5        2PZ         0.00002  -0.01918   0.00001  -0.00000   0.00001
   6        3S          0.00001   0.02218  -0.00003  -0.00001   0.00001
   7        3PX         0.00343   0.00000   0.03492  -0.00189  -0.04889
   8        3PY        -0.25180  -0.00001   0.00189   0.03498  -0.00021
   9        3PZ        -0.00004   0.05491  -0.00004   0.00000  -0.00002
  10        4S         -0.00001   0.00913  -0.00002   0.00003   0.00000
  11        4PX         0.00010  -0.00003  -0.07258   0.00391   0.11201
  12        4PY        -0.00775  -0.00002  -0.00393  -0.07267   0.00048
  13        4PZ        -0.00001   0.10389  -0.00007   0.00000  -0.00003
  14 2   Cl 1S          0.00936  -0.00171   0.00135  -0.00271  -0.00102
  15        2S         -0.05675   0.01021  -0.00807   0.01620   0.00606
  16        2PX         0.11916  -0.00265   0.12131   0.03510  -0.12605
  17        2PY        -0.10481   0.00482   0.04539   0.06715  -0.00437
  18        2PZ         0.04031  -0.15338   0.07417  -0.14857   0.07035
  19        3S          0.08153  -0.02362   0.02180  -0.04376  -0.02038
  20        3PX        -0.25475   0.00505  -0.26068  -0.07683   0.27254
  21        3PY         0.22231  -0.00924  -0.09883  -0.14249   0.01216
  22        3PZ        -0.08672   0.33259  -0.15862   0.31769  -0.15173
  23        4S          0.08171   0.01256  -0.02010   0.04037   0.03108
  24        4PX        -0.20509   0.00965  -0.23415  -0.06100   0.23484
  25        4PY         0.17073  -0.01730  -0.08135  -0.13836  -0.00722
  26        4PZ        -0.06581   0.27665  -0.14996   0.30041  -0.13566
  27 3   Cl 1S         -0.00914  -0.00171   0.00168   0.00253  -0.00106
  28        2S          0.05539   0.01021  -0.01000  -0.01509   0.00631
  29        2PX        -0.12228  -0.00274   0.11553  -0.04862  -0.12590
  30        2PY        -0.09793  -0.00476  -0.03855   0.07293   0.00338
  31        2PZ        -0.03934  -0.15334   0.09182   0.13840   0.07328
  32        3S         -0.07958  -0.02361   0.02700   0.04077  -0.02123
  33        3PX         0.26147   0.00523  -0.24806   0.10589   0.27212
  34        3PY         0.20759   0.00912   0.08434  -0.15509  -0.01010
  35        3PZ         0.08463   0.33251  -0.19635  -0.29594  -0.15806
  36        4S         -0.07975   0.01254  -0.02490  -0.03762   0.03237
  37        4PX         0.21073   0.00994  -0.22393   0.08703   0.23516
  38        4PY         0.15887   0.01712   0.06713  -0.14858   0.00949
  39        4PZ         0.06422   0.27658  -0.18564  -0.27984  -0.14132
  40 4   Cl 1S         -0.00023  -0.00171  -0.00302   0.00019   0.00208
  41        2S          0.00137   0.01022   0.01805  -0.00111  -0.01237
  42        2PX         0.00442   0.00548   0.04573  -0.00175  -0.11929
  43        2PY         0.10770  -0.00001   0.00846   0.14278  -0.00061
  44        2PZ        -0.00095  -0.15361  -0.16564   0.01023  -0.14350
  45        3S         -0.00196  -0.02365  -0.04874   0.00300   0.04161
  46        3PX        -0.00942  -0.01050  -0.09575   0.00359   0.25311
  47        3PY        -0.23207   0.00001  -0.01825  -0.30753   0.00137
  48        3PZ         0.00205   0.33308   0.35420  -0.02187   0.30950
  49        4S         -0.00196   0.01258   0.04498  -0.00277  -0.06346
  50        4PX        -0.00747  -0.01980  -0.10046   0.00415   0.24953
  51        4PY        -0.19528   0.00009  -0.01603  -0.27213   0.00082
  52        4PZ         0.00155   0.27711   0.33495  -0.02068   0.27674
  53 5   N  1S          0.00000   0.02724  -0.00002  -0.00000  -0.00001
  54        2S         -0.00000  -0.01515   0.00001   0.00000   0.00000
  55        2PX        -0.00043  -0.00001  -0.01766   0.00095  -0.01693
  56        2PY         0.03133  -0.00002  -0.00096  -0.01765  -0.00007
  57        2PZ         0.00002   0.10052  -0.00008  -0.00002  -0.00002
  58        3S         -0.00002  -0.15636   0.00013   0.00002   0.00004
  59        3PX        -0.00061  -0.00000  -0.00004  -0.00001  -0.01301
  60        3PY         0.04480  -0.00003   0.00000  -0.00004  -0.00005
  61        3PZ         0.00003   0.17093  -0.00014  -0.00001  -0.00004
  62 6   H  1S          0.00049   0.01187   0.01873  -0.00115   0.01107
  63        2S          0.00029   0.00165   0.00430  -0.00028   0.01574
  64 7   H  1S         -0.02059   0.01185  -0.00838   0.01680  -0.00543
  65        2S         -0.01204   0.00163  -0.00192   0.00384  -0.00771
  66 8   H  1S          0.02011   0.01186  -0.01038  -0.01566  -0.00565
  67        2S          0.01177   0.00164  -0.00239  -0.00359  -0.00803
                          36        37        38        39        40
                           O         O         V         V         V
     Eigenvalues --    -0.45546  -0.44596   0.09964   0.12673   0.17377
   1 1   Al 1S          0.00000   0.00000   0.03900   0.00526   0.00000
   2        2S         -0.00000  -0.00000  -0.23645   0.00753  -0.00001
   3        2PX        -0.00010  -0.00000  -0.00005   0.00002  -0.00334
   4        2PY         0.02378  -0.00002  -0.00002   0.00001  -0.10204
   5        2PZ         0.00000  -0.00000   0.07395   0.08248  -0.00002
   6        3S          0.00000  -0.00000   0.14285   0.27657   0.00011
   7        3PX         0.00021   0.00000   0.00012  -0.00003   0.00688
   8        3PY        -0.04890   0.00005   0.00005  -0.00004   0.20979
   9        3PZ        -0.00000   0.00000  -0.22698  -0.11627   0.00007
  10        4S          0.00000   0.00000   1.43817  -0.37535  -0.00013
  11        4PX        -0.00049  -0.00000   0.00039  -0.00024   0.05414
  12        4PY         0.11194  -0.00014   0.00010  -0.00009   1.65239
  13        4PZ         0.00001   0.00000  -0.30720  -0.99760   0.00009
  14 2   Cl 1S          0.00182  -0.00000  -0.01510  -0.00028  -0.01402
  15        2S         -0.01078   0.00001   0.09431   0.00197   0.08936
  16        2PX        -0.00310   0.14176   0.04287   0.00926   0.05137
  17        2PY        -0.12134   0.08058  -0.07547  -0.01634  -0.00924
  18        2PZ        -0.12525   0.00005  -0.00426  -0.05201   0.02083
  19        3S          0.03625  -0.00003  -0.10360   0.00895  -0.03352
  20        3PX         0.00942  -0.30655  -0.09125  -0.02000  -0.10615
  21        3PY         0.25908  -0.17426   0.16063   0.03528   0.01048
  22        3PZ         0.27014  -0.00010   0.00804   0.11260  -0.04522
  23        4S         -0.05528   0.00007  -0.41741  -0.04060  -0.76025
  24        4PX        -0.00969  -0.27295  -0.18944  -0.03555  -0.31438
  25        4PY         0.24463  -0.15518   0.33354   0.06275   0.19288
  26        4PZ         0.24155  -0.00008   0.01802   0.21353  -0.11329
  27 3   Cl 1S         -0.00179   0.00000  -0.01510  -0.00029   0.01443
  28        2S          0.01063  -0.00001   0.09430   0.00199  -0.09201
  29        2PX         0.00426  -0.14054   0.04398   0.00952  -0.04910
  30        2PY        -0.12150   0.08269   0.07481   0.01622  -0.01102
  31        2PZ         0.12356  -0.00003  -0.00425  -0.05200  -0.02145
  32        3S         -0.03576   0.00003  -0.10360   0.00894   0.03451
  33        3PX        -0.01199   0.30391  -0.09362  -0.02056   0.10091
  34        3PY         0.25954  -0.17881  -0.15923  -0.03501   0.01415
  35        3PZ        -0.26648   0.00008   0.00803   0.11257   0.04657
  36        4S          0.05452  -0.00007  -0.41733  -0.04076   0.78284
  37        4PX         0.00778   0.27060  -0.19436  -0.03657   0.30918
  38        4PY         0.24434  -0.15924  -0.33065  -0.06230   0.20397
  39        4PZ        -0.23828   0.00006   0.01799   0.21351   0.11669
  40 4   Cl 1S         -0.00002   0.00000  -0.01511  -0.00028  -0.00041
  41        2S          0.00015  -0.00000   0.09436   0.00196   0.00265
  42        2PX         0.00045  -0.00121  -0.08682  -0.01879  -0.00042
  43        2PY        -0.12823  -0.16278   0.00065   0.00014   0.07686
  44        2PZ         0.00168  -0.00002  -0.00424  -0.05201   0.00062
  45        3S         -0.00049   0.00000  -0.10363   0.00894  -0.00099
  46        3PX        -0.00090   0.00262   0.18479   0.04057   0.00058
  47        3PY         0.27880   0.35202  -0.00139  -0.00029  -0.16697
  48        3PZ        -0.00362   0.00004   0.00800   0.11260  -0.00135
  49        4S          0.00075  -0.00000  -0.41773  -0.04050  -0.02253
  50        4PX        -0.00122   0.00234   0.38375   0.07211   0.00703
  51        4PY         0.23021   0.31348  -0.00288  -0.00052  -0.34142
  52        4PZ        -0.00324   0.00003   0.01793   0.21354  -0.00338
  53 5   N  1S         -0.00000  -0.00000   0.06089  -0.11897  -0.00003
  54        2S          0.00000  -0.00000  -0.03555   0.04799   0.00001
  55        2PX         0.00007  -0.00000  -0.00003   0.00003  -0.00365
  56        2PY        -0.01693   0.00001  -0.00001   0.00001  -0.11199
  57        2PZ        -0.00001   0.00000   0.02953   0.03658   0.00002
  58        3S          0.00001   0.00000  -0.52699   1.12898   0.00034
  59        3PX         0.00005  -0.00000  -0.00005   0.00006  -0.00794
  60        3PY        -0.01300   0.00001   0.00000   0.00002  -0.24399
  61        3PZ        -0.00001   0.00000   0.00585   0.02572   0.00003
  62 6   H  1S         -0.00013  -0.00000   0.01627  -0.04090   0.00108
  63        2S         -0.00018  -0.00000   0.17376  -0.27091  -0.00154
  64 7   H  1S          0.00966  -0.00000   0.01625  -0.04090   0.03642
  65        2S          0.01372  -0.00001   0.17374  -0.27099  -0.05018
  66 8   H  1S         -0.00953   0.00000   0.01624  -0.04087  -0.03754
  67        2S         -0.01355   0.00001   0.17373  -0.27097   0.05137
                          41        42        43        44        45
                           V         V         V         V         V
     Eigenvalues --     0.17382   0.24204   0.24205   0.25147   0.33003
   1 1   Al 1S         -0.00001   0.00002   0.00003   0.05715  -0.02167
   2        2S          0.00006  -0.00007  -0.00011  -0.19523  -0.05829
   3        2PX        -0.10200   0.01902  -0.10916   0.00005   0.00004
   4        2PY         0.00335  -0.10916  -0.01903   0.00006   0.00004
   5        2PZ        -0.00003  -0.00004  -0.00005  -0.04480  -0.18002
   6        3S          0.00003   0.00039   0.00068   1.24863  -1.31305
   7        3PX         0.20965  -0.07128   0.40889  -0.00016  -0.00015
   8        3PY        -0.00689   0.40891   0.07130  -0.00019  -0.00014
   9        3PZ         0.00012   0.00012   0.00014   0.07308   0.71343
  10        4S         -0.00048  -0.00008  -0.00024  -0.47109   2.39116
  11        4PX         1.65277  -0.03202   0.18501  -0.00048  -0.00031
  12        4PY        -0.05414   0.18457   0.03205  -0.00050  -0.00026
  13        4PZ         0.00013   0.00031   0.00064   0.93466   0.25048
  14 2   Cl 1S          0.00858  -0.00671   0.00240  -0.00434  -0.00779
  15        2S         -0.05470   0.04228  -0.01514   0.02647   0.04942
  16        2PX         0.04694   0.02022   0.00495   0.02489  -0.01151
  17        2PY         0.05014  -0.02663   0.01641  -0.04390   0.02023
  18        2PZ        -0.01274   0.01168  -0.00416   0.03803   0.01785
  19        3S          0.02054  -0.05839   0.02088  -0.06543  -0.07177
  20        3PX        -0.10531  -0.04380  -0.00931  -0.05740   0.02992
  21        3PY        -0.10305   0.05874  -0.03512   0.10125  -0.05262
  22        3PZ         0.02767  -0.02931   0.01045  -0.08095  -0.03843
  23        4S          0.46530  -0.15734   0.05654   0.10993  -0.35072
  24        4PX        -0.15578  -0.10759  -0.02589  -0.04676  -0.03931
  25        4PY        -0.31570   0.14195  -0.08734   0.08265   0.06942
  26        4PZ         0.06928  -0.03378   0.01195  -0.19079  -0.11020
  27 3   Cl 1S          0.00786   0.00543   0.00461  -0.00435  -0.00780
  28        2S         -0.05011  -0.03424  -0.02904   0.02653   0.04944
  29        2PX         0.04874  -0.02092  -0.00286   0.02557  -0.01179
  30        2PY        -0.05034  -0.01880  -0.02469   0.04353  -0.02006
  31        2PZ        -0.01168  -0.00945  -0.00799   0.03804   0.01783
  32        3S          0.01881   0.04729   0.04006  -0.06547  -0.07177
  33        3PX        -0.10900   0.04485   0.00753  -0.05897   0.03066
  34        3PY         0.10402   0.04187   0.05343  -0.10040   0.05218
  35        3PZ         0.02536   0.02373   0.02006  -0.08096  -0.03837
  36        4S          0.42628   0.12748   0.10832   0.10949  -0.35097
  37        4PX        -0.16690   0.11124   0.01560  -0.04819  -0.04044
  38        4PY         0.30806   0.10041   0.13153  -0.08208  -0.06888
  39        4PZ         0.06351   0.02725   0.02306  -0.19087  -0.11025
  40 4   Cl 1S         -0.01642   0.00127  -0.00701  -0.00433  -0.00779
  41        2S          0.10470  -0.00801   0.04422   0.02644   0.04938
  42        2PX        -0.03911   0.00638  -0.03462  -0.05044   0.02329
  43        2PY        -0.00165   0.01291   0.00262   0.00036  -0.00019
  44        2PZ         0.02441  -0.00220   0.01223   0.03803   0.01784
  45        3S         -0.03926   0.01104  -0.06106  -0.06538  -0.07172
  46        3PX         0.07202  -0.01397   0.07595   0.11634  -0.06056
  47        3PY         0.00369  -0.02645  -0.00541  -0.00083   0.00048
  48        3PZ        -0.05301   0.00552  -0.03069  -0.08095  -0.03839
  49        4S         -0.89096   0.02990  -0.16459   0.11009  -0.35058
  50        4PX         0.37836  -0.03402   0.18447   0.09486   0.07965
  51        4PY         0.00583  -0.06827  -0.01382  -0.00060  -0.00054
  52        4PZ        -0.13283   0.00633  -0.03541  -0.19078  -0.11018
  53 5   N  1S         -0.00005  -0.00001  -0.00002  -0.02249  -0.03361
  54        2S          0.00002  -0.00000  -0.00001  -0.01812   0.00883
  55        2PX        -0.11203  -0.04354   0.24972  -0.00014  -0.00001
  56        2PY         0.00364   0.24974   0.04354  -0.00015  -0.00006
  57        2PZ         0.00004   0.00013   0.00017   0.21111   0.18908
  58        3S          0.00052   0.00023   0.00034   0.46052   0.49940
  59        3PX        -0.24410  -0.15548   0.89184  -0.00052  -0.00005
  60        3PY         0.00787   0.89187   0.15548  -0.00051  -0.00016
  61        3PZ         0.00013   0.00039   0.00045   0.54080   0.59983
  62 6   H  1S          0.04267  -0.02331   0.12816  -0.03178  -0.02739
  63        2S         -0.05901  -0.24460   1.34423  -0.51472  -0.68391
  64 7   H  1S         -0.02233   0.12263  -0.04395  -0.03171  -0.02737
  65        2S          0.03028   1.28640  -0.46103  -0.51407  -0.68388
  66 8   H  1S         -0.02040  -0.09936  -0.08428  -0.03161  -0.02736
  67        2S          0.02798  -1.04245  -0.88432  -0.51296  -0.68370
                          46        47        48        49        50
                           V         V         V         V         V
     Eigenvalues --     0.37448   0.37450   0.39761   0.75353   0.75354
   1 1   Al 1S          0.00000  -0.00000  -0.02093  -0.00000   0.00000
   2        2S          0.00001   0.00002  -0.00352   0.00002  -0.00001
   3        2PX         0.03519  -0.31751  -0.00004   0.00676  -0.00220
   4        2PY        -0.31749  -0.03519  -0.00014   0.00221   0.00676
   5        2PZ        -0.00012  -0.00006   0.28615  -0.00000  -0.00000
   6        3S          0.00025  -0.00004  -0.95626   0.00010  -0.00003
   7        3PX        -0.16762   1.51253   0.00021   0.01907  -0.00629
   8        3PY         1.51243   0.16762   0.00070   0.00623   0.01907
   9        3PZ         0.00060   0.00030  -1.42364   0.00001   0.00001
  10        4S         -0.00044  -0.00008   1.44633  -0.00023   0.00010
  11        4PX         0.14338  -1.29413  -0.00034  -0.14709   0.04813
  12        4PY        -1.29420  -0.14340  -0.00074  -0.04814  -0.14715
  13        4PZ        -0.00070  -0.00036   1.71887  -0.00004  -0.00000
  14 2   Cl 1S         -0.00267   0.00115  -0.00347   0.00719  -0.03551
  15        2S          0.01710  -0.00736   0.02236  -0.04389   0.21679
  16        2PX         0.03202  -0.01279  -0.00462  -0.13858  -0.08917
  17        2PY        -0.05560   0.02445   0.00813  -0.10636   0.08619
  18        2PZ         0.01005  -0.00432   0.01687  -0.01337   0.06597
  19        3S         -0.01806   0.00777  -0.02604   0.19491  -0.96277
  20        3PX        -0.07090   0.02348   0.01469   0.47412   0.30634
  21        3PY         0.11904  -0.05514  -0.02583   0.36447  -0.29697
  22        3PZ        -0.01990   0.00857  -0.03876   0.04622  -0.22816
  23        4S          0.19160  -0.08231  -0.15361  -0.19860   0.98112
  24        4PX        -0.12912   0.14497  -0.04310  -0.41570  -0.27067
  25        4PY         0.30308  -0.07952   0.07605  -0.32052   0.26389
  26        4PZ        -0.05317   0.02292  -0.16087  -0.04461   0.22027
  27 3   Cl 1S          0.00233   0.00174  -0.00347   0.02714   0.02400
  28        2S         -0.01492  -0.01116   0.02235  -0.16569  -0.14651
  29        2PX        -0.02886  -0.02045  -0.00476  -0.05474   0.15475
  30        2PY        -0.04793  -0.03646  -0.00811   0.13764   0.00234
  31        2PZ        -0.00878  -0.00657   0.01685  -0.05050  -0.04459
  32        3S          0.01573   0.01182  -0.02601   0.73585   0.65069
  33        3PX         0.06498   0.04058   0.01510   0.18653  -0.53046
  34        3PY         0.10190   0.08083   0.02571  -0.47262  -0.00930
  35        3PZ         0.01738   0.01302  -0.03870   0.17464   0.15419
  36        4S         -0.16698  -0.12476  -0.15384  -0.74988  -0.66312
  37        4PX         0.09587   0.17333  -0.04416  -0.16226   0.46679
  38        4PY         0.27479   0.14553  -0.07517   0.41723   0.01032
  39        4PZ         0.04653   0.03474  -0.16087  -0.16860  -0.14887
  40 4   Cl 1S          0.00034  -0.00289  -0.00347  -0.03435   0.01152
  41        2S         -0.00221   0.01849   0.02234   0.20972  -0.07035
  42        2PX         0.00822  -0.06934   0.00936   0.11469  -0.03986
  43        2PY         0.00096   0.00063  -0.00007  -0.05700  -0.16707
  44        2PZ        -0.00130   0.01087   0.01687   0.06383  -0.02141
  45        3S          0.00235  -0.01949  -0.02600  -0.93142   0.31244
  46        3PX        -0.01778   0.14970  -0.02974  -0.39474   0.13718
  47        3PY        -0.00720  -0.00197   0.00023   0.19513   0.57188
  48        3PZ         0.00258  -0.02153  -0.03875  -0.22076   0.07403
  49        4S         -0.02447   0.20697  -0.15358   0.94922  -0.31840
  50        4PX        -0.04123   0.35393   0.08734   0.35002  -0.12162
  51        4PY         0.09417   0.00847  -0.00059  -0.17128  -0.50187
  52        4PZ         0.00688  -0.05755  -0.16086   0.21314  -0.07147
  53 5   N  1S          0.00002   0.00001  -0.07147   0.00000   0.00000
  54        2S         -0.00001  -0.00000   0.05174   0.00000  -0.00000
  55        2PX         0.01174  -0.10595  -0.00001  -0.05379   0.01761
  56        2PY        -0.10596  -0.01174  -0.00003  -0.01766  -0.05378
  57        2PZ        -0.00002  -0.00001  -0.03519  -0.00003  -0.00002
  58        3S         -0.00019  -0.00009   0.70028  -0.00002  -0.00002
  59        3PX         0.03561  -0.32154  -0.00003   0.04124  -0.01339
  60        3PY        -0.32157  -0.03562  -0.00007   0.01354   0.04123
  61        3PZ        -0.00008  -0.00002  -0.06931  -0.00001   0.00002
  62 6   H  1S          0.00250  -0.02127   0.02521   0.04308  -0.01433
  63        2S          0.07372  -0.62251  -0.70879  -0.07750   0.02601
  64 7   H  1S         -0.01969   0.00846   0.02521  -0.00898   0.04446
  65        2S         -0.57579   0.24772  -0.70882   0.01624  -0.08016
  66 8   H  1S          0.01718   0.01281   0.02520  -0.03408  -0.03011
  67        2S          0.50269   0.37507  -0.70850   0.06138   0.05413
                          51        52        53        54        55
                           V         V         V         V         V
     Eigenvalues --     0.78072   0.78075   0.79750   0.87844   0.90425
   1 1   Al 1S          0.00000  -0.00000   0.00201   0.00000  -0.00000
   2        2S          0.00003   0.00002   0.06593  -0.00000  -0.00000
   3        2PX        -0.00572   0.00051  -0.00000   0.00000  -0.00265
   4        2PY        -0.00051  -0.00572   0.00000   0.00000  -0.00006
   5        2PZ        -0.00000  -0.00000  -0.00577  -0.00000  -0.00000
   6        3S          0.00021   0.00012   0.59592   0.00002  -0.00004
   7        3PX         0.10473  -0.00941  -0.00009   0.00001   0.32423
   8        3PY         0.00944   0.10474  -0.00004   0.00044   0.00800
   9        3PZ        -0.00001   0.00001  -0.00392   0.00000   0.00000
  10        4S         -0.00018  -0.00021  -0.46840   0.00001  -0.00001
  11        4PX        -0.09381   0.00845   0.00001  -0.00001  -0.29094
  12        4PY        -0.00845  -0.09376   0.00005  -0.00031  -0.00717
  13        4PZ        -0.00005  -0.00004  -0.11679   0.00001  -0.00006
  14 2   Cl 1S          0.00788  -0.01739  -0.02032   0.00000  -0.00256
  15        2S         -0.04830   0.10654   0.12447  -0.00001   0.01547
  16        2PX         0.03359  -0.01089  -0.08422  -0.17777   0.17563
  17        2PY        -0.00376   0.04435   0.14848  -0.10055  -0.02427
  18        2PZ         0.10368  -0.22830  -0.02407   0.00007  -0.03343
  19        3S          0.20762  -0.45799  -0.53663   0.00010  -0.08409
  20        3PX        -0.11826   0.03948   0.29715   0.62975  -0.62907
  21        3PY         0.01424  -0.15768  -0.52387   0.35619   0.09025
  22        3PZ        -0.35998   0.79266   0.08382  -0.00025   0.11803
  23        4S         -0.20258   0.44690   0.55018  -0.00010   0.06830
  24        4PX         0.12530  -0.04733  -0.30262  -0.63868   0.68500
  25        4PY        -0.01994   0.17454   0.53347  -0.36112  -0.11793
  26        4PZ         0.34289  -0.75502  -0.07024   0.00023  -0.11539
  27 3   Cl 1S          0.01111   0.01552  -0.02033  -0.00000  -0.00286
  28        2S         -0.06804  -0.09508   0.12452   0.00001   0.01729
  29        2PX         0.03527   0.00472  -0.08643   0.17626   0.17796
  30        2PY         0.01173   0.04265  -0.14722  -0.10319   0.03524
  31        2PZ         0.14590   0.20395  -0.02425  -0.00011  -0.03739
  32        3S          0.29246   0.40868  -0.53683  -0.00009  -0.09402
  33        3PX        -0.12439  -0.01777   0.30496  -0.62441  -0.63770
  34        3PY        -0.04259  -0.15147   0.51944   0.36555  -0.12979
  35        3PZ        -0.50655  -0.70811   0.08444   0.00037   0.13200
  36        4S         -0.28535  -0.39872   0.55038   0.00008   0.07637
  37        4PX         0.13295   0.02437  -0.31058   0.63326   0.69602
  38        4PY         0.05132   0.16686  -0.52897  -0.37062   0.16253
  39        4PZ         0.48249   0.67449  -0.07084  -0.00036  -0.12905
  40 4   Cl 1S         -0.01902   0.00184  -0.02031   0.00000   0.00543
  41        2S          0.11650  -0.01129   0.12439  -0.00000  -0.03277
  42        2PX         0.04807  -0.00439   0.17063   0.00154   0.22834
  43        2PY         0.00257   0.02998  -0.00128   0.20450   0.00341
  44        2PZ        -0.24954   0.02441  -0.02403   0.00001   0.07085
  45        3S         -0.50080   0.04853  -0.53632   0.00001   0.17816
  46        3PX        -0.17130   0.01566  -0.60204  -0.00544  -0.82398
  47        3PY        -0.00898  -0.10498   0.00452  -0.72447  -0.01209
  48        3PZ         0.86640  -0.08475   0.08368  -0.00005  -0.25017
  49        4S          0.48867  -0.04733   0.54992  -0.00001  -0.14472
  50        4PX         0.19159  -0.01763   0.61307   0.00553   0.93342
  51        4PY         0.00918   0.10860  -0.00461   0.73472   0.01255
  52        4PZ        -0.82526   0.08073  -0.07010   0.00005   0.24461
  53 5   N  1S         -0.00000  -0.00000   0.00256   0.00000   0.00000
  54        2S          0.00000  -0.00000   0.01214  -0.00001  -0.00001
  55        2PX         0.10156  -0.00918  -0.00003   0.00001   0.06687
  56        2PY         0.00918   0.10158  -0.00002   0.00008   0.00167
  57        2PZ        -0.00001   0.00003  -0.09011  -0.00001   0.00001
  58        3S          0.00000   0.00002  -0.07443  -0.00001   0.00001
  59        3PX        -0.24635   0.02220   0.00009  -0.00000  -0.12701
  60        3PY        -0.02222  -0.24636   0.00007  -0.00013  -0.00315
  61        3PZ        -0.00001  -0.00005   0.01836   0.00001  -0.00002
  62 6   H  1S         -0.29056   0.02830   0.00349  -0.00000  -0.13748
  63        2S          0.09728  -0.00952   0.10262   0.00002   0.04266
  64 7   H  1S          0.12074  -0.26581   0.00341  -0.00012   0.06492
  65        2S         -0.04036   0.08904   0.10264   0.00004  -0.02011
  66 8   H  1S          0.16981   0.23749   0.00325   0.00011   0.07256
  67        2S         -0.05685  -0.07949   0.10271  -0.00004  -0.02251
                          56        57        58        59        60
                           V         V         V         V         V
     Eigenvalues --     0.90431   0.96264   1.01508   1.01510   1.12431
   1 1   Al 1S         -0.00000  -0.00297   0.00000   0.00000   0.01356
   2        2S          0.00000  -0.00713   0.00002  -0.00001  -0.13180
   3        2PX         0.00006  -0.00000  -0.01235  -0.00853   0.00002
   4        2PY        -0.00265   0.00000   0.00852  -0.01235   0.00003
   5        2PZ        -0.00000   0.00956  -0.00000  -0.00000   0.00724
   6        3S         -0.00001  -0.20169   0.00019   0.00021  -0.06420
   7        3PX        -0.00799   0.00019   0.29702   0.20490  -0.00014
   8        3PY         0.32413   0.00010  -0.20488   0.29705  -0.00015
   9        3PZ         0.00004  -0.09678   0.00003   0.00001  -0.26723
  10        4S         -0.00011   0.12112  -0.00027   0.00029   2.56265
  11        4PX         0.00724   0.00046   0.90147   0.62188  -0.00046
  12        4PY        -0.29124  -0.00015  -0.62153   0.90147  -0.00112
  13        4PZ        -0.00014   1.15976  -0.00049  -0.00048   0.39127
  14 2   Cl 1S          0.00479  -0.00655  -0.03358   0.01627   0.03260
  15        2S         -0.02889   0.03956   0.20196  -0.09785  -0.19549
  16        2PX        -0.03361   0.02292   0.00805  -0.12710  -0.04905
  17        2PY         0.21243  -0.04040  -0.12671  -0.00847   0.08651
  18        2PZ         0.06256  -0.19522   0.08486  -0.04096  -0.05211
  19        3S          0.15699  -0.21800  -1.15570   0.55992   1.19721
  20        3PX         0.12381  -0.08681  -0.03184   0.48560   0.20144
  21        3PY        -0.76516   0.15307   0.48552   0.03137  -0.35530
  22        3PZ        -0.22090   0.71976  -0.31659   0.15281   0.20365
  23        4S         -0.12733   0.30685   1.70443  -0.82566  -1.82068
  24        4PX        -0.15508   0.13074   0.09338  -0.75135  -0.42527
  25        4PY         0.85833  -0.23061  -0.80942  -0.00832   0.75002
  26        4PZ         0.21606  -0.92518   0.43199  -0.20855  -0.34879
  27 3   Cl 1S         -0.00461  -0.00656   0.00271  -0.03721   0.03263
  28        2S          0.02786   0.03961  -0.01630   0.22376  -0.19569
  29        2PX         0.02538   0.02354  -0.11429   0.05608  -0.05044
  30        2PY         0.21011   0.04018   0.05637   0.11373  -0.08573
  31        2PZ        -0.06020  -0.19515  -0.00676   0.09402  -0.05208
  32        3S         -0.15140  -0.21825   0.09324  -1.28048   1.19848
  33        3PX        -0.09438  -0.08917   0.43624  -0.21528   0.20714
  34        3PY        -0.75657  -0.15220  -0.21499  -0.43619   0.35211
  35        3PZ         0.21254   0.71951   0.02522  -0.35078   0.20356
  36        4S          0.12288   0.30711  -0.13738   1.88848  -1.82293
  37        4PX         0.12335   0.13428  -0.65888   0.37512  -0.43726
  38        4PY         0.84740   0.22917   0.31659   0.74324  -0.74366
  39        4PZ        -0.20781  -0.92489  -0.03440   0.47872  -0.34887
  40 4   Cl 1S         -0.00017  -0.00653   0.03088   0.02097   0.03260
  41        2S          0.00105   0.03942  -0.18567  -0.12610  -0.19552
  42        2PX        -0.00615  -0.04639   0.10548   0.07049   0.09946
  43        2PY         0.15937   0.00037   0.07080  -0.10602  -0.00064
  44        2PZ        -0.00224  -0.19529  -0.07791  -0.05286  -0.05207
  45        3S         -0.00571  -0.21721   1.06248   0.72160   1.19740
  46        3PX         0.02225   0.17576  -0.40464  -0.27042  -0.40848
  47        3PY        -0.56902  -0.00140  -0.27017   0.40459   0.00264
  48        3PZ         0.00790   0.72002   0.29067   0.19722   0.20352
  49        4S          0.00462   0.30569  -1.56694  -1.06423  -1.82100
  50        4PX        -0.02547  -0.26470   0.69256   0.46381   0.86227
  51        4PY         0.60875   0.00208   0.40510  -0.60803  -0.00578
  52        4PZ        -0.00770  -0.92552  -0.39664  -0.26915  -0.34868
  53 5   N  1S          0.00000   0.00082  -0.00000  -0.00000   0.01404
  54        2S         -0.00001   0.02413  -0.00000  -0.00002  -0.01813
  55        2PX        -0.00166   0.00004   0.05173   0.03566  -0.00003
  56        2PY         0.06685   0.00000  -0.03564   0.05186  -0.00017
  57        2PZ         0.00002  -0.02171  -0.00005   0.00009   0.31338
  58        3S          0.00001  -0.02675  -0.00001   0.00004  -0.08731
  59        3PX         0.00313   0.00008   0.11539   0.07947  -0.00003
  60        3PY        -0.12706   0.00003  -0.07949   0.11514   0.00034
  61        3PZ        -0.00006   0.11147  -0.00002  -0.00003  -0.03245
  62 6   H  1S          0.00438   0.03443   0.32088   0.21767   0.02172
  63        2S         -0.00134  -0.26600  -0.06716  -0.04547  -0.31058
  64 7   H  1S         -0.12133   0.03422  -0.34901   0.16871   0.02226
  65        2S          0.03764  -0.26601   0.07329  -0.03516  -0.31101
  66 8   H  1S          0.11696   0.03404   0.02811  -0.38652   0.02155
  67        2S         -0.03622  -0.26595  -0.00577   0.08099  -0.31030
                          61        62        63        64        65
                           V         V         V         V         V
     Eigenvalues --     1.17324   1.17330   1.19627   1.43336   1.43338
   1 1   Al 1S          0.00001   0.00000   0.00100  -0.00000  -0.00000
   2        2S         -0.00007  -0.00002  -0.01308   0.00000   0.00001
   3        2PX        -0.00288   0.03816   0.00001   0.02420   0.01655
   4        2PY        -0.03813  -0.00289   0.00001  -0.01656   0.02419
   5        2PZ        -0.00000   0.00001  -0.01956   0.00000   0.00000
   6        3S         -0.00003  -0.00011  -0.08966  -0.00002   0.00001
   7        3PX         0.01360  -0.18069  -0.00004  -0.09821  -0.06712
   8        3PY         0.18049   0.01372  -0.00003   0.06714  -0.09812
   9        3PZ        -0.00015  -0.00004  -0.00934  -0.00005   0.00003
  10        4S          0.00128   0.00048  -0.05737  -0.00003  -0.00016
  11        4PX         0.09220  -1.22253  -0.00030  -0.03722  -0.02524
  12        4PY         1.22177   0.09242  -0.00024   0.02527  -0.03692
  13        4PZ         0.00040   0.00001   0.04536  -0.00001  -0.00006
  14 2   Cl 1S          0.01514   0.01018  -0.00257  -0.00246   0.00120
  15        2S         -0.08966  -0.06027   0.01553   0.01564  -0.00763
  16        2PX        -0.04859   0.06947   0.00241   0.01650   0.00685
  17        2PY        -0.02449   0.04149  -0.00419  -0.01536   0.01596
  18        2PZ         0.03444   0.02313   0.00859   0.02834  -0.01383
  19        3S          0.60772   0.40852  -0.09141  -0.05439   0.02652
  20        3PX         0.20019  -0.26921  -0.01077  -0.06186  -0.02985
  21        3PY         0.08255  -0.17365   0.01875   0.05376  -0.06033
  22        3PZ        -0.12088  -0.08118  -0.03213  -0.10694   0.05220
  23        4S         -1.12164  -0.75403   0.12273   0.01125  -0.00544
  24        4PX        -0.43424   0.39012   0.02642   0.06194   0.06331
  25        4PY         0.02992   0.40718  -0.04615  -0.02304   0.06432
  26        4PZ         0.06590   0.04423   0.03750   0.11858  -0.05786
  27 3   Cl 1S         -0.01634   0.00802  -0.00257   0.00019  -0.00274
  28        2S          0.09677  -0.04751   0.01550  -0.00123   0.01741
  29        2PX         0.03840   0.07475   0.00246   0.01242   0.01302
  30        2PY        -0.01932  -0.04552   0.00416  -0.00922   0.02005
  31        2PZ        -0.03736   0.01829   0.00861  -0.00220   0.03149
  32        3S         -0.65605   0.32212  -0.09120   0.00437  -0.06065
  33        3PX        -0.16080  -0.29113  -0.01100  -0.05038  -0.04721
  34        3PY         0.06111   0.18749  -0.01860   0.03654  -0.07187
  35        3PZ         0.13117  -0.06419  -0.03222   0.00829  -0.11884
  36        4S          1.21132  -0.59472   0.12232  -0.00116   0.01289
  37        4PX         0.37820   0.43944   0.02696   0.08118   0.03431
  38        4PY         0.07824  -0.40581   0.04571  -0.05234   0.04520
  39        4PZ        -0.07191   0.03506   0.03758  -0.00921   0.13180
  40 4   Cl 1S          0.00125  -0.01819  -0.00258   0.00227   0.00153
  41        2S         -0.00741   0.10771   0.01555  -0.01442  -0.00974
  42        2PX        -0.00047  -0.00323  -0.00483   0.01977   0.01346
  43        2PY        -0.09722  -0.00658   0.00005  -0.00875   0.01267
  44        2PZ         0.00277  -0.04141   0.00858  -0.02616  -0.01762
  45        3S          0.05016  -0.73010  -0.09154   0.05008   0.03388
  46        3PX         0.00051   0.03248   0.02162  -0.07106  -0.04844
  47        3PY         0.38439   0.02589  -0.00023   0.03518  -0.05109
  48        3PZ        -0.00971   0.14534  -0.03209   0.09872   0.06650
  49        4S         -0.09242   1.34776   0.12298  -0.01015  -0.00709
  50        4PX         0.01513  -0.28890  -0.05322   0.04623   0.03209
  51        4PY        -0.64934  -0.04203   0.00051  -0.05431   0.07989
  52        4PZ         0.00511  -0.07928   0.03747  -0.10942  -0.07373
  53 5   N  1S          0.00003  -0.00003   0.10057  -0.00000   0.00000
  54        2S         -0.00005   0.00004  -0.17117   0.00001  -0.00002
  55        2PX         0.00015  -0.00208  -0.00000  -0.91209  -0.62420
  56        2PY         0.00211   0.00015  -0.00000   0.62420  -0.91208
  57        2PZ         0.00023   0.00009   0.16829   0.00023  -0.00029
  58        3S         -0.00010   0.00003  -0.15965  -0.00004   0.00004
  59        3PX        -0.03996   0.52926   0.00019   1.23246   0.84346
  60        3PY        -0.52933  -0.03992   0.00020  -0.84344   1.23245
  61        3PZ        -0.00031   0.00006  -0.52560  -0.00029   0.00036
  62 6   H  1S         -0.06825   1.00293   0.78135  -0.07286  -0.04905
  63        2S          0.06330  -0.93108  -0.33510   0.71444   0.48140
  64 7   H  1S         -0.83438  -0.56104   0.78112   0.07889  -0.03852
  65        2S          0.77430   0.52064  -0.33492  -0.77405   0.37802
  66 8   H  1S          0.90325  -0.44255   0.78068  -0.00613   0.08765
  67        2S         -0.83825   0.41060  -0.33450   0.05979  -0.85945
                          66        67
                           V         V
     Eigenvalues --     1.53018   2.54800
   1 1   Al 1S          0.01301  -0.01110
   2        2S         -0.12683   0.04642
   3        2PX         0.00002  -0.00001
   4        2PY         0.00000  -0.00001
   5        2PZ        -0.02091   0.05667
   6        3S         -0.03507  -0.28173
   7        3PX        -0.00011   0.00003
   8        3PY        -0.00003   0.00008
   9        3PZ         0.28425  -0.37898
  10        4S          1.98713  -0.14569
  11        4PX        -0.00047   0.00006
  12        4PY        -0.00015  -0.00003
  13        4PZ         0.57926   0.15479
  14 2   Cl 1S          0.01107  -0.00146
  15        2S         -0.06510   0.00848
  16        2PX        -0.00707   0.00033
  17        2PY         0.01249  -0.00058
  18        2PZ        -0.00758  -0.00356
  19        3S          0.50462  -0.08574
  20        3PX         0.03956  -0.00578
  21        3PY        -0.06981   0.01018
  22        3PZ         0.04543   0.00881
  23        4S         -0.94082   0.15870
  24        4PX        -0.17108   0.03578
  25        4PY         0.30172  -0.06305
  26        4PZ        -0.21051   0.01161
  27 3   Cl 1S          0.01107  -0.00145
  28        2S         -0.06509   0.00847
  29        2PX        -0.00726   0.00033
  30        2PY        -0.01237   0.00057
  31        2PZ        -0.00756  -0.00357
  32        3S          0.50459  -0.08572
  33        3PX         0.04060  -0.00591
  34        3PY         0.06916  -0.01008
  35        3PZ         0.04535   0.00883
  36        4S         -0.94087   0.15869
  37        4PX        -0.17560   0.03670
  38        4PY        -0.29904   0.06251
  39        4PZ        -0.21043   0.01159
  40 4   Cl 1S          0.01107  -0.00145
  41        2S         -0.06506   0.00847
  42        2PX         0.01436  -0.00067
  43        2PY        -0.00011   0.00000
  44        2PZ        -0.00758  -0.00356
  45        3S          0.50430  -0.08570
  46        3PX        -0.08023   0.01171
  47        3PY         0.00059  -0.00008
  48        3PZ         0.04543   0.00882
  49        4S         -0.94017   0.15861
  50        4PX         0.34667  -0.07247
  51        4PY        -0.00255   0.00053
  52        4PZ        -0.21048   0.01160
  53 5   N  1S          0.01416   0.01445
  54        2S         -0.09202  -1.83671
  55        2PX        -0.00004   0.00001
  56        2PY         0.00035  -0.00000
  57        2PZ        -1.05145   0.01220
  58        3S          0.36116   2.73589
  59        3PX         0.00009  -0.00004
  60        3PY        -0.00054  -0.00003
  61        3PZ         1.57913   0.13793
  62 6   H  1S          0.17047  -0.26715
  63        2S         -0.73495  -0.41720
  64 7   H  1S          0.17033  -0.26713
  65        2S         -0.73494  -0.41720
  66 8   H  1S          0.17039  -0.26713
  67        2S         -0.73480  -0.41721
     Density Matrix:
                           1         2         3         4         5
   1 1   Al 1S          2.11944
   2        2S         -0.50443   2.13545
   3        2PX        -0.00000   0.00000   1.94554
   4        2PY        -0.00000   0.00000   0.00000   1.94554
   5        2PZ         0.00135  -0.00267   0.00000   0.00000   1.93685
[...]
  50        4PX        -0.00000  -0.00003  -0.00070  -0.00008   0.00000
  51        4PY         0.00000   0.00004  -0.00020  -0.00001  -0.00000
  52        4PZ         0.00000   0.00000   0.00000  -0.00000  -0.00003
  53 5   N  1S          0.00000   0.00000   0.00000   0.00000   0.00000
  54        2S          0.00000   0.00000  -0.00000  -0.00000  -0.00000
  55        2PX         0.00000  -0.00000   0.00000  -0.00000  -0.00000
  56        2PY         0.00000  -0.00000  -0.00000  -0.00000  -0.00000
  57        2PZ         0.00000  -0.00000  -0.00000  -0.00000  -0.00000
  58        3S          0.00000  -0.00000  -0.00002  -0.00006  -0.00016
  59        3PX         0.00000  -0.00001   0.00001  -0.00004  -0.00001
  60        3PY         0.00000  -0.00002  -0.00004  -0.00002  -0.00002
  61        3PZ         0.00000  -0.00001  -0.00007  -0.00020  -0.00034
  62 6   H  1S          0.00000  -0.00000  -0.00000  -0.00000  -0.00000
  63        2S         -0.00000   0.00002   0.00000   0.00001  -0.00007
  64 7   H  1S          0.00000  -0.00000  -0.00000  -0.00000  -0.00000
  65        2S         -0.00000   0.00002  -0.00001   0.00003  -0.00007
  66 8   H  1S         -0.00000   0.00000   0.00000   0.00000   0.00000
  67        2S         -0.00000  -0.00000   0.00000   0.00000   0.00000
                          36        37        38        39        40
  36        4S          0.68376
  37        4PX         0.00000   0.50157
  38        4PY         0.00000   0.00000   0.44892
  39        4PZ         0.00000   0.00000   0.00000   0.54848
  40 4   Cl 1S          0.00000   0.00000  -0.00000   0.00000   2.14383
  41        2S         -0.00000  -0.00000   0.00000  -0.00000  -0.14834
  42        2PX         0.00000   0.00001   0.00000  -0.00000   0.00000
  43        2PY         0.00000   0.00000   0.00000   0.00000   0.00000
  44        2PZ         0.00000   0.00000   0.00000   0.00000   0.00000
  45        3S          0.00000   0.00005  -0.00004  -0.00000  -0.00231
  46        3PX        -0.00007  -0.00041  -0.00019   0.00000   0.00000
  47        3PY        -0.00014  -0.00031  -0.00008  -0.00000   0.00000
  48        3PZ        -0.00000   0.00000  -0.00000  -0.00003   0.00000
  49        4S         -0.00004  -0.00277   0.00040   0.00000   0.00591
  50        4PX        -0.00082  -0.00562  -0.00099   0.00000   0.00000
  51        4PY        -0.00155  -0.00287  -0.00043  -0.00000   0.00000
  52        4PZ        -0.00000   0.00000  -0.00000  -0.00061   0.00000
  53 5   N  1S          0.00000   0.00000   0.00001   0.00001   0.00000
  54        2S         -0.00002  -0.00002  -0.00005  -0.00006  -0.00000
  55        2PX        -0.00001   0.00000  -0.00003  -0.00003  -0.00000
  56        2PY        -0.00002  -0.00003  -0.00002  -0.00008  -0.00000
  57        2PZ        -0.00008  -0.00008  -0.00022  -0.00019  -0.00000
  58        3S         -0.00061  -0.00051  -0.00148  -0.00333  -0.00000
  59        3PX        -0.00010  -0.00002  -0.00049  -0.00004  -0.00000
  60        3PY        -0.00030  -0.00049  -0.00021  -0.00012  -0.00000
  61        3PZ        -0.00125  -0.00104  -0.00302  -0.00363   0.00000
  62 6   H  1S         -0.00000   0.00000  -0.00002  -0.00005   0.00000
  63        2S          0.00038   0.00004   0.00017  -0.00049  -0.00000
  64 7   H  1S         -0.00000  -0.00002  -0.00000  -0.00005  -0.00000
  65        2S          0.00038  -0.00010   0.00031  -0.00049   0.00000
  66 8   H  1S          0.00000   0.00000   0.00000   0.00001  -0.00000
  67        2S          0.00001   0.00002   0.00006   0.00007   0.00000
                          41        42        43        44        45
  41        2S          2.38196
  42        2PX         0.00000   2.02267
  43        2PY         0.00000   0.00000   2.04775
  44        2PZ         0.00000   0.00000   0.00000   2.04679
  45        3S         -0.10993   0.00000   0.00000   0.00000   0.71399
  46        3PX         0.00000  -0.03517   0.00000   0.00000   0.00000
  47        3PY         0.00000   0.00000  -0.05402   0.00000   0.00000
  48        3PZ         0.00000   0.00000   0.00000  -0.05299   0.00000
  49        4S         -0.17639   0.00000   0.00000   0.00000   0.50886
  50        4PX         0.00000  -0.02030   0.00000   0.00000   0.00000
  51        4PY         0.00000   0.00000  -0.02346   0.00000   0.00000
  52        4PZ         0.00000   0.00000   0.00000  -0.02364   0.00000
  53 5   N  1S          0.00000   0.00000   0.00000   0.00000   0.00000
  54        2S          0.00000   0.00000   0.00000   0.00000   0.00000
  55        2PX         0.00000   0.00000   0.00000   0.00000  -0.00000
  56        2PY         0.00000   0.00000   0.00000   0.00000  -0.00000
  57        2PZ         0.00000   0.00000   0.00000   0.00000  -0.00000
  58        3S          0.00000   0.00000   0.00000   0.00000  -0.00000
  59        3PX         0.00000   0.00000   0.00000   0.00000  -0.00003
  60        3PY         0.00000   0.00000   0.00000   0.00000  -0.00000
  61        3PZ        -0.00000   0.00000   0.00000   0.00000  -0.00001
  62 6   H  1S         -0.00000  -0.00000  -0.00000  -0.00000   0.00000
  63        2S          0.00000  -0.00000  -0.00000  -0.00000  -0.00000
  64 7   H  1S          0.00000   0.00000   0.00000   0.00000  -0.00000
  65        2S         -0.00001  -0.00000   0.00000  -0.00000   0.00002
  66 8   H  1S          0.00000   0.00000   0.00000   0.00000  -0.00000
  67        2S         -0.00001  -0.00000   0.00000  -0.00000   0.00002
                          46        47        48        49        50
  46        3PX         0.58533
  47        3PY         0.00000   0.71394
  48        3PZ         0.00000   0.00000   0.70352
  49        4S          0.00000   0.00000   0.00000   0.68374
  50        4PX         0.29915  -0.00000   0.00000   0.00000   0.42114
  51        4PY         0.00000   0.37584   0.00000   0.00000   0.00000
  52        4PZ         0.00000   0.00000   0.37940   0.00000   0.00000
  53 5   N  1S          0.00000   0.00000   0.00000   0.00000   0.00001
  54        2S         -0.00000  -0.00000  -0.00000  -0.00002  -0.00007
  55        2PX        -0.00000  -0.00000  -0.00000  -0.00003  -0.00006
  56        2PY        -0.00000  -0.00000  -0.00000  -0.00000  -0.00000
  57        2PZ        -0.00000  -0.00000  -0.00000  -0.00008  -0.00030
  58        3S         -0.00008  -0.00000  -0.00016  -0.00061  -0.00199
  59        3PX        -0.00007  -0.00000  -0.00003  -0.00040  -0.00080
  60        3PY        -0.00000  -0.00002  -0.00000  -0.00000  -0.00000
  61        3PZ        -0.00027  -0.00000  -0.00034  -0.00125  -0.00406
  62 6   H  1S          0.00000   0.00000   0.00000   0.00000   0.00001
  63        2S          0.00000   0.00000   0.00000   0.00001   0.00009
  64 7   H  1S         -0.00000  -0.00000  -0.00000  -0.00000  -0.00002
  65        2S          0.00003  -0.00002  -0.00007   0.00038   0.00038
  66 8   H  1S         -0.00000  -0.00000  -0.00000  -0.00000  -0.00002
  67        2S          0.00003  -0.00002  -0.00007   0.00038   0.00038
                          51        52        53        54        55
  51        4PY         0.52932
  52        4PZ         0.00000   0.54845
  53 5   N  1S          0.00000   0.00001   2.04689
  54        2S         -0.00000  -0.00006   0.02045   0.10054
  55        2PX        -0.00000  -0.00011   0.00000   0.00000   0.32418
  56        2PY        -0.00001  -0.00000   0.00000   0.00000   0.00000
  57        2PZ        -0.00000  -0.00019   0.00000   0.00000   0.00000
  58        3S         -0.00000  -0.00333  -0.08118   0.21264   0.00000
  59        3PX        -0.00000  -0.00017   0.00000   0.00000   0.16708
  60        3PY        -0.00041  -0.00000   0.00000   0.00000   0.00000
  61        3PZ        -0.00000  -0.00363   0.00000   0.00000   0.00000
  62 6   H  1S          0.00000   0.00001  -0.00086   0.00722   0.04563
  63        2S          0.00000   0.00007   0.00142   0.00007   0.01845
  64 7   H  1S         -0.00001  -0.00005  -0.00086   0.00722   0.01112
  65        2S         -0.00017  -0.00049   0.00142   0.00007   0.00450
  66 8   H  1S         -0.00001  -0.00005  -0.00086   0.00722   0.01169
  67        2S         -0.00017  -0.00050   0.00142   0.00007   0.00473
                          56        57        58        59        60
  56        2PY         0.32417
  57        2PZ         0.00000   0.38431
  58        3S          0.00000   0.00000   1.11742
  59        3PX         0.00000   0.00000   0.00000   0.32476
  60        3PY         0.16708   0.00000   0.00000   0.00000   0.32475
  61        3PZ         0.00000   0.24737   0.00000   0.00000   0.00000
  62 6   H  1S          0.00000   0.00578   0.04608   0.10282   0.00001
  63        2S          0.00000   0.00268  -0.01207   0.05811   0.00000
  64 7   H  1S          0.03451   0.00578   0.04608   0.02506   0.07777
  65        2S          0.01396   0.00268  -0.01207   0.01417   0.04396
  66 8   H  1S          0.03393   0.00579   0.04607   0.02635   0.07646
  67        2S          0.01372   0.00269  -0.01207   0.01489   0.04321
                          61        62        63        64        65
  61        3PZ         0.60464
  62 6   H  1S          0.01531   0.15820
  63        2S          0.01043   0.05333   0.05230
  64 7   H  1S          0.01530  -0.00042  -0.00438   0.15820
  65        2S          0.01042  -0.00438  -0.00656   0.05333   0.05231
  66 8   H  1S          0.01533  -0.00042  -0.00438  -0.00042  -0.00438
  67        2S          0.01044  -0.00438  -0.00656  -0.00438  -0.00656
                          66        67
  66 8   H  1S          0.15820
  67        2S          0.05333   0.05231
     Gross orbital populations:
                           1
   1 1   Al 1S          1.99859
   2        2S          1.97540
   3        2PX         1.95989
   4        2PY         1.95990
   5        2PZ         1.95851
   6        3S          0.60085
   7        3PX         0.39802
   8        3PY         0.39797
   9        3PZ         0.25226
  10        4S         -0.02615
  11        4PX         0.00836
  12        4PY         0.00840
  13        4PZ         0.10399
  14 2   Cl 1S          1.99856
  15        2S          1.95806
  16        2PX         1.96888
  17        2PY         1.96654
  18        2PZ         1.96992
  19        3S          1.09677
  20        3PX         1.01616
  21        3PY         0.94544
  22        3PZ         1.04209
  23        4S          0.96145
  24        4PX         0.88277
  25        4PY         0.81835
  26        4PZ         0.92721
  27 3   Cl 1S          1.99856
  28        2S          1.95806
  29        2PX         1.96883
  30        2PY         1.96660
  31        2PZ         1.96992
  32        3S          1.09677
  33        3PX         1.01437
  34        3PY         0.94724
  35        3PZ         1.04209
  36        4S          0.96145
  37        4PX         0.88115
  38        4PY         0.81998
  39        4PZ         0.92721
  40 4   Cl 1S          1.99856
  41        2S          1.95806
  42        2PX         1.96543
  43        2PY         1.97000
  44        2PZ         1.96992
  45        3S          1.09677
  46        3PX         0.91181
  47        3PY         1.04979
  48        3PZ         1.04210
  49        4S          0.96145
  50        4PX         0.78774
  51        4PY         0.91338
  52        4PZ         0.92720
  53 5   N  1S          1.98718
  54        2S          0.35964
  55        2PX         0.58775
  56        2PY         0.58774
  57        2PZ         0.67654
  58        3S          1.36566
  59        3PX         0.73181
  60        3PY         0.73180
  61        3PZ         0.98193
  62 6   H  1S          0.42336
  63        2S          0.15575
  64 7   H  1S          0.42335
  65        2S          0.15575
  66 8   H  1S          0.42336
  67        2S          0.15576
          Condensed to atoms (all electrons):
               1          2          3          4          5          6
     1  Al  10.820652   0.218305   0.218285   0.218297   0.143959  -0.007840
     2  Cl   0.218305  17.387710  -0.017714  -0.017694  -0.018550  -0.000014
     3  Cl   0.218285  -0.017714  17.387764  -0.017693  -0.018563  -0.000012
     4  Cl   0.218297  -0.017694  -0.017693  17.387683  -0.018552   0.000179
     5  N    0.143959  -0.018550  -0.018563  -0.018552   7.018522   0.301081
     6  H   -0.007840  -0.000014  -0.000012   0.000179   0.301081   0.317169
     7  H   -0.007839   0.000179  -0.000013  -0.000013   0.301082  -0.015731
     8  H   -0.007838  -0.000013   0.000179  -0.000014   0.301081  -0.015731
               7          8
     1  Al  -0.007839  -0.007838
     2  Cl   0.000179  -0.000013
     3  Cl  -0.000013   0.000179
     4  Cl  -0.000013  -0.000014
     5  N    0.301082   0.301081
     6  H   -0.015731  -0.015731
     7  H    0.317176  -0.015731
     8  H   -0.015731   0.317183
 Mulliken charges:
               1
     1  Al   1.404018
     2  Cl  -0.552209
     3  Cl  -0.552233
     4  Cl  -0.552193
     5  N   -1.010059
     6  H    0.420900
     7  H    0.420892
     8  H    0.420884
 Sum of Mulliken charges =  -0.00000
 Mulliken charges with hydrogens summed into heavy atoms:
               1
     1  Al   1.404018
     2  Cl  -0.552209
     3  Cl  -0.552233
     4  Cl  -0.552193
     5  N    0.252617
 Electronic spatial extent (au):  <R**2>=           1184.1486
 Charge=             -0.0000 electrons
 Dipole moment (field-independent basis, Debye):
    X=              0.0014    Y=             -0.0012    Z=              7.9114  Tot=              7.9114
 Quadrupole moment (field-independent basis, Debye-Ang):
   XX=            -71.3542   YY=            -71.3504   ZZ=            -43.6385
   XY=             -0.0003   XZ=              0.0002   YZ=             -0.0036
 Traceless Quadrupole moment (field-independent basis, Debye-Ang):
   XX=             -9.2398   YY=             -9.2360   ZZ=             18.4759
   XY=             -0.0003   XZ=              0.0002   YZ=             -0.0036
 Octapole moment (field-independent basis, Debye-Ang**2):
  XXX=            -16.8357  YYY=             -0.3821  ZZZ=             44.5787  XYY=             16.8370
  XXY=              0.3739  XXZ=             13.9847  XZZ=              0.0012  YZZ=             -0.0043
  YYZ=             13.9832  XYZ=              0.0017
 Hexadecapole moment (field-independent basis, Debye-Ang**3):
 XXXX=           -694.9948 YYYY=           -694.8044 ZZZZ=           -196.8598 XXXY=             -0.0010
 XXXZ=              1.6080 YYYX=             -0.0006 YYYZ=              0.0250 ZZZX=              0.0027
 ZZZY=             -0.0136 XXYY=           -231.6333 XXZZ=           -146.2285 YYZZ=           -146.1979
 XXYZ=             -0.0427 YYXZ=             -1.6052 ZZXY=              0.0003
 N-N= 4.081538228504D+02 E-N=-4.790078264680D+03  KE= 1.666621118618D+03
 Orbital energies and kinetic energies (alpha):
                                 1                 2
   1         O              -104.093988        136.070867
   2         O              -104.093752        136.076867
   3         O              -104.093738        136.076880
   4         O               -58.196861         78.653527
   5         O               -15.632222         21.914773
   6         O               -10.485783         22.319953
   7         O               -10.485004         22.338912
   8         O               -10.484990         22.338926
   9         O                -7.948142         20.341359
  10         O                -7.948128         20.341331
  11         O                -7.948067         20.342850
  12         O                -7.945457         20.352335
  13         O                -7.945203         20.359621
  14         O                -7.945199         20.360152
  15         O                -7.945077         20.363749
  16         O                -7.945048         20.367916
  17         O                -7.945044         20.368270
  18         O                -4.990483         11.053235
  19         O                -3.296355          9.710283
  20         O                -3.296355          9.710296
  21         O                -3.294362          9.716572
  22         O                -1.310692          1.860297
  23         O                -1.089336          2.783443
  24         O                -1.071938          2.935311
  25         O                -1.071921          2.935338
  26         O                -0.788625          1.328730
  27         O                -0.788620          1.328731
  28         O                -0.691755          1.600033
  29         O                -0.555352          1.997122
  30         O                -0.509187          2.097046
  31         O                -0.509172          2.096988
  32         O                -0.470769          2.126486
  33         O                -0.463389          2.166619
  34         O                -0.463382          2.166684
  35         O                -0.455471          2.214290
  36         O                -0.455461          2.214350
  37         O                -0.445959          2.280415
  38         V                 0.099643          1.773982
  39         V                 0.126730          1.092788
  40         V                 0.173775          1.017520
  41         V                 0.173820          1.017467
  42         V                 0.242040          1.161215
  43         V                 0.242049          1.161259
  44         V                 0.251473          1.734292
  45         V                 0.330029          1.282969
  46         V                 0.374484          1.805387
  47         V                 0.374501          1.805612
  48         V                 0.397610          1.625463
  49         V                 0.753529          3.367599
  50         V                 0.753537          3.367491
  51         V                 0.780722          3.328769
  52         V                 0.780747          3.328804
  53         V                 0.797497          3.340290
  54         V                 0.878436          3.603392
  55         V                 0.904249          3.655842
  56         V                 0.904306          3.655796
  57         V                 0.962642          3.609785
  58         V                 1.015084          3.525606
  59         V                 1.015099          3.525914
  60         V                 1.124309          3.761795
  61         V                 1.173240          2.598414
  62         V                 1.173298          2.598641
  63         V                 1.196266          2.784043
  64         V                 1.433365          4.147082
  65         V                 1.433375          4.147109
  66         V                 1.530180          4.127806
  67         V                 2.548001          4.753374
 Total kinetic energy from orbitals= 1.666621118618D+03
 1\1\GINC-IISERK51\SP\RHF\3-21G\Al1Cl3H3N1\GAUSSIAN\13-Jun-2025\0\\# hf
 /3-21g pop=full geom=connectivity\\NH3 - AlCl3 Adduct Optimisation\\0,
 1\Al,0,0.000132,0.000023,0.005271\Cl,0,-1.065787,1.877185,-0.410467\Cl
 ,0,-1.093053,-1.861308,-0.410755\Cl,0,2.158705,-0.015671,-0.410674\N,0
 ,0.000064,-0.000358,1.981641\H,0,-0.95234,0.006269,2.334034\H,0,0.4704
 28,-0.828586,2.33393\H,0,0.482049,0.821014,2.33426\\Version=EM64L-G16R
 evB.01\State=1-A\HF=-1668.675037\RMSD=1.220e-09\Dipole=0.0005665,-0.00
 04532,3.1125976\Quadrupole=-6.8695952,-6.86675,13.7363452,-0.0001912,0
 .0001217,-0.0026649\PG=C01 [X(Al1Cl3H3N1)]\\@


 THERE ONCE WAS A GIRL NAMED IRENE,
 WHO LIVED ON DISTILLED KEROSENE,
      BUT SHE STARTED ABSORBIN'
      A NEW HYDROCARBON,
 AND SINCE THEN HAS NEVER BENZENE.
 Job cpu time:       0 days  0 hours  0 minutes  0.6 seconds.
 Elapsed time:       0 days  0 hours  0 minutes  0.6 seconds.
 File lengths (MBytes):  RWF=      6 Int=      0 D2E=      0 Chk=      1 Scr=      1
 Normal termination of Gaussian 16 at Fri Jun 13 22:27:36 2025.
