 Entering Gaussian System, Link 0=g16
 Input=/home/gaussian/Documents/Summer_Internship/Acid_Base_adduct/Adduct/NH3_AlCl3_opt.com
 Output=/home/gaussian/Documents/Summer_Internship/Acid_Base_adduct/Adduct/NH3_AlCl3_opt.log
 Initial command:
 /usr/local/g16/l1.exe "/home/gaussian/tmp/Gau-32813.inp" -scrdir="/home/gaussian/tmp/"
 Entering Link 1 = /usr/local/g16/l1.exe PID=     32816.
  
 Copyright (c) 1988-2017, Gaussian, Inc.  All Rights Reserved.
  
 This is part of the Gaussian(R) 16 program.  It is based on
 the Gaussian(R) 09 system (copyright 2009, Gaussian, Inc.),
 the Gaussian(R) 03 system (copyright 2003, Gaussian, Inc.),
 the Gaussian(R) 98 system (copyright 1998, Gaussian, Inc.),
 the Gaussian(R) 94 system (copyright 1995, Gaussian, Inc.),
 the Gaussian 92(TM) system (copyright 1992, Gaussian, Inc.),
 the Gaussian 90(TM) system (copyright 1990, Gaussian, Inc.),
 the Gaussian 88(TM) system (copyright 1988, Gaussian, Inc.),
 the Gaussian 86(TM) system (copyright 1986, Carnegie Mellon
 University), and the Gaussian 82(TM) system (copyright 1983,
 Carnegie Mellon University). Gaussian is a federally registered
 trademark of Gaussian, Inc.
  
 This software contains proprietary and confidential information,
 including trade secrets, belonging to Gaussian, Inc.
  
 This software is provided under written license and may be
 used, copied, transmitted, or stored only in accord with that
 written license.
  
 The following legend is applicable only to US Government
 contracts under FAR:
  
                    RESTRICTED RIGHTS LEGEND
  
 Use, reproduction and disclosure by the US Government is
 subject to restrictions as set forth in subparagraphs (a)
 and (c) of the Commercial Computer Software - Restricted
 Rights clause in FAR 52.227-19.
  
 Gaussian, Inc.
 340 Quinnipiac St., Bldg. 40, Wallingford CT 06492
  
  
 ---------------------------------------------------------------
 Warning -- This program may not be used in any manner that
 competes with the business of Gaussian, Inc. or will provide
 assistance to any competitor of Gaussian, Inc.  The licensee
 of this program is prohibited from giving any competitor of
 Gaussian, Inc. access to this program.  By using this program,
 the user acknowledges that Gaussian, Inc. is engaged in the
 business of creating and licensing software in the field of
 computational chemistry and represents and warrants to the
 licensee that it is not a competitor of Gaussian, Inc. and that
 it will not use this program in any manner prohibited above.
 ---------------------------------------------------------------
  

 Cite this work as:
 Gaussian 16, Revision B.01,
 M. J. Frisch, G. W. Trucks, H. B. Schlegel, G. E. Scuseria, 
 M. A. Robb, J. R. Cheeseman, G. Scalmani, V. Barone, 
 G. A. Petersson, H. Nakatsuji, X. Li, M. Caricato, A. V. Marenich, 
 J. Bloino, B. G. Janesko, R. Gomperts, B. Mennucci, H. P. Hratchian, 
 J. V. Ortiz, A. F. Izmaylov, J. L. Sonnenberg, D. Williams-Young, 
 F. Ding, F. Lipparini, F. Egidi, J. Goings, B. Peng, A. Petrone, 
 T. Henderson, D. Ranasinghe, V. G. Zakrzewski, J. Gao, N. Rega, 
 G. Zheng, W. Liang, M. Hada, M. Ehara, K. Toyota, R. Fukuda, 
 J. Hasegawa, M. Ishida, T. Nakajima, Y. Honda, O. Kitao, H. Nakai, 
 T. Vreven, K. Throssell, J. A. Montgomery, Jr., J. E. Peralta, 
 F. Ogliaro, M. J. Bearpark, J. J. Heyd, E. N. Brothers, K. N. Kudin, 
 V. N. Staroverov, T. A. Keith, R. Kobayashi, J. Normand, 
 K. Raghavachari, A. P. Rendell, J. C. Burant, S. S. Iyengar, 
 J. Tomasi, M. Cossi, J. M. Millam, M. Klene, C. Adamo, R. Cammi, 
 J. W. Ochterski, R. L. Martin, K. Morokuma, O. Farkas, 
 J. B. Foresman, and D. J. Fox, Gaussian, Inc., Wallingford CT, 2016.
 
 ******************************************
 Gaussian 16:  EM64L-G16RevB.01 20-Dec-2017
                13-Jun-2025 
 ******************************************
 %chk=NH3_AlCl3_opt.chk
 ----------------------------------------------
 # opt freq hf/3-21g pop=full geom=connectivity
 ----------------------------------------------
 1/18=20,19=15,38=1,57=2/1,3;
 2/9=110,12=2,17=6,18=5,40=1/2;
 3/5=5,11=9,25=1,30=1,71=1/1,2,3;
 4//1;
 5/5=2,38=5/2;
 6/7=3,28=1/1;
 7//1,2,3,16;
 1/18=20,19=15/3(2);
 2/9=110/2;
 99//99;
 2/9=110/2;
 3/5=5,11=9,25=1,30=1,71=1/1,2,3;
 4/5=5,16=3,69=1/1;
 5/5=2,38=5/2;
 7//1,2,3,16;
 1/18=20,19=15/3(-5);
 2/9=110/2;
 6/7=3,19=2,28=1/1;
 99/9=1/99;
 -------------------------------
 NH3 - AlCl3 Adduct Optimisation
 -------------------------------
 Symbolic Z-matrix:
 Charge =  0 Multiplicity = 1
 Al                   -3.26563  -0.26382  -1.11642 
 Cl                   -1.02563  -0.26382  -1.11642 
 Cl                   -4.38563  -2.20371  -1.11642 
 Cl                   -4.38563   1.67608  -1.11642 
 N                    -3.76604  -0.75246  -2.99015 
 H                    -3.05891  -1.3416   -3.38115 
 H                    -4.63997  -1.23849  -2.9858 
 H                    -3.84944   0.0784   -3.54035 
 

 GradGradGradGradGradGradGradGradGradGradGradGradGradGradGradGradGradGrad
 Berny optimization.
 Initialization pass.
                           ----------------------------
                           !    Initial Parameters    !
                           ! (Angstroms and Degrees)  !
 --------------------------                            --------------------------
 ! Name  Definition              Value          Derivative Info.                !
 --------------------------------------------------------------------------------
 ! R1    R(1,2)                  2.24           estimate D2E/DX2                !
 ! R2    R(1,3)                  2.24           estimate D2E/DX2                !
 ! R3    R(1,4)                  2.24           estimate D2E/DX2                !
 ! R4    R(1,5)                  2.0            estimate D2E/DX2                !
 ! R5    R(5,6)                  1.0            estimate D2E/DX2                !
 ! R6    R(5,7)                  1.0            estimate D2E/DX2                !
 ! R7    R(5,8)                  1.0            estimate D2E/DX2                !
 ! A1    A(2,1,3)              120.0            estimate D2E/DX2                !
 ! A2    A(2,1,4)              120.0            estimate D2E/DX2                !
 ! A3    A(2,1,5)              104.4895         estimate D2E/DX2                !
 ! A4    A(3,1,4)              120.0            estimate D2E/DX2                !
 ! A5    A(3,1,5)               70.3248         estimate D2E/DX2                !
 ! A6    A(4,1,5)               94.9614         estimate D2E/DX2                !
 ! A7    A(1,5,6)              109.4712         estimate D2E/DX2                !
 ! A8    A(1,5,7)              109.4712         estimate D2E/DX2                !
 ! A9    A(1,5,8)              109.4712         estimate D2E/DX2                !
 ! A10   A(6,5,7)              109.4712         estimate D2E/DX2                !
 ! A11   A(6,5,8)              109.4712         estimate D2E/DX2                !
 ! A12   A(7,5,8)              109.4712         estimate D2E/DX2                !
 ! D1    D(2,1,5,6)             30.0            estimate D2E/DX2                !
 ! D2    D(2,1,5,7)            150.0            estimate D2E/DX2                !
 ! D3    D(2,1,5,8)            -90.0            estimate D2E/DX2                !
 ! D4    D(3,1,5,6)            -87.1321         estimate D2E/DX2                !
 ! D5    D(3,1,5,7)             32.8679         estimate D2E/DX2                !
 ! D6    D(3,1,5,8)            152.8679         estimate D2E/DX2                !
 ! D7    D(4,1,5,6)            152.7382         estimate D2E/DX2                !
 ! D8    D(4,1,5,7)            -87.2618         estimate D2E/DX2                !
 ! D9    D(4,1,5,8)             32.7382         estimate D2E/DX2                !
 --------------------------------------------------------------------------------
 Trust Radius=3.00D-01 FncErr=1.00D-07 GrdErr=1.00D-07 EigMax=2.50D+02 EigMin=1.00D-04
 Number of steps in this run=     38 maximum allowed number of steps=    100.
 GradGradGradGradGradGradGradGradGradGradGradGradGradGradGradGradGradGrad

                          Input orientation:                          
 ---------------------------------------------------------------------
 Center     Atomic      Atomic             Coordinates (Angstroms)
 Number     Number       Type             X           Y           Z
 ---------------------------------------------------------------------
      1         13           0       -3.265634   -0.263818   -1.116425
      2         17           0       -1.025634   -0.263818   -1.116425
      3         17           0       -4.385634   -2.203715   -1.116425
      4         17           0       -4.385634    1.676079   -1.116425
      5          7           0       -3.766038   -0.752456   -2.990146
      6          1           0       -3.058912   -1.341595   -3.381153
      7          1           0       -4.639966   -1.238493   -2.985798
      8          1           0       -3.849439    0.078402   -3.540346
 ---------------------------------------------------------------------
                    Distance matrix (angstroms):
                    1          2          3          4          5
     1  Al   0.000000
     2  Cl   2.240000   0.000000
     3  Cl   2.240000   3.879794   0.000000
     4  Cl   2.240000   3.879794   3.879794   0.000000
     5  N    2.000000   3.355504   2.449670   3.129299   0.000000
     6  H    2.516611   3.228749   2.762686   3.999443   1.000000
     7  H    2.516611   4.184249   2.119173   3.471883   1.000000
     8  H    2.516611   3.737162   3.372084   2.952197   1.000000
                    6          7          8
     6  H    0.000000
     7  H    1.632993   0.000000
     8  H    1.632993   1.632993   0.000000
 Stoichiometry    AlCl3H3N
 Framework group  C1[X(AlCl3H3N)]
 Deg. of freedom    18
 Full point group                 C1      NOp   1
 Largest Abelian subgroup         C1      NOp   1
 Largest concise Abelian subgroup C1      NOp   1
                         Standard orientation:                         
 ---------------------------------------------------------------------
 Center     Atomic      Atomic             Coordinates (Angstroms)
 Number     Number       Type             X           Y           Z
 ---------------------------------------------------------------------
      1         13           0       -0.130124    0.000000   -0.252192
      2         17           0       -1.721422   -1.564965   -0.061786
      3         17           0        2.011225   -0.605452   -0.508415
      4         17           0       -0.680176    2.170417   -0.186376
      5          7           0        0.786941   -0.000000    1.525163
      6          1           0        0.739737   -0.915541    1.924608
      7          1           0        1.744426    0.262821    1.406217
      8          1           0        0.335193    0.652720    2.133341
 ---------------------------------------------------------------------
 Rotational constants (GHZ):           1.5836986           1.5372655           0.9381360
 Standard basis: 3-21G (6D, 7F)
 There are    67 symmetry adapted cartesian basis functions of A   symmetry.
 There are    67 symmetry adapted basis functions of A   symmetry.
    67 basis functions,   132 primitive gaussians,    67 cartesian basis functions
    37 alpha electrons       37 beta electrons
       nuclear repulsion energy       409.2396393971 Hartrees.
 NAtoms=    8 NActive=    8 NUniq=    8 SFac= 1.00D+00 NAtFMM=   60 NAOKFM=F Big=F
 Integral buffers will be    131072 words long.
 Raffenetti 1 integral format.
 Two-electron integral symmetry is turned on.
 One-electron integrals computed using PRISM.
 NBasis=    67 RedAO= T EigKep=  2.38D-02  NBF=    67
 NBsUse=    67 1.00D-06 EigRej= -1.00D+00 NBFU=    67
 ExpMin= 6.39D-02 ExpMax= 1.38D+03 ExpMxC= 1.38D+03 IAcc=3 IRadAn=         5 AccDes= 0.00D+00
 Harris functional with IExCor=  205 and IRadAn=       5 diagonalized for initial guess.
 HarFok:  IExCor=  205 AccDes= 0.00D+00 IRadAn=         5 IDoV= 1 UseB2=F ITyADJ=14
 ICtDFT=  3500011 ScaDFX=  1.000000  1.000000  1.000000  1.000000
 FoFCou: FMM=F IPFlag=           0 FMFlag=      100000 FMFlg1=           0
         NFxFlg=           0 DoJE=T BraDBF=F KetDBF=T FulRan=T
         wScrn=  0.000000 ICntrl=       500 IOpCl=  0 I1Cent=   200000004 NGrid=           0
         NMat0=    1 NMatS0=      1 NMatT0=    0 NMatD0=    1 NMtDS0=    0 NMtDT0=    0
 Petite list used in FoFCou.
 Keep R1 ints in memory in canonical form, NReq=3416251.
 Requested convergence on RMS density matrix=1.00D-08 within 128 cycles.
 Requested convergence on MAX density matrix=1.00D-06.
 Requested convergence on             energy=1.00D-06.
 No special actions if energy rises.
 SCF Done:  E(RHF) =  -1668.62083484     A.U. after   11 cycles
            NFock= 11  Conv=0.94D-08     -V/T= 2.0011

 **********************************************************************

            Population analysis using the SCF Density.

 **********************************************************************

 Orbital symmetries:
       Occupied  (A) (A) (A) (A) (A) (A) (A) (A) (A) (A) (A) (A)
                 (A) (A) (A) (A) (A) (A) (A) (A) (A) (A) (A) (A)
                 (A) (A) (A) (A) (A) (A) (A) (A) (A) (A) (A) (A)
                 (A)
       Virtual   (A) (A) (A) (A) (A) (A) (A) (A) (A) (A) (A) (A)
                 (A) (A) (A) (A) (A) (A) (A) (A) (A) (A) (A) (A)
                 (A) (A) (A) (A) (A) (A)
 The electronic state is 1-A.
 Alpha  occ. eigenvalues -- -104.11031-104.10495-104.08652 -58.21476 -15.58504
 Alpha  occ. eigenvalues --  -10.50069 -10.49571 -10.47970  -7.96350  -7.96068
 Alpha  occ. eigenvalues --   -7.96056  -7.95855  -7.95577  -7.95566  -7.94232
 Alpha  occ. eigenvalues --   -7.94007  -7.93955  -5.00572  -3.31150  -3.31145
 Alpha  occ. eigenvalues --   -3.30993  -1.29031  -1.09143  -1.07997  -1.07754
 Alpha  occ. eigenvalues --   -0.76985  -0.76600  -0.67389  -0.54591  -0.51230
 Alpha  occ. eigenvalues --   -0.50808  -0.47532  -0.46999  -0.46542  -0.46492
 Alpha  occ. eigenvalues --   -0.45511  -0.44453
 Alpha virt. eigenvalues --    0.02404   0.13842   0.16371   0.16999   0.23450
 Alpha virt. eigenvalues --    0.26946   0.27704   0.33619   0.35891   0.36999
 Alpha virt. eigenvalues --    0.39798   0.73989   0.74883   0.78102   0.78240
 Alpha virt. eigenvalues --    0.83304   0.86023   0.87822   0.89697   0.90879
 Alpha virt. eigenvalues --    1.00818   1.02852   1.05888   1.16766   1.22704
 Alpha virt. eigenvalues --    1.27752   1.46828   1.51282   1.52792   2.57671
     Molecular Orbital Coefficients:
                           1         2         3         4         5
                           O         O         O         O         O
     Eigenvalues --  -104.11031-104.10495-104.08652 -58.21476 -15.58504
   1 1   Al 1S         -0.00001  -0.00001  -0.00001   0.98850   0.00011
   2        2S          0.00027   0.00026   0.00024   0.04457  -0.00037
   3        2PX         0.00002   0.00001  -0.00001   0.00010  -0.00026
   4        2PY         0.00001  -0.00002   0.00002   0.00001  -0.00003
   5        2PZ         0.00002   0.00002  -0.00001   0.00021  -0.00062
   6        3S          0.00065   0.00066   0.00070  -0.01128   0.00415
   7        3PX         0.00039   0.00017  -0.00061  -0.00063   0.00210
   8        3PY         0.00043  -0.00057   0.00009  -0.00007   0.00020
   9        3PZ        -0.00011  -0.00006   0.00030  -0.00141   0.00509
  10        4S         -0.00586  -0.00562  -0.00554  -0.00382  -0.00053
  11        4PX         0.00191   0.00007  -0.00359  -0.00083  -0.00146
  12        4PY         0.00262  -0.00359   0.00100  -0.00004   0.00071
  13        4PZ        -0.00161  -0.00127  -0.00094  -0.00189  -0.00210
  14 2   Cl 1S          0.98582  -0.01007  -0.00294  -0.00002   0.00000
  15        2S          0.05318  -0.00051  -0.00012   0.00011  -0.00004
  16        2PX         0.00018  -0.00002   0.00006   0.00002  -0.00001
  17        2PY         0.00016   0.00006  -0.00003   0.00001  -0.00001
  18        2PZ         0.00000   0.00003   0.00002   0.00004  -0.00001
  19        3S         -0.02006  -0.00011  -0.00035  -0.00206   0.00058
  20        3PX        -0.00071   0.00011  -0.00035  -0.00034   0.00011
  21        3PY        -0.00064  -0.00032   0.00015  -0.00025   0.00013
  22        3PZ        -0.00003  -0.00017  -0.00008  -0.00021   0.00007
  23        4S          0.01431   0.00036   0.00075   0.00403  -0.00090
  24        4PX         0.00224  -0.00025   0.00110   0.00215  -0.00035
  25        4PY         0.00200   0.00099  -0.00037   0.00185  -0.00049
  26        4PZ         0.00011   0.00046   0.00024   0.00052  -0.00021
  27 3   Cl 1S          0.00296   0.00285   0.98586  -0.00002  -0.00001
  28        2S          0.00019   0.00018   0.05321   0.00008   0.00006
  29        2PX        -0.00003   0.00000  -0.00022   0.00002  -0.00010
  30        2PY        -0.00005   0.00006   0.00007  -0.00000  -0.00001
  31        2PZ         0.00000  -0.00001   0.00005  -0.00002   0.00002
  32        3S         -0.00054  -0.00042  -0.02026  -0.00188  -0.00038
  33        3PX         0.00019   0.00000   0.00092   0.00018   0.00058
  34        3PY         0.00029  -0.00036  -0.00029  -0.00006   0.00006
  35        3PZ        -0.00003   0.00005  -0.00029   0.00008  -0.00024
  36        4S          0.00115   0.00094   0.01467   0.00422   0.00014
  37        4PX        -0.00080  -0.00022  -0.00291  -0.00249  -0.00088
  38        4PY        -0.00079   0.00110   0.00090   0.00071  -0.00053
  39        4PZ         0.00023  -0.00002   0.00091   0.00021   0.00023
  40 4   Cl 1S          0.01005   0.98582  -0.00289  -0.00002   0.00001
  41        2S          0.00057   0.05317  -0.00013   0.00010  -0.00004
  42        2PX        -0.00005   0.00007   0.00006   0.00001   0.00002
  43        2PY        -0.00004  -0.00022   0.00000  -0.00000  -0.00000
  44        2PZ         0.00002   0.00000   0.00001   0.00002   0.00000
  45        3S         -0.00055  -0.02001  -0.00030  -0.00208   0.00091
  46        3PX         0.00026  -0.00029  -0.00036  -0.00014  -0.00010
  47        3PY         0.00021   0.00087   0.00001   0.00031  -0.00008
  48        3PZ        -0.00014  -0.00002  -0.00003  -0.00011   0.00004
  49        4S          0.00080   0.01429   0.00070   0.00426  -0.00183
  50        4PX        -0.00070   0.00093   0.00112   0.00092  -0.00004
  51        4PY        -0.00075  -0.00278  -0.00022  -0.00268   0.00087
  52        4PZ         0.00043   0.00014   0.00015   0.00044  -0.00023
  53 5   N  1S         -0.00002  -0.00002   0.00001  -0.00019   0.98563
  54        2S         -0.00012  -0.00016   0.00009  -0.00143   0.09975
  55        2PX         0.00015   0.00012   0.00018   0.00045   0.00047
  56        2PY         0.00005   0.00003  -0.00020  -0.00006  -0.00006
  57        2PZ         0.00010   0.00003  -0.00009   0.00039   0.00123
  58        3S          0.00021   0.00047   0.00017   0.00330  -0.05341
  59        3PX        -0.00073  -0.00063  -0.00082  -0.00214  -0.00140
  60        3PY        -0.00022   0.00002   0.00100   0.00032   0.00007
  61        3PZ        -0.00054  -0.00038   0.00030  -0.00226  -0.00265
  62 6   H  1S         -0.00018  -0.00005   0.00014  -0.00048   0.00172
  63        2S          0.00108   0.00023   0.00124   0.00116   0.00925
  64 7   H  1S          0.00019  -0.00003   0.00010  -0.00021   0.00167
  65        2S          0.00016   0.00086  -0.00018   0.00067   0.00933
  66 8   H  1S         -0.00020  -0.00013  -0.00048  -0.00074   0.00170
  67        2S          0.00094   0.00087   0.00047   0.00090   0.00905
                           6         7         8         9        10
                           O         O         O         O         O
     Eigenvalues --   -10.50069 -10.49571 -10.47970  -7.96350  -7.96068
   1 1   Al 1S          0.00008   0.00007   0.00006  -0.00001   0.00001
   2        2S         -0.00155  -0.00141  -0.00130   0.00013  -0.00050
   3        2PX        -0.00010  -0.00004   0.00004  -0.00024   0.00000
   4        2PY        -0.00002   0.00006  -0.00009  -0.00021  -0.00001
   5        2PZ        -0.00011  -0.00011   0.00006  -0.00000   0.00010
   6        3S         -0.00386  -0.00373  -0.00394   0.00145  -0.00245
   7        3PX        -0.00225  -0.00091   0.00356  -0.00237  -0.00043
   8        3PY        -0.00238   0.00335  -0.00053  -0.00234  -0.00009
   9        3PZ         0.00052   0.00027  -0.00169   0.00027  -0.00097
  10        4S          0.03421   0.03131   0.03087   0.01278   0.00898
  11        4PX        -0.01077   0.00005   0.02058  -0.00197   0.00439
  12        4PY        -0.01449   0.02087  -0.00578  -0.00304  -0.00005
  13        4PZ         0.00923   0.00698   0.00507   0.00272   0.00940
  14 2   Cl 1S         -0.30566   0.01096   0.00339   0.00320   0.00017
  15        2S          0.98193  -0.03528  -0.01096  -0.01112  -0.00062
  16        2PX         0.00599  -0.00014  -0.00031   0.68394   0.22487
  17        2PY         0.00583  -0.00043   0.00005   0.68221  -0.05925
  18        2PZ        -0.00076  -0.00009  -0.00005  -0.12002   0.94575
  19        3S          0.14737  -0.00358   0.00058   0.00712   0.00114
  20        3PX         0.00514  -0.00073   0.00183   0.05797   0.01871
  21        3PY         0.00474   0.00159  -0.00088   0.05771  -0.00471
  22        3PZ         0.00008   0.00091   0.00043  -0.00985   0.07734
  23        4S         -0.08306   0.00025  -0.00340  -0.01346  -0.00216
  24        4PX        -0.01298   0.00172  -0.00601  -0.02218  -0.00710
  25        4PY        -0.01176  -0.00517   0.00222  -0.02174   0.00098
  26        4PZ        -0.00064  -0.00253  -0.00127   0.00283  -0.02513
  27 3   Cl 1S         -0.00344  -0.00322  -0.30581   0.00002   0.00004
  28        2S          0.01096   0.01028   0.98232  -0.00010  -0.00017
  29        2PX         0.00004  -0.00009  -0.00704   0.00042  -0.00020
  30        2PY         0.00023  -0.00023   0.00219  -0.00034   0.00030
  31        2PZ        -0.00001   0.00004   0.00077  -0.00043   0.00258
  32        3S          0.00428   0.00344   0.14868   0.00116   0.00154
  33        3PX        -0.00108  -0.00003  -0.00655  -0.00008  -0.00011
  34        3PY        -0.00151   0.00198   0.00208  -0.00014   0.00007
  35        3PZ         0.00018  -0.00023   0.00185  -0.00008   0.00065
  36        4S         -0.00714  -0.00569  -0.08492  -0.00316  -0.00449
  37        4PX         0.00460   0.00119   0.01676   0.00134   0.00111
  38        4PY         0.00423  -0.00630  -0.00522   0.00050  -0.00035
  39        4PZ        -0.00129   0.00010  -0.00509  -0.00019  -0.00169
  40 4   Cl 1S         -0.01087  -0.30566   0.00339   0.00002   0.00006
  41        2S          0.03487   0.98196  -0.01094  -0.00010  -0.00022
  42        2PX         0.00026   0.00199  -0.00028   0.00009   0.01024
  43        2PY        -0.00015  -0.00802   0.00009   0.00058  -0.00758
  44        2PZ        -0.00011  -0.00029  -0.00002   0.00163   0.01851
  45        3S          0.00707   0.14711   0.00030   0.00116   0.00113
  46        3PX        -0.00133   0.00209   0.00195  -0.00002   0.00124
  47        3PY        -0.00130  -0.00642   0.00001  -0.00011  -0.00081
  48        3PZ         0.00074   0.00008   0.00017   0.00026   0.00228
  49        4S         -0.00649  -0.08289  -0.00308  -0.00284  -0.00269
  50        4PX         0.00374  -0.00552  -0.00624   0.00026  -0.00163
  51        4PY         0.00453   0.01611   0.00101   0.00136   0.00113
  52        4PZ        -0.00240  -0.00073  -0.00080  -0.00057  -0.00286
  53 5   N  1S          0.00008   0.00011  -0.00002   0.00003   0.00003
  54        2S          0.00060   0.00074  -0.00042   0.00018   0.00013
  55        2PX        -0.00080  -0.00060  -0.00090  -0.00002   0.00002
  56        2PY        -0.00024  -0.00013   0.00099   0.00008   0.00017
  57        2PZ        -0.00048  -0.00016   0.00045  -0.00010  -0.00013
  58        3S         -0.00113  -0.00245  -0.00108  -0.00071  -0.00063
  59        3PX         0.00402   0.00335   0.00429   0.00057   0.00048
  60        3PY         0.00115  -0.00023  -0.00536  -0.00010  -0.00051
  61        3PZ         0.00300   0.00208  -0.00152   0.00105   0.00132
  62 6   H  1S          0.00096   0.00019  -0.00071  -0.00007  -0.00050
  63        2S         -0.00618  -0.00120  -0.00687  -0.00145  -0.00168
  64 7   H  1S         -0.00100   0.00018  -0.00049   0.00001   0.00040
  65        2S         -0.00096  -0.00483   0.00116  -0.00051  -0.00237
  66 8   H  1S          0.00106   0.00068   0.00246   0.00034   0.00052
  67        2S         -0.00538  -0.00482  -0.00260  -0.00201  -0.00365
                          11        12        13        14        15
                           O         O         O         O         O
     Eigenvalues --    -7.96056  -7.95855  -7.95577  -7.95566  -7.94232
   1 1   Al 1S          0.00000   0.00002   0.00000  -0.00000   0.00003
   2        2S          0.00006  -0.00025  -0.00023  -0.00016  -0.00034
   3        2PX         0.00002   0.00006   0.00005  -0.00003  -0.00035
   4        2PY        -0.00003  -0.00031   0.00002  -0.00002   0.00009
   5        2PZ        -0.00000  -0.00000   0.00011   0.00003  -0.00005
   6        3S          0.00047  -0.00170  -0.00135  -0.00108  -0.00165
   7        3PX        -0.00002   0.00109  -0.00061   0.00000  -0.00287
   8        3PY         0.00015  -0.00317   0.00035   0.00023   0.00091
   9        3PZ         0.00009   0.00004  -0.00089  -0.00036   0.00120
  10        4S         -0.00096  -0.01112   0.00475   0.00284  -0.01042
  11        4PX        -0.00862   0.00014   0.00240   0.01228  -0.00465
  12        4PY         0.00899  -0.00410  -0.00168   0.00308   0.00122
  13        4PZ         0.00114  -0.00152   0.00714   0.00001  -0.00079
  14 2   Cl 1S         -0.00002  -0.00002   0.00001  -0.00007  -0.00002
  15        2S          0.00008   0.00009  -0.00007   0.00031   0.00007
  16        2PX        -0.65557   0.00086  -0.00830  -0.00660  -0.00008
  17        2PY         0.69233  -0.00035   0.00267   0.00590  -0.00058
  18        2PZ         0.19940   0.00823  -0.01890  -0.00408   0.00039
  19        3S         -0.00015  -0.00096   0.00082  -0.00288  -0.00080
  20        3PX        -0.05391   0.00002  -0.00032  -0.00036  -0.00016
  21        3PY         0.05689  -0.00018   0.00017   0.00009   0.00001
  22        3PZ         0.01627   0.00053  -0.00082  -0.00017  -0.00001
  23        4S          0.00039   0.00222  -0.00195   0.00759   0.00196
  24        4PX         0.01838   0.00032  -0.00106   0.00034   0.00125
  25        4PY        -0.01916   0.00126  -0.00016   0.00211   0.00000
  26        4PZ        -0.00517   0.00019  -0.00158  -0.00040   0.00006
  27 3   Cl 1S         -0.00007  -0.00001   0.00001   0.00007  -0.00289
  28        2S          0.00031   0.00004  -0.00007  -0.00032   0.01008
  29        2PX         0.00082  -0.00084  -0.00005  -0.00027   0.93944
  30        2PY         0.00182   0.00002  -0.00089   0.00121  -0.25285
  31        2PZ         0.00228   0.00149   0.00230  -0.00284  -0.03228
  32        3S         -0.00295  -0.00073   0.00071   0.00303  -0.00725
  33        3PX         0.00037  -0.00007  -0.00005  -0.00018   0.07969
  34        3PY         0.00049  -0.00012  -0.00018   0.00037  -0.02142
  35        3PZ         0.00053   0.00032   0.00053  -0.00057  -0.00302
  36        4S          0.00813   0.00219  -0.00228  -0.00849   0.01343
  37        4PX        -0.00237  -0.00060   0.00054   0.00177  -0.03018
  38        4PY        -0.00101   0.00097   0.00023  -0.00162   0.00811
  39        4PZ        -0.00066  -0.00034  -0.00138   0.00068   0.00224
  40 4   Cl 1S          0.00007  -0.00315   0.00018   0.00005  -0.00002
  41        2S         -0.00033   0.01092  -0.00065  -0.00019   0.00007
  42        2PX        -0.00771  -0.22222   0.13665   0.93839   0.00029
  43        2PY        -0.00245   0.94427  -0.04993   0.23129   0.00098
  44        2PZ        -0.00264   0.08072   0.96306  -0.12135  -0.00009
  45        3S          0.00306  -0.00688   0.00064   0.00056  -0.00074
  46        3PX        -0.00096  -0.01891   0.01133   0.07722  -0.00013
  47        3PY        -0.00046   0.07984  -0.00424   0.01891   0.00008
  48        3PZ        -0.00029   0.00663   0.07864  -0.00985   0.00000
  49        4S         -0.00813   0.01294  -0.00092  -0.00122   0.00189
  50        4PX         0.00112   0.00743  -0.00406  -0.02629   0.00105
  51        4PY         0.00227  -0.02994   0.00191  -0.00595  -0.00057
  52        4PZ         0.00016  -0.00180  -0.02511   0.00298  -0.00000
  53 5   N  1S         -0.00000  -0.00001   0.00002  -0.00001   0.00011
  54        2S          0.00000   0.00005   0.00001  -0.00013   0.00077
  55        2PX        -0.00003   0.00003  -0.00013   0.00008   0.00029
  56        2PY         0.00005   0.00036  -0.00033  -0.00005  -0.00010
  57        2PZ        -0.00007  -0.00015   0.00028   0.00005  -0.00010
  58        3S          0.00028   0.00049  -0.00089  -0.00011  -0.00237
  59        3PX         0.00000  -0.00065   0.00106  -0.00017  -0.00226
  60        3PY        -0.00022  -0.00119   0.00084   0.00002   0.00108
  61        3PZ         0.00007  -0.00013  -0.00063   0.00027   0.00146
  62 6   H  1S         -0.00021  -0.00045   0.00099  -0.00006   0.00029
  63        2S          0.00154   0.00043  -0.00301  -0.00052   0.00132
  64 7   H  1S         -0.00016   0.00016  -0.00031   0.00027  -0.00009
  65        2S          0.00122   0.00135  -0.00147  -0.00232   0.00194
  66 8   H  1S          0.00040   0.00021  -0.00076  -0.00024  -0.00058
  67        2S         -0.00172   0.00091   0.00138  -0.00016   0.00059
                          16        17        18        19        20
                           O         O         O         O         O
     Eigenvalues --    -7.94007  -7.93955  -5.00572  -3.31150  -3.31145
   1 1   Al 1S         -0.00001   0.00000  -0.28396   0.00006   0.00009
   2        2S          0.00026  -0.00005   1.01032  -0.00027  -0.00027
   3        2PX        -0.00003  -0.00005  -0.00202   0.48803   0.74464
   4        2PY        -0.00002  -0.00005  -0.00016   0.81019  -0.54657
   5        2PZ         0.00014  -0.00003  -0.00514  -0.24792  -0.32111
   6        3S          0.00140  -0.00022   0.09722  -0.00026   0.00049
   7        3PX         0.00117   0.00025   0.00320   0.04740   0.07174
   8        3PY        -0.00018   0.00040   0.00014   0.07807  -0.05240
   9        3PZ        -0.00094   0.00011   0.00636  -0.02161  -0.02775
  10        4S         -0.00263   0.00050  -0.02369   0.00114  -0.00118
  11        4PX        -0.00199   0.00282  -0.00178  -0.01133  -0.02035
  12        4PY         0.00351   0.01081   0.00034  -0.02030   0.01416
  13        4PZ         0.00383  -0.00121  -0.00123   0.00768   0.00888
  14 2   Cl 1S         -0.00002  -0.00007   0.00003  -0.00007  -0.00001
  15        2S          0.00007   0.00031  -0.00009   0.00015   0.00001
  16        2PX         0.00169   0.00112  -0.00003   0.00012  -0.00007
  17        2PY        -0.00156  -0.00090  -0.00005   0.00008   0.00010
  18        2PZ        -0.00325   0.00021  -0.00001  -0.00004  -0.00001
  19        3S         -0.00074  -0.00291   0.00372  -0.00162  -0.00007
  20        3PX        -0.00017  -0.00026   0.00058   0.00064   0.00051
  21        3PY         0.00008   0.00000   0.00065   0.00082  -0.00018
  22        3PZ         0.00023  -0.00000   0.00005   0.00006   0.00004
  23        4S          0.00181   0.00759  -0.00666   0.00619   0.00064
  24        4PX         0.00114   0.00220  -0.00628   0.00928   0.00032
  25        4PY        -0.00029   0.00047  -0.00641   0.00851   0.00279
  26        4PZ        -0.00127  -0.00006   0.00032  -0.00139  -0.00018
  27 3   Cl 1S          0.00032   0.00003   0.00002   0.00003   0.00006
  28        2S         -0.00118  -0.00008   0.00001  -0.00010  -0.00007
  29        2PX         0.10091   0.23424  -0.00007  -0.00001   0.00006
  30        2PY         0.25549   0.90522   0.00000  -0.00016  -0.00002
  31        2PZ         0.93440  -0.27288   0.00001  -0.00006  -0.00004
  32        3S          0.00159  -0.00018   0.00312   0.00135   0.00085
  33        3PX         0.00817   0.01942  -0.00030   0.00051   0.00127
  34        3PY         0.02146   0.07460   0.00016   0.00062  -0.00030
  35        3PZ         0.07748  -0.02233   0.00003   0.00027   0.00003
  36        4S         -0.00109   0.00015  -0.00565  -0.00380  -0.00428
  37        4PX        -0.00222  -0.00677   0.00802   0.00312   0.01055
  38        4PY        -0.00815  -0.02504  -0.00253  -0.00366  -0.00295
  39        4PZ        -0.02683   0.00710  -0.00115  -0.00152  -0.00190
  40 4   Cl 1S          0.00001   0.00007   0.00003   0.00005  -0.00006
  41        2S         -0.00005  -0.00033  -0.00007  -0.00008   0.00011
  42        2PX         0.00247  -0.00180   0.00003  -0.00012  -0.00004
  43        2PY        -0.00064   0.00009   0.00003   0.00005  -0.00013
  44        2PZ        -0.00252   0.00185   0.00001   0.00002   0.00001
  45        3S          0.00051   0.00305   0.00376   0.00108  -0.00117
  46        3PX        -0.00005   0.00019   0.00006   0.00025   0.00047
  47        3PY         0.00001  -0.00015  -0.00078   0.00091  -0.00069
  48        3PZ         0.00010  -0.00008  -0.00000  -0.00002  -0.00008
  49        4S         -0.00173  -0.00795  -0.00692  -0.00442   0.00448
  50        4PX         0.00039  -0.00160  -0.00201  -0.00389   0.00142
  51        4PY         0.00020   0.00166   0.00895   0.00814  -0.00965
  52        4PZ        -0.00086   0.00060  -0.00000   0.00033   0.00001
  53 5   N  1S         -0.00002   0.00006   0.00064   0.00003  -0.00002
  54        2S         -0.00001   0.00037   0.00486   0.00016   0.00008
  55        2PX         0.00010   0.00033  -0.00091   0.00062   0.00078
  56        2PY         0.00022  -0.00005   0.00008   0.00149  -0.00056
  57        2PZ         0.00015  -0.00013  -0.00068  -0.00022  -0.00019
  58        3S         -0.00089  -0.00109  -0.01469  -0.00110  -0.00108
  59        3PX        -0.00021  -0.00182   0.00572  -0.00350  -0.00447
  60        3PY        -0.00188   0.00028  -0.00051  -0.00837   0.00335
  61        3PZ        -0.00239   0.00096   0.00619   0.00178   0.00214
  62 6   H  1S         -0.00082   0.00024   0.00116  -0.00165   0.00047
  63        2S          0.00163   0.00031   0.00256  -0.00610   0.00196
  64 7   H  1S          0.00031   0.00061   0.00071   0.00113   0.00056
  65        2S          0.00634   0.00105   0.00277   0.00512   0.00519
  66 8   H  1S          0.00129  -0.00009   0.00170   0.00062  -0.00084
  67        2S         -0.00185  -0.00159   0.00290   0.00151  -0.00491
                          21        22        23        24        25
                           O         O         O         O         O
     Eigenvalues --    -3.30993  -1.29031  -1.09143  -1.07997  -1.07754
   1 1   Al 1S         -0.00104   0.00679   0.01499   0.00233   0.00261
   2        2S          0.00371  -0.03217  -0.06906  -0.01075  -0.01201
   3        2PX         0.40349  -0.01440   0.01317  -0.01498  -0.04139
   4        2PY         0.02844   0.00066   0.00336  -0.04430   0.01660
   5        2PZ         0.89032  -0.02150   0.00086   0.00246   0.00767
   6        3S          0.00608   0.03004   0.11295   0.01773   0.01989
   7        3PX         0.04183   0.01036  -0.01910   0.02132   0.05590
   8        3PY         0.00303  -0.00103  -0.00466   0.06236  -0.02265
   9        3PZ         0.08358   0.01115  -0.00048  -0.00272  -0.00887
  10        4S          0.00136   0.01226  -0.05995  -0.00925  -0.01700
  11        4PX        -0.01307  -0.00020   0.00534  -0.01497  -0.03744
  12        4PY        -0.00012  -0.00102   0.00342  -0.04117   0.01450
  13        4PZ        -0.03056   0.00795  -0.01517  -0.00086  -0.00190
  14 2   Cl 1S          0.00000   0.00161   0.05777  -0.05014  -0.01653
  15        2S         -0.00007  -0.00937  -0.33983   0.29506   0.09729
  16        2PX        -0.00003  -0.00166  -0.01735   0.01318   0.00336
  17        2PY        -0.00001  -0.00127  -0.01698   0.01185   0.00455
  18        2PZ         0.00005  -0.00047   0.00162  -0.00080   0.00008
  19        3S          0.00066   0.01157   0.40992  -0.35879  -0.11919
  20        3PX         0.00046   0.00313   0.03321  -0.02504  -0.00686
  21        3PY         0.00037   0.00250   0.03254  -0.02291  -0.00832
  22        3PZ        -0.00035   0.00085  -0.00349   0.00122  -0.00031
  23        4S         -0.00050   0.00732   0.40915  -0.35146  -0.11323
  24        4PX         0.00139   0.00201   0.03975  -0.02926  -0.00311
  25        4PY         0.00167   0.00102   0.03834  -0.02318  -0.01181
  26        4PZ         0.00037   0.00044  -0.00025   0.00283   0.00065
  27 3   Cl 1S          0.00002   0.00928   0.02740   0.01055   0.07080
  28        2S         -0.00001  -0.05397  -0.16107  -0.06203  -0.41637
  29        2PX        -0.00006   0.00778   0.01249   0.00374   0.02523
  30        2PY        -0.00002  -0.00361  -0.00389  -0.00253  -0.00891
  31        2PZ         0.00012  -0.00928  -0.00291  -0.00112  -0.00951
  32        3S          0.00080   0.06563   0.18918   0.07430   0.49772
  33        3PX         0.00072  -0.01603  -0.02392  -0.00731  -0.04825
  34        3PY        -0.00003   0.00695   0.00753   0.00427   0.01727
  35        3PZ        -0.00068   0.01881   0.00566   0.00239   0.01915
  36        4S         -0.00288   0.05451   0.20488   0.07559   0.50978
  37        4PX         0.00369  -0.00436  -0.03130  -0.00745  -0.05633
  38        4PY        -0.00174   0.00502   0.00947   0.01009   0.01947
  39        4PZ         0.00038   0.00941   0.00937   0.00184   0.02115
  40 4   Cl 1S          0.00002   0.00230   0.04228   0.05995  -0.02696
  41        2S         -0.00010  -0.01342  -0.24865  -0.35274   0.15864
  42        2PX        -0.00003  -0.00129  -0.00442  -0.00644   0.00174
  43        2PY         0.00004   0.00261   0.01818   0.02153  -0.00943
  44        2PZ         0.00007  -0.00102   0.00009  -0.00034   0.00076
  45        3S          0.00130   0.01541   0.29868   0.42726  -0.19309
  46        3PX         0.00015   0.00244   0.00857   0.01201  -0.00383
  47        3PY        -0.00033  -0.00504  -0.03498  -0.04146   0.01794
  48        3PZ        -0.00039   0.00183  -0.00035   0.00097  -0.00163
  49        4S         -0.00256   0.01424   0.30179   0.42268  -0.18723
  50        4PX        -0.00063   0.00214   0.01007   0.01681   0.00032
  51        4PY         0.00076  -0.00311  -0.04177  -0.04529   0.01974
  52        4PZ         0.00067   0.00185   0.00242   0.00026  -0.00094
  53 5   N  1S          0.00016  -0.21955   0.02517   0.00848   0.02882
  54        2S          0.00496   0.19516  -0.02151  -0.00691  -0.02458
  55        2PX        -0.00030   0.02230  -0.00371   0.00099   0.02125
  56        2PY         0.00016  -0.00173  -0.00107   0.00794  -0.00874
  57        2PZ        -0.00016   0.03274  -0.02653  -0.00990  -0.03713
  58        3S         -0.01992   0.68698  -0.08671  -0.03018  -0.10262
  59        3PX         0.00466   0.01578  -0.00390   0.00052   0.01769
  60        3PY        -0.00085  -0.00203   0.00063   0.00290  -0.00455
  61        3PZ         0.00720   0.02094  -0.02235  -0.00594  -0.02793
  62 6   H  1S          0.00134   0.11164  -0.01757  -0.01038  -0.01900
  63        2S          0.00518   0.00374   0.00610  -0.00908   0.00121
  64 7   H  1S          0.00129   0.11324  -0.00961  -0.00113   0.00567
  65        2S          0.00536   0.00058  -0.00019   0.00637   0.00446
  66 8   H  1S          0.00168   0.10878  -0.02072  -0.00365  -0.03514
  67        2S          0.00610   0.00508   0.00556   0.00424  -0.00807
                          26        27        28        29        30
                           O         O         O         O         O
     Eigenvalues --    -0.76985  -0.76600  -0.67389  -0.54591  -0.51230
   1 1   Al 1S         -0.00179   0.00021  -0.03189  -0.02505  -0.00017
   2        2S          0.00932  -0.00081   0.15267   0.11856   0.00082
   3        2PX        -0.00775   0.00033   0.03134  -0.06141   0.00061
   4        2PY        -0.00453  -0.01501  -0.00044   0.00025   0.11508
   5        2PZ         0.00335  -0.00003   0.05773  -0.05574   0.00124
   6        3S         -0.00987   0.00279  -0.25287  -0.24464  -0.00149
   7        3PX         0.00941  -0.00110  -0.04705   0.12301  -0.00176
   8        3PY         0.00823   0.02289   0.00120  -0.00038  -0.25177
   9        3PZ        -0.00379   0.00068  -0.08086   0.09754  -0.00228
  10        4S         -0.01876  -0.00488  -0.07040  -0.00502  -0.00125
  11        4PX         0.00623  -0.00326   0.00363   0.00149   0.00702
  12        4PY         0.00451   0.01455   0.00008  -0.00202  -0.00591
  13        4PZ        -0.00815  -0.00208  -0.01034   0.04503  -0.00188
  14 2   Cl 1S          0.00239   0.00181   0.00886   0.01182  -0.00744
  15        2S         -0.01430  -0.01085  -0.05316  -0.07129   0.04511
  16        2PX         0.00511   0.00565   0.03662   0.09005  -0.14850
  17        2PY         0.00401   0.00064   0.03119   0.12104  -0.03231
  18        2PZ         0.00324   0.00271   0.00569  -0.04684   0.01751
  19        3S          0.01691   0.01356   0.07203   0.11331  -0.06847
  20        3PX        -0.01070  -0.01181  -0.07715  -0.19023   0.31812
  21        3PY        -0.00859  -0.00108  -0.06582  -0.25675   0.06691
  22        3PZ        -0.00626  -0.00511  -0.01219   0.10022  -0.03678
  23        4S          0.02623   0.01806   0.07228   0.06197  -0.05428
  24        4PX        -0.00558  -0.00675  -0.05681  -0.16065   0.25880
  25        4PY        -0.00242  -0.00028  -0.04679  -0.21657   0.04910
  26        4PZ        -0.00856  -0.00803  -0.00912   0.08026  -0.03281
  27 3   Cl 1S         -0.01256   0.00378   0.01369   0.00275  -0.00254
  28        2S          0.07506  -0.02260  -0.08217  -0.01639   0.01542
  29        2PX         0.00527  -0.00769  -0.06690  -0.03983   0.06668
  30        2PY        -0.01608  -0.00845   0.01934   0.00336   0.07003
  31        2PZ        -0.03961   0.01315   0.02406  -0.04691  -0.00581
  32        3S         -0.09446   0.02380   0.10509   0.03346  -0.02156
  33        3PX        -0.01141   0.01710   0.14095   0.08313  -0.14199
  34        3PY         0.03326   0.01757  -0.04051  -0.00668  -0.15061
  35        3PZ         0.08269  -0.02826  -0.05148   0.10093   0.01251
  36        4S         -0.09953   0.04006   0.11762  -0.00502  -0.02468
  37        4PX        -0.00007   0.00329   0.09306   0.09077  -0.11669
  38        4PY         0.02219   0.01512  -0.02874  -0.01049  -0.13076
  39        4PZ         0.05406  -0.01645  -0.03343   0.07869   0.01091
  40 4   Cl 1S          0.00109  -0.00396   0.00993   0.00943   0.01020
  41        2S         -0.00651   0.02365  -0.05953  -0.05680  -0.06184
  42        2PX        -0.00147  -0.00622   0.01834  -0.00190   0.06598
  43        2PY        -0.00266   0.00752  -0.04903  -0.12395  -0.16431
  44        2PZ         0.00301  -0.00781   0.00973  -0.03982  -0.00381
  45        3S          0.00844  -0.03085   0.08033   0.09025   0.09073
  46        3PX         0.00316   0.01278  -0.03869   0.00482  -0.14137
  47        3PY         0.00548  -0.01583   0.10345   0.26243   0.34962
  48        3PZ        -0.00615   0.01551  -0.02076   0.08511   0.00694
  49        4S          0.00918  -0.03293   0.08019   0.04869   0.08357
  50        4PX         0.00213   0.01140  -0.02927   0.00366  -0.11424
  51        4PY         0.00394  -0.00779   0.07293   0.22534   0.27714
  52        4PZ        -0.00528   0.01901  -0.01599   0.06954   0.00981
  53 5   N  1S         -0.00111  -0.00062   0.02049  -0.02253  -0.00124
  54        2S          0.00068   0.00096  -0.00881   0.01456   0.00040
  55        2PX         0.34308  -0.03790   0.16967  -0.11359   0.00898
  56        2PY         0.04743   0.39339  -0.00293   0.00164   0.04451
  57        2PZ        -0.18041   0.02117   0.30671  -0.15643  -0.00049
  58        3S          0.00975   0.00167  -0.11513   0.10696   0.00787
  59        3PX         0.34353  -0.03948   0.20059  -0.14376   0.01585
  60        3PY         0.04846   0.39061  -0.00331  -0.00347   0.05530
  61        3PZ        -0.18484   0.02388   0.37064  -0.21415  -0.00239
  62 6   H  1S         -0.08651  -0.23346   0.05948  -0.02320  -0.03144
  63        2S         -0.04946  -0.13956   0.04301  -0.02987  -0.02084
  64 7   H  1S          0.23680   0.04407   0.06575  -0.04078   0.01049
  65        2S          0.13500   0.02694   0.05570  -0.02984  -0.00789
  66 8   H  1S         -0.15465   0.19081   0.05342  -0.00934   0.01974
  67        2S         -0.09097   0.11540   0.03774  -0.01579   0.02097
                          31        32        33        34        35
                           O         O         O         O         O
     Eigenvalues --    -0.50808  -0.47532  -0.46999  -0.46542  -0.46492
   1 1   Al 1S         -0.00489   0.00233   0.00005   0.00158  -0.00025
   2        2S          0.02342  -0.01411   0.00021  -0.00809   0.00079
   3        2PX         0.09059  -0.00202   0.00767  -0.03124   0.00911
   4        2PY         0.00252  -0.00446  -0.01038   0.01007   0.02223
   5        2PZ        -0.05178  -0.01145  -0.00292   0.00650  -0.00202
   6        3S         -0.04940   0.00894   0.00352   0.01584  -0.00547
   7        3PX        -0.20269   0.01208  -0.01589   0.06818  -0.01877
   8        3PY        -0.00508   0.00943   0.01822  -0.02184  -0.04564
   9        3PZ         0.10075   0.02925   0.00703  -0.00673   0.00222
  10        4S         -0.00381   0.03632  -0.01347   0.00122   0.00429
  11        4PX        -0.02150   0.08649   0.02225  -0.07601   0.04844
  12        4PY         0.00470  -0.01347  -0.07424   0.02067   0.09333
  13        4PZ         0.04120   0.06108  -0.00104   0.02918  -0.00143
  14 2   Cl 1S         -0.00489  -0.00124   0.00054   0.00127  -0.00270
  15        2S          0.02974   0.00738  -0.00317  -0.00757   0.01611
  16        2PX        -0.01543  -0.11608  -0.04267   0.11492   0.01403
  17        2PY        -0.11807   0.04640   0.08638  -0.07026  -0.12845
  18        2PZ        -0.05576  -0.19058   0.15178  -0.05947   0.07166
  19        3S         -0.04077  -0.02088   0.01250   0.02243  -0.04919
  20        3PX         0.03162   0.25113   0.09355  -0.24697  -0.03406
  21        3PY         0.25368  -0.10135  -0.18692   0.15391   0.27437
  22        3PZ         0.12123   0.41221  -0.32639   0.12883  -0.15321
  23        4S         -0.05142   0.02305  -0.02149  -0.02485   0.05986
  24        4PX         0.01657   0.21926   0.06983  -0.22327  -0.00935
  25        4PY         0.20158  -0.07722  -0.16344   0.12445   0.25945
  26        4PZ         0.09933   0.35680  -0.29847   0.11052  -0.14533
  27 3   Cl 1S          0.00875  -0.00008   0.00107  -0.00387   0.00040
  28        2S         -0.05302   0.00074  -0.00639   0.02322  -0.00237
  29        2PX        -0.16176  -0.00364  -0.01231   0.13086  -0.05047
  30        2PY         0.05976  -0.01334   0.08182  -0.01481  -0.12358
  31        2PZ        -0.05629   0.02228  -0.01530   0.05339   0.01482
  32        3S          0.07633   0.01315   0.01864  -0.05849   0.00826
  33        3PX         0.34249   0.00718   0.02466  -0.27521   0.10775
  34        3PY        -0.12715   0.02872  -0.17567   0.03037   0.26612
  35        3PZ         0.12035  -0.04702   0.03264  -0.11281  -0.03194
  36        4S          0.07980  -0.05870  -0.02123   0.04346  -0.01349
  37        4PX         0.28315   0.02186   0.03261  -0.27442   0.10086
  38        4PY        -0.10601   0.02119  -0.15547   0.03382   0.23221
  39        4PZ         0.10434  -0.05443   0.02915  -0.11245  -0.02900
  40 4   Cl 1S         -0.00028  -0.00173  -0.00214   0.00114   0.00233
  41        2S          0.00176   0.01036   0.01269  -0.00685  -0.01392
  42        2PX         0.08763  -0.11192  -0.03783   0.09313  -0.14009
  43        2PY         0.02877   0.02371   0.06057  -0.00507  -0.10719
  44        2PZ        -0.06433  -0.08644  -0.17737  -0.15407  -0.06757
  45        3S          0.00118  -0.02200  -0.04016   0.01970   0.04089
  46        3PX        -0.18932   0.24277   0.08092  -0.20079   0.30401
  47        3PY        -0.06246  -0.05005  -0.12825   0.00833   0.22730
  48        3PZ         0.13896   0.18828   0.38162   0.33179   0.14444
  49        4S         -0.01509   0.00761   0.05344  -0.02104  -0.04703
  50        4PX        -0.15972   0.20201   0.07779  -0.17585   0.25867
  51        4PY        -0.04384  -0.04979  -0.13313   0.01884   0.22209
  52        4PZ         0.11534   0.15292   0.34770   0.29839   0.13670
  53 5   N  1S         -0.00590   0.01825   0.00415   0.00873   0.00167
  54        2S          0.00261  -0.00851  -0.00297  -0.00376  -0.00110
  55        2PX        -0.02041   0.05624   0.01640   0.04551  -0.01282
  56        2PY         0.00310  -0.00444  -0.01779  -0.00863  -0.02791
  57        2PZ        -0.06708   0.06113   0.00558   0.04539   0.00200
  58        3S          0.03004  -0.10787  -0.02369  -0.04622  -0.01193
  59        3PX        -0.03345   0.07853   0.02769   0.07042  -0.02118
  60        3PY        -0.00414  -0.00166  -0.01370  -0.00376  -0.02368
  61        3PZ        -0.10258   0.11119   0.00079   0.07966   0.00012
  62 6   H  1S         -0.01599   0.01305   0.01467   0.01202   0.01971
  63        2S         -0.01502   0.00255  -0.00245   0.00406   0.01795
  64 7   H  1S          0.00683   0.02274  -0.00083   0.01053  -0.00732
  65        2S          0.02703   0.00318   0.00384  -0.00809  -0.00016
  66 8   H  1S         -0.01492  -0.00435  -0.01111  -0.00188  -0.01020
  67        2S         -0.01809  -0.01297   0.01789   0.00464  -0.01363
                          36        37        38        39        40
                           O         O         V         V         V
     Eigenvalues --    -0.45511  -0.44453   0.02404   0.13842   0.16371
   1 1   Al 1S         -0.00004   0.00164   0.03682   0.01986   0.00645
   2        2S         -0.00003  -0.00653  -0.20325  -0.13438  -0.05466
   3        2PX        -0.00097  -0.01294   0.01830   0.06899  -0.07332
   4        2PY         0.00257   0.00351   0.00072   0.00735   0.07044
   5        2PZ         0.00006   0.01404   0.11305  -0.06664   0.00516
   6        3S         -0.00232   0.02788   0.24270  -0.00789  -0.07116
   7        3PX         0.00184   0.02767  -0.04611  -0.18987   0.13910
   8        3PY        -0.00389  -0.00573  -0.00230  -0.01548  -0.15144
   9        3PZ        -0.00139  -0.02507  -0.27377   0.07908  -0.07143
  10        4S          0.00450  -0.07645   0.94000   0.90646   0.46298
  11        4PX        -0.00448  -0.04031  -0.10328  -0.55956   1.20995
  12        4PY         0.02583   0.01128  -0.00565  -0.09376  -0.99551
  13        4PZ        -0.00023   0.01561  -0.48855   0.96204   0.28805
  14 2   Cl 1S         -0.00033  -0.00018  -0.01069  -0.01502  -0.00262
  15        2S          0.00193   0.00098   0.06655   0.09446   0.01619
  16        2PX        -0.08840  -0.00115   0.05336   0.03507   0.06218
  17        2PY         0.07904  -0.00952   0.05833   0.06195  -0.04569
  18        2PZ         0.02577  -0.00614  -0.04699   0.04033   0.00998
  19        3S         -0.00703  -0.00660  -0.06552  -0.09116  -0.03072
  20        3PX         0.19083   0.00155  -0.11452  -0.07183  -0.13718
  21        3PY        -0.17167   0.02045  -0.12418  -0.13155   0.10159
  22        3PZ        -0.05582   0.01403   0.09902  -0.08971  -0.02144
  23        4S          0.01015   0.01392  -0.28867  -0.51779  -0.02627
  24        4PX         0.17414   0.01255  -0.19347  -0.21233  -0.25608
  25        4PY        -0.14985   0.02147  -0.21811  -0.31222   0.18282
  26        4PZ        -0.04940   0.00757   0.17797  -0.15328  -0.04786
  27 3   Cl 1S         -0.00033  -0.00185  -0.01025   0.00047  -0.01574
  28        2S          0.00194   0.01065   0.06368  -0.00328   0.10043
  29        2PX        -0.04704   0.06605  -0.07748   0.00819  -0.04874
  30        2PY        -0.19724  -0.05628   0.02033  -0.01149  -0.01738
  31        2PZ         0.02934  -0.25403  -0.03198   0.03417   0.00483
  32        3S         -0.00544  -0.03949  -0.06366  -0.01935  -0.03821
  33        3PX         0.10165  -0.14129   0.16321  -0.01619   0.09439
  34        3PY         0.42403   0.12128  -0.04288   0.02387   0.04006
  35        3PZ        -0.06287   0.54797   0.06777  -0.06986  -0.00956
  36        4S          0.00546   0.06106  -0.25743   0.12208  -0.85299
  37        4PX         0.08935  -0.14506   0.29179  -0.05107   0.41084
  38        4PY         0.38595   0.11576  -0.07747   0.05499   0.02068
  39        4PZ        -0.05867   0.50763   0.11015  -0.19692  -0.08692
  40 4   Cl 1S          0.00061  -0.00039  -0.01047  -0.00895   0.00958
  41        2S         -0.00361   0.00231   0.06511   0.05606  -0.06133
  42        2PX         0.14116  -0.00113   0.01344  -0.02343   0.03671
  43        2PY         0.01543   0.01440  -0.07904  -0.04876   0.03596
  44        2PZ        -0.03695  -0.01127  -0.04225   0.04328   0.01493
  45        3S          0.01298  -0.00778  -0.06660  -0.06329   0.01021
  46        3PX        -0.30512   0.00200  -0.02951   0.05374  -0.08277
  47        3PY        -0.03467  -0.03060   0.16843   0.10311  -0.07039
  48        3PZ         0.07948   0.02556   0.08898  -0.09337  -0.03220
  49        4S         -0.01962   0.01082  -0.27033  -0.25849   0.57426
  50        4PX        -0.27307   0.00758  -0.04333   0.06924  -0.11937
  51        4PY        -0.02213  -0.03410   0.29027   0.24085  -0.28297
  52        4PZ         0.07300   0.01539   0.15924  -0.18988  -0.06764
  53 5   N  1S          0.00007   0.04240   0.00782   0.08559   0.05658
  54        2S          0.00082  -0.03228  -0.00893  -0.04007  -0.01814
  55        2PX        -0.01687  -0.03999   0.00253   0.06087  -0.01861
  56        2PY        -0.01768   0.01161   0.00055   0.00427   0.05858
  57        2PZ        -0.00085   0.15425   0.01430   0.00254  -0.01351
  58        3S         -0.00416  -0.23157  -0.06030  -0.76907  -0.57828
  59        3PX        -0.03037  -0.01717  -0.03389   0.09893  -0.02999
  60        3PY        -0.01669  -0.00261  -0.00155  -0.00766   0.15147
  61        3PZ        -0.00031   0.19127  -0.01442   0.05762   0.02656
  62 6   H  1S          0.01280   0.00699  -0.00037   0.00895   0.02101
  63        2S          0.00925   0.02618   0.05709   0.07483   0.12477
  64 7   H  1S         -0.00329  -0.04143   0.00412   0.06543   0.01520
  65        2S          0.00917  -0.01520   0.07598   0.24382   0.06167
  66 8   H  1S         -0.00539   0.07624  -0.00356  -0.00724   0.01947
  67        2S         -0.01108   0.09465   0.05311   0.06604   0.06519
                          41        42        43        44        45
                           V         V         V         V         V
     Eigenvalues --     0.16999   0.23450   0.26946   0.27704   0.33619
   1 1   Al 1S          0.00701   0.05296   0.00561  -0.00891  -0.01082
   2        2S         -0.05637  -0.16197  -0.01396   0.00510  -0.09117
   3        2PX        -0.05109   0.01826  -0.02370   0.08781  -0.07517
   4        2PY        -0.09572   0.00185   0.12546   0.04163   0.03076
   5        2PZ         0.00388   0.00732   0.02410  -0.08925  -0.16897
   6        3S         -0.05717   1.27618   0.15598  -0.35176  -1.04627
   7        3PX         0.08804  -0.11138   0.06581  -0.38751   0.29390
   8        3PY         0.21207  -0.00399  -0.53556  -0.18248  -0.13724
   9        3PZ        -0.06903  -0.09569  -0.10706   0.37555   0.68058
  10        4S          0.45921  -0.76046  -0.12638   0.51253   2.23566
  11        4PX         0.93250   0.43383   0.20677   0.35814   0.36393
  12        4PY         1.31196  -0.00287   0.24070   0.12275   0.12462
  13        4PZ         0.32771   0.64609   0.08419  -0.22011   0.23290
  14 2   Cl 1S          0.01245  -0.00219   0.00137  -0.00239  -0.00796
  15        2S         -0.07964   0.01288  -0.00838   0.01522   0.04998
  16        2PX        -0.03138   0.04214   0.01749   0.01145   0.00853
  17        2PY        -0.01136   0.03613   0.00625   0.01629  -0.00973
  18        2PZ         0.02591   0.00940  -0.01129   0.00064   0.02621
  19        3S          0.01838  -0.05039   0.02616  -0.02112  -0.09738
  20        3PX         0.06070  -0.09478  -0.03809  -0.02221  -0.01683
  21        3PY         0.01657  -0.08591  -0.01234  -0.03796   0.02670
  22        3PZ        -0.05753  -0.01654   0.03015  -0.00412  -0.06281
  23        4S          0.72963   0.19291   0.06408  -0.01475  -0.20180
  24        4PX         0.25987  -0.10259  -0.06515  -0.09547  -0.11616
  25        4PY         0.17446  -0.03300  -0.03079  -0.06748  -0.05412
  26        4PZ        -0.11103  -0.09856  -0.00198   0.02511  -0.07275
  27 3   Cl 1S         -0.00634  -0.00092  -0.00546  -0.00278  -0.00610
  28        2S          0.04052   0.00558   0.03423   0.01837   0.03955
  29        2PX         0.00275  -0.04010  -0.02999   0.05342  -0.01881
  30        2PY         0.06959   0.01169   0.00050   0.01212  -0.00629
  31        2PZ         0.00144  -0.00628   0.00803   0.00573  -0.03436
  32        3S         -0.01547  -0.01156  -0.05258   0.00594  -0.02848
  33        3PX        -0.01079   0.09429   0.06611  -0.12776   0.03984
  34        3PY        -0.15143  -0.02878   0.00419  -0.02919   0.01600
  35        3PZ        -0.00204   0.01521  -0.01526  -0.00737   0.08505
  36        4S         -0.35646  -0.00518  -0.08102  -0.27412  -0.46295
  37        4PX         0.07594   0.07129   0.12112  -0.08203   0.24043
  38        4PY        -0.32327  -0.01475  -0.05577  -0.07048  -0.03254
  39        4PZ        -0.05060  -0.01538  -0.04530  -0.11206   0.06534
  40 4   Cl 1S         -0.01481  -0.00118   0.00229   0.00114  -0.00803
  41        2S          0.09391   0.00696  -0.01477  -0.00662   0.05102
  42        2PX         0.06529   0.01710  -0.00127  -0.00433   0.01101
  43        2PY        -0.03181  -0.04589   0.03098   0.01401   0.01611
  44        2PZ         0.00203   0.00062   0.01867  -0.00659   0.00958
  45        3S         -0.06184  -0.02051   0.01022   0.03540  -0.07144
  46        3PX        -0.14038  -0.03549   0.00526   0.01299  -0.02245
  47        3PY         0.05916   0.10656  -0.06892  -0.03391  -0.04480
  48        3PZ        -0.00198   0.00626  -0.04710   0.01758  -0.01655
  49        4S         -0.67074   0.11451   0.04687  -0.10549  -0.35769
  50        4PX        -0.32074  -0.08236  -0.01104  -0.03055  -0.10231
  51        4PY         0.28993   0.07205  -0.15216  -0.01001   0.10598
  52        4PZ        -0.03551  -0.09007  -0.02765   0.01309  -0.07869
  53 5   N  1S          0.05040  -0.05295   0.00896   0.00836  -0.04272
  54        2S         -0.01788  -0.00091  -0.00328  -0.00012   0.00911
  55        2PX        -0.00851   0.03607   0.07011  -0.20143   0.14996
  56        2PY        -0.02525   0.00137  -0.23864  -0.07996   0.00584
  57        2PZ        -0.00840   0.17003  -0.05072   0.10220   0.15160
  58        3S         -0.50062   0.72503  -0.10149  -0.11101   0.62622
  59        3PX         0.01140   0.04157   0.24415  -0.72719   0.47594
  60        3PY        -0.00382   0.00147  -0.84571  -0.28402   0.00233
  61        3PZ         0.03224   0.45866  -0.15748   0.40542   0.49315
  62 6   H  1S          0.06283  -0.03502  -0.07977  -0.04727  -0.02984
  63        2S          0.28178  -0.58167  -1.04958  -0.68112  -0.65369
  64 7   H  1S         -0.01036  -0.01353   0.00206   0.10715  -0.04517
  65        2S         -0.05868  -0.29123  -0.03347   1.31186  -1.04421
  66 8   H  1S         -0.00932  -0.04261   0.08694  -0.05803  -0.02219
  67        2S         -0.06016  -0.70098   1.20366  -0.58639  -0.54349
                          46        47        48        49        50
                           V         V         V         V         V
     Eigenvalues --     0.35891   0.36999   0.39798   0.73989   0.74883
   1 1   Al 1S         -0.01149  -0.00151  -0.02650   0.00057  -0.00010
   2        2S          0.00080  -0.01515   0.01524   0.00207   0.00691
   3        2PX        -0.22978  -0.03493   0.21420  -0.01021  -0.00877
   4        2PY         0.04136  -0.29953   0.00129   0.00075   0.00887
   5        2PZ         0.17476   0.00375   0.20173   0.00049   0.00476
   6        3S         -0.50086  -0.16145  -1.08646   0.04150   0.04305
   7        3PX         1.06927   0.14186  -1.05513   0.01992   0.03925
   8        3PY        -0.18872   1.41504   0.00080  -0.02694   0.00533
   9        3PZ        -0.83159  -0.03420  -0.99027   0.00934  -0.01856
  10        4S          0.73957   0.35950   1.42904  -0.06613  -0.07887
  11        4PX        -0.81843   0.05475   1.05301   0.11442  -0.01937
  12        4PY         0.15329  -1.28457  -0.01735   0.02168  -0.20988
  13        4PZ         0.97811   0.16830   1.20403  -0.06360  -0.01906
  14 2   Cl 1S         -0.00032   0.00305  -0.00407  -0.03667   0.01536
  15        2S          0.00226  -0.01879   0.02610   0.22393  -0.09371
  16        2PX        -0.03157  -0.03880   0.01148  -0.03597   0.12398
  17        2PY        -0.02658  -0.04291   0.00383  -0.10972  -0.07947
  18        2PZ         0.01540   0.00099   0.01418  -0.02845  -0.06158
  19        3S          0.00031   0.05211  -0.03544  -0.99212   0.42292
  20        3PX         0.07208   0.09045  -0.01976   0.12510  -0.42572
  21        3PY         0.05991   0.09463  -0.00232   0.37636   0.27165
  22        3PZ        -0.03639   0.00276  -0.03570   0.09703   0.21165
  23        4S         -0.21059  -0.23912  -0.08062   1.00108  -0.45353
  24        4PX         0.10887   0.08861  -0.17698  -0.11267   0.37281
  25        4PY         0.04974   0.20508  -0.09366  -0.32517  -0.23942
  26        4PZ        -0.08959  -0.04159  -0.08703  -0.08251  -0.18951
  27 3   Cl 1S         -0.00623  -0.00333   0.00248   0.03627   0.02371
  28        2S          0.03954   0.02118  -0.01507  -0.22132  -0.14462
  29        2PX        -0.03601   0.01204   0.03957  -0.05915  -0.08031
  30        2PY         0.02728  -0.00089  -0.01749   0.11495  -0.09751
  31        2PZ         0.01406  -0.00326  -0.01748  -0.00753   0.04407
  32        3S         -0.06257  -0.03067   0.03905   0.97978   0.64515
  33        3PX         0.07098  -0.03047  -0.08043   0.20233   0.27480
  34        3PY        -0.06700  -0.00145   0.03627  -0.39133   0.33350
  35        3PZ        -0.03141   0.01301   0.04041   0.02547  -0.14989
  36        4S          0.02795  -0.17723  -0.34029  -0.98363  -0.64472
  37        4PX         0.26566   0.02632  -0.15647  -0.16669  -0.23309
  38        4PY        -0.08532   0.07229   0.06994   0.33292  -0.29261
  39        4PZ        -0.13525  -0.04806   0.01715  -0.02797   0.11789
  40 4   Cl 1S          0.00174  -0.00453  -0.00221   0.00613  -0.04290
  41        2S         -0.01020   0.02832   0.01462  -0.03766   0.26175
  42        2PX        -0.00963   0.01964   0.00337   0.15269  -0.02027
  43        2PY         0.03388  -0.06127   0.01207   0.01618   0.11692
  44        2PZ        -0.00271   0.01222   0.00772   0.01673   0.02759
  45        3S          0.04861  -0.05844  -0.00515   0.15516  -1.17614
  46        3PX         0.02108  -0.04394  -0.00553  -0.52257   0.06877
  47        3PY        -0.08004   0.13246  -0.03444  -0.05370  -0.40109
  48        3PZ         0.01367  -0.03444  -0.01645  -0.05794  -0.09546
  49        4S         -0.21710   0.21349  -0.17295  -0.12504   1.22837
  50        4PX         0.06589  -0.06898  -0.09780   0.46269  -0.04631
  51        4PY        -0.05429   0.29469   0.07292   0.02928   0.33458
  52        4PZ        -0.09037  -0.00949  -0.09771   0.05955   0.09125
  53 5   N  1S         -0.02519  -0.00328  -0.06952   0.00171  -0.00223
  54        2S          0.02025   0.00124   0.05033   0.00226   0.00621
  55        2PX        -0.10244   0.00030  -0.00207   0.01027  -0.02841
  56        2PY        -0.00892  -0.14493   0.00456  -0.07127  -0.01675
  57        2PZ         0.03567   0.01876  -0.06699  -0.02134   0.00646
  58        3S          0.23410   0.04561   0.66836  -0.06128  -0.01912
  59        3PX        -0.34424  -0.00126   0.02775  -0.03622  -0.08806
  60        3PY        -0.01963  -0.44344  -0.00451   0.08038   0.03665
  61        3PZ         0.20784   0.07752  -0.12104  -0.00053   0.03338
  62 6   H  1S         -0.00157  -0.02170   0.02436   0.11836   0.01257
  63        2S         -0.44790  -0.91700  -0.61529  -0.04530  -0.06684
  64 7   H  1S          0.04728   0.01127   0.02591  -0.01888   0.01921
  65        2S          0.48185   0.19474  -0.79666   0.11241   0.20550
  66 8   H  1S         -0.03116   0.00690   0.03134  -0.11188  -0.07229
  67        2S         -0.78056   0.42559  -0.52642   0.10076  -0.02494
                          51        52        53        54        55
                           V         V         V         V         V
     Eigenvalues --     0.78102   0.78240   0.83304   0.86023   0.87822
   1 1   Al 1S          0.00073   0.00022  -0.00266  -0.00061   0.00044
   2        2S          0.02625   0.05108  -0.02974  -0.00263   0.00044
   3        2PX         0.00284   0.00833   0.00507   0.00453   0.00173
   4        2PY        -0.01618   0.00735  -0.00350   0.00007  -0.00968
   5        2PZ        -0.00216   0.00151  -0.00404  -0.00103  -0.00185
   6        3S          0.22740   0.37979  -0.35386  -0.05106   0.02823
   7        3PX        -0.04501  -0.03778   0.03585   0.00958   0.05105
   8        3PY         0.09472  -0.06455  -0.02051  -0.03536   0.35698
   9        3PZ         0.03030   0.00166  -0.02061  -0.00860   0.00440
  10        4S         -0.25657  -0.44139   0.32747   0.04317  -0.00066
  11        4PX         0.02613   0.00033   0.06549   0.00687  -0.07819
  12        4PY         0.07728   0.03651   0.08146   0.06677  -0.25683
  13        4PZ        -0.05847  -0.00969   0.23935   0.07796   0.03338
  14 2   Cl 1S         -0.01659  -0.02246   0.00066  -0.00097  -0.00174
  15        2S          0.10109   0.13738  -0.00426   0.00586   0.01026
  16        2PX        -0.02093  -0.14517   0.04600   0.15143   0.07801
  17        2PY        -0.08507  -0.06951   0.06718  -0.14691   0.18205
  18        2PZ         0.13976  -0.13611  -0.17861  -0.07293  -0.04780
  19        3S         -0.46848  -0.60672   0.00304  -0.03128  -0.06697
  20        3PX         0.07032   0.50892  -0.16511  -0.53603  -0.28255
  21        3PY         0.29631   0.24588  -0.23945   0.51969  -0.65106
  22        3PZ        -0.48633   0.47363   0.63296   0.25927   0.17052
  23        4S          0.53098   0.63971   0.00142   0.04275   0.03626
  24        4PX        -0.03586  -0.49643   0.18044   0.54478   0.32868
  25        4PY        -0.27179  -0.24826   0.25353  -0.52526   0.70862
  26        4PZ         0.46756  -0.45251  -0.66740  -0.27360  -0.18225
  27 3   Cl 1S         -0.00623  -0.02554  -0.00182  -0.00372  -0.00229
  28        2S          0.03765   0.15598   0.01105   0.02247   0.01363
  29        2PX         0.04108   0.13297   0.03014   0.09787   0.03990
  30        2PY        -0.00879  -0.04471  -0.03679   0.18383   0.16539
  31        2PZ         0.08979   0.01040   0.23233   0.02000  -0.01867
  32        3S         -0.18831  -0.68841  -0.07025  -0.12110  -0.08430
  33        3PX        -0.14067  -0.46376  -0.09941  -0.34358  -0.13970
  34        3PY         0.02992   0.15649   0.12547  -0.64980  -0.58857
  35        3PZ        -0.31191  -0.03208  -0.82034  -0.07518   0.06286
  36        4S          0.24193   0.72231   0.05439   0.14771   0.11828
  37        4PX         0.10419   0.43148   0.08520   0.33658   0.12844
  38        4PY        -0.02505  -0.14949  -0.11206   0.65978   0.63063
  39        4PZ         0.31237   0.01669   0.82858   0.10610  -0.03921
  40 4   Cl 1S         -0.00978  -0.01826   0.00524   0.00096   0.00346
  41        2S          0.06025   0.11137  -0.03199  -0.00583  -0.02051
  42        2PX        -0.01831  -0.01923   0.11717  -0.15588   0.03167
  43        2PY         0.08556   0.09838  -0.08872  -0.07991   0.22965
  44        2PZ        -0.24378   0.09019  -0.07744   0.00132  -0.00304
  45        3S         -0.24066  -0.50723   0.14326   0.02788   0.13024
  46        3PX         0.06638   0.06592  -0.41162   0.55061  -0.11010
  47        3PY        -0.30483  -0.34131   0.31677   0.28358  -0.82591
  48        3PZ         0.84639  -0.31377   0.27489  -0.00336   0.01190
  49        4S          0.20746   0.55122  -0.19715  -0.05088  -0.12294
  50        4PX        -0.08194  -0.05301   0.39616  -0.55478   0.10006
  51        4PY         0.33718   0.30121  -0.32637  -0.28993   0.93180
  52        4PZ        -0.79874   0.30105  -0.30232  -0.00829  -0.01786
  53 5   N  1S          0.00378  -0.00435   0.00487   0.00107   0.00221
  54        2S          0.00583   0.00893  -0.00867   0.00551   0.00378
  55        2PX        -0.00861  -0.06551  -0.00197   0.03169   0.03925
  56        2PY         0.04604   0.00497  -0.00762   0.00329   0.03877
  57        2PZ        -0.05021   0.00286   0.05579   0.00578  -0.02917
  58        3S         -0.03839   0.04504   0.06352   0.03286  -0.00961
  59        3PX         0.03114   0.13213   0.06405   0.01312  -0.01755
  60        3PY        -0.23929   0.10949  -0.01056   0.00214  -0.11634
  61        3PZ         0.00227  -0.07390   0.05527  -0.00646   0.01679
  62 6   H  1S         -0.24667   0.10841  -0.04487   0.01767  -0.10681
  63        2S          0.09321   0.09257  -0.08844   0.01765   0.03518
  64 7   H  1S          0.07417  -0.14477  -0.02829   0.06086   0.10963
  65        2S         -0.12182  -0.02607  -0.29231  -0.24153  -0.16350
  66 8   H  1S          0.21202   0.04233   0.14129   0.02314   0.05990
  67        2S          0.09798  -0.03118  -0.19575  -0.00285   0.07717
                          56        57        58        59        60
                           V         V         V         V         V
     Eigenvalues --     0.89697   0.90879   1.00818   1.02852   1.05888
   1 1   Al 1S          0.00239   0.00196  -0.00173   0.00089   0.01064
   2        2S          0.01533  -0.00795   0.00495  -0.01353  -0.10792
   3        2PX        -0.00244   0.00163  -0.02458  -0.00704  -0.00690
   4        2PY         0.00497  -0.00420  -0.00643   0.03508  -0.01289
   5        2PZ         0.00668  -0.01346   0.00857   0.00427   0.00065
   6        3S          0.25025   0.04919  -0.05289  -0.02806  -0.06307
   7        3PX         0.29941  -0.12454   0.34073   0.05138  -0.05064
   8        3PY        -0.08351   0.04727   0.12401  -0.35625   0.11703
   9        3PZ        -0.04510   0.09550  -0.05319  -0.03728  -0.04177
  10        4S         -0.06444   0.08992  -0.04592   0.29187   2.00304
  11        4PX        -0.42319   0.03079   1.11780   0.41374   0.53440
  12        4PY         0.01282   0.03082   0.13259  -1.33454   0.34323
  13        4PZ        -0.30903  -0.57983  -0.14371   0.03499   0.47721
  14 2   Cl 1S          0.00413   0.00301  -0.03342   0.02361   0.01845
  15        2S         -0.02488  -0.01826   0.20107  -0.14182  -0.11140
  16        2PX         0.12381  -0.03651   0.03797  -0.16856  -0.09445
  17        2PY        -0.03040  -0.01879   0.15626   0.05978  -0.06783
  18        2PZ         0.10331   0.15172   0.02558   0.01879  -0.07238
  19        3S          0.13817   0.09694  -1.15111   0.83057   0.63751
  20        3PX        -0.44128   0.13182  -0.14755   0.64710   0.36328
  21        3PY         0.11125   0.07059  -0.59695  -0.22195   0.26457
  22        3PZ        -0.37498  -0.55082  -0.09252  -0.07151   0.27135
  23        4S         -0.22518  -0.09915   1.67451  -1.25173  -0.84298
  24        4PX         0.46418  -0.14813   0.28746  -1.02349  -0.55809
  25        4PY        -0.14482  -0.09696   0.94087   0.23824  -0.43062
  26        4PZ         0.44365   0.65570   0.08931   0.10621  -0.36146
  27 3   Cl 1S          0.00714  -0.00049   0.02902   0.02124   0.02381
  28        2S         -0.04315   0.00268  -0.17378  -0.12752  -0.14273
  29        2PX         0.24948  -0.02534   0.07585   0.10510   0.05700
  30        2PY        -0.08086   0.05315  -0.07459   0.12209  -0.06868
  31        2PZ        -0.02500   0.22368   0.03750   0.01680   0.03594
  32        3S          0.24078  -0.03626   1.02756   0.73411   0.84239
  33        3PX        -0.90286   0.09236  -0.29354  -0.40466  -0.22978
  34        3PY         0.29193  -0.19232   0.28941  -0.46486   0.26041
  35        3PZ         0.09119  -0.81150  -0.13099  -0.06671  -0.14221
  36        4S         -0.19218   0.03923  -1.59027  -1.14802  -1.37705
  37        4PX         1.02831  -0.10601   0.55473   0.69565   0.51587
  38        4PY        -0.32215   0.21501  -0.48506   0.66339  -0.40595
  39        4PZ        -0.08197   0.95876   0.09190   0.08914   0.17808
  40 4   Cl 1S          0.00231   0.00485  -0.00218  -0.03416   0.03660
  41        2S         -0.01418  -0.02916   0.01290   0.20484  -0.21991
  42        2PX         0.15214  -0.02805  -0.16701   0.00808  -0.09433
  43        2PY         0.00188   0.03946  -0.03357  -0.08887   0.11485
  44        2PZ         0.05185   0.20047   0.00227  -0.03995  -0.03095
  45        3S          0.07007   0.16194  -0.08502  -1.20835   1.30278
  46        3PX        -0.54490   0.10048   0.62954  -0.03512   0.36569
  47        3PY        -0.00868  -0.14598   0.13051   0.35051  -0.45817
  48        3PZ        -0.18967  -0.72507  -0.01095   0.14808   0.12057
  49        4S         -0.09013  -0.21020   0.15995   1.87798  -1.92346
  50        4PX         0.60280  -0.11309  -0.87274   0.10862  -0.59524
  51        4PY         0.01490   0.19950  -0.21975  -0.70042   0.87764
  52        4PZ         0.24232   0.83804   0.03502  -0.18541  -0.19400
  53 5   N  1S         -0.01575   0.00875  -0.01260  -0.00265  -0.00764
  54        2S          0.01188  -0.01568   0.03412   0.01383   0.02007
  55        2PX         0.06452  -0.00250  -0.01638   0.07295   0.14587
  56        2PY        -0.01724   0.01404  -0.06948  -0.04016   0.04982
  57        2PZ        -0.00191   0.07530  -0.08851  -0.00400  -0.00397
  58        3S          0.09370   0.05582  -0.03234   0.00857  -0.05074
  59        3PX        -0.05273  -0.01031   0.13047  -0.10612  -0.16444
  60        3PY         0.05023  -0.04726   0.08997   0.09241  -0.05605
  61        3PZ        -0.06889   0.02093  -0.00528   0.04251   0.32046
  62 6   H  1S          0.04627  -0.11450   0.18979   0.03667  -0.14286
  63        2S          0.04351   0.15213  -0.20648  -0.21594  -0.24020
  64 7   H  1S          0.01915   0.03922  -0.30489   0.16902   0.25411
  65        2S          0.11474  -0.22975   0.14898  -0.18273  -0.42034
  66 8   H  1S         -0.19848   0.17844  -0.03504  -0.15798  -0.41215
  67        2S          0.18614  -0.05759   0.09986   0.17549  -0.04429
                          61        62        63        64        65
                           V         V         V         V         V
     Eigenvalues --     1.16766   1.22704   1.27752   1.46828   1.51282
   1 1   Al 1S         -0.00428  -0.00125   0.00647   0.00139  -0.00073
   2        2S          0.04939   0.01811  -0.07012  -0.01396   0.01714
   3        2PX        -0.02136  -0.01269  -0.01396  -0.01831   0.00086
   4        2PY        -0.02105  -0.00111  -0.00451  -0.01766   0.02157
   5        2PZ         0.01160  -0.01015  -0.00603  -0.00525  -0.00527
   6        3S          0.08634  -0.00143  -0.11414   0.00328   0.08351
   7        3PX         0.18550   0.01033   0.11178   0.12751  -0.02669
   8        3PY         0.03913   0.04631  -0.03988   0.07698  -0.09579
   9        3PZ        -0.01224  -0.00681  -0.08777   0.10825   0.11403
  10        4S         -0.80103  -0.48942   1.09929   0.13112  -0.32972
  11        4PX         0.37478   0.18424   0.13188   0.05734  -0.21505
  12        4PY         0.47665   0.11807   0.13113   0.02017   0.07595
  13        4PZ        -0.29417  -0.19726   0.42692   0.05089  -0.12826
  14 2   Cl 1S         -0.01904  -0.01084   0.00926  -0.00059  -0.00027
  15        2S          0.11334   0.06491  -0.05570   0.00330   0.00174
  16        2PX         0.01218   0.01361  -0.02617  -0.00215   0.00717
  17        2PY         0.02922   0.02370  -0.02573  -0.00647  -0.00144
  18        2PZ        -0.03502   0.01082  -0.03100  -0.00697   0.00569
  19        3S         -0.74316  -0.41194   0.34676  -0.03717  -0.00336
  20        3PX        -0.06370  -0.06097   0.10812   0.00455  -0.02695
  21        3PY        -0.12756  -0.09869   0.10448   0.02090   0.00897
  22        3PZ         0.12863  -0.04325   0.12278   0.02816  -0.02261
  23        4S          1.26438   0.65772  -0.52629   0.06748   0.00629
  24        4PX         0.27497   0.16821  -0.21792   0.02033   0.04020
  25        4PY         0.34282   0.21584  -0.20151   0.00439  -0.03801
  26        4PZ        -0.13722   0.07013  -0.19948  -0.04909   0.03973
  27 3   Cl 1S          0.00368  -0.00602   0.02139  -0.00097  -0.01195
  28        2S         -0.02343   0.03534  -0.12831   0.00638   0.07117
  29        2PX         0.00557  -0.01701   0.05294  -0.01232  -0.02567
  30        2PY        -0.04365  -0.03478  -0.03114  -0.00595  -0.00353
  31        2PZ        -0.04646   0.01764  -0.07073   0.00497   0.02165
  32        3S          0.06594  -0.27292   0.82297  -0.04783  -0.54251
  33        3PX        -0.01756   0.07201  -0.22621   0.05894   0.12778
  34        3PY         0.16171   0.12640   0.13164   0.01943   0.00243
  35        3PZ         0.16054  -0.09047   0.29350  -0.03646  -0.12809
  36        4S          0.00718   0.42104  -1.22262   0.00109   0.84927
  37        4PX        -0.01363  -0.15551   0.49766  -0.09841  -0.34026
  38        4PY        -0.21261  -0.11565  -0.27385  -0.04220   0.06694
  39        4PZ        -0.07542   0.28161  -0.53980   0.08057   0.37835
  40 4   Cl 1S         -0.00860  -0.00135   0.00666  -0.00334  -0.00009
  41        2S          0.05249   0.00777  -0.03916   0.02093   0.00003
  42        2PX        -0.00423  -0.01727  -0.00191   0.01493  -0.00063
  43        2PY        -0.06986   0.00005   0.00962  -0.02206   0.01077
  44        2PZ         0.06664  -0.00896   0.01653   0.02283  -0.00045
  45        3S         -0.27861  -0.06634   0.28618  -0.09046  -0.02826
  46        3PX         0.02444   0.06815   0.01259  -0.05494  -0.00267
  47        3PY         0.26943   0.00507  -0.04629   0.08307  -0.03676
  48        3PZ        -0.25323   0.03225  -0.06214  -0.08876  -0.00036
  49        4S          0.30738   0.13999  -0.56087   0.05622   0.07046
  50        4PX        -0.09955  -0.10372  -0.07394   0.04435   0.04875
  51        4PY        -0.39076  -0.06076   0.18147  -0.07789   0.00334
  52        4PZ         0.33916  -0.01644   0.04469   0.10742   0.02086
  53 5   N  1S         -0.01660   0.08336   0.05590   0.00710   0.00046
  54        2S          0.02600  -0.12553  -0.08397  -0.02830  -0.01359
  55        2PX        -0.04374   0.04970   0.21174   0.46149   0.41946
  56        2PY         0.02756   0.05601  -0.14181   0.69258  -0.85604
  57        2PZ        -0.09020   0.16790   0.07721  -0.72294  -0.55155
  58        3S          0.05297  -0.16376  -0.21933   0.12117   0.14837
  59        3PX        -0.31787  -0.46577   0.01072  -0.63000  -0.67352
  60        3PY        -0.49121   0.14029  -0.22974  -0.90440   1.28962
  61        3PZ         0.22214  -0.30086  -0.36763   0.92896   0.78822
  62 6   H  1S         -1.00109   0.81952  -0.01923   0.21402   0.01914
  63        2S          0.79080  -0.31070   0.01777  -0.90096   0.52992
  64 7   H  1S          0.73363   1.05786   0.01357  -0.07402   0.11098
  65        2S         -0.44599  -0.64559   0.33632   0.60198  -0.02981
  66 8   H  1S          0.00008   0.02414   1.25161   0.11347  -0.05803
[...]
      6        1           0.000000700    0.000002819    0.000003902
      7        1           0.000008951    0.000002846    0.000002560
      8        1          -0.000003368   -0.000004537    0.000001084
 -------------------------------------------------------------------
 Cartesian Forces:  Max     0.000029168 RMS     0.000011800
 FormGI is forming the generalized inverse of G from B-inverse, IUseBI=4.

 GradGradGradGradGradGradGradGradGradGradGradGradGradGradGradGradGradGrad
 Berny optimization.
 Internal  Forces:  Max     0.000030339 RMS     0.000011729
 Search for a local minimum.
 Step number   1 out of a maximum of    2
 All quantities printed in internal units (Hartrees-Bohrs-Radians)
 Second derivative matrix not updated -- analytic derivatives used.
 ITU=  0
     Eigenvalues ---    0.00060   0.03715   0.03716   0.05106   0.05107
     Eigenvalues ---    0.09730   0.09732   0.11624   0.12784   0.12784
     Eigenvalues ---    0.15423   0.16512   0.16713   0.16716   0.21035
     Eigenvalues ---    0.47015   0.47016   0.47513
 Angle between quadratic step and forces=  60.22 degrees.
 Linear search not attempted -- first point.
 Iteration  1 RMS(Cart)=  0.00021897 RMS(Int)=  0.00000003
 Iteration  2 RMS(Cart)=  0.00000002 RMS(Int)=  0.00000001
 Variable       Old X    -DE/DX   Delta X   Delta X   Delta X     New X
                                 (Linear)    (Quad)   (Total)
    R1        4.15429   0.00002   0.00000   0.00012   0.00012   4.15441
    R2        4.15425   0.00003   0.00000   0.00016   0.00016   4.15441
    R3        4.15426   0.00002   0.00000   0.00015   0.00015   4.15441
    R4        3.73480   0.00000   0.00000  -0.00004  -0.00004   3.73476
    R5        1.91907  -0.00000   0.00000  -0.00001  -0.00001   1.91906
    R6        1.91908  -0.00001   0.00000  -0.00002  -0.00002   1.91906
    R7        1.91907  -0.00001   0.00000  -0.00001  -0.00001   1.91906
    A1        2.03318   0.00000   0.00000   0.00020   0.00020   2.03338
    A2        2.03355  -0.00001   0.00000  -0.00017  -0.00017   2.03338
    A3        1.76121   0.00001   0.00000   0.00001   0.00001   1.76122
    A4        2.03357  -0.00002   0.00000  -0.00019  -0.00019   2.03338
    A5        1.76101   0.00003   0.00000   0.00021   0.00021   1.76122
    A6        1.76119   0.00001   0.00000   0.00004   0.00004   1.76122
    A7        1.92520  -0.00000   0.00000   0.00000   0.00000   1.92521
    A8        1.92521  -0.00000   0.00000  -0.00000  -0.00000   1.92521
    A9        1.92523   0.00000   0.00000  -0.00002  -0.00002   1.92521
   A10        1.89581   0.00000   0.00000   0.00002   0.00002   1.89583
   A11        1.89583   0.00000   0.00000   0.00000   0.00000   1.89583
   A12        1.89584  -0.00000   0.00000  -0.00001  -0.00001   1.89583
    D1        1.04731   0.00001   0.00000  -0.00011  -0.00011   1.04720
    D2       -3.14151   0.00001   0.00000  -0.00008  -0.00008  -3.14159
    D3       -1.04709   0.00001   0.00000  -0.00010  -0.00010  -1.04720
    D4       -1.04680  -0.00001   0.00000  -0.00040  -0.00040  -1.04720
    D5        1.04757  -0.00001   0.00000  -0.00037  -0.00037   1.04720
    D6       -3.14120  -0.00001   0.00000  -0.00039  -0.00039  -3.14159
    D7       -3.14131  -0.00000   0.00000  -0.00028  -0.00028  -3.14159
    D8       -1.04695  -0.00000   0.00000  -0.00025  -0.00025  -1.04720
    D9        1.04747  -0.00000   0.00000  -0.00027  -0.00027   1.04720
         Item               Value     Threshold  Converged?
 Maximum Force            0.000030     0.000450     YES
 RMS     Force            0.000012     0.000300     YES
 Maximum Displacement     0.000561     0.001800     YES
 RMS     Displacement     0.000219     0.001200     YES
 Predicted change in Energy=-1.462885D-08
 Optimization completed.
    -- Stationary point found.
                           ----------------------------
                           !   Optimized Parameters   !
                           ! (Angstroms and Degrees)  !
 --------------------------                            --------------------------
 ! Name  Definition              Value          Derivative Info.                !
 --------------------------------------------------------------------------------
 ! R1    R(1,2)                  2.1984         -DE/DX =    0.0                 !
 ! R2    R(1,3)                  2.1983         -DE/DX =    0.0                 !
 ! R3    R(1,4)                  2.1983         -DE/DX =    0.0                 !
 ! R4    R(1,5)                  1.9764         -DE/DX =    0.0                 !
 ! R5    R(5,6)                  1.0155         -DE/DX =    0.0                 !
 ! R6    R(5,7)                  1.0155         -DE/DX =    0.0                 !
 ! R7    R(5,8)                  1.0155         -DE/DX =    0.0                 !
 ! A1    A(2,1,3)              116.4929         -DE/DX =    0.0                 !
 ! A2    A(2,1,4)              116.5139         -DE/DX =    0.0                 !
 ! A3    A(2,1,5)              100.9097         -DE/DX =    0.0                 !
 ! A4    A(3,1,4)              116.515          -DE/DX =    0.0                 !
 ! A5    A(3,1,5)              100.8983         -DE/DX =    0.0                 !
 ! A6    A(4,1,5)              100.9085         -DE/DX =    0.0                 !
 ! A7    A(1,5,6)              110.3061         -DE/DX =    0.0                 !
 ! A8    A(1,5,7)              110.3064         -DE/DX =    0.0                 !
 ! A9    A(1,5,8)              110.3073         -DE/DX =    0.0                 !
 ! A10   A(6,5,7)              108.6221         -DE/DX =    0.0                 !
 ! A11   A(6,5,8)              108.6233         -DE/DX =    0.0                 !
 ! A12   A(7,5,8)              108.6238         -DE/DX =    0.0                 !
 ! D1    D(2,1,5,6)             60.0064         -DE/DX =    0.0                 !
 ! D2    D(2,1,5,7)           -179.9953         -DE/DX =    0.0                 !
 ! D3    D(2,1,5,8)            -59.994          -DE/DX =    0.0                 !
 ! D4    D(3,1,5,6)            -59.9772         -DE/DX =    0.0                 !
 ! D5    D(3,1,5,7)             60.0211         -DE/DX =    0.0                 !
 ! D6    D(3,1,5,8)           -179.9776         -DE/DX =    0.0                 !
 ! D7    D(4,1,5,6)           -179.9841         -DE/DX =    0.0                 !
 ! D8    D(4,1,5,7)            -59.9858         -DE/DX =    0.0                 !
 ! D9    D(4,1,5,8)             60.0155         -DE/DX =    0.0                 !
 --------------------------------------------------------------------------------
 GradGradGradGradGradGradGradGradGradGradGradGradGradGradGradGradGradGrad


 ----------------------------------------------------------------------

 Electric dipole moment (input orientation):
 (Debye = 10**-18 statcoulomb cm , SI units = C m)
                  (au)            (Debye)         (10**-30 SI)
   Tot        0.311260D+01      0.791144D+01      0.263897D+02
   x         -0.517042D+00     -0.131419D+01     -0.438366D+01
   y         -0.503797D+00     -0.128052D+01     -0.427137D+01
   z         -0.302773D+01     -0.769571D+01     -0.256701D+02

 Dipole polarizability, Alpha (input orientation).
 (esu units = cm**3 , SI units = C**2 m**2 J**-1)
 Alpha(0;0):
               (au)            (10**-24 esu)      (10**-40 SI)
   iso        0.423573D+02      0.627671D+01      0.698378D+01
   aniso      0.200833D+02      0.297604D+01      0.331129D+01
   xx         0.484976D+02      0.718660D+01      0.799617D+01
   yx        -0.544312D+00     -0.806588D-01     -0.897450D-01
   yy         0.485265D+02      0.719089D+01      0.800095D+01
   zx        -0.324058D+01     -0.480205D+00     -0.534300D+00
   zy        -0.316329D+01     -0.468751D+00     -0.521556D+00
   zz         0.300479D+02      0.445263D+01      0.495422D+01

 First dipole hyperpolarizability, Beta (input orientation).
 ||, _|_  parallel and perpendicular components, (z) with respect to z axis,
 vector components x,y,z.  Values do not include the 1/n! factor of 1/2.
 (esu units = statvolt**-1 cm**4 , SI units = C**3 m**3 J**-2)
 Beta(0;0,0):
               (au)            (10**-30 esu)      (10**-50 SI)
   || (z)    -0.475451D+02     -0.410753D+00     -0.152447D+00
   _|_(z)    -0.158484D+02     -0.136918D+00     -0.508156D-01
   x         -0.407266D+02     -0.351846D+00     -0.130584D+00
   y         -0.393456D+02     -0.339915D+00     -0.126156D+00
   z         -0.237726D+03     -0.205376D+01     -0.762234D+00
   ||         0.488754D+02      0.422245D+00      0.156712D+00
   xxx       -0.705443D+02     -0.609448D+00     -0.226190D+00
   xxy       -0.192122D+02     -0.165979D+00     -0.616014D-01
   yxy        0.487249D+02      0.420945D+00      0.156230D+00
   yyy       -0.576644D+01     -0.498176D-01     -0.184893D-01
   xxz       -0.204008D+02     -0.176247D+00     -0.654123D-01
   yxz       -0.415229D+01     -0.358726D-01     -0.133137D-01
   yyz       -0.430157D+02     -0.371622D+00     -0.137924D+00
   zxz        0.824388D+01      0.712207D-01      0.264328D-01
   zyz        0.118635D+02      0.102491D+00      0.380386D-01
   zzz       -0.158253D+02     -0.136718D+00     -0.507417D-01

 ----------------------------------------------------------------------

 Dipole orientation:
    13         -5.91433982          0.24872059          3.44541772
    17         -1.84816481         -0.07641376          2.65890126
    17         -7.66508983          3.93312613          2.65937999
    17         -8.22951157         -3.11002771          2.66014281
     7         -5.91402993          0.24948638          7.18021507
     1         -4.89292568          1.73176789          7.84581196
     1         -7.70807808          0.39285855          7.84633544
     1         -5.14094104         -1.37569983          7.84650855

 Electric dipole moment (dipole orientation):
 (Debye = 10**-18 statcoulomb cm , SI units = C m)
                  (au)            (Debye)         (10**-30 SI)
   Tot        0.311260D+01      0.791144D+01      0.263897D+02
   x          0.000000D+00      0.000000D+00      0.000000D+00
   y          0.000000D+00      0.000000D+00      0.000000D+00
   z          0.311260D+01      0.791144D+01      0.263897D+02

 Dipole polarizability, Alpha (dipole orientation).
 (esu units = cm**3 , SI units = C**2 m**2 J**-1)
 Alpha(0;0):
               (au)            (10**-24 esu)      (10**-40 SI)
   iso        0.423573D+02      0.627671D+01      0.698378D+01
   aniso      0.200833D+02      0.297604D+01      0.331129D+01
   xx         0.490504D+02      0.726851D+01      0.808731D+01
   yx         0.476655D-02      0.706329D-03      0.785897D-03
   yy         0.490532D+02      0.726893D+01      0.808778D+01
   zx        -0.374114D-02     -0.554380D-03     -0.616831D-03
   zy        -0.180591D-02     -0.267608D-03     -0.297754D-03
   zz         0.289685D+02      0.429268D+01      0.477625D+01

 First dipole hyperpolarizability, Beta (dipole orientation).
 ||, _|_  parallel and perpendicular components, (z) with respect to z axis,
 vector components x,y,z.  Values do not include the 1/n! factor of 1/2.
 (esu units = statvolt**-1 cm**4 , SI units = C**3 m**3 J**-2)
 Beta(0;0,0):
               (au)            (10**-30 esu)      (10**-50 SI)
   || (z)     0.488754D+02      0.422245D+00      0.156712D+00
   _|_(z)     0.162918D+02      0.140748D+00      0.522374D-01
   x         -0.131467D+00     -0.113578D-02     -0.421532D-03
   y         -0.209609D+00     -0.181086D-02     -0.672083D-03
   z          0.244377D+03      0.211123D+01      0.783561D+00
   ||         0.488754D+02      0.422245D+00      0.156712D+00
   xxx       -0.562703D+02     -0.486132D+00     -0.180423D+00
   xxy        0.137245D+02      0.118569D+00      0.440057D-01
   yxy        0.562388D+02      0.485860D+00      0.180322D+00
   yyy       -0.137722D+02     -0.118982D+00     -0.441588D-01
   xxz        0.353464D+02      0.305365D+00      0.113333D+00
   yxz       -0.612132D-02     -0.528834D-04     -0.196272D-04
   yyz        0.353329D+02      0.305248D+00      0.113290D+00
   zxz       -0.123106D-01     -0.106354D-03     -0.394723D-04
   zyz       -0.221314D-01     -0.191198D-03     -0.709611D-04
   zzz        0.107798D+02      0.931288D-01      0.345638D-01

 ----------------------------------------------------------------------
 1\1\GINC-IISERK51\Freq\RHF\3-21G\Al1Cl3H3N1\GAUSSIAN\13-Jun-2025\0\\#N
  Geom=AllCheck Guess=TCheck SCRF=Check GenChk RHF/3-21G Freq\\NH3 - Al
 Cl3 Adduct Optimisation\\0,1\Al,-3.3870256753,-0.3823181059,-1.2323305
 175\Cl,-1.1986033647,-0.1745092695,-1.212749762\Cl,-4.2048562677,-2.22
 61777926,-0.3582494055\Cl,-4.5502213048,1.4554087366,-0.9122821331\N,-
 3.7151582284,-0.7026099825,-3.1547714941\H,-3.2301885855,-1.5409564891
 ,-3.460185072\H,-4.7087683619,-0.8215866947,-3.3276734419\H,-3.3820697
 973,0.083336133,-3.7049006239\\Version=EM64L-G16RevB.01\State=1-A\HF=-
 1668.675037\RMSD=5.634e-10\RMSF=1.180e-05\ZeroPoint=0.0475055\Thermal=
 0.0552099\Dipole=-0.5170416,-0.5037967,-3.0277263\DipoleDeriv=2.101595
 7,-0.0094461,-0.0565378,-0.0094459,2.1020821,-0.0551812,-0.0565465,-0.
 0552076,1.7797151,-0.8952628,-0.0303704,-0.0219155,-0.0162329,-0.60784
 03,0.0017298,0.0716145,0.0104989,-0.5814297,-0.6503785,-0.1015177,0.06
 22086,-0.093933,-0.8234884,0.1287414,0.0208029,0.0435338,-0.6107041,-0
 .6940704,0.1455531,0.0416305,0.1238278,-0.8090486,-0.0505084,-0.010515
 1,0.0259015,-0.5813724,-0.6737433,-0.0102601,-0.0616504,-0.0102487,-0.
 6732577,-0.0602118,-0.0616352,-0.0601407,-1.0243416,0.27352,-0.0154199
 ,0.0105884,0.0012507,0.2657866,0.0183354,0.0506006,-0.0403084,0.341229
 ,0.2690908,0.0036861,0.0187867,-0.0071325,0.2616186,0.0152897,-0.05300
 36,0.0085726,0.3498056,0.2692484,0.0177751,0.0068895,0.0119144,0.28414
 78,0.0018051,0.0386826,0.06715,0.3270981\Polar=48.4975921,-0.5443124,4
 8.5265451,-3.2405828,-3.1632899,30.0478574\PolarDeriv=0.5555821,0.0246
 214,-0.2207042,-0.7091182,0.0051809,-0.0452977,0.3849118,-0.5897838,-0
 .0212472,0.0049909,-0.504314,-0.0776142,1.4538473,0.0051907,1.6588987,
 -0.4149048,-0.438006,-1.4076729,12.6136196,0.5798528,1.0588597,-0.1313
 932,-0.1217707,0.1177028,0.2226682,5.1601219,0.8240166,-0.069729,-0.32
 21125,0.1875342,0.0346596,-0.0003862,-0.8865316,4.5470476,0.6893129,0.
 4761307,-4.5976737,-4.4051656,-0.5947843,1.9658439,0.476567,-0.0777422
 ,-1.1488673,-2.0364791,-10.3148801,0.5265278,2.6071756,-0.3093101,-0.0
 810705,0.7064202,0.9462947,-1.7486544,-4.1401305,4.1758584,-6.4588216,
 4.4508369,-1.1165768,0.7990218,-0.2495821,0.1144043,1.0802153,-3.29242
 86,10.2625171,-0.3516287,0.6134153,0.2267904,-0.1544336,-0.6011162,0.0
 045285,-2.1599838,4.0276845,1.6791504,2.4948827,0.8220207,-1.3996971,2
 .3659376,-0.0086187,-1.012452,0.4424763,-1.0112173,0.7283473,-0.008336
 9,2.9847863,-1.091707,0.0901693,-0.0083092,0.7087847,-0.6239846,-0.712
 3627,-0.3146884,1.1039462,-1.6647681,1.3361358,-1.1185902,0.4150329,0.
 8040044,-0.7784192,1.7746697,-4.2497008,0.463259,-2.1148017,-0.7860607
 ,-0.0242965,0.7632899,-1.3261196,1.2134401,-1.9274856,-1.1881042,-6.22
 366,-0.7710991,0.0356602,-1.8084349,-0.2020432,-0.6917446,-0.6009592,-
 1.1021894,-0.4393015,-0.2183701,-0.9530893,0.151237,-1.3776162,-0.2879
 251,0.2109323,-1.9250066,-0.1406003,-0.4644371,0.5121248,0.963701,0.90
 11067,-1.3632668,-0.3147662,0.7911248,0.397974,1.0973066,3.2102486,-0.
 346713,-2.3110596,1.6991305,0.0587406,-0.5771641,-1.3167876,1.1120465,
 2.6415877,-2.9562369\HyperPolar=-70.5442724,-19.2122387,48.7248777,-5.
 7664414,-20.4007906,-4.1522899,-43.0157346,8.2438756,11.8634917,-15.82
 53138\Quadrupole=-6.299751,-6.3281919,12.627943,0.5552944,3.3267512,3.
 2466824\PG=C01 [X(Al1Cl3H3N1)]\NImag=0\\0.23598194,-0.00163489,0.23609
 063,-0.00966824,-0.00944074,0.18089282,-0.13369230,-0.01180043,-0.0022
 2784,0.15301234,-0.01147729,-0.01234894,-0.00040118,0.01410849,0.01173
 265,-0.00007606,-0.00019957,-0.01249492,0.00496416,0.00045444,0.010280
 37,-0.02838006,-0.03873128,0.01849579,-0.00462407,-0.00623449,0.003350
 49,0.02961711,-0.03855490,-0.09826047,0.04186990,-0.00258144,-0.001101
 66,0.00193999,0.04376230,0.10968237,0.01754297,0.03991009,-0.03190217,
 0.00037296,0.00094655,0.00185307,-0.02227152,-0.05050384,0.03574066,-0
 .04589055,0.05490304,0.00982369,-0.00618526,0.00609953,0.00171909,0.00
 184216,-0.00067965,0.00047300,0.04961269,0.05440332,-0.09759439,-0.015
 99662,0.00171088,-0.00005441,-0.00063641,0.00257449,-0.00782975,-0.000
 17543,-0.06292035,0.11110007,0.00862448,-0.01423942,-0.01506039,-0.000
 19043,-0.00010134,0.00237396,-0.00034095,0.00328037,0.00212239,-0.0128
 9921,0.02055882,0.01431537,-0.03614855,-0.00166774,-0.01001102,-0.0081
 4659,-0.00286641,-0.01206021,0.00260465,-0.00177878,0.00441457,0.00173
 865,0.00431507,0.00566672,0.73195558,-0.00166724,-0.03606760,-0.009771
 31,-0.00162077,0.00263430,-0.00189925,-0.00110169,-0.00127756,0.011283
 68,0.00239433,-0.00514890,-0.01131283,-0.00856458,0.73239490,-0.010011
 13,-0.00977104,-0.09309247,-0.00378437,-0.00112411,-0.00204121,0.00074
 946,0.00374923,-0.00888825,0.00105516,-0.00455358,-0.00414430,-0.05139
 063,-0.05016510,0.43969899,0.00502270,-0.00245319,-0.00026753,-0.00054
 215,0.00054409,0.00072438,-0.00078318,-0.00012288,-0.00043402,0.000171
 27,-0.00050007,-0.00086597,-0.15649782,0.13403325,0.05062567,0.1624033
 4,0.00136356,-0.00049031,-0.00459782,0.00032574,-0.00008575,0.00089387
 ,-0.00018830,-0.00077946,0.00020416,-0.00014600,0.00043322,0.00034411,
 0.14324318,-0.32273913,-0.07977718,-0.15876783,0.34447379,0.00888904,-
 0.01802146,-0.00854314,0.00083317,0.00167717,0.00079966,-0.00122308,0.
 00041664,0.00173412,-0.00001509,-0.00090318,-0.00214609,0.07271498,-0.
 11216188,-0.09279351,-0.06105800,0.09650199,0.08822387,-0.00141064,-0.
 00114507,-0.00459825,0.00060370,0.00011138,0.00041141,-0.00036588,-0.0
 0022249,0.00071849,-0.00049473,0.00042761,0.00048223,-0.42065047,-0.03
 932831,-0.04925503,-0.01999505,-0.00528777,-0.00613870,0.45512142,-0.0
 0362135,0.00282117,-0.00176306,-0.00011883,0.00001974,-0.00029929,-0.0
 0013346,-0.00085534,-0.00038074,0.00052223,-0.00013627,0.00099234,-0.0
 4530222,-0.08412656,-0.00276216,0.04219357,0.00766260,0.00787612,0.045
 46892,0.07644235,-0.02103345,-0.00329970,-0.00542163,-0.00111524,-0.00
 044195,-0.00216503,0.00137970,-0.00085837,0.00139293,0.00104152,0.0015
 8427,0.00080308,-0.08890525,-0.00647015,-0.06723668,0.01641830,0.00115
 649,0.00340091,0.06365396,0.00475507,0.06352013,0.00451746,0.00252957,
 -0.00154660,-0.00042568,-0.00028529,0.00096675,0.00008927,0.00017785,-
 0.00081645,-0.00079423,-0.00001095,-0.00047687,-0.11485545,-0.08414499
 ,0.06201086,0.01022088,0.01945743,-0.01400233,-0.01280835,-0.03900886,
 0.02856046,0.11405610,0.00118880,0.00584991,0.00010083,-0.00002363,-0.
 00079594,-0.00025378,0.00005244,0.00042187,-0.00128448,-0.00017313,-0.
 00076956,0.00047795,-0.08737850,-0.28566944,0.14440394,-0.01492694,-0.
 02847496,0.02461460,-0.00002428,-0.00182769,0.00357435,0.10128525,0.31
 126582,0.00573240,0.01506183,-0.01437811,0.00114758,-0.00100957,0.0013
 9410,-0.00013988,0.00010607,-0.00205274,-0.00119817,0.00012215,0.00173
 597,0.07957084,0.18049684,-0.17150258,-0.00514284,-0.01472561,0.009324
 19,-0.00527411,-0.00841829,0.00570629,-0.07469582,-0.17163342,0.169772
 88\\-0.00000326,0.00001531,0.00002917,-0.00001929,-0.00001060,-0.00000
 181,0.00001694,0.00001883,-0.00002066,0.00000845,-0.00001604,-0.000008
 44,0.00000346,-0.00000637,0.00000928,-0.00000070,-0.00000282,-0.000003
 90,-0.00000895,-0.00000285,-0.00000256,0.00000337,0.00000454,-0.000001
 08\\\@


 We find comfort among those who agree with us -- growth among those who don't.
 -- Frank A. Clark
 Job cpu time:       0 days  0 hours  0 minutes  1.7 seconds.
 Elapsed time:       0 days  0 hours  0 minutes  1.7 seconds.
 File lengths (MBytes):  RWF=     10 Int=      0 D2E=      0 Chk=      2 Scr=      1
 Normal termination of Gaussian 16 at Fri Jun 13 22:25:54 2025.
