 Entering Gaussian System, Link 0=g16
 Input=/home/gaussian/Documents/Summer_Internship/Acid_Base_adduct/Adduct/NH3_only_adduct_sp.com
 Output=/home/gaussian/Documents/Summer_Internship/Acid_Base_adduct/Adduct/NH3_only_adduct_sp.log
 Initial command:
 /usr/local/g16/l1.exe "/home/gaussian/tmp/Gau-33445.inp" -scrdir="/home/gaussian/tmp/"
 Entering Link 1 = /usr/local/g16/l1.exe PID=     33448.
  
 Copyright (c) 1988-2017, Gaussian, Inc.  All Rights Reserved.
  
 This is part of the Gaussian(R) 16 program.  It is based on
 the Gaussian(R) 09 system (copyright 2009, Gaussian, Inc.),
 the Gaussian(R) 03 system (copyright 2003, Gaussian, Inc.),
 the Gaussian(R) 98 system (copyright 1998, Gaussian, Inc.),
 the Gaussian(R) 94 system (copyright 1995, Gaussian, Inc.),
 the Gaussian 92(TM) system (copyright 1992, Gaussian, Inc.),
 the Gaussian 90(TM) system (copyright 1990, Gaussian, Inc.),
 the Gaussian 88(TM) system (copyright 1988, Gaussian, Inc.),
 the Gaussian 86(TM) system (copyright 1986, Carnegie Mellon
 University), and the Gaussian 82(TM) system (copyright 1983,
 Carnegie Mellon University). Gaussian is a federally registered
 trademark of Gaussian, Inc.
  
 This software contains proprietary and confidential information,
 including trade secrets, belonging to Gaussian, Inc.
  
 This software is provided under written license and may be
 used, copied, transmitted, or stored only in accord with that
 written license.
  
 The following legend is applicable only to US Government
 contracts under FAR:
  
                    RESTRICTED RIGHTS LEGEND
  
 Use, reproduction and disclosure by the US Government is
 subject to restrictions as set forth in subparagraphs (a)
 and (c) of the Commercial Computer Software - Restricted
 Rights clause in FAR 52.227-19.
  
 Gaussian, Inc.
 340 Quinnipiac St., Bldg. 40, Wallingford CT 06492
  
  
 ---------------------------------------------------------------
 Warning -- This program may not be used in any manner that
 competes with the business of Gaussian, Inc. or will provide
 assistance to any competitor of Gaussian, Inc.  The licensee
 of this program is prohibited from giving any competitor of
 Gaussian, Inc. access to this program.  By using this program,
 the user acknowledges that Gaussian, Inc. is engaged in the
 business of creating and licensing software in the field of
 computational chemistry and represents and warrants to the
 licensee that it is not a competitor of Gaussian, Inc. and that
 it will not use this program in any manner prohibited above.
 ---------------------------------------------------------------
  

 Cite this work as:
 Gaussian 16, Revision B.01,
 M. J. Frisch, G. W. Trucks, H. B. Schlegel, G. E. Scuseria, 
 M. A. Robb, J. R. Cheeseman, G. Scalmani, V. Barone, 
 G. A. Petersson, H. Nakatsuji, X. Li, M. Caricato, A. V. Marenich, 
 J. Bloino, B. G. Janesko, R. Gomperts, B. Mennucci, H. P. Hratchian, 
 J. V. Ortiz, A. F. Izmaylov, J. L. Sonnenberg, D. Williams-Young, 
 F. Ding, F. Lipparini, F. Egidi, J. Goings, B. Peng, A. Petrone, 
 T. Henderson, D. Ranasinghe, V. G. Zakrzewski, J. Gao, N. Rega, 
 G. Zheng, W. Liang, M. Hada, M. Ehara, K. Toyota, R. Fukuda, 
 J. Hasegawa, M. Ishida, T. Nakajima, Y. Honda, O. Kitao, H. Nakai, 
 T. Vreven, K. Throssell, J. A. Montgomery, Jr., J. E. Peralta, 
 F. Ogliaro, M. J. Bearpark, J. J. Heyd, E. N. Brothers, K. N. Kudin, 
 V. N. Staroverov, T. A. Keith, R. Kobayashi, J. Normand, 
 K. Raghavachari, A. P. Rendell, J. C. Burant, S. S. Iyengar, 
 J. Tomasi, M. Cossi, J. M. Millam, M. Klene, C. Adamo, R. Cammi, 
 J. W. Ochterski, R. L. Martin, K. Morokuma, O. Farkas, 
 J. B. Foresman, and D. J. Fox, Gaussian, Inc., Wallingford CT, 2016.
 
 ******************************************
 Gaussian 16:  EM64L-G16RevB.01 20-Dec-2017
                13-Jun-2025 
 ******************************************
 %chk=NH3_only_adduct_sp.chk
 -------------------------------------
 # hf/3-21g pop=full geom=connectivity
 -------------------------------------
 1/38=1,57=2,172=1/1;
 2/12=2,17=6,18=5,40=1/2;
 3/5=5,11=9,25=1,30=1/1,2,3;
 4//1;
 5/5=2,38=5/2;
 6/7=3,28=1/1;
 99/5=1,9=1/99;
 -------------------------------
 NH3 - AlCl3 Adduct Optimisation
 -------------------------------
 Symbolic Z-matrix:
 Charge =  0 Multiplicity = 1
 N                     0.00006  -0.00036   1.98164 
 H                    -0.95234   0.00627   2.33403 
 H                     0.47043  -0.82859   2.33393 
 H                     0.48205   0.82101   2.33426 
 
                          Input orientation:                          
 ---------------------------------------------------------------------
 Center     Atomic      Atomic             Coordinates (Angstroms)
 Number     Number       Type             X           Y           Z
 ---------------------------------------------------------------------
      1          7           0        0.000064   -0.000358    1.981641
      2          1           0       -0.952340    0.006269    2.334034
      3          1           0        0.470428   -0.828586    2.333930
      4          1           0        0.482049    0.821014    2.334260
 ---------------------------------------------------------------------
                    Distance matrix (angstroms):
                    1          2          3          4
     1  N    0.000000
     2  H    1.015528   0.000000
     3  H    1.015535   1.649622   0.000000
     4  H    1.015530   1.649631   1.649641   0.000000
 Stoichiometry    H3N
 Framework group  C1[X(H3N)]
 Deg. of freedom     6
 Full point group                 C1      NOp   1
 Largest Abelian subgroup         C1      NOp   1
 Largest concise Abelian subgroup C1      NOp   1
                         Standard orientation:                         
 ---------------------------------------------------------------------
 Center     Atomic      Atomic             Coordinates (Angstroms)
 Number     Number       Type             X           Y           Z
 ---------------------------------------------------------------------
      1          7           0        0.000002   -0.000000   -0.105730
      2          1           0       -0.227942    0.924733    0.246702
      3          1           0       -0.686889   -0.659761    0.246701
      4          1           0        0.914814   -0.264969    0.246708
 ---------------------------------------------------------------------
 Rotational constants (GHZ):         300.7980529         300.7914167         184.2715919
 Standard basis: 3-21G (6D, 7F)
 There are    15 symmetry adapted cartesian basis functions of A   symmetry.
 There are    15 symmetry adapted basis functions of A   symmetry.
    15 basis functions,    24 primitive gaussians,    15 cartesian basis functions
     5 alpha electrons        5 beta electrons
       nuclear repulsion energy        11.9051219948 Hartrees.
 NAtoms=    4 NActive=    4 NUniq=    4 SFac= 1.00D+00 NAtFMM=   60 NAOKFM=F Big=F
 Integral buffers will be    131072 words long.
 Raffenetti 1 integral format.
 Two-electron integral symmetry is turned on.
 One-electron integrals computed using PRISM.
 NBasis=    15 RedAO= T EigKep=  7.07D-02  NBF=    15
 NBsUse=    15 1.00D-06 EigRej= -1.00D+00 NBFU=    15
 ExpMin= 1.83D-01 ExpMax= 2.43D+02 ExpMxC= 2.43D+02 IAcc=3 IRadAn=         5 AccDes= 0.00D+00
 Harris functional with IExCor=  205 and IRadAn=       5 diagonalized for initial guess.
 HarFok:  IExCor=  205 AccDes= 0.00D+00 IRadAn=         5 IDoV= 1 UseB2=F ITyADJ=14
 ICtDFT=  3500011 ScaDFX=  1.000000  1.000000  1.000000  1.000000
 FoFCou: FMM=F IPFlag=           0 FMFlag=      100000 FMFlg1=           0
         NFxFlg=           0 DoJE=T BraDBF=F KetDBF=T FulRan=T
         wScrn=  0.000000 ICntrl=       500 IOpCl=  0 I1Cent=   200000004 NGrid=           0
         NMat0=    1 NMatS0=      1 NMatT0=    0 NMatD0=    1 NMtDS0=    0 NMtDT0=    0
 Petite list used in FoFCou.
 Keep R1 ints in memory in canonical form, NReq=810802.
 Requested convergence on RMS density matrix=1.00D-08 within 128 cycles.
 Requested convergence on MAX density matrix=1.00D-06.
 Requested convergence on             energy=1.00D-06.
 No special actions if energy rises.
 SCF Done:  E(RHF) =  -55.8713393093     A.U. after   10 cycles
            NFock= 10  Conv=0.30D-09     -V/T= 2.0027

 **********************************************************************

            Population analysis using the SCF Density.

 **********************************************************************

 Orbital symmetries:
       Occupied  (A) (A) (A) (A) (A)
       Virtual   (A) (A) (A) (A) (A) (A) (A) (A) (A) (A)
 The electronic state is 1-A.
 Alpha  occ. eigenvalues --  -15.44265  -1.12556  -0.61233  -0.61233  -0.39903
 Alpha virt. eigenvalues --    0.26862   0.37027   0.37027   1.16401   1.16402
 Alpha virt. eigenvalues --    1.32106   1.41678   1.58693   1.58693   2.59031
     Molecular Orbital Coefficients:
                           1         2         3         4         5
                           O         O         O         O         O
     Eigenvalues --   -15.44265  -1.12556  -0.61233  -0.61233  -0.39903
   1 1   N  1S          0.98553  -0.21623  -0.00000   0.00000   0.07088
   2        2S          0.09791   0.19728   0.00000  -0.00000  -0.06927
   3        2PX        -0.00000  -0.00000   0.35914   0.12437  -0.00000
   4        2PY         0.00000   0.00000  -0.12438   0.35914  -0.00000
   5        2PZ         0.00343   0.07660   0.00000   0.00000   0.45927
   6        3S         -0.04948   0.65623   0.00000  -0.00000  -0.31463
   7        3PX         0.00000  -0.00000   0.32242   0.11166  -0.00000
   8        3PY        -0.00000   0.00000  -0.11166   0.32243  -0.00000
   9        3PZ        -0.00677   0.08337   0.00000   0.00000   0.59801
  10 2   H  1S          0.00158   0.11961  -0.14498   0.22369   0.04864
  11        2S          0.00866   0.02373  -0.12479   0.19253   0.04819
  12 3   H  1S          0.00158   0.11960  -0.12123  -0.23740   0.04864
  13        2S          0.00866   0.02373  -0.10435  -0.20434   0.04819
  14 4   H  1S          0.00158   0.11960   0.26621   0.01371   0.04864
  15        2S          0.00866   0.02373   0.22913   0.01180   0.04819
                           6         7         8         9        10
                           V         V         V         V         V
     Eigenvalues --     0.26862   0.37027   0.37027   1.16401   1.16402
   1 1   N  1S         -0.14675  -0.00000  -0.00000  -0.00000   0.00000
   2        2S          0.03457   0.00000  -0.00000   0.00000   0.00000
   3        2PX        -0.00000   0.19847  -0.22589   0.00777   0.06109
   4        2PY        -0.00000   0.22589   0.19847   0.06110  -0.00777
   5        2PZ         0.13538   0.00000  -0.00000   0.00000   0.00000
   6        3S          1.54661   0.00002   0.00001  -0.00001  -0.00001
   7        3PX        -0.00001   0.66119  -0.75253  -0.08828  -0.69417
   8        3PY        -0.00001   0.75253   0.66119  -0.69416   0.08830
   9        3PZ         0.39046   0.00001  -0.00000  -0.00000  -0.00001
  10 2   H  1S         -0.03297  -0.02583  -0.03709   1.01015  -0.38968
  11        2S         -0.79138  -0.83705  -1.20211  -0.56327   0.21728
  12 3   H  1S         -0.03297   0.04504  -0.00382  -0.84258  -0.67997
  13        2S         -0.79140   1.45955  -0.12385   0.46984   0.37915
  14 4   H  1S         -0.03297  -0.01921   0.04091  -0.16761   1.06970
  15        2S         -0.79140  -0.62253   1.32595   0.09346  -0.59646
                          11        12        13        14        15
                           V         V         V         V         V
     Eigenvalues --     1.32106   1.41678   1.58693   1.58693   2.59031
   1 1   N  1S          0.09911  -0.03664   0.00000   0.00000   0.02888
   2        2S         -0.14317   0.06069  -0.00000  -0.00000  -1.79060
   3        2PX         0.00001   0.00000  -0.53544  -0.97692   0.00000
   4        2PY         0.00001   0.00000  -0.97692   0.53544  -0.00000
   5        2PZ        -0.20272  -1.04720  -0.00000  -0.00000  -0.10209
   6        3S         -0.16722   0.25580   0.00000  -0.00000   2.57878
   7        3PX         0.00001  -0.00001   0.67500   1.23154  -0.00001
   8        3PY        -0.00003   0.00000   1.23153  -0.67500   0.00001
   9        3PZ        -0.17574   1.07175   0.00000   0.00000   0.43097
  10 2   H  1S          0.78960  -0.12435   0.12549  -0.11527  -0.24232
  11        2S         -0.35322  -0.09388  -0.66068   0.60696  -0.44126
  12 3   H  1S          0.78957  -0.12436  -0.16256  -0.05102  -0.24232
  13        2S         -0.35322  -0.09387   0.85597   0.26868  -0.44125
  14 4   H  1S          0.78954  -0.12434   0.03709   0.16630  -0.24231
  15        2S         -0.35320  -0.09388  -0.19531  -0.87564  -0.44126
     Density Matrix:
                           1         2         3         4         5
   1 1   N  1S          2.04609
   2        2S          0.09786   0.10661
   3        2PX        -0.00000   0.00000   0.28890
   4        2PY        -0.00000   0.00000  -0.00000   0.28890
   5        2PZ         0.03874  -0.03273  -0.00000   0.00000   0.43362
   6        3S         -0.42592   0.29282   0.00000  -0.00000  -0.18881
   7        3PX         0.00000   0.00000   0.25936   0.00000  -0.00000
   8        3PY        -0.00000   0.00000   0.00000   0.25937   0.00000
   9        3PZ         0.03537  -0.05127  -0.00000  -0.00000   0.56202
  10 2   H  1S         -0.04171   0.04076  -0.04849   0.19673   0.06301
  11        2S          0.01363   0.00438  -0.04174   0.16933   0.04796
  12 3   H  1S         -0.04171   0.04076  -0.14613  -0.14036   0.06301
  13        2S          0.01363   0.00438  -0.12578  -0.12081   0.04796
  14 4   H  1S         -0.04171   0.04076   0.19462  -0.05637   0.06301
  15        2S          0.01363   0.00438   0.16751  -0.04852   0.04796
                           6         7         8         9        10
   6        3S          1.06416
   7        3PX         0.00000   0.23285
   8        3PY        -0.00000   0.00000   0.23285
   9        3PZ        -0.26622  -0.00000  -0.00000   0.72922
  10 2   H  1S          0.12621  -0.04354   0.17662   0.07810   0.17546
  11        2S         -0.00003  -0.03747   0.15202   0.06147   0.13271
  12 3   H  1S          0.12621  -0.13119  -0.12601   0.07810  -0.03771
  13        2S         -0.00003  -0.11292  -0.10846   0.06147  -0.05077
  14 4   H  1S          0.12621   0.17473  -0.05061   0.07810  -0.03771
  15        2S         -0.00003   0.15039  -0.04356   0.06147  -0.05077
                          11        12        13        14        15
  11        2S          0.11120
  12 3   H  1S         -0.05077   0.17546
  13        2S         -0.04672   0.13271   0.11120
  14 4   H  1S         -0.05077  -0.03771  -0.05077   0.17546
  15        2S         -0.04672  -0.05077  -0.04672   0.13271   0.11120
    Full Mulliken population analysis:
                           1         2         3         4         5
   1 1   N  1S          2.04609
   2        2S          0.01907   0.10661
   3        2PX         0.00000   0.00000   0.28890
   4        2PY         0.00000   0.00000  -0.00000   0.28890
   5        2PZ         0.00000   0.00000  -0.00000  -0.00000   0.43362
   6        3S         -0.07847   0.22026   0.00000   0.00000   0.00000
   7        3PX         0.00000   0.00000   0.13383   0.00000  -0.00000
   8        3PY         0.00000   0.00000   0.00000   0.13383  -0.00000
   9        3PZ         0.00000   0.00000  -0.00000   0.00000   0.29000
  10 2   H  1S         -0.00088   0.00710   0.00264   0.04346   0.00531
  11        2S          0.00095   0.00151   0.00153   0.02512   0.00271
  12 3   H  1S         -0.00088   0.00710   0.02398   0.02212   0.00531
  13        2S          0.00095   0.00151   0.01386   0.01278   0.00271
  14 4   H  1S         -0.00088   0.00710   0.04253   0.00357   0.00531
  15        2S          0.00095   0.00151   0.02458   0.00206   0.00271
                           6         7         8         9        10
   6        3S          1.06416
   7        3PX         0.00000   0.23285
   8        3PY         0.00000   0.00000   0.23285
   9        3PZ         0.00000  -0.00000   0.00000   0.72922
  10 2   H  1S          0.04490   0.00535   0.08811   0.01485   0.17546
  11        2S         -0.00002   0.00432   0.07117   0.01097   0.08572
  12 3   H  1S          0.04490   0.04861   0.04485   0.01485  -0.00057
  13        2S         -0.00002   0.03927   0.03623   0.01097  -0.00755
  14 4   H  1S          0.04490   0.08623   0.00723   0.01485  -0.00057
  15        2S         -0.00002   0.06965   0.00584   0.01097  -0.00755
                          11        12        13        14        15
  11        2S          0.11120
  12 3   H  1S         -0.00755   0.17546
  13        2S         -0.01918   0.08572   0.11120
  14 4   H  1S         -0.00755  -0.00057  -0.00755   0.17546
  15        2S         -0.01918  -0.00755  -0.01918   0.08572   0.11120
     Gross orbital populations:
                           1
   1 1   N  1S          1.98690
   2        2S          0.37178
   3        2PX         0.53184
   4        2PY         0.53185
   5        2PZ         0.74767
   6        3S          1.34059
   7        3PX         0.62012
   8        3PY         0.62012
   9        3PZ         1.09667
  10 2   H  1S          0.45578
  11        2S          0.26171
  12 3   H  1S          0.45577
  13        2S          0.26172
  14 4   H  1S          0.45577
  15        2S          0.26171
          Condensed to atoms (all electrons):
               1          2          3          4
     1  N    6.860256   0.329093   0.329093   0.329094
     2  H    0.329093   0.458097  -0.034852  -0.034850
     3  H    0.329093  -0.034852   0.458097  -0.034849
     4  H    0.329094  -0.034850  -0.034849   0.458092
 Mulliken charges:
               1
     1  N   -0.847536
     2  H    0.282512
     3  H    0.282511
     4  H    0.282513
 Sum of Mulliken charges =   0.00000
 Mulliken charges with hydrogens summed into heavy atoms:
               1
     1  N    0.000000
 Electronic spatial extent (au):  <R**2>=             25.8667
 Charge=              0.0000 electrons
 Dipole moment (field-independent basis, Debye):
    X=             -0.0000    Y=              0.0000    Z=              2.0543  Tot=              2.0543
 Quadrupole moment (field-independent basis, Debye-Ang):
   XX=             -5.9221   YY=             -5.9222   ZZ=             -8.6236
   XY=             -0.0000   XZ=              0.0000   YZ=              0.0000
 Traceless Quadrupole moment (field-independent basis, Debye-Ang):
   XX=              0.9006   YY=              0.9005   ZZ=             -1.8010
   XY=             -0.0000   XZ=              0.0000   YZ=              0.0000
 Octapole moment (field-independent basis, Debye-Ang**2):
  XXX=              0.5515  YYY=              0.6225  ZZZ=              1.5241  XYY=             -0.5515
  XXY=             -0.6225  XXZ=              0.8345  XZZ=             -0.0000  YZZ=              0.0000
  YYZ=              0.8345  XYZ=             -0.0000
 Hexadecapole moment (field-independent basis, Debye-Ang**3):
 XXXX=             -8.7678 YYYY=             -8.7678 ZZZZ=             -8.1259 XXXY=              0.0000
 XXXZ=              0.1901 YYYX=             -0.0000 YYYZ=              0.2145 ZZZX=              0.0000
 ZZZY=              0.0000 XXYY=             -2.9226 XXZZ=             -2.8953 YYZZ=             -2.8953
 XXYZ=             -0.2145 YYXZ=             -0.1901 ZZXY=             -0.0000
 N-N= 1.190512199482D+01 E-N=-1.548892905220D+02  KE= 5.572016076129D+01
 Orbital energies and kinetic energies (alpha):
                                 1                 2
   1         O               -15.442649         21.916983
   2         O                -1.125561          1.798763
   3         O                -0.612330          1.252872
   4         O                -0.612325          1.252872
   5         O                -0.399031          1.638591
   6         V                 0.268616          1.136746
   7         V                 0.370272          1.049922
   8         V                 0.370273          1.049918
   9         V                 1.164007          2.089112
  10         V                 1.164018          2.089128
  11         V                 1.321058          2.890713
  12         V                 1.416779          3.757956
  13         V                 1.586928          4.175264
  14         V                 1.586930          4.175270
  15         V                 2.590305          4.657123
 Total kinetic energy from orbitals= 5.572016076129D+01
 1\1\GINC-IISERK51\SP\RHF\3-21G\H3N1\GAUSSIAN\13-Jun-2025\0\\# hf/3-21g
  pop=full geom=connectivity\\NH3 - AlCl3 Adduct Optimisation\\0,1\N,0,
 0.000064,-0.000358,1.981641\H,0,-0.95234,0.006269,2.334034\H,0,0.47042
 8,-0.828586,2.33393\H,0,0.482049,0.821014,2.33426\\Version=EM64L-G16Re
 vB.01\State=1-A\HF=-55.8713393\RMSD=2.990e-10\Dipole=-0.0000394,-0.000
 166,0.8082362\Quadrupole=0.6694832,0.6695309,-1.339014,0.0000186,0.000
 0863,0.0003996\PG=C01 [X(H3N1)]\\@


 THE SCIENTIFIC THEORIST IS NOT TO BE ENVIED. FOR NATURE, OR MORE
 PRECISELY EXPERIMENT, IS AN INEXORABLE AND NOT VERY FRIENDLY JUDGE OF HIS
 WORK.  IT NEVER SAYS "YES" TO A THEORY. IN THE MOST FAVORABLE CASES
 IT SAYS "MAYBE", AND IN THE GREAT MAJORITY OF CASES SIMPLY "NO"...
 PROBABLY EVERY THEORY WILL SOME DAY EXPERIENCE ITS "NO" - MOST
 THEORIES, SOON AFTER CONCEPTION.  -- A.EINSTEIN, NOV 11, 1922.
 Job cpu time:       0 days  0 hours  0 minutes  0.4 seconds.
 Elapsed time:       0 days  0 hours  0 minutes  0.4 seconds.
 File lengths (MBytes):  RWF=      6 Int=      0 D2E=      0 Chk=      1 Scr=      1
 Normal termination of Gaussian 16 at Fri Jun 13 23:01:56 2025.
