 Entering Gaussian System, Link 0=g16
 Input=/home/gaussian/Documents/Summer_Internship/Acid_Base_adduct/Adduct/NH3-BH3/BH3_only_adduct_sp.com
 Output=/home/gaussian/Documents/Summer_Internship/Acid_Base_adduct/Adduct/NH3-BH3/BH3_only_adduct_sp.log
 Initial command:
 /usr/local/g16/l1.exe "/home/gaussian/tmp/Gau-92153.inp" -scrdir="/home/gaussian/tmp/"
 Entering Link 1 = /usr/local/g16/l1.exe PID=     92156.
  
 Copyright (c) 1988-2017, Gaussian, Inc.  All Rights Reserved.
  
 This is part of the Gaussian(R) 16 program.  It is based on
 the Gaussian(R) 09 system (copyright 2009, Gaussian, Inc.),
 the Gaussian(R) 03 system (copyright 2003, Gaussian, Inc.),
 the Gaussian(R) 98 system (copyright 1998, Gaussian, Inc.),
 the Gaussian(R) 94 system (copyright 1995, Gaussian, Inc.),
 the Gaussian 92(TM) system (copyright 1992, Gaussian, Inc.),
 the Gaussian 90(TM) system (copyright 1990, Gaussian, Inc.),
 the Gaussian 88(TM) system (copyright 1988, Gaussian, Inc.),
 the Gaussian 86(TM) system (copyright 1986, Carnegie Mellon
 University), and the Gaussian 82(TM) system (copyright 1983,
 Carnegie Mellon University). Gaussian is a federally registered
 trademark of Gaussian, Inc.
  
 This software contains proprietary and confidential information,
 including trade secrets, belonging to Gaussian, Inc.
  
 This software is provided under written license and may be
 used, copied, transmitted, or stored only in accord with that
 written license.
  
 The following legend is applicable only to US Government
 contracts under FAR:
  
                    RESTRICTED RIGHTS LEGEND
  
 Use, reproduction and disclosure by the US Government is
 subject to restrictions as set forth in subparagraphs (a)
 and (c) of the Commercial Computer Software - Restricted
 Rights clause in FAR 52.227-19.
  
 Gaussian, Inc.
 340 Quinnipiac St., Bldg. 40, Wallingford CT 06492
  
  
 ---------------------------------------------------------------
 Warning -- This program may not be used in any manner that
 competes with the business of Gaussian, Inc. or will provide
 assistance to any competitor of Gaussian, Inc.  The licensee
 of this program is prohibited from giving any competitor of
 Gaussian, Inc. access to this program.  By using this program,
 the user acknowledges that Gaussian, Inc. is engaged in the
 business of creating and licensing software in the field of
 computational chemistry and represents and warrants to the
 licensee that it is not a competitor of Gaussian, Inc. and that
 it will not use this program in any manner prohibited above.
 ---------------------------------------------------------------
  

 Cite this work as:
 Gaussian 16, Revision B.01,
 M. J. Frisch, G. W. Trucks, H. B. Schlegel, G. E. Scuseria, 
 M. A. Robb, J. R. Cheeseman, G. Scalmani, V. Barone, 
 G. A. Petersson, H. Nakatsuji, X. Li, M. Caricato, A. V. Marenich, 
 J. Bloino, B. G. Janesko, R. Gomperts, B. Mennucci, H. P. Hratchian, 
 J. V. Ortiz, A. F. Izmaylov, J. L. Sonnenberg, D. Williams-Young, 
 F. Ding, F. Lipparini, F. Egidi, J. Goings, B. Peng, A. Petrone, 
 T. Henderson, D. Ranasinghe, V. G. Zakrzewski, J. Gao, N. Rega, 
 G. Zheng, W. Liang, M. Hada, M. Ehara, K. Toyota, R. Fukuda, 
 J. Hasegawa, M. Ishida, T. Nakajima, Y. Honda, O. Kitao, H. Nakai, 
 T. Vreven, K. Throssell, J. A. Montgomery, Jr., J. E. Peralta, 
 F. Ogliaro, M. J. Bearpark, J. J. Heyd, E. N. Brothers, K. N. Kudin, 
 V. N. Staroverov, T. A. Keith, R. Kobayashi, J. Normand, 
 K. Raghavachari, A. P. Rendell, J. C. Burant, S. S. Iyengar, 
 J. Tomasi, M. Cossi, J. M. Millam, M. Klene, C. Adamo, R. Cammi, 
 J. W. Ochterski, R. L. Martin, K. Morokuma, O. Farkas, 
 J. B. Foresman, and D. J. Fox, Gaussian, Inc., Wallingford CT, 2016.
 
 ******************************************
 Gaussian 16:  EM64L-G16RevB.01 20-Dec-2017
                17-Jun-2025 
 ******************************************
 %chk=BH3_only_adduct_sp.chk
 -------------------------------------
 # hf/3-21g pop=full geom=connectivity
 -------------------------------------
 1/38=1,57=2,172=1/1;
 2/12=2,17=6,18=5,40=1/2;
 3/5=5,11=9,25=1,30=1/1,2,3;
 4//1;
 5/5=2,38=5/2;
 6/7=3,28=1/1;
 99/5=1,9=1/99;
 -------------------
 Title Card Required
 -------------------
 Symbolic Z-matrix:
 Charge =  0 Multiplicity = 1
 B                    -0.95634   0.00019  -0.00009 
 H                    -1.25877  -0.7434   -0.90358 
 H                    -1.25881  -0.41135   1.09532 
 H                    -1.25898   1.15436  -0.19169 
 
                          Input orientation:                          
 ---------------------------------------------------------------------
 Center     Atomic      Atomic             Coordinates (Angstroms)
 Number     Number       Type             X           Y           Z
 ---------------------------------------------------------------------
      1          5           0       -0.956335    0.000185   -0.000094
      2          1           0       -1.258772   -0.743395   -0.903581
      3          1           0       -1.258813   -0.411352    1.095316
      4          1           0       -1.258978    1.154359   -0.191689
 ---------------------------------------------------------------------
                    Distance matrix (angstroms):
                    1          2          3          4
     1  B    0.000000
     2  H    1.208581   0.000000
     3  H    1.208627   2.026288   0.000000
     4  H    1.208478   2.026884   2.026779   0.000000
 Stoichiometry    BH3
 Framework group  C1[X(BH3)]
 Deg. of freedom     6
 Full point group                 C1      NOp   1
 Largest Abelian subgroup         C1      NOp   1
 Largest concise Abelian subgroup C1      NOp   1
                         Standard orientation:                         
 ---------------------------------------------------------------------
 Center     Atomic      Atomic             Coordinates (Angstroms)
 Number     Number       Type             X           Y           Z
 ---------------------------------------------------------------------
      1          5           0       -0.000119   -0.000036   -0.113445
      2          1           0        0.667529   -0.960981    0.189041
      3          1           0        0.499120    1.058296    0.189003
      4          1           0       -1.166056   -0.097137    0.189179
 ---------------------------------------------------------------------
 Rotational constants (GHZ):         221.0699523         220.9247612         122.0883905
 Standard basis: 3-21G (6D, 7F)
 There are    15 symmetry adapted cartesian basis functions of A   symmetry.
 There are    15 symmetry adapted basis functions of A   symmetry.
    15 basis functions,    24 primitive gaussians,    15 cartesian basis functions
     4 alpha electrons        4 beta electrons
       nuclear repulsion energy         7.3511817116 Hartrees.
 NAtoms=    4 NActive=    4 NUniq=    4 SFac= 1.00D+00 NAtFMM=   60 NAOKFM=F Big=F
 Integral buffers will be    131072 words long.
 Raffenetti 1 integral format.
 Two-electron integral symmetry is turned on.
 One-electron integrals computed using PRISM.
 NBasis=    15 RedAO= T EigKep=  3.10D-02  NBF=    15
 NBsUse=    15 1.00D-06 EigRej= -1.00D+00 NBFU=    15
 ExpMin= 1.24D-01 ExpMax= 1.16D+02 ExpMxC= 1.16D+02 IAcc=3 IRadAn=         5 AccDes= 0.00D+00
 Harris functional with IExCor=  205 and IRadAn=       5 diagonalized for initial guess.
 HarFok:  IExCor=  205 AccDes= 0.00D+00 IRadAn=         5 IDoV= 1 UseB2=F ITyADJ=14
 ICtDFT=  3500011 ScaDFX=  1.000000  1.000000  1.000000  1.000000
 FoFCou: FMM=F IPFlag=           0 FMFlag=      100000 FMFlg1=           0
         NFxFlg=           0 DoJE=T BraDBF=F KetDBF=T FulRan=T
         wScrn=  0.000000 ICntrl=       500 IOpCl=  0 I1Cent=   200000004 NGrid=           0
         NMat0=    1 NMatS0=      1 NMatT0=    0 NMatD0=    1 NMtDS0=    0 NMtDT0=    0
 Petite list used in FoFCou.
 Keep R1 ints in memory in canonical form, NReq=810760.
 Requested convergence on RMS density matrix=1.00D-08 within 128 cycles.
 Requested convergence on MAX density matrix=1.00D-06.
 Requested convergence on             energy=1.00D-06.
 No special actions if energy rises.
 SCF Done:  E(RHF) =  -26.2156439490     A.U. after    8 cycles
            NFock=  8  Conv=0.58D-08     -V/T= 2.0055

 **********************************************************************

            Population analysis using the SCF Density.

 **********************************************************************

 Orbital symmetries:
       Occupied  (A) (A) (A) (A)
       Virtual   (A) (A) (A) (A) (A) (A) (A) (A) (A) (A) (A)
 The electronic state is 1-A.
 Alpha  occ. eigenvalues --   -7.58372  -0.70500  -0.48593  -0.48578
 Alpha virt. eigenvalues --    0.05724   0.30990   0.31003   0.36919   0.60209
 Alpha virt. eigenvalues --    0.60215   0.67092   0.81158   1.38115   1.39973
 Alpha virt. eigenvalues --    1.39996
     Molecular Orbital Coefficients:
                           1         2         3         4         5
                           O         O         O         O         V
     Eigenvalues --    -7.58372  -0.70500  -0.48593  -0.48578   0.05724
   1 1   B  1S          0.98782  -0.19203   0.00002   0.00001   0.05089
   2        2S          0.08684   0.24485  -0.00003  -0.00001  -0.02742
   3        2PX         0.00000   0.00003   0.37210   0.00761   0.00003
   4        2PY         0.00000   0.00000  -0.00761   0.37207   0.00001
   5        2PZ        -0.00045   0.05197  -0.00004  -0.00001   0.31761
   6        3S         -0.05274   0.39374  -0.00001   0.00000  -0.34236
   7        3PX        -0.00001   0.00002   0.19052   0.00390   0.00010
   8        3PY        -0.00000   0.00001  -0.00389   0.19061   0.00003
   9        3PZ        -0.00461   0.01018  -0.00001  -0.00000   0.71992
  10 2   H  1S         -0.00432   0.15288   0.14695  -0.20272   0.03674
  11        2S          0.01334   0.11945   0.19346  -0.26698   0.07492
  12 3   H  1S         -0.00432   0.15287   0.10209   0.22862   0.03673
  13        2S          0.01334   0.11944   0.13440   0.30108   0.07491
  14 4   H  1S         -0.00432   0.15290  -0.24904  -0.02590   0.03676
  15        2S          0.01333   0.11946  -0.32788  -0.03411   0.07500
                           6         7         8         9        10
                           V         V         V         V         V
     Eigenvalues --     0.30990   0.31003   0.36919   0.60209   0.60215
   1 1   B  1S          0.00002   0.00010  -0.15898   0.00001   0.00000
   2        2S         -0.00001  -0.00005   0.13493  -0.00006  -0.00004
   3        2PX         0.00271   0.15039   0.00016   1.04485   0.02528
   4        2PY         0.15054  -0.00270   0.00005  -0.02528   1.04492
   5        2PZ        -0.00002  -0.00006   0.05364  -0.00008  -0.00004
   6        3S         -0.00049  -0.00181   2.94440  -0.00021  -0.00007
   7        3PX         0.03383   1.88299   0.00212  -0.83170  -0.02014
   8        3PY         1.88116  -0.03386   0.00051   0.02011  -0.83199
   9        3PZ        -0.00019  -0.00068   0.76907   0.00001   0.00001
  10 2   H  1S          0.07793  -0.05607  -0.03733   0.09709  -0.13287
  11        2S          1.39706  -1.00735  -1.45948  -0.15682   0.21465
  12 3   H  1S         -0.08759  -0.03928  -0.03734   0.06654   0.15049
  13        2S         -1.57058  -0.70587  -1.45984  -0.10742  -0.24300
  14 4   H  1S          0.00972   0.09555  -0.03728  -0.16362  -0.01764
  15        2S          0.17411   1.71552  -1.45743   0.26463   0.02852
                          11        12        13        14        15
                           V         V         V         V         V
     Eigenvalues --     0.67092   0.81158   1.38115   1.39973   1.39996
   1 1   B  1S          0.01026   0.01300   0.07948  -0.00001   0.00011
   2        2S          0.11998  -1.47511  -0.88565   0.00011  -0.00128
   3        2PX         0.00011  -0.00005   0.00072   0.01192  -0.50775
   4        2PY         0.00005  -0.00003   0.00005   0.50749   0.01194
   5        2PZ         1.12764   0.18781  -0.18039  -0.00000  -0.00019
   6        3S         -0.18568   2.26218   2.40415  -0.00034   0.00362
   7        3PX        -0.00023   0.00073  -0.00104  -0.02223   0.94647
   8        3PY        -0.00008   0.00022  -0.00001  -0.94584  -0.02224
   9        3PZ        -0.92383   0.15158   0.42642  -0.00003   0.00055
  10 2   H  1S          0.07650  -0.26222   0.72352   0.90477   0.66134
  11        2S         -0.01446  -0.33161  -1.24605  -1.27617  -0.93326
  12 3   H  1S          0.07649  -0.26221   0.72352  -1.02428   0.45476
  13        2S         -0.01440  -0.33179  -1.24606   1.44480  -0.64184
  14 4   H  1S          0.07653  -0.26227   0.72616   0.11914  -1.11267
  15        2S         -0.01465  -0.33092  -1.24963  -0.16802   1.56927
     Density Matrix:
                           1         2         3         4         5
   1 1   B  1S          2.02532
   2        2S          0.07752   0.13499
   3        2PX         0.00000  -0.00001   0.27704
   4        2PY         0.00000  -0.00000  -0.00000   0.27698
   5        2PZ        -0.02084   0.02537  -0.00002  -0.00001   0.00540
   6        3S         -0.25542   0.18366   0.00002   0.00001   0.04097
   7        3PX        -0.00002  -0.00000   0.14185   0.00000  -0.00001
   8        3PY        -0.00000  -0.00000   0.00000   0.14190  -0.00000
   9        3PZ        -0.01302   0.00419  -0.00000  -0.00000   0.00106
  10 2   H  1S         -0.06724   0.07411   0.10629  -0.15308   0.01589
  11        2S         -0.01952   0.06080   0.13992  -0.20161   0.01240
  12 3   H  1S         -0.06723   0.07410   0.07947   0.16857   0.01588
  13        2S         -0.01951   0.06079   0.10461   0.22200   0.01238
  14 4   H  1S         -0.06727   0.07414  -0.18572  -0.01548   0.01591
  15        2S         -0.01956   0.06084  -0.24452  -0.02039   0.01243
                           6         7         8         9        10
   6        3S          0.31563
   7        3PX         0.00001   0.07263
   8        3PY         0.00001   0.00000   0.07269
   9        3PZ         0.00850  -0.00000  -0.00000   0.00025
  10 2   H  1S          0.12084   0.05442  -0.07842   0.00315   0.17216
  11        2S          0.09265   0.07164  -0.10328   0.00231   0.20151
  12 3   H  1S          0.12084   0.04069   0.08636   0.00315  -0.01591
  13        2S          0.09265   0.05356   0.11373   0.00231  -0.04616
  14 4   H  1S          0.12087  -0.09509  -0.00793   0.00316  -0.01590
  15        2S          0.09268  -0.12520  -0.01045   0.00231  -0.04612
                          11        12        13        14        15
  11        2S          0.24630
  12 3   H  1S         -0.04617   0.17216
  13        2S         -0.07987   0.20151   0.24632
  14 4   H  1S         -0.04612  -0.01590  -0.04613   0.17217
  15        2S         -0.07976  -0.04613  -0.07978   0.20149   0.24623
    Full Mulliken population analysis:
                           1         2         3         4         5
   1 1   B  1S          2.02532
   2        2S          0.01417   0.13499
   3        2PX         0.00000   0.00000   0.27704
   4        2PY         0.00000   0.00000  -0.00000   0.27698
   5        2PZ         0.00000   0.00000  -0.00000  -0.00000   0.00540
   6        3S         -0.04441   0.14239   0.00000   0.00000   0.00000
   7        3PX         0.00000   0.00000   0.07820   0.00000  -0.00000
   8        3PY         0.00000   0.00000   0.00000   0.07822  -0.00000
   9        3PZ         0.00000   0.00000  -0.00000  -0.00000   0.00059
  10 2   H  1S         -0.00096   0.01576   0.02005   0.04157   0.00136
  11        2S         -0.00178   0.02788   0.02682   0.05562   0.00108
  12 3   H  1S         -0.00096   0.01575   0.01121   0.05041   0.00136
  13        2S         -0.00178   0.02787   0.01499   0.06745   0.00108
  14 4   H  1S         -0.00096   0.01577   0.06121   0.00042   0.00136
  15        2S         -0.00178   0.02790   0.08187   0.00057   0.00108
                           6         7         8         9        10
   6        3S          0.31563
   7        3PX         0.00000   0.07263
   8        3PY         0.00000   0.00000   0.07269
   9        3PZ         0.00000  -0.00000  -0.00000   0.00025
  10 2   H  1S          0.03611   0.01264   0.02622   0.00033   0.17216
  11        2S          0.06122   0.02509   0.05206   0.00037   0.13015
  12 3   H  1S          0.03610   0.00707   0.03180   0.00033  -0.00003
  13        2S          0.06122   0.01403   0.06314   0.00037  -0.00326
  14 4   H  1S          0.03612   0.03858   0.00027   0.00033  -0.00003
  15        2S          0.06124   0.07658   0.00053   0.00037  -0.00325
                          11        12        13        14        15
  11        2S          0.24630
  12 3   H  1S         -0.00326   0.17216
  13        2S         -0.02085   0.13016   0.24632
  14 4   H  1S         -0.00325  -0.00003  -0.00325   0.17217
  15        2S         -0.02081  -0.00325  -0.02081   0.13014   0.24623
     Gross orbital populations:
                           1
   1 1   B  1S          1.98686
   2        2S          0.42247
   3        2PX         0.57139
   4        2PY         0.57126
   5        2PZ         0.01330
   6        3S          0.70563
   7        3PX         0.32481
   8        3PY         0.32494
   9        3PZ         0.00293
  10 2   H  1S          0.44883
  11        2S          0.57665
  12 3   H  1S          0.44882
  13        2S          0.57667
  14 4   H  1S          0.44885
  15        2S          0.57661
          Condensed to atoms (all electrons):
               1          2          3          4
     1  B    3.719251   0.401440   0.401438   0.401445
     2  H    0.401440   0.678765  -0.027393  -0.027332
     3  H    0.401438  -0.027393   0.678784  -0.027344
     4  H    0.401445  -0.027332  -0.027344   0.678692
 Mulliken charges:
               1
     1  B    0.076426
     2  H   -0.025480
     3  H   -0.025485
     4  H   -0.025461
 Sum of Mulliken charges =  -0.00000
 Mulliken charges with hydrogens summed into heavy atoms:
               1
     1  B   -0.000000
 Electronic spatial extent (au):  <R**2>=             35.2128
 Charge=             -0.0000 electrons
 Dipole moment (field-independent basis, Debye):
    X=             -0.0006    Y=             -0.0002    Z=             -0.8248  Tot=              0.8248
 Quadrupole moment (field-independent basis, Debye-Ang):
   XX=             -9.8525   YY=             -9.8539   ZZ=             -7.1034
   XY=             -0.0000   XZ=              0.0004   YZ=              0.0001
 Traceless Quadrupole moment (field-independent basis, Debye-Ang):
   XX=             -0.9159   YY=             -0.9173   ZZ=              1.8332
   XY=             -0.0000   XZ=              0.0004   YZ=              0.0001
 Octapole moment (field-independent basis, Debye-Ang**2):
  XXX=              0.2179  YYY=             -0.0559  ZZZ=             -1.0094  XYY=             -0.2188
  XXY=              0.0556  XXZ=              0.0151  XZZ=             -0.0005  YZZ=             -0.0002
  YYZ=              0.0148  XYZ=             -0.0000
 Hexadecapole moment (field-independent basis, Debye-Ang**3):
 XXXX=            -24.9985 YYYY=            -24.9952 ZZZZ=             -8.0650 XXXY=             -0.0002
 XXXZ=             -0.1471 YYYX=              0.0001 YYYZ=              0.0377 ZZZX=              0.0004
 ZZZY=              0.0001 XXYY=             -8.3320 XXZZ=             -5.5447 YYZZ=             -5.5440
 XXYZ=             -0.0375 YYXZ=              0.1475 ZZXY=             -0.0000
 N-N= 7.351181711603D+00 E-N=-7.468596404036D+01  KE= 2.607318459307D+01
 Orbital energies and kinetic energies (alpha):
                                 1                 2
   1         O                -7.583724         10.802725
   2         O                -0.704997          0.838681
   3         O                -0.485930          0.697617
   4         O                -0.485784          0.697570
   5         V                 0.057241          0.523710
   6         V                 0.309895          0.561013
   7         V                 0.310026          0.560958
   8         V                 0.369186          0.917992
   9         V                 0.602091          1.497085
  10         V                 0.602153          1.497206
  11         V                 0.670922          1.705486
  12         V                 0.811581          1.444804
  13         V                 1.381148          2.585478
  14         V                 1.399725          2.503132
  15         V                 1.399960          2.503666
 Total kinetic energy from orbitals= 2.607318459307D+01
 1\1\GINC-IISERK51\SP\RHF\3-21G\B1H3\GAUSSIAN\17-Jun-2025\0\\# hf/3-21g
  pop=full geom=connectivity\\Title Card Required\\0,1\B,0,-0.956335,0.
 000185,-0.000094\H,0,-1.258772,-0.743395,-0.903581\H,0,-1.258813,-0.41
 1352,1.095316\H,0,-1.258978,1.154359,-0.191689\\Version=EM64L-G16RevB.
 01\State=1-A\HF=-26.2156439\RMSD=5.816e-09\Dipole=0.3244926,0.0002335,
 -0.0000823\Quadrupole=1.3629439,-0.6809432,-0.6820007,0.0003248,-0.000
 0408,-0.0000686\PG=C01 [X(B1H3)]\\@


 Once you get people laughing, they're
 listening and you can tell them almost anything.
                                 -- Herb Gardner
 Job cpu time:       0 days  0 hours  0 minutes  0.4 seconds.
 Elapsed time:       0 days  0 hours  0 minutes  0.4 seconds.
 File lengths (MBytes):  RWF=      6 Int=      0 D2E=      0 Chk=      1 Scr=      1
 Normal termination of Gaussian 16 at Tue Jun 17 15:07:51 2025.
