 Entering Gaussian System, Link 0=g16
 Input=/home/gaussian/Documents/Summer_Internship/Acid_Base_adduct/Adduct/NH3-BH3/NH3_BH3_adduct_opt.com
 Output=/home/gaussian/Documents/Summer_Internship/Acid_Base_adduct/Adduct/NH3-BH3/NH3_BH3_adduct_opt.log
 Initial command:
 /usr/local/g16/l1.exe "/home/gaussian/tmp/Gau-92044.inp" -scrdir="/home/gaussian/tmp/"
 Entering Link 1 = /usr/local/g16/l1.exe PID=     92048.
  
 Copyright (c) 1988-2017, Gaussian, Inc.  All Rights Reserved.
  
 This is part of the Gaussian(R) 16 program.  It is based on
 the Gaussian(R) 09 system (copyright 2009, Gaussian, Inc.),
 the Gaussian(R) 03 system (copyright 2003, Gaussian, Inc.),
 the Gaussian(R) 98 system (copyright 1998, Gaussian, Inc.),
 the Gaussian(R) 94 system (copyright 1995, Gaussian, Inc.),
 the Gaussian 92(TM) system (copyright 1992, Gaussian, Inc.),
 the Gaussian 90(TM) system (copyright 1990, Gaussian, Inc.),
 the Gaussian 88(TM) system (copyright 1988, Gaussian, Inc.),
 the Gaussian 86(TM) system (copyright 1986, Carnegie Mellon
 University), and the Gaussian 82(TM) system (copyright 1983,
 Carnegie Mellon University). Gaussian is a federally registered
 trademark of Gaussian, Inc.
  
 This software contains proprietary and confidential information,
 including trade secrets, belonging to Gaussian, Inc.
  
 This software is provided under written license and may be
 used, copied, transmitted, or stored only in accord with that
 written license.
  
 The following legend is applicable only to US Government
 contracts under FAR:
  
                    RESTRICTED RIGHTS LEGEND
  
 Use, reproduction and disclosure by the US Government is
 subject to restrictions as set forth in subparagraphs (a)
 and (c) of the Commercial Computer Software - Restricted
 Rights clause in FAR 52.227-19.
  
 Gaussian, Inc.
 340 Quinnipiac St., Bldg. 40, Wallingford CT 06492
  
  
 ---------------------------------------------------------------
 Warning -- This program may not be used in any manner that
 competes with the business of Gaussian, Inc. or will provide
 assistance to any competitor of Gaussian, Inc.  The licensee
 of this program is prohibited from giving any competitor of
 Gaussian, Inc. access to this program.  By using this program,
 the user acknowledges that Gaussian, Inc. is engaged in the
 business of creating and licensing software in the field of
 computational chemistry and represents and warrants to the
 licensee that it is not a competitor of Gaussian, Inc. and that
 it will not use this program in any manner prohibited above.
 ---------------------------------------------------------------
  

 Cite this work as:
 Gaussian 16, Revision B.01,
 M. J. Frisch, G. W. Trucks, H. B. Schlegel, G. E. Scuseria, 
 M. A. Robb, J. R. Cheeseman, G. Scalmani, V. Barone, 
 G. A. Petersson, H. Nakatsuji, X. Li, M. Caricato, A. V. Marenich, 
 J. Bloino, B. G. Janesko, R. Gomperts, B. Mennucci, H. P. Hratchian, 
 J. V. Ortiz, A. F. Izmaylov, J. L. Sonnenberg, D. Williams-Young, 
 F. Ding, F. Lipparini, F. Egidi, J. Goings, B. Peng, A. Petrone, 
 T. Henderson, D. Ranasinghe, V. G. Zakrzewski, J. Gao, N. Rega, 
 G. Zheng, W. Liang, M. Hada, M. Ehara, K. Toyota, R. Fukuda, 
 J. Hasegawa, M. Ishida, T. Nakajima, Y. Honda, O. Kitao, H. Nakai, 
 T. Vreven, K. Throssell, J. A. Montgomery, Jr., J. E. Peralta, 
 F. Ogliaro, M. J. Bearpark, J. J. Heyd, E. N. Brothers, K. N. Kudin, 
 V. N. Staroverov, T. A. Keith, R. Kobayashi, J. Normand, 
 K. Raghavachari, A. P. Rendell, J. C. Burant, S. S. Iyengar, 
 J. Tomasi, M. Cossi, J. M. Millam, M. Klene, C. Adamo, R. Cammi, 
 J. W. Ochterski, R. L. Martin, K. Morokuma, O. Farkas, 
 J. B. Foresman, and D. J. Fox, Gaussian, Inc., Wallingford CT, 2016.
 
 ******************************************
 Gaussian 16:  EM64L-G16RevB.01 20-Dec-2017
                17-Jun-2025 
 ******************************************
 %chk=NH3_BH3_adduct_opt.chk
 ----------------------------------------------
 # opt freq hf/3-21g pop=full geom=connectivity
 ----------------------------------------------
 1/18=20,19=15,38=1,57=2/1,3;
 2/9=110,12=2,17=6,18=5,40=1/2;
 3/5=5,11=9,25=1,30=1,71=1/1,2,3;
 4//1;
 5/5=2,38=5/2;
 6/7=3,28=1/1;
 7//1,2,3,16;
 1/18=20,19=15/3(2);
 2/9=110/2;
 99//99;
 2/9=110/2;
 3/5=5,11=9,25=1,30=1,71=1/1,2,3;
 4/5=5,16=3,69=1/1;
 5/5=2,38=5/2;
 7//1,2,3,16;
 1/18=20,19=15/3(-5);
 2/9=110/2;
 6/7=3,19=2,28=1/1;
 99/9=1/99;
 -------------------
 Title Card Required
 -------------------
 Symbolic Z-matrix:
 Charge =  0 Multiplicity = 1
 N                    -1.50851   1.0705    0.22965 
 H                    -1.17519   0.12768   0.22965 
 H                    -1.17517   1.5419    1.04615 
 H                    -1.17517   1.5419   -0.58685 
 B                    -2.82932   0.39851   1.08288 
 H                    -1.64932   0.39851   1.08288 
 H                    -3.41932   1.42042   1.08288 
 H                    -3.41932  -0.6234    1.08288 
 

 GradGradGradGradGradGradGradGradGradGradGradGradGradGradGradGradGradGrad
 Berny optimization.
 Initialization pass.
                           ----------------------------
                           !    Initial Parameters    !
                           ! (Angstroms and Degrees)  !
 --------------------------                            --------------------------
 ! Name  Definition              Value          Derivative Info.                !
 --------------------------------------------------------------------------------
 ! R1    R(1,2)                  1.0            estimate D2E/DX2                !
 ! R2    R(1,3)                  1.0            estimate D2E/DX2                !
 ! R3    R(1,4)                  1.0            estimate D2E/DX2                !
 ! R4    R(1,5)                  1.71           estimate D2E/DX2                !
 ! R5    R(5,6)                  1.18           estimate D2E/DX2                !
 ! R6    R(5,7)                  1.18           estimate D2E/DX2                !
 ! R7    R(5,8)                  1.18           estimate D2E/DX2                !
 ! A1    A(2,1,3)              109.4712         estimate D2E/DX2                !
 ! A2    A(2,1,4)              109.4712         estimate D2E/DX2                !
 ! A3    A(2,1,5)               83.5091         estimate D2E/DX2                !
 ! A4    A(3,1,4)              109.4713         estimate D2E/DX2                !
 ! A5    A(3,1,5)               92.024          estimate D2E/DX2                !
 ! A6    A(4,1,5)              148.2251         estimate D2E/DX2                !
 ! A7    A(1,5,6)               39.43           estimate D2E/DX2                !
 ! A8    A(1,5,7)               92.6293         estimate D2E/DX2                !
 ! A9    A(1,5,8)              136.5962         estimate D2E/DX2                !
 ! A10   A(6,5,7)              120.0            estimate D2E/DX2                !
 ! A11   A(6,5,8)              120.0            estimate D2E/DX2                !
 ! A12   A(7,5,8)              120.0            estimate D2E/DX2                !
 ! D1    D(2,1,5,6)             48.1983         estimate D2E/DX2                !
 ! D2    D(2,1,5,7)           -174.729          estimate D2E/DX2                !
 ! D3    D(2,1,5,8)            -33.7443         estimate D2E/DX2                !
 ! D4    D(3,1,5,6)            -61.172          estimate D2E/DX2                !
 ! D5    D(3,1,5,7)             75.9007         estimate D2E/DX2                !
 ! D6    D(3,1,5,8)           -143.1146         estimate D2E/DX2                !
 ! D7    D(4,1,5,6)            165.1613         estimate D2E/DX2                !
 ! D8    D(4,1,5,7)            -57.766          estimate D2E/DX2                !
 ! D9    D(4,1,5,8)             83.2188         estimate D2E/DX2                !
 --------------------------------------------------------------------------------
 Trust Radius=3.00D-01 FncErr=1.00D-07 GrdErr=1.00D-07 EigMax=2.50D+02 EigMin=1.00D-04
 Number of steps in this run=     38 maximum allowed number of steps=    100.
 GradGradGradGradGradGradGradGradGradGradGradGradGradGradGradGradGradGrad

                          Input orientation:                          
 ---------------------------------------------------------------------
 Center     Atomic      Atomic             Coordinates (Angstroms)
 Number     Number       Type             X           Y           Z
 ---------------------------------------------------------------------
      1          7           0       -1.508509    1.070496    0.229652
      2          1           0       -1.175187    0.127683    0.229652
      3          1           0       -1.175169    1.541896    1.046148
      4          1           0       -1.175169    1.541896   -0.586845
      5          5           0       -2.829315    0.398506    1.082880
      6          1           0       -1.649315    0.398506    1.082880
      7          1           0       -3.419315    1.420416    1.082880
      8          1           0       -3.419315   -0.623404    1.082880
 ---------------------------------------------------------------------
                    Distance matrix (angstroms):
                    1          2          3          4          5
     1  N    0.000000
     2  H    1.000000   0.000000
     3  H    1.000000   1.632993   0.000000
     4  H    1.000000   1.632993   1.632993   0.000000
     5  B    1.710000   1.880820   2.011191   2.613718   0.000000
     6  H    1.095169   1.012987   1.238348   2.078494   1.180000
     7  H    2.121703   2.726769   2.247732   2.799809   1.180000
     8  H    2.692300   2.515600   3.118664   3.537329   1.180000
                    6          7          8
     6  H    0.000000
     7  H    2.043820   0.000000
     8  H    2.043820   2.043820   0.000000
 Stoichiometry    BH6N
 Framework group  C1[X(BH6N)]
 Deg. of freedom    18
 Full point group                 C1      NOp   1
 Largest Abelian subgroup         C1      NOp   1
 Largest concise Abelian subgroup C1      NOp   1
                         Standard orientation:                         
 ---------------------------------------------------------------------
 Center     Atomic      Atomic             Coordinates (Angstroms)
 Number     Number       Type             X           Y           Z
 ---------------------------------------------------------------------
      1          7           0        0.714444    0.014422   -0.069452
      2          1           0        0.594944   -0.976031   -0.000735
      3          1           0        0.807344    0.403350    0.847120
      4          1           0        1.537086    0.214800   -0.601532
      5          5           0       -0.992560    0.032116    0.030164
      6          1           0       -0.053225   -0.441225    0.564951
      7          1           0       -1.045102    1.197408   -0.147973
      8          1           0       -1.879354   -0.659836   -0.326486
 ---------------------------------------------------------------------
 Rotational constants (GHZ):         103.9104604          18.2868926          17.2510006
 Standard basis: 3-21G (6D, 7F)
 There are    30 symmetry adapted cartesian basis functions of A   symmetry.
 There are    30 symmetry adapted basis functions of A   symmetry.
    30 basis functions,    48 primitive gaussians,    30 cartesian basis functions
     9 alpha electrons        9 beta electrons
       nuclear repulsion energy        43.0107734031 Hartrees.
 NAtoms=    8 NActive=    8 NUniq=    8 SFac= 1.00D+00 NAtFMM=   60 NAOKFM=F Big=F
 Integral buffers will be    131072 words long.
 Raffenetti 1 integral format.
 Two-electron integral symmetry is turned on.
 One-electron integrals computed using PRISM.
 NBasis=    30 RedAO= T EigKep=  2.53D-02  NBF=    30
 NBsUse=    30 1.00D-06 EigRej= -1.00D+00 NBFU=    30
 ExpMin= 1.24D-01 ExpMax= 2.43D+02 ExpMxC= 2.43D+02 IAcc=3 IRadAn=         5 AccDes= 0.00D+00
 Harris functional with IExCor=  205 and IRadAn=       5 diagonalized for initial guess.
 HarFok:  IExCor=  205 AccDes= 0.00D+00 IRadAn=         5 IDoV= 1 UseB2=F ITyADJ=14
 ICtDFT=  3500011 ScaDFX=  1.000000  1.000000  1.000000  1.000000
 FoFCou: FMM=F IPFlag=           0 FMFlag=      100000 FMFlg1=           0
         NFxFlg=           0 DoJE=T BraDBF=F KetDBF=T FulRan=T
         wScrn=  0.000000 ICntrl=       500 IOpCl=  0 I1Cent=   200000004 NGrid=           0
         NMat0=    1 NMatS0=      1 NMatT0=    0 NMatD0=    1 NMtDS0=    0 NMtDT0=    0
 Petite list used in FoFCou.
 Keep R1 ints in memory in canonical form, NReq=918634.
 Requested convergence on RMS density matrix=1.00D-08 within 128 cycles.
 Requested convergence on MAX density matrix=1.00D-06.
 Requested convergence on             energy=1.00D-06.
 No special actions if energy rises.
 SCF Done:  E(RHF) =  -81.8160772589     A.U. after   13 cycles
            NFock= 13  Conv=0.40D-08     -V/T= 1.9897

 **********************************************************************

            Population analysis using the SCF Density.

 **********************************************************************

 Orbital symmetries:
       Occupied  (A) (A) (A) (A) (A) (A) (A) (A) (A)
       Virtual   (A) (A) (A) (A) (A) (A) (A) (A) (A) (A) (A) (A)
                 (A) (A) (A) (A) (A) (A) (A) (A) (A)
 The electronic state is 1-A.
 Alpha  occ. eigenvalues --  -15.56847  -7.49132  -1.34157  -0.86695  -0.76236
 Alpha  occ. eigenvalues --   -0.66109  -0.52462  -0.42069  -0.28067
 Alpha virt. eigenvalues --    0.18816   0.22125   0.28417   0.31150   0.38281
 Alpha virt. eigenvalues --    0.41383   0.47669   0.65871   0.68823   0.73540
 Alpha virt. eigenvalues --    0.90073   1.11270   1.22448   1.25762   1.39288
 Alpha virt. eigenvalues --    1.44006   1.48368   1.51601   1.53442   1.88740
 Alpha virt. eigenvalues --    2.79718
     Molecular Orbital Coefficients:
                           1         2         3         4         5
                           O         O         O         O         O
     Eigenvalues --   -15.56847  -7.49132  -1.34157  -0.86695  -0.76236
   1 1   N  1S          0.98579   0.00037  -0.20969  -0.06462  -0.00157
   2        2S          0.10109   0.00321   0.18903   0.06300   0.00098
   3        2PX        -0.00042  -0.00137  -0.01778   0.28481  -0.02068
   4        2PY        -0.00148  -0.00045  -0.05365   0.13090   0.30818
   5        2PZ         0.00180   0.00129   0.06334  -0.13985   0.25018
   6        3S         -0.05620  -0.00551   0.65070   0.22350   0.01019
   7        3PX         0.00379   0.00596  -0.04209   0.28690  -0.02370
   8        3PY         0.00368   0.00353  -0.06034   0.10986   0.27749
   9        3PZ        -0.00553  -0.00814   0.07744  -0.12836   0.23671
  10 2   H  1S          0.00292   0.00215   0.12897  -0.08108  -0.21629
  11        2S          0.00906   0.00426  -0.00786  -0.01409  -0.13805
  12 3   H  1S          0.00330   0.00226   0.10508   0.01750   0.23841
  13        2S          0.00672   0.00523  -0.00100   0.02087   0.12984
  14 4   H  1S          0.00026  -0.00208   0.07827   0.21664  -0.05043
  15        2S          0.00573  -0.00230   0.01609   0.08877  -0.02574
  16 5   B  1S         -0.00013   0.98769  -0.03739   0.07145  -0.01300
  17        2S          0.00162   0.08976   0.03262  -0.07313   0.01271
  18        2PX         0.00312   0.00419   0.03656  -0.05379   0.01209
  19        2PY         0.00001  -0.00005  -0.00829   0.03169   0.04292
  20        2PZ        -0.00025  -0.00125   0.00798  -0.03439   0.02054
  21        3S          0.00478  -0.05158   0.02573  -0.06706   0.01639
  22        3PX         0.00533  -0.00427  -0.01539   0.01320   0.00563
  23        3PY         0.00602  -0.00100  -0.02789   0.01736   0.02129
  24        3PZ        -0.00112   0.00058   0.00476  -0.00876   0.00843
  25 6   H  1S          0.00373  -0.00116   0.11622  -0.18266   0.00144
  26        2S          0.00040   0.01124   0.00211  -0.11996   0.02125
  27 7   H  1S         -0.00058  -0.00479   0.00985  -0.02331   0.02953
  28        2S         -0.00455   0.01317   0.01917  -0.01886   0.01588
  29 8   H  1S          0.00006  -0.00413   0.00549  -0.02532  -0.00668
  30        2S          0.00348   0.01001  -0.01845  -0.00262  -0.00338
                           6         7         8         9        10
                           O         O         O         O         V
     Eigenvalues --    -0.66109  -0.52462  -0.42069  -0.28067   0.18816
   1 1   N  1S         -0.01792   0.04174   0.01174   0.07664  -0.12346
   2        2S          0.01804  -0.03627  -0.01204  -0.04920   0.05509
   3        2PX        -0.14101   0.22281   0.06386   0.16190  -0.01961
   4        2PY         0.16891  -0.09296  -0.13447   0.02426  -0.07279
   5        2PZ        -0.25189   0.13066   0.06186  -0.06421  -0.02102
   6        3S          0.06226  -0.22218  -0.04816  -0.54837   1.21107
   7        3PX        -0.17823   0.29304   0.10448   0.25014  -0.00325
   8        3PY         0.16804  -0.09678  -0.15231   0.04594  -0.16978
   9        3PZ        -0.25037   0.14885   0.07861  -0.07650  -0.04520
  10 2   H  1S         -0.10694   0.03893   0.08172  -0.05789  -0.02210
  11        2S         -0.09200   0.05247   0.12905  -0.16665  -0.54646
  12 3   H  1S         -0.10267   0.04798  -0.00113  -0.07823  -0.03971
  13        2S         -0.07935   0.05497   0.01563  -0.14157  -0.44282
  14 4   H  1S          0.07232   0.01628  -0.04149   0.16240  -0.02638
  15        2S          0.06331   0.00349  -0.05902   0.27968  -0.48272
  16 5   B  1S         -0.13576  -0.09947  -0.00669  -0.05693   0.01257
  17        2S          0.15555   0.11707   0.00950   0.06837   0.01584
  18        2PX         0.01901  -0.21410   0.00070   0.13967  -0.12443
  19        2PY         0.04909  -0.06102   0.34357  -0.02680   0.04482
  20        2PZ        -0.04487  -0.05010  -0.01603   0.28527   0.16528
  21        3S          0.29875   0.20929   0.01296   0.04245  -0.10066
  22        3PX         0.03029  -0.07349   0.01810  -0.00387  -0.29491
  23        3PY         0.00323  -0.02674   0.20761  -0.01213   0.43297
  24        3PZ        -0.01499  -0.01995   0.01436   0.26545   0.47718
  25 6   H  1S          0.00640  -0.01258  -0.07614   0.23514  -0.03393
  26        2S         -0.02407   0.04630  -0.12925   0.69473   0.06486
  27 7   H  1S          0.13178   0.07266   0.25248   0.02387  -0.02191
  28        2S          0.11395   0.07982   0.34068   0.06856  -0.31223
  29 8   H  1S          0.09379   0.22146  -0.13738  -0.09447   0.04299
  30        2S          0.07367   0.26198  -0.16302  -0.17563   0.28703
                          11        12        13        14        15
                           V         V         V         V         V
     Eigenvalues --     0.22125   0.28417   0.31150   0.38281   0.41383
   1 1   N  1S          0.02178   0.05223   0.02129   0.01143   0.00253
   2        2S          0.01252  -0.01522   0.00167   0.00057  -0.01036
   3        2PX        -0.03593  -0.16731  -0.20911   0.00389   0.01913
   4        2PY         0.08713  -0.20441   0.13532   0.12296   0.00348
   5        2PZ        -0.18208  -0.07574   0.12476  -0.10999   0.14490
   6        3S         -0.37818  -0.61965  -0.33682  -0.21299   0.05688
   7        3PX        -0.00713  -0.50807  -0.65174   0.12953  -0.06368
   8        3PY         0.25579  -0.68351   0.45852   0.35904  -0.09660
   9        3PZ        -0.51579  -0.21028   0.47465  -0.47504   0.47694
  10 2   H  1S          0.10172  -0.04613   0.08796   0.00767  -0.03266
  11        2S          1.05070  -0.65525   1.07300   0.25337   0.39973
  12 3   H  1S          0.08715   0.06483  -0.04749   0.02108   0.04122
  13        2S          0.90822   1.05944  -0.63481   0.28907  -0.28349
  14 4   H  1S         -0.11141   0.02156   0.01661   0.01442  -0.05257
  15        2S         -0.61067   0.84501   1.04401  -0.38968   0.29303
  16 5   B  1S          0.02023   0.00531   0.07191  -0.00079  -0.14599
  17        2S         -0.07428  -0.01130  -0.02033  -0.03521   0.07749
  18        2PX        -0.08882  -0.03240  -0.09944  -0.12752  -0.02071
  19        2PY         0.01030   0.02500   0.08504   0.03406   0.02871
  20        2PZ         0.10597  -0.01214   0.05858  -0.06757  -0.00520
  21        3S          0.28616   0.10493  -0.84373  -0.04037   3.10561
  22        3PX         0.16731  -0.12696  -0.45384  -1.74645   0.09338
  23        3PY        -0.20007   0.54585   0.30913   0.73024  -0.02285
  24        3PZ         0.59692   0.00765   0.28883  -0.94719   0.12393
  25 6   H  1S         -0.12558  -0.01104  -0.00964   0.05797  -0.08963
  26        2S         -1.02256  -0.10941  -0.14564   2.15824  -1.89615
  27 7   H  1S         -0.03000  -0.04040  -0.01169  -0.05115  -0.03394
  28        2S          0.08971  -0.58902   0.06799  -0.88127  -1.36685
  29 8   H  1S         -0.00110   0.03305   0.03138  -0.04952  -0.05013
  30        2S          0.08509   0.23606   0.43683  -1.07666  -1.33925
                          16        17        18        19        20
                           V         V         V         V         V
     Eigenvalues --     0.47669   0.65871   0.68823   0.73540   0.90073
   1 1   N  1S          0.04055   0.00179  -0.00822  -0.00870   0.00127
   2        2S         -0.01125   0.02235   0.03861   0.04035   0.05272
   3        2PX         0.12025  -0.03998  -0.09905  -0.07765   0.00144
   4        2PY         0.04897   0.01970   0.00080  -0.03849  -0.07604
   5        2PZ        -0.00973   0.03639  -0.01063   0.00207   0.17834
   6        3S         -0.56668  -0.17084  -0.13916  -0.11280  -0.25800
   7        3PX         0.58395   0.11319   0.00765   0.06196   0.34355
   8        3PY         0.14977   0.01865   0.04263  -0.00966  -0.03275
   9        3PZ         0.07721   0.03532  -0.05579  -0.02399  -0.06114
  10 2   H  1S          0.03158   0.08887   0.09880   0.10326   0.11867
  11        2S          0.54048   0.07342  -0.61294  -0.46657  -0.64254
  12 3   H  1S         -0.06792   0.03163   0.05266   0.09211   0.13969
  13        2S         -0.74757  -0.40279  -0.40897  -0.02240  -0.75146
  14 4   H  1S          0.02073  -0.08739   0.02585  -0.13902  -0.16192
  15        2S         -0.43241   0.05356   0.17381   0.11012   0.15631
  16 5   B  1S         -0.04629  -0.00862  -0.00767  -0.00026  -0.00059
  17        2S          0.04273   0.00780   0.14106  -0.17589  -1.48443
  18        2PX         0.09624  -0.50014  -0.77616  -0.54442  -0.04999
  19        2PY         0.16274  -0.88814   0.45572   0.26449   0.04947
  20        2PZ         0.04826  -0.02420  -0.55852   0.95118  -0.20879
  21        3S          0.23876   0.06684  -0.48875   0.26312   1.86868
  22        3PX         1.54673   0.67672   0.62959   0.42515   0.63132
  23        3PY         2.35365   0.98585  -0.27057  -0.35051   0.46861
  24        3PZ         0.05017   0.08963   0.34976  -0.84404   0.12726
  25 6   H  1S          0.03232   0.02624  -0.10293   0.00706  -0.21185
  26        2S          0.40900   0.05836   1.02329   0.21068   0.62068
  27 7   H  1S         -0.01839  -0.14438   0.14939   0.02471  -0.24726
  28        2S         -2.01950   0.04711  -0.11786   0.00470  -0.47219
  29 8   H  1S          0.05329   0.18488   0.13767  -0.02566  -0.24051
  30        2S          1.99842  -0.01170  -0.01277  -0.11807   0.35141
                          21        22        23        24        25
                           V         V         V         V         V
     Eigenvalues --     1.11270   1.22448   1.25762   1.39288   1.44006
   1 1   N  1S          0.01007   0.07804  -0.07245  -0.01172   0.01477
   2        2S         -0.01295  -0.14353   0.07594   0.04103  -0.04061
   3        2PX         0.02827   0.29151   0.19962  -0.41572   0.46156
   4        2PY        -0.08493   0.02195  -0.01449  -0.33873  -0.60254
   5        2PZ         0.00232  -0.08798  -0.16196   0.05473  -0.08646
   6        3S          0.07408  -0.17019   0.14536  -0.06611   0.01649
   7        3PX         0.05314  -0.35964   0.19547   0.22994  -0.56298
   8        3PY         0.64951   0.17712   0.10807   0.30497   0.71896
   9        3PZ         0.29427  -0.26410  -0.00847   0.18670  -0.05787
  10 2   H  1S          1.00167   0.87058  -0.07682  -0.08161  -0.20408
  11        2S         -0.59282  -0.67208  -0.44969  -0.00187   0.78391
  12 3   H  1S         -0.87035   0.89031  -0.22016  -0.12761   0.24365
  13        2S          0.80577  -0.58483  -0.26981  -0.24846  -0.10952
  14 4   H  1S          0.01461   0.06683  -1.20548   0.46192  -0.09242
  15        2S         -0.04576   0.31032   0.88903  -0.31240   0.13624
  16 5   B  1S         -0.00683  -0.02571  -0.02596  -0.07122  -0.00705
  17        2S          0.02020   0.27178   0.36004   0.48872   0.36299
  18        2PX         0.03584   0.22445   0.17822   0.10433  -0.27918
  19        2PY         0.04598  -0.10851  -0.00873   0.02512   0.21278
  20        2PZ        -0.04787   0.04731  -0.01920   0.11987  -0.15656
  21        3S          0.53839  -0.72794  -1.20983  -1.41565  -1.06098
  22        3PX        -0.26498  -0.33404  -0.44427  -0.17369  -0.01232
  23        3PY        -0.69153   0.15445   0.08651   0.00510  -0.47030
  24        3PZ        -0.11888  -0.07666  -0.17095  -0.25820   0.30390
  25 6   H  1S          0.22191  -0.31580  -0.54091  -0.96684   0.56241
  26        2S         -0.61755   1.01189   1.71112   1.62768  -0.75074
  27 7   H  1S         -0.12257   0.13512  -0.01813  -0.57950  -0.67415
  28        2S          0.25241  -0.04505   0.20069   0.80969   1.09729
  29 8   H  1S         -0.02877  -0.03021  -0.00058  -0.13943  -0.32138
  30        2S         -0.60251   0.14206   0.10662   0.29351   0.39967
                          26        27        28        29        30
                           V         V         V         V         V
     Eigenvalues --     1.48368   1.51601   1.53442   1.88740   2.79718
   1 1   N  1S         -0.00685   0.00718   0.00373   0.04722  -0.01495
   2        2S          0.00187  -0.08719  -0.06609  -0.50588  -1.82345
   3        2PX         0.00670  -0.35000   0.17887  -0.77557   0.25834
   4        2PY         0.55708   0.04485   0.64444  -0.08105   0.03569
   5        2PZ         0.13365  -1.01394  -0.03269   0.36762  -0.10519
   6        3S          0.03885   0.23034   0.22280   0.68388   2.84115
   7        3PX        -0.08226   0.49913  -0.30813   1.88213  -0.77391
   8        3PY        -0.77248  -0.07580  -0.95600   0.36286  -0.32021
   9        3PZ        -0.17468   1.41145   0.06220  -1.19436   0.65552
  10 2   H  1S          0.03540   0.04725   0.05487   0.25834  -0.42320
  11        2S         -0.40753  -0.03346  -0.69085  -0.28918  -0.41959
  12 3   H  1S         -0.05731   0.17287   0.02177   0.41957  -0.51091
  13        2S          0.17866  -0.98290   0.33519  -0.23237  -0.25584
  14 4   H  1S         -0.00431  -0.03874   0.01308  -0.62509   0.04374
  15        2S          0.06470   0.22311   0.26131  -0.84319  -0.04804
  16 5   B  1S         -0.04947  -0.02938  -0.01289   0.00321   0.01869
  17        2S          0.41953  -0.32016   0.01297   0.38278  -0.22735
  18        2PX        -0.35610  -0.04015   0.06573   0.32051  -0.33741
  19        2PY        -0.15990  -0.02379   0.47471   0.16045  -0.05704
  20        2PZ        -0.11797  -0.09343   0.04188  -0.13094   0.06369
  21        3S         -1.24858   1.33259  -0.13971  -0.30874  -0.30275
  22        3PX         0.78060   0.79236  -0.13191   0.12018  -0.38953
  23        3PY         0.42683   0.13049  -1.03969  -0.03423  -0.34469
  24        3PZ         0.31026   0.13807   0.01236   0.11286   0.00386
  25 6   H  1S          0.02488   0.15775   0.01494   0.63317  -0.55371
  26        2S         -0.07504  -1.01421  -0.39231   0.41733   0.06848
  27 7   H  1S         -0.12131  -0.10015  -0.95460  -0.23615   0.12957
  28        2S          0.24943  -0.25298   1.57159   0.32614   0.17919
  29 8   H  1S         -1.15084  -0.17783   0.58627   0.03314  -0.02494
  30        2S          1.92648   0.22999  -0.89986   0.17728  -0.25802
     Density Matrix:
                           1         2         3         4         5
   1 1   N  1S          2.05602
   2        2S          0.10039   0.10828
   3        2PX         0.01984  -0.00969   0.36336
   4        2PY        -0.01156   0.01020  -0.03465   0.34166
   5        2PZ         0.00583  -0.00655   0.02411  -0.01835   0.34927
   6        3S         -0.51856   0.33627  -0.19645   0.04383  -0.00017
   7        3PX         0.05976  -0.03382   0.44107  -0.06565   0.04976
   8        3PY         0.00685   0.00457  -0.04186   0.32420  -0.03420
   9        3PZ        -0.01603  -0.00180   0.03658  -0.03310   0.34869
  10 2   H  1S         -0.03704   0.03577  -0.00263  -0.23654   0.01240
  11        2S          0.00857   0.00301   0.00980  -0.17159   0.03134
  12 3   H  1S         -0.04489   0.04362   0.02123   0.09315   0.20189
  13        2S         -0.00334   0.01060   0.00957   0.03747   0.13350
  14 4   H  1S         -0.03748   0.04327   0.15685   0.05768  -0.13408
  15        2S          0.03267  -0.00571   0.11778   0.05581  -0.10986
  16 5   B  1S         -0.00536   0.00924   0.01454  -0.01452   0.02021
  17        2S          0.01389  -0.00579  -0.01194   0.01665  -0.02419
  18        2PX         0.00062   0.01018  -0.08791   0.04225  -0.05763
  19        2PY        -0.00364   0.00151   0.01074  -0.03013   0.01684
  20        2PZ         0.04131  -0.02700   0.05993   0.01511  -0.00820
  21        3S          0.02079  -0.00695  -0.01525   0.05040  -0.06956
  22        3PX         0.00785   0.00328  -0.03239   0.02740  -0.03455
  23        3PY         0.02192  -0.00886   0.01976  -0.02972   0.02091
  24        3PZ         0.03680  -0.02507   0.07762   0.01006  -0.02271
  25 6   H  1S          0.01518   0.00151  -0.04924  -0.02303   0.02041
  26        2S          0.12353  -0.08360   0.16654   0.03318  -0.03650
  27 7   H  1S          0.00857  -0.00825   0.02035  -0.02469   0.00330
  28        2S          0.00647  -0.01257   0.05703  -0.06185   0.01247
  29 8   H  1S         -0.00148  -0.00122   0.00978   0.01154   0.01018
  30        2S          0.00343  -0.00168   0.01755   0.01069   0.03047
                           6         7         8         9        10
   6        3S          1.66585
   7        3PX        -0.36432   0.55164
   8        3PY         0.00400  -0.07043   0.31130
   9        3PZ         0.02795   0.06312  -0.05021   0.35096
  10 2   H  1S          0.15184   0.00197  -0.22707   0.02517   0.18597
  11        2S          0.11517   0.00638  -0.17436   0.04435   0.12419
  12 3   H  1S          0.20084   0.01529   0.07288   0.20206  -0.04427
  13        2S          0.12932  -0.00104   0.02177   0.13601  -0.01955
  14 4   H  1S          0.02533   0.17642   0.05887  -0.13007  -0.03292
  15        2S         -0.23524   0.15788   0.06758  -0.11524  -0.05438
  16 5   B  1S          0.06251   0.01675  -0.00960  -0.00034   0.01542
  17        2S         -0.09970   0.00513   0.02071  -0.02364  -0.01535
  18        2PX        -0.03236  -0.09667   0.05098  -0.06942  -0.02383
  19        2PY         0.03378   0.02197  -0.04703   0.02627   0.01816
  20        2PZ        -0.29916   0.10460   0.02858  -0.01880  -0.03121
  21        3S         -0.09973  -0.00189   0.05078  -0.06201  -0.04017
  22        3PX         0.02436  -0.04343   0.02643  -0.03671  -0.01733
  23        3PY        -0.02318   0.03182  -0.03907   0.02617   0.01338
  24        3PZ        -0.28294   0.12362   0.02102  -0.02981  -0.02774
  25 6   H  1S         -0.17494  -0.02258  -0.00396   0.01065   0.01698
  26        2S         -0.82368   0.28639   0.07142  -0.05978  -0.08195
  27 7   H  1S         -0.06325   0.04464  -0.03445   0.01326   0.00950
  28        2S         -0.11208   0.09859  -0.07222   0.02494   0.03075
  29 8   H  1S          0.02584   0.00568   0.01186   0.01607  -0.00594
  30        2S          0.07532   0.00571   0.00744   0.03835  -0.00447
                          11        12        13        14        15
  11        2S          0.15012
  12 3   H  1S         -0.01818   0.17433
  13        2S          0.03534   0.10618   0.09395
  14 4   H  1S         -0.06986  -0.03862  -0.06120   0.17839
  15        2S         -0.11530  -0.06205  -0.09366   0.14860   0.18913
  16 5   B  1S          0.04237   0.02015   0.03654  -0.01851  -0.04134
  17        2S         -0.03784  -0.02065  -0.02973   0.01950   0.04465
  18        2PX        -0.07464  -0.03470  -0.06517   0.02227   0.06998
  19        2PY         0.06956   0.00731   0.01631  -0.02399  -0.04661
  20        2PZ        -0.10106  -0.02993  -0.07579   0.07015   0.14853
  21        3S         -0.04720  -0.03726  -0.03509   0.03627   0.04987
  22        3PX        -0.00895  -0.01278  -0.00916   0.00200   0.00066
  23        3PY         0.04840   0.00313   0.01285  -0.02056  -0.02991
  24        3PZ        -0.08627  -0.03569  -0.07272   0.07831   0.14290
  25 6   H  1S         -0.09754  -0.02040  -0.07880   0.02212   0.11252
  26        2S         -0.25805  -0.09259  -0.19121   0.18056   0.37877
  27 7   H  1S          0.03288  -0.00909  -0.00518  -0.00329  -0.00459
  28        2S          0.04836  -0.01626  -0.01470   0.00625   0.00946
  29 8   H  1S          0.00445   0.01415   0.02907  -0.00792  -0.02716
  30        2S          0.03185   0.03234   0.06094  -0.02805  -0.06873
                          16        17        18        19        20
  16 5   B  1S          2.02762
  17        2S          0.09065   0.11460
  18        2PX         0.01907  -0.01378   0.14022
  19        2PY         0.00120  -0.00024   0.01802   0.25561
  20        2PZ        -0.01862   0.01886   0.10418  -0.02514   0.17566
  21        3S         -0.24159   0.15066  -0.05729   0.00715  -0.01815
  22        3PX         0.00105  -0.01151   0.02915   0.02616   0.00095
  23        3PY         0.00508  -0.00695   0.00511   0.15027  -0.01195
  24        3PZ        -0.02306   0.02914   0.08363  -0.00331   0.15535
  25 6   H  1S         -0.06211   0.06389   0.09940  -0.07614   0.15176
  26        2S         -0.07569   0.11613   0.18681  -0.13988   0.40716
  27 7   H  1S         -0.07062   0.07001  -0.01518   0.17717  -0.01060
  28        2S         -0.03770   0.07675  -0.00632   0.23171   0.01220
  29 8   H  1S         -0.06894   0.06866  -0.11492  -0.10942  -0.07853
  30        2S         -0.02908   0.05805  -0.15971  -0.12749  -0.12812
                          21        22        23        24        25
  21        3S          0.28627
  22        3PX        -0.01441   0.01430
  23        3PY        -0.00782   0.01336   0.09109
  24        3PZ         0.00723   0.00019   0.00027   0.14292
  25 6   H  1S          0.04723  -0.01067  -0.04932   0.12728   0.21635
  26        2S          0.07638  -0.02140  -0.07655   0.36648   0.38928
  27 7   H  1S          0.12281   0.00571   0.10112   0.01407  -0.01647
  28        2S          0.11878   0.00590   0.13513   0.04039  -0.00886
  29 8   H  1S          0.14105  -0.03199  -0.06745  -0.06537  -0.01736
  30        2S          0.13284  -0.03817  -0.07614  -0.11076  -0.06676
                          26        27        28        29        30
  26        2S          1.03412
  27 7   H  1S         -0.02494   0.17699
  28        2S          0.01468   0.21901   0.28258
  29 8   H  1S         -0.07403  -0.01604  -0.04898   0.17274
  30        2S         -0.18054  -0.03375  -0.07703   0.20772   0.26391
    Full Mulliken population analysis:
                           1         2         3         4         5
   1 1   N  1S          2.05602
   2        2S          0.01957   0.10828
   3        2PX         0.00000   0.00000   0.36336
   4        2PY         0.00000   0.00000  -0.00000   0.34166
   5        2PZ         0.00000   0.00000  -0.00000  -0.00000   0.34927
   6        3S         -0.09553   0.25294   0.00000   0.00000   0.00000
   7        3PX         0.00000   0.00000   0.22759  -0.00000  -0.00000
   8        3PY         0.00000   0.00000  -0.00000   0.16729  -0.00000
   9        3PZ         0.00000   0.00000  -0.00000  -0.00000   0.17993
  10 2   H  1S         -0.00085   0.00656   0.00008   0.05924   0.00022
  11        2S          0.00061   0.00106  -0.00019   0.02775   0.00035
  12 3   H  1S         -0.00103   0.00801   0.00050   0.00916   0.04679
  13        2S         -0.00024   0.00373   0.00015   0.00238   0.01998
  14 4   H  1S         -0.00086   0.00794   0.03263   0.00292   0.01804
  15        2S          0.00232  -0.00201   0.01582   0.00183   0.00954
  16 5   B  1S         -0.00000   0.00000  -0.00000  -0.00000   0.00000
  17        2S          0.00004  -0.00022   0.00068   0.00001  -0.00008
  18        2PX         0.00001   0.00086   0.00991   0.00006  -0.00044
  19        2PY         0.00000  -0.00000   0.00001  -0.00057  -0.00000
  20        2PZ        -0.00002   0.00013   0.00046  -0.00000  -0.00015
  21        3S          0.00059  -0.00108   0.00131   0.00004  -0.00035
  22        3PX         0.00050   0.00103   0.00328   0.00005  -0.00036
  23        3PY        -0.00001   0.00003   0.00004  -0.00224  -0.00000
  24        3PZ        -0.00014   0.00046   0.00080  -0.00000  -0.00170
  25 6   H  1S          0.00020   0.00020   0.00667   0.00185   0.00228
  26        2S          0.00774  -0.02631  -0.01864  -0.00220  -0.00338
  27 7   H  1S          0.00000  -0.00000  -0.00002  -0.00002  -0.00000
  28        2S          0.00005  -0.00063  -0.00225  -0.00164  -0.00002
  29 8   H  1S         -0.00000  -0.00000  -0.00000  -0.00000  -0.00000
  30        2S          0.00000  -0.00002  -0.00022  -0.00003  -0.00004
                           6         7         8         9        10
   6        3S          1.66585
   7        3PX         0.00000   0.55164
   8        3PY         0.00000  -0.00000   0.31130
   9        3PZ         0.00000  -0.00000  -0.00000   0.35096
  10 2   H  1S          0.05532  -0.00013   0.12426   0.00096   0.18597
  11        2S          0.07473  -0.00039   0.08853   0.00156   0.08022
  12 3   H  1S          0.07317   0.00078   0.01566   0.10233  -0.00072
  13        2S          0.08391  -0.00005   0.00434   0.06390  -0.00299
  14 4   H  1S          0.00923   0.08019   0.00652   0.03824  -0.00054
  15        2S         -0.15264   0.06658   0.00694   0.03143  -0.00833
  16 5   B  1S          0.00120  -0.00103  -0.00001  -0.00000   0.00000
  17        2S         -0.01686  -0.00179   0.00007  -0.00048  -0.00037
  18        2PX        -0.00739   0.03503   0.00026  -0.00201  -0.00110
  19        2PY        -0.00008   0.00011  -0.00625  -0.00001  -0.00053
  20        2PZ         0.00398   0.00302  -0.00001  -0.00247   0.00003
  21        3S         -0.03575   0.00071   0.00020  -0.00136  -0.00536
  22        3PX         0.01381   0.01144   0.00016  -0.00127  -0.00427
  23        3PY         0.00014   0.00020  -0.01290  -0.00001  -0.00210
  24        3PZ         0.00936   0.00428  -0.00001  -0.00978   0.00013
  25 6   H  1S         -0.05475   0.00822   0.00086   0.00321   0.00326
  26        2S         -0.49375  -0.10411  -0.01541  -0.01796  -0.03041
  27 7   H  1S         -0.00161  -0.00301  -0.00156  -0.00004   0.00000
  28        2S         -0.01810  -0.02213  -0.01090  -0.00025   0.00036
  29 8   H  1S          0.00008  -0.00007  -0.00004  -0.00002  -0.00000
  30        2S          0.00408  -0.00063  -0.00022  -0.00042  -0.00010
                          11        12        13        14        15
  11        2S          0.15012
  12 3   H  1S         -0.00278   0.17433
  13        2S          0.01477   0.06858   0.09395
  14 4   H  1S         -0.01070  -0.00063  -0.00937   0.17839
  15        2S         -0.04820  -0.00950  -0.03915   0.09598   0.18913
  16 5   B  1S          0.00105   0.00000   0.00066  -0.00000  -0.00013
  17        2S         -0.00675  -0.00029  -0.00420   0.00001   0.00175
  18        2PX        -0.01267  -0.00105  -0.00985   0.00005   0.00397
  19        2PY        -0.00750   0.00005   0.00051  -0.00000  -0.00019
  20        2PZ         0.00033  -0.00041  -0.00520  -0.00004  -0.00211
  21        3S         -0.01801  -0.00409  -0.01171   0.00135   0.00796
  22        3PX        -0.00430  -0.00294  -0.00436   0.00022   0.00021
  23        3PY        -0.01478   0.00015   0.00126  -0.00016  -0.00069
  24        3PZ         0.00081  -0.00372  -0.01573  -0.00214  -0.01144
  25 6   H  1S         -0.03620  -0.00181  -0.02224   0.00003   0.00707
  26        2S         -0.18447  -0.02613  -0.11579   0.01134   0.09219
  27 7   H  1S          0.00039  -0.00000  -0.00022  -0.00000  -0.00004
  28        2S          0.00425  -0.00069  -0.00282   0.00006   0.00073
  29 8   H  1S          0.00009   0.00000   0.00010  -0.00000  -0.00002
  30        2S          0.00402   0.00011   0.00253  -0.00002  -0.00115
                          16        17        18        19        20
  16 5   B  1S          2.02762
  17        2S          0.01657   0.11460
  18        2PX         0.00000   0.00000   0.14022
  19        2PY         0.00000   0.00000   0.00000   0.25561
  20        2PZ         0.00000   0.00000  -0.00000  -0.00000   0.17566
  21        3S         -0.04200   0.11681   0.00000   0.00000   0.00000
  22        3PX         0.00000   0.00000   0.01607   0.00000  -0.00000
  23        3PY         0.00000   0.00000   0.00000   0.08284  -0.00000
  24        3PZ         0.00000   0.00000  -0.00000  -0.00000   0.08564
  25 6   H  1S         -0.00105   0.01456   0.02850   0.01100   0.02477
  26        2S         -0.00721   0.05491   0.05205   0.01964   0.06459
  27 7   H  1S         -0.00119   0.01596   0.00024   0.06302   0.00058
  28        2S         -0.00359   0.03629   0.00010   0.08009  -0.00064
  29 8   H  1S         -0.00116   0.01565   0.03111   0.02311   0.00855
  30        2S         -0.00277   0.02745   0.04201   0.02617   0.01355
                          21        22        23        24        25
  21        3S          0.28627
  22        3PX         0.00000   0.01430
  23        3PY         0.00000   0.00000   0.09109
  24        3PZ         0.00000  -0.00000   0.00000   0.14292
  25 6   H  1S          0.01449  -0.00358   0.00834   0.02432   0.21635
  26        2S          0.05139  -0.01074   0.01935   0.10468   0.25144
  27 7   H  1S          0.03768  -0.00011   0.04210  -0.00090  -0.00003
  28        2S          0.07992  -0.00017   0.08411  -0.00384  -0.00060
  29 8   H  1S          0.04327   0.01014   0.01667   0.00833  -0.00003
  30        2S          0.08938   0.01808   0.02814   0.02110  -0.00453
                          26        27        28        29        30
  26        2S          1.03412
  27 7   H  1S         -0.00169   0.17699
  28        2S          0.00374   0.14146   0.28258
  29 8   H  1S         -0.00502  -0.00003  -0.00332   0.17274
  30        2S         -0.04604  -0.00229  -0.01964   0.13417   0.26391
     Gross orbital populations:
                           1
   1 1   N  1S          1.98896
   2        2S          0.38052
   3        2PX         0.64197
   4        2PY         0.60753
   5        2PZ         0.61988
   6        3S          1.37134
   7        3PX         0.85645
   8        3PY         0.67910
   9        3PZ         0.73644
  10 2   H  1S          0.45880
  11        2S          0.10371
  12 3   H  1S          0.44382
  13        2S          0.11681
  14 4   H  1S          0.45868
  15        2S          0.25787
  16 5   B  1S          1.98696
  17        2S          0.38433
  18        2PX         0.32593
  19        2PY         0.54704
  20        2PZ         0.37025
  21        3S          0.61167
  22        3PX         0.05720
  23        3PY         0.34156
  24        3PZ         0.35344
  25 6   H  1S          0.50281
  26        2S          0.65791
  27 7   H  1S          0.46564
  28        2S          0.62250
  29 8   H  1S          0.45430
  30        2S          0.59659
          Condensed to atoms (all electrons):
               1          2          3          4          5          6
     1  N    7.601893   0.439659   0.433472   0.174661  -0.002547  -0.705288
     2  H    0.439659   0.496525   0.008271  -0.067761  -0.075381  -0.247821
     3  H    0.433472   0.008271   0.405445  -0.058655  -0.060938  -0.165971
     4  H    0.174661  -0.067761  -0.058655   0.559481  -0.001374   0.110636
     5  B   -0.002547  -0.075381  -0.060938  -0.001374   3.800154   0.470035
     6  H   -0.705288  -0.247821  -0.165971   0.110636   0.470035   1.753340
     7  H   -0.062132   0.004997  -0.003728   0.000744   0.429648   0.001421
     8  H    0.002466   0.004018   0.002742  -0.001190   0.418780  -0.055629
               7          8
     1  N   -0.062132   0.002466
     2  H    0.004997   0.004018
     3  H   -0.003728   0.002742
     4  H    0.000744  -0.001190
     5  B    0.429648   0.418780
     6  H    0.001421  -0.055629
     7  H    0.742476  -0.025287
     8  H   -0.025287   0.704989
 Mulliken charges:
               1
     1  N   -0.882184
     2  H    0.437492
     3  H    0.439363
     4  H    0.283458
     5  B    0.021623
     6  H   -0.160724
     7  H   -0.088140
     8  H   -0.050889
 Sum of Mulliken charges =  -0.00000
 Mulliken charges with hydrogens summed into heavy atoms:
               1
     1  N    0.117406
     5  B   -0.117406
 Electronic spatial extent (au):  <R**2>=            113.1689
 Charge=             -0.0000 electrons
 Dipole moment (field-independent basis, Debye):
    X=              4.5562    Y=             -0.8670    Z=              0.1066  Tot=              4.6392
 Quadrupole moment (field-independent basis, Debye-Ang):
   XX=            -16.8594   YY=            -16.3142   ZZ=            -16.7741
   XY=             -0.1780   XZ=              0.6730   YZ=              1.1773
 Traceless Quadrupole moment (field-independent basis, Debye-Ang):
   XX=             -0.2101   YY=              0.3350   ZZ=             -0.1249
   XY=             -0.1780   XZ=              0.6730   YZ=              1.1773
 Octapole moment (field-independent basis, Debye-Ang**2):
  XXX=             17.4924  YYY=             -3.1762  ZZZ=             -0.6407  XYY=              7.1920
  XXY=              0.7044  XXZ=              0.3968  XZZ=              6.8294  YZZ=              1.1639
  YYZ=             -0.2319  XYZ=              0.2091
 Hexadecapole moment (field-independent basis, Debye-Ang**3):
 XXXX=           -109.8765 YYYY=            -34.3305 ZZZZ=            -26.2448 XXXY=              0.1841
 XXXZ=             -3.7913 YYYX=              0.0736 YYYZ=              1.1182 ZZZX=              1.5825
 ZZZY=              2.0874 XXYY=            -26.2615 XXZZ=            -22.6110 YYZZ=            -10.4927
 XXYZ=              0.1896 YYXZ=              0.4911 ZZXY=             -0.0162
 N-N= 4.301077340308D+01 E-N=-2.764898049277D+02  KE= 8.267158324663D+01
 Orbital energies and kinetic energies (alpha):
                                 1                 2
   1         O               -15.568471         21.913280
   2         O                -7.491320         10.795294
   3         O                -1.341571          1.737050
   4         O                -0.866951          1.295470
   5         O                -0.762362          1.317384
   6         O                -0.661090          1.204265
   7         O                -0.524617          1.081581
   8         O                -0.420687          0.853873
   9         O                -0.280670          1.137595
  10         V                 0.188160          0.983463
  11         V                 0.221246          0.847043
  12         V                 0.284174          1.006518
  13         V                 0.311501          1.073618
  14         V                 0.382806          0.735046
  15         V                 0.413829          0.993851
  16         V                 0.476690          0.870306
  17         V                 0.658706          1.492441
  18         V                 0.688227          1.611631
  19         V                 0.735399          1.776650
  20         V                 0.900726          1.551452
  21         V                 1.112703          2.118377
  22         V                 1.224478          2.814854
  23         V                 1.257622          2.694865
  24         V                 1.392875          3.145649
  25         V                 1.440059          3.377745
  26         V                 1.483681          3.000631
  27         V                 1.516007          4.003554
  28         V                 1.534422          3.173993
  29         V                 1.887399          3.786800
  30         V                 2.797184          4.789079
 Total kinetic energy from orbitals= 8.267158324663D+01
 Calling FoFJK, ICntrl=      2127 FMM=F ISym2X=0 I1Cent= 0 IOpClX= 0 NMat=1 NMatS=1 NMatT=0.
 ***** Axes restored to original set *****
 -------------------------------------------------------------------
 Center     Atomic                   Forces (Hartrees/Bohr)
 Number     Number              X              Y              Z
 -------------------------------------------------------------------
      1        7           0.090100776    0.093026110   -0.192897249
      2        1           0.061233939   -0.001884852   -0.065892238
      3        1           0.017936584    0.032728311   -0.018588663
      4        1          -0.003038845    0.028075680   -0.045297000
      5        5          -0.054082617    0.005221945    0.036796933
      6        1          -0.093727100   -0.149975629    0.290062547
      7        1          -0.015765287    0.003193825    0.026766064
      8        1          -0.002657451   -0.010385389   -0.030950393
 -------------------------------------------------------------------
 Cartesian Forces:  Max     0.290062547 RMS     0.088607739

 GradGradGradGradGradGradGradGradGradGradGradGradGradGradGradGradGradGrad
 Berny optimization.
 FormGI is forming the generalized inverse of G from B-inverse, IUseBI=4.
 Internal  Forces:  Max     0.495054351 RMS     0.135215703
 Search for a local minimum.
 Step number   1 out of a maximum of   38
 All quantities printed in internal units (Hartrees-Bohrs-Radians)
 Mixed Optimization -- RFO/linear search
 Second derivative matrix not updated -- first step.
 ITU=  0
     Eigenvalues ---    0.00230   0.01462   0.01786   0.01821   0.06586
     Eigenvalues ---    0.16000   0.16000   0.16000   0.16000   0.16000
     Eigenvalues ---    0.16000   0.17535   0.26185   0.26185   0.26185
     Eigenvalues ---    0.47688   0.47688   0.47688
 RFO step:  Lambda=-6.42681012D-01 EMin= 2.30000000D-03
 Linear search not attempted -- first point.
 Maximum step size (   0.300) exceeded in Quadratic search.
    -- Step size scaled by   0.350
 Iteration  1 RMS(Cart)=  0.10794405 RMS(Int)=  0.01019599
 Iteration  2 RMS(Cart)=  0.00971100 RMS(Int)=  0.00313280
 Iteration  3 RMS(Cart)=  0.00016486 RMS(Int)=  0.00313095
 Iteration  4 RMS(Cart)=  0.00000210 RMS(Int)=  0.00313095
 Iteration  5 RMS(Cart)=  0.00000004 RMS(Int)=  0.00313095
 Variable       Old X    -DE/DX   Delta X   Delta X   Delta X     New X
                                 (Linear)    (Quad)   (Total)
    R1        1.88973   0.02219   0.00000   0.00694   0.00694   1.89667
    R2        1.88973   0.00623   0.00000   0.00195   0.00195   1.89168
    R3        1.88973   0.04921   0.00000   0.01540   0.01540   1.90512
    R4        3.23143   0.34911   0.00000   0.14951   0.14951   3.38094
    R5        2.22988  -0.09373   0.00000  -0.03630  -0.03630   2.19358
    R6        2.22988   0.01065   0.00000   0.00412   0.00412   2.23400
    R7        2.22988   0.01032   0.00000   0.00400   0.00400   2.23387
    A1        1.91063   0.01485   0.00000   0.00698   0.00606   1.91670
    A2        1.91063  -0.06180   0.00000  -0.02671  -0.02651   1.88412
    A3        1.45751   0.10221   0.00000   0.04483   0.04497   1.50248
    A4        1.91063  -0.01295   0.00000  -0.00591  -0.00601   1.90462
    A5        1.60612   0.05419   0.00000   0.02337   0.02332   1.62944
    A6        2.58702  -0.06736   0.00000  -0.02947  -0.02947   2.55755
    A7        0.68818   0.49505   0.00000   0.21926   0.21973   0.90791
    A8        1.61669  -0.08306   0.00000  -0.03440  -0.03009   1.58660
    A9        2.38405   0.08185   0.00000   0.03364   0.03412   2.41817
   A10        2.09440   0.17091   0.00000   0.07216   0.06006   2.15446
   A11        2.09440  -0.18465   0.00000  -0.07786  -0.08586   2.00854
   A12        2.09440   0.01374   0.00000   0.00570   0.00058   2.09497
    D1        0.84122   0.08866   0.00000   0.04693   0.04604   0.88726
    D2       -3.04960  -0.03847   0.00000  -0.02061  -0.01832  -3.06792
    D3       -0.58895  -0.04237   0.00000  -0.02254  -0.02291  -0.61186
    D4       -1.06765   0.07984   0.00000   0.04255   0.04102  -1.02663
    D5        1.32472  -0.04729   0.00000  -0.02499  -0.02334   1.30137
    D6       -2.49782  -0.05120   0.00000  -0.02693  -0.02793  -2.52575
    D7        2.88261   0.09622   0.00000   0.05110   0.04981   2.93242
    D8       -1.00821  -0.03090   0.00000  -0.01644  -0.01455  -1.02275
    D9        1.45244  -0.03481   0.00000  -0.01838  -0.01913   1.43331
         Item               Value     Threshold  Converged?
 Maximum Force            0.495054     0.000450     NO 
 RMS     Force            0.135216     0.000300     NO 
 Maximum Displacement     0.410945     0.001800     NO 
 RMS     Displacement     0.113369     0.001200     NO 
 Predicted change in Energy=-2.164704D-01
 GradGradGradGradGradGradGradGradGradGradGradGradGradGradGradGradGradGrad

                          Input orientation:                          
 ---------------------------------------------------------------------
 Center     Atomic      Atomic             Coordinates (Angstroms)
 Number     Number       Type             X           Y           Z
 ---------------------------------------------------------------------
      1          7           0       -1.478834    1.100464    0.188003
      2          1           0       -1.099175    0.171789    0.160025
      3          1           0       -1.134578    1.583715    0.994241
      4          1           0       -1.175541    1.585301   -0.642243
      5          5           0       -2.853892    0.379541    1.077062
      6          1           0       -1.720467    0.265837    1.300343
      7          1           0       -3.418274    1.418280    1.084052
      8          1           0       -3.470534   -0.628931    1.088643
 ---------------------------------------------------------------------
                    Distance matrix (angstroms):
                    1          2          3          4          5
     1  N    0.000000
     2  H    1.003674   0.000000
     3  H    1.001032   1.640337   0.000000
     4  H    1.008148   1.627108   1.636998   0.000000
     5  B    1.789117   1.990766   2.100698   2.688257   0.000000
     6  H    1.411485   1.301988   1.474370   2.410720   1.160791
     7  H    2.159939   2.790302   2.291441   2.835109   1.182182
     8  H    2.787262   2.669612   3.218914   3.628469   1.182116
                    6          7          8
     6  H    0.000000
     7  H    2.063360   0.000000
     8  H    1.976907   2.047883   0.000000
 Stoichiometry    BH6N
 Framework group  C1[X(BH6N)]
 Deg. of freedom    18
 Full point group                 C1      NOp   1
 Largest Abelian subgroup         C1      NOp   1
 Largest concise Abelian subgroup C1      NOp   1
                         Standard orientation:                         
 ---------------------------------------------------------------------
 Center     Atomic      Atomic             Coordinates (Angstroms)
 Number     Number       Type             X           Y           Z
 ---------------------------------------------------------------------
      1          7           0        0.757558    0.017798   -0.067356
      2          1           0        0.678037   -0.982625   -0.081174
      3          1           0        0.861094    0.337038    0.875740
      4          1           0        1.578892    0.271534   -0.594035
      5          5           0       -1.029733    0.036254    0.011313
      6          1           0       -0.291449   -0.561088    0.678811
      7          1           0       -1.039162    1.216540   -0.054960
      8          1           0       -1.941647   -0.587256   -0.409455
 ---------------------------------------------------------------------
 Rotational constants (GHZ):          97.9958525          16.7270874          15.9315469
 Standard basis: 3-21G (6D, 7F)
 There are    30 symmetry adapted cartesian basis functions of A   symmetry.
 There are    30 symmetry adapted basis functions of A   symmetry.
    30 basis functions,    48 primitive gaussians,    30 cartesian basis functions
     9 alpha electrons        9 beta electrons
       nuclear repulsion energy        41.2687002663 Hartrees.
 NAtoms=    8 NActive=    8 NUniq=    8 SFac= 1.00D+00 NAtFMM=   60 NAOKFM=F Big=F
 Integral buffers will be    131072 words long.
 Raffenetti 1 integral format.
 Two-electron integral symmetry is turned on.
 One-electron integrals computed using PRISM.
 NBasis=    30 RedAO= T EigKep=  2.71D-02  NBF=    30
 NBsUse=    30 1.00D-06 EigRej= -1.00D+00 NBFU=    30
 Initial guess from the checkpoint file:  "NH3_BH3_adduct_opt.chk"
 B after Tr=     0.000000    0.000000   -0.000000
         Rot=    0.999175   -0.039627    0.007048    0.005487 Ang=  -4.66 deg.
 ExpMin= 1.24D-01 ExpMax= 2.43D+02 ExpMxC= 2.43D+02 IAcc=3 IRadAn=         5 AccDes= 0.00D+00
 Harris functional with IExCor=  205 and IRadAn=       5 diagonalized for initial guess.
 HarFok:  IExCor=  205 AccDes= 0.00D+00 IRadAn=         5 IDoV= 1 UseB2=F ITyADJ=14
 ICtDFT=  3500011 ScaDFX=  1.000000  1.000000  1.000000  1.000000
 FoFCou: FMM=F IPFlag=           0 FMFlag=      100000 FMFlg1=           0
         NFxFlg=           0 DoJE=T BraDBF=F KetDBF=T FulRan=T
         wScrn=  0.000000 ICntrl=       500 IOpCl=  0 I1Cent=   200000004 NGrid=           0
         NMat0=    1 NMatS0=      1 NMatT0=    0 NMatD0=    1 NMtDS0=    0 NMtDT0=    0
 Petite list used in FoFCou.
 Keep R1 ints in memory in canonical form, NReq=918606.
 Requested convergence on RMS density matrix=1.00D-08 within 128 cycles.
 Requested convergence on MAX density matrix=1.00D-06.
 Requested convergence on             energy=1.00D-06.
 No special actions if energy rises.
 SCF Done:  E(RHF) =  -81.9848810816     A.U. after   12 cycles
            NFock= 12  Conv=0.40D-08     -V/T= 1.9955
 Calling FoFJK, ICntrl=      2127 FMM=F ISym2X=0 I1Cent= 0 IOpClX= 0 NMat=1 NMatS=1 NMatT=0.
 ***** Axes restored to original set *****
 -------------------------------------------------------------------
 Center     Atomic                   Forces (Hartrees/Bohr)
 Number     Number              X              Y              Z
 -------------------------------------------------------------------
      1        7           0.056096160    0.029284261   -0.118289869
      2        1           0.031640749    0.008827060   -0.025539633
      3        1           0.005337895    0.011775929   -0.008243261
      4        1          -0.008831028    0.014829493   -0.020532602
      5        5          -0.016566383    0.013719023    0.018045246
      6        1          -0.047941491   -0.071036624    0.157158057
      7        1          -0.014649766    0.001344245    0.026060045
      8        1          -0.005086136   -0.008743388   -0.028657984
 -------------------------------------------------------------------
 Cartesian Forces:  Max     0.157158057 RMS     0.048016251

 GradGradGradGradGradGradGradGradGradGradGradGradGradGradGradGradGradGrad
 Berny optimization.
 Using GEDIIS/GDIIS optimizer.
 FormGI is forming the generalized inverse of G from B-inverse, IUseBI=4.
 Internal  Forces:  Max     0.265358419 RMS     0.071973708
 Search for a local minimum.
 Step number   2 out of a maximum of   38
 All quantities printed in internal units (Hartrees-Bohrs-Radians)
 Mixed Optimization -- RFO/linear search
 Update second derivatives using D2CorX and points    1    2
 DE= -1.69D-01 DEPred=-2.16D-01 R= 7.80D-01
 TightC=F SS=  1.41D+00  RLast= 3.14D-01 DXNew= 5.0454D-01 9.4192D-01
 Trust test= 7.80D-01 RLast= 3.14D-01 DXMaxT set to 5.05D-01
 ITU=  1  0
 Use linear search instead of GDIIS.
     Eigenvalues ---    0.00230   0.01907   0.01970   0.02963   0.06709
     Eigenvalues ---    0.15641   0.16000   0.16000   0.16000   0.16000
     Eigenvalues ---    0.17101   0.25450   0.26174   0.26185   0.47280
     Eigenvalues ---    0.47677   0.47688   1.14588
 RFO step:  Lambda=-1.48778767D-01 EMin= 2.30026231D-03
 Quartic linear search produced a step of  1.51811.
 Maximum step size (   0.505) exceeded in Quadratic search.
    -- Step size scaled by   0.960
 Iteration  1 RMS(Cart)=  0.20304617 RMS(Int)=  0.09340356
 Iteration  2 RMS(Cart)=  0.11150306 RMS(Int)=  0.06323513
 Iteration  3 RMS(Cart)=  0.02188411 RMS(Int)=  0.06127003
 Iteration  4 RMS(Cart)=  0.00488523 RMS(Int)=  0.06135435
 Iteration  5 RMS(Cart)=  0.00093592 RMS(Int)=  0.06140118
 Iteration  6 RMS(Cart)=  0.00034118 RMS(Int)=  0.06142342
 Iteration  7 RMS(Cart)=  0.00007738 RMS(Int)=  0.06143179
 Iteration  8 RMS(Cart)=  0.00003555 RMS(Int)=  0.06143516
 Iteration  9 RMS(Cart)=  0.00001113 RMS(Int)=  0.06143644
 Iteration 10 RMS(Cart)=  0.00000474 RMS(Int)=  0.06143694
 Iteration 11 RMS(Cart)=  0.00000171 RMS(Int)=  0.06143713
 Iteration 12 RMS(Cart)=  0.00000068 RMS(Int)=  0.06143721
 Variable       Old X    -DE/DX   Delta X   Delta X   Delta X     New X
                                 (Linear)    (Quad)   (Total)
    R1        1.89667   0.00451   0.01054  -0.02790  -0.01736   1.87931
    R2        1.89168   0.00088   0.00296  -0.00928  -0.00632   1.88535
    R3        1.90512   0.02138   0.02337  -0.01912   0.00426   1.90938
    R4        3.38094   0.17660   0.22697  -0.02559   0.20138   3.58233
    R5        2.19358  -0.00962  -0.05511   0.22603   0.17092   2.36450
    R6        2.23400   0.00833   0.00626   0.01576   0.02202   2.25602
    R7        2.23387   0.00983   0.00607   0.02534   0.03141   2.26528
    A1        1.91670   0.00184   0.00920  -0.03719  -0.03008   1.88661
    A2        1.88412  -0.02774  -0.04024   0.03637  -0.00051   1.88361
    A3        1.50248   0.05401   0.06827   0.01588   0.08682   1.58930
    A4        1.90462  -0.00077  -0.00913   0.04160   0.03022   1.93484
    A5        1.62944   0.02364   0.03540  -0.03564  -0.00227   1.62716
    A6        2.55755  -0.03967  -0.04473  -0.03833  -0.08290   2.47465
    A7        0.90791   0.26536   0.33357   0.14747   0.47953   1.38744
    A8        1.58660  -0.00191  -0.04567   0.28530   0.24985   1.83645
    A9        2.41817   0.00922   0.05180  -0.29130  -0.24525   2.17292
   A10        2.15446   0.06742   0.09118  -0.02386  -0.18801   1.96645
   A11        2.00854  -0.12352  -0.13034  -0.02642  -0.08186   1.92668
   A12        2.09497  -0.00626   0.00088  -0.02130  -0.03026   2.06471
    D1        0.88726   0.05922   0.06989   0.22410   0.21068   1.09794
    D2       -3.06792  -0.03058  -0.02782  -0.21851  -0.18279   3.03248
    D3       -0.61186  -0.03397  -0.03477  -0.15731  -0.16835  -0.78021
    D4       -1.02663   0.05654   0.06227   0.25896   0.23628  -0.79035
    D5        1.30137  -0.03325  -0.03544  -0.18365  -0.15718   1.14419
    D6       -2.52575  -0.03664  -0.04240  -0.12245  -0.14275  -2.66850
    D7        2.93242   0.06748   0.07562   0.29443   0.28442  -3.06634
    D8       -1.02275  -0.02232  -0.02209  -0.14818  -0.10904  -1.13180
    D9        1.43331  -0.02571  -0.02904  -0.08698  -0.09461   1.33870
         Item               Value     Threshold  Converged?
 Maximum Force            0.265358     0.000450     NO 
 RMS     Force            0.071974     0.000300     NO 
 Maximum Displacement     1.080873     0.001800     NO 
 RMS     Displacement     0.284188     0.001200     NO 
 Predicted change in Energy=-1.476737D-01
 GradGradGradGradGradGradGradGradGradGradGradGradGradGradGradGradGradGrad

                          Input orientation:                          
 ---------------------------------------------------------------------
 Center     Atomic      Atomic             Coordinates (Angstroms)
 Number     Number       Type             X           Y           Z
 ---------------------------------------------------------------------
      1          7           0       -1.405479    1.095465    0.061900
      2          1           0       -0.975857    0.198655    0.049133
      3          1           0       -1.035835    1.605152    0.835824
      4          1           0       -1.187473    1.557120   -0.810027
      5          5           0       -2.865184    0.420785    1.065737
      6          1           0       -1.927288    0.232700    1.872316
      7          1           0       -3.524498    1.377051    1.341603
      8          1           0       -3.429681   -0.610935    0.833641
 ---------------------------------------------------------------------
                    Distance matrix (angstroms):
                    1          2          3          4          5
     1  N    0.000000
     2  H    0.994488   0.000000
     3  H    0.997685   1.612673   0.000000
     4  H    1.010400   1.621223   1.653520   0.000000
     5  B    1.895685   2.156938   2.191370   2.761243   0.000000
     6  H    2.072258   2.056788   1.937170   3.081620   1.251238
     7  H    2.491421   3.091063   2.549762   3.181765   1.193835
     8  H    2.757677   2.700397   3.262138   3.525564   1.198737
                    6          7          8
     6  H    0.000000
     7  H    2.035258   0.000000
     8  H    2.011903   2.054045   0.000000
 Stoichiometry    BH6N
 Framework group  C1[X(BH6N)]
 Deg. of freedom    18
 Full point group                 C1      NOp   1
 Largest Abelian subgroup         C1      NOp   1
 Largest concise Abelian subgroup C1      NOp   1
                         Standard orientation:                         
 ---------------------------------------------------------------------
 Center     Atomic      Atomic             Coordinates (Angstroms)
 Number     Number       Type             X           Y           Z
 ---------------------------------------------------------------------
      1          7           0        0.836525    0.004658   -0.061207
      2          1           0        0.850608   -0.944185    0.236293
      3          1           0        0.899579    0.584225    0.748423
      4          1           0        1.628707    0.151103   -0.671050
      5          5           0       -1.059111    0.015802   -0.053159
      6          1           0       -0.827044   -0.192398    1.158614
      7          1           0       -1.366831    1.147795   -0.274839
      8          1           0       -1.745137   -0.858155   -0.503200
 ---------------------------------------------------------------------
 Rotational constants (GHZ):          81.5169914          14.5121984          14.2863562
 Standard basis: 3-21G (6D, 7F)
 There are    30 symmetry adapted cartesian basis functions of A   symmetry.
 There are    30 symmetry adapted basis functions of A   symmetry.
    30 basis functions,    48 primitive gaussians,    30 cartesian basis functions
     9 alpha electrons        9 beta electrons
       nuclear repulsion energy        38.9326791920 Hartrees.
 NAtoms=    8 NActive=    8 NUniq=    8 SFac= 1.00D+00 NAtFMM=   60 NAOKFM=F Big=F
 Integral buffers will be    131072 words long.
 Raffenetti 1 integral format.
 Two-electron integral symmetry is turned on.
 One-electron integrals computed using PRISM.
 NBasis=    30 RedAO= T EigKep=  2.22D-02  NBF=    30
 NBsUse=    30 1.00D-06 EigRej= -1.00D+00 NBFU=    30
 Initial guess from the checkpoint file:  "NH3_BH3_adduct_opt.chk"
 B after Tr=     0.000000   -0.000000    0.000000
         Rot=    0.989528    0.140410    0.026544   -0.020344 Ang=  16.60 deg.
 ExpMin= 1.24D-01 ExpMax= 2.43D+02 ExpMxC= 2.43D+02 IAcc=3 IRadAn=         5 AccDes= 0.00D+00
 Harris functional with IExCor=  205 and IRadAn=       5 diagonalized for initial guess.
 HarFok:  IExCor=  205 AccDes= 0.00D+00 IRadAn=         5 IDoV= 1 UseB2=F ITyADJ=14
 ICtDFT=  3500011 ScaDFX=  1.000000  1.000000  1.000000  1.000000
 FoFCou: FMM=F IPFlag=           0 FMFlag=      100000 FMFlg1=           0
         NFxFlg=           0 DoJE=T BraDBF=F KetDBF=T FulRan=T
         wScrn=  0.000000 ICntrl=       500 IOpCl=  0 I1Cent=   200000004 NGrid=           0
         NMat0=    1 NMatS0=      1 NMatT0=    0 NMatD0=    1 NMtDS0=    0 NMtDT0=    0
 Petite list used in FoFCou.
 Keep R1 ints in memory in canonical form, NReq=918521.
 Requested convergence on RMS density matrix=1.00D-08 within 128 cycles.
 Requested convergence on MAX density matrix=1.00D-06.
 Requested convergence on             energy=1.00D-06.
 No special actions if energy rises.
 SCF Done:  E(RHF) =  -82.1270301123     A.U. after   11 cycles
            NFock= 11  Conv=0.76D-08     -V/T= 2.0033
 Calling FoFJK, ICntrl=      2127 FMM=F ISym2X=0 I1Cent= 0 IOpClX= 0 NMat=1 NMatS=1 NMatT=0.
 ***** Axes restored to original set *****
 -------------------------------------------------------------------
 Center     Atomic                   Forces (Hartrees/Bohr)
 Number     Number              X              Y              Z
 -------------------------------------------------------------------
      1        7          -0.005730487   -0.012105879   -0.011187986
      2        1           0.014459388   -0.011295513   -0.002879425
      3        1           0.004889384    0.009888540    0.001857834
      4        1          -0.016603718    0.003936636   -0.002435592
      5        5           0.025609815    0.010098544    0.034656798
      6        1          -0.024975374   -0.005610109    0.006576183
      7        1          -0.002369547    0.001495829   -0.004872580
      8        1           0.004720540    0.003591952   -0.021715232
 -------------------------------------------------------------------
 Cartesian Forces:  Max     0.034656798 RMS     0.013334676

 GradGradGradGradGradGradGradGradGradGradGradGradGradGradGradGradGradGrad
 Berny optimization.
 Using GEDIIS/GDIIS optimizer.
 FormGI is forming the generalized inverse of G from B-inverse, IUseBI=4.
 Internal  Forces:  Max     0.045975662 RMS     0.014981871
 Search for a local minimum.
 Step number   3 out of a maximum of   38
 All quantities printed in internal units (Hartrees-Bohrs-Radians)
 Mixed Optimization -- RFO/linear search
 Update second derivatives using D2CorX and points    2    3
 DE= -1.42D-01 DEPred=-1.48D-01 R= 9.63D-01
 TightC=F SS=  1.41D+00  RLast= 8.90D-01 DXNew= 8.4853D-01 2.6700D+00
 Trust test= 9.63D-01 RLast= 8.90D-01 DXMaxT set to 8.49D-01
 ITU=  1  1  0
 Use linear search instead of GDIIS.
     Eigenvalues ---    0.00230   0.02443   0.03800   0.06810   0.07621
     Eigenvalues ---    0.12796   0.15994   0.16000   0.16000   0.16929
     Eigenvalues ---    0.18067   0.26158   0.26182   0.27677   0.47164
     Eigenvalues ---    0.47688   0.48048   0.77833
 RFO step:  Lambda=-3.16945204D-02 EMin= 2.30429403D-03
 Quartic linear search produced a step of  0.17388.
 Iteration  1 RMS(Cart)=  0.14728582 RMS(Int)=  0.03207208
 Iteration  2 RMS(Cart)=  0.04167179 RMS(Int)=  0.01865211
 Iteration  3 RMS(Cart)=  0.00234782 RMS(Int)=  0.01856882
 Iteration  4 RMS(Cart)=  0.00009999 RMS(Int)=  0.01856874
 Iteration  5 RMS(Cart)=  0.00000499 RMS(Int)=  0.01856874
 Iteration  6 RMS(Cart)=  0.00000026 RMS(Int)=  0.01856874
 Variable       Old X    -DE/DX   Delta X   Delta X   Delta X     New X
                                 (Linear)    (Quad)   (Total)
    R1        1.87931   0.01647  -0.00302   0.03523   0.03221   1.91152
    R2        1.88535   0.00830  -0.00110   0.01847   0.01737   1.90272
    R3        1.90938   0.00032   0.00074  -0.00529  -0.00455   1.90483
    R4        3.58233   0.00205   0.03502  -0.10520  -0.07018   3.51214
    R5        2.36450  -0.01364   0.02972  -0.03476  -0.00504   2.35946
    R6        2.25602   0.00138   0.00383   0.00325   0.00708   2.26310
    R7        2.26528  -0.00111   0.00546  -0.00680  -0.00134   2.26395
    A1        1.88661   0.00045  -0.00523   0.01219   0.00264   1.88925
    A2        1.88361   0.00109  -0.00009   0.03697   0.04246   1.92608
    A3        1.58930   0.01660   0.01510   0.07300   0.09166   1.68096
    A4        1.93484   0.00294   0.00525   0.01052   0.01061   1.94545
    A5        1.62716   0.01357  -0.00040   0.05696   0.05197   1.67913
    A6        2.47465  -0.02974  -0.01441  -0.16078  -0.17508   2.29957
    A7        1.38744   0.04598   0.08338   0.15612   0.24286   1.63030
    A8        1.83645   0.00529   0.04344   0.00765   0.02804   1.86449
    A9        2.17292  -0.03577  -0.04264  -0.27061  -0.31876   1.85416
   A10        1.96645  -0.00482  -0.03269   0.06658  -0.00520   1.96125
   A11        1.92668  -0.01181  -0.01423   0.05740   0.09202   2.01870
   A12        2.06471   0.01071  -0.00526   0.04037   0.00378   2.06849
    D1        1.09794   0.00231   0.03663  -0.01458  -0.00285   1.09508
    D2        3.03248   0.00693  -0.03178   0.08842   0.06283   3.09531
    D3       -0.78021  -0.01295  -0.02927  -0.18123  -0.18391  -0.96412
    D4       -0.79035   0.00026   0.04108  -0.03374  -0.02050  -0.81085
    D5        1.14419   0.00488  -0.02733   0.06926   0.04519   1.18938
    D6       -2.66850  -0.01501  -0.02482  -0.20039  -0.20155  -2.87005
    D7       -3.06634   0.00548   0.04945   0.03337   0.05297  -3.01337
    D8       -1.13180   0.01010  -0.01896   0.13636   0.11865  -1.01315
    D9        1.33870  -0.00978  -0.01645  -0.13329  -0.12809   1.21061
         Item               Value     Threshold  Converged?
 Maximum Force            0.045976     0.000450     NO 
 RMS     Force            0.014982     0.000300     NO 
 Maximum Displacement     0.466823     0.001800     NO 
 RMS     Displacement     0.178192     0.001200     NO 
 Predicted change in Energy=-2.486263D-02
 GradGradGradGradGradGradGradGradGradGradGradGradGradGradGradGradGradGrad

                          Input orientation:                          
 ---------------------------------------------------------------------
 Center     Atomic      Atomic             Coordinates (Angstroms)
 Number     Number       Type             X           Y           Z
 ---------------------------------------------------------------------
      1          7           0       -1.411255    1.047759    0.072930
      2          1           0       -0.914513    0.167361    0.036203
      3          1           0       -0.975742    1.626520    0.772333
      4          1           0       -1.403239    1.492868   -0.831428
      5          5           0       -2.806134    0.450721    1.146267
      6          1           0       -2.053910    0.192521    2.108776
      7          1           0       -3.509575    1.396423    1.358437
      8          1           0       -3.276927   -0.498179    0.586609
 ---------------------------------------------------------------------
                    Distance matrix (angstroms):
                    1          2          3          4          5
     1  N    0.000000
     2  H    1.011534   0.000000
     3  H    1.006877   1.635476   0.000000
     4  H    1.007992   1.657892   1.665132   0.000000
     5  B    1.858546   2.211507   2.207411   2.639215   0.000000
     6  H    2.299806   2.365252   2.237158   3.280102   1.248572
     7  H    2.485366   3.161209   2.610895   3.039977   1.197580
     8  H    2.476797   2.515331   3.137561   3.079903   1.198029
                    6          7          8
     6  H    0.000000
     7  H    2.032572   0.000000
     8  H    2.071191   2.058970   0.000000
 Stoichiometry    BH6N
 Framework group  C1[X(BH6N)]
 Deg. of freedom    18
 Full point group                 C1      NOp   1
 Largest Abelian subgroup         C1      NOp   1
 Largest concise Abelian subgroup C1      NOp   1
                         Standard orientation:                         
 ---------------------------------------------------------------------
 Center     Atomic      Atomic             Coordinates (Angstroms)
 Number     Number       Type             X           Y           Z
 ---------------------------------------------------------------------
      1          7           0        0.818540   -0.006389   -0.033620
      2          1           0        0.932541   -0.680316    0.712052
      3          1           0        0.923209    0.915982    0.356349
      4          1           0        1.490776   -0.175985   -0.765320
      5          5           0       -1.039988   -0.014640   -0.034115
      6          1           0       -1.116493    0.423842    1.132424
      7          1           0       -1.390035    0.791266   -0.847860
      8          1           0       -1.369835   -1.156868   -0.181732
 ---------------------------------------------------------------------
 Rotational constants (GHZ):          74.2295938          15.0174472          14.9267324
 Standard basis: 3-21G (6D, 7F)
 There are    30 symmetry adapted cartesian basis functions of A   symmetry.
 There are    30 symmetry adapted basis functions of A   symmetry.
    30 basis functions,    48 primitive gaussians,    30 cartesian basis functions
     9 alpha electrons        9 beta electrons
       nuclear repulsion energy        38.9625234130 Hartrees.
 NAtoms=    8 NActive=    8 NUniq=    8 SFac= 1.00D+00 NAtFMM=   60 NAOKFM=F Big=F
 Integral buffers will be    131072 words long.
 Raffenetti 1 integral format.
 Two-electron integral symmetry is turned on.
 One-electron integrals computed using PRISM.
 NBasis=    30 RedAO= T EigKep=  1.95D-02  NBF=    30
 NBsUse=    30 1.00D-06 EigRej= -1.00D+00 NBFU=    30
 Initial guess from the checkpoint file:  "NH3_BH3_adduct_opt.chk"
 B after Tr=     0.000000   -0.000000    0.000000
         Rot=    0.967294    0.252383    0.013820   -0.021307 Ang=  29.39 deg.
 ExpMin= 1.24D-01 ExpMax= 2.43D+02 ExpMxC= 2.43D+02 IAcc=3 IRadAn=         5 AccDes= 0.00D+00
 Harris functional with IExCor=  205 and IRadAn=       5 diagonalized for initial guess.
 HarFok:  IExCor=  205 AccDes= 0.00D+00 IRadAn=         5 IDoV= 1 UseB2=F ITyADJ=14
 ICtDFT=  3500011 ScaDFX=  1.000000  1.000000  1.000000  1.000000
 FoFCou: FMM=F IPFlag=           0 FMFlag=      100000 FMFlg1=           0
         NFxFlg=           0 DoJE=T BraDBF=F KetDBF=T FulRan=T
         wScrn=  0.000000 ICntrl=       500 IOpCl=  0 I1Cent=   200000004 NGrid=           0
         NMat0=    1 NMatS0=      1 NMatT0=    0 NMatD0=    1 NMtDS0=    0 NMtDT0=    0
 Petite list used in FoFCou.
 Keep R1 ints in memory in canonical form, NReq=918507.
 Requested convergence on RMS density matrix=1.00D-08 within 128 cycles.
 Requested convergence on MAX density matrix=1.00D-06.
 Requested convergence on             energy=1.00D-06.
 No special actions if energy rises.
 SCF Done:  E(RHF) =  -82.1531014519     A.U. after   11 cycles
            NFock= 11  Conv=0.32D-08     -V/T= 2.0045
 Calling FoFJK, ICntrl=      2127 FMM=F ISym2X=0 I1Cent= 0 IOpClX= 0 NMat=1 NMatS=1 NMatT=0.
 ***** Axes restored to original set *****
 -------------------------------------------------------------------
 Center     Atomic                   Forces (Hartrees/Bohr)
 Number     Number              X              Y              Z
 -------------------------------------------------------------------
      1        7           0.001154885   -0.015434589    0.019256216
      2        1           0.003207198    0.003268725   -0.005167062
      3        1           0.004568551    0.006029243   -0.004682494
      4        1          -0.012314991    0.000064478    0.001217630
      5        5           0.017235897    0.005114971    0.005447781
      6        1          -0.012255006   -0.000863499   -0.010574454
      7        1          -0.001578609    0.001146316   -0.003737181
[...]
      5        5          -0.000024958    0.000018735    0.000066599
      6        1           0.000009186   -0.000037030   -0.000024925
      7        1           0.000007877   -0.000014437   -0.000045077
      8        1          -0.000008325   -0.000021524   -0.000003307
 -------------------------------------------------------------------
 Cartesian Forces:  Max     0.000079672 RMS     0.000035627
 FormGI is forming the generalized inverse of G from B-inverse, IUseBI=4.

 GradGradGradGradGradGradGradGradGradGradGradGradGradGradGradGradGradGrad
 Berny optimization.
 Internal  Forces:  Max     0.000079642 RMS     0.000027134
 Search for a local minimum.
 Step number   1 out of a maximum of    2
 All quantities printed in internal units (Hartrees-Bohrs-Radians)
 Second derivative matrix not updated -- analytic derivatives used.
 ITU=  0
     Eigenvalues ---    0.00156   0.04359   0.04360   0.05235   0.05240
     Eigenvalues ---    0.08359   0.10475   0.10479   0.13156   0.17643
     Eigenvalues ---    0.17644   0.21433   0.23480   0.23492   0.24678
     Eigenvalues ---    0.48543   0.48556   0.49016
 Angle between quadratic step and forces=  33.83 degrees.
 Linear search not attempted -- first point.
 Iteration  1 RMS(Cart)=  0.00049653 RMS(Int)=  0.00000024
 Iteration  2 RMS(Cart)=  0.00000022 RMS(Int)=  0.00000010
 Variable       Old X    -DE/DX   Delta X   Delta X   Delta X     New X
                                 (Linear)    (Quad)   (Total)
    R1        1.90790   0.00000   0.00000   0.00001   0.00001   1.90791
    R2        1.90798  -0.00002   0.00000  -0.00007  -0.00007   1.90791
    R3        1.90785   0.00002   0.00000   0.00006   0.00006   1.90791
    R4        3.23776   0.00003   0.00000   0.00030   0.00030   3.23806
    R5        2.28389  -0.00001   0.00000  -0.00006  -0.00006   2.28383
    R6        2.28397  -0.00002   0.00000  -0.00014  -0.00014   2.28383
    R7        2.28369   0.00002   0.00000   0.00014   0.00014   2.28383
    A1        1.91793   0.00001   0.00000   0.00015   0.00015   1.91808
    A2        1.91817   0.00001   0.00000  -0.00009  -0.00009   1.91808
    A3        1.90397  -0.00007   0.00000  -0.00084  -0.00084   1.90313
    A4        1.91818  -0.00003   0.00000  -0.00010  -0.00010   1.91808
    A5        1.90211   0.00008   0.00000   0.00102   0.00102   1.90313
    A6        1.90326   0.00000   0.00000  -0.00013  -0.00013   1.90313
    A7        1.82372  -0.00001   0.00000  -0.00003  -0.00003   1.82369
    A8        1.82368  -0.00003   0.00000   0.00001   0.00001   1.82369
    A9        1.82401   0.00001   0.00000  -0.00032  -0.00032   1.82369
   A10        1.98823   0.00004   0.00000   0.00075   0.00075   1.98897
   A11        1.98932  -0.00002   0.00000  -0.00035  -0.00035   1.98897
   A12        1.98910  -0.00000   0.00000  -0.00013  -0.00013   1.98897
    D1        1.04721  -0.00000   0.00000  -0.00001  -0.00001   1.04720
    D2        3.14077   0.00003   0.00000   0.00082   0.00082   3.14159
    D3       -1.04773   0.00002   0.00000   0.00054   0.00054  -1.04720
    D4       -1.04691  -0.00002   0.00000  -0.00029  -0.00029  -1.04720
    D5        1.04666   0.00001   0.00000   0.00054   0.00054   1.04720
    D6        3.14134   0.00000   0.00000   0.00026   0.00026   3.14159
    D7       -3.14089  -0.00003   0.00000  -0.00070  -0.00070  -3.14159
    D8       -1.04733   0.00000   0.00000   0.00013   0.00013  -1.04720
    D9        1.04735  -0.00001   0.00000  -0.00015  -0.00015   1.04720
         Item               Value     Threshold  Converged?
 Maximum Force            0.000080     0.000450     YES
 RMS     Force            0.000027     0.000300     YES
 Maximum Displacement     0.001328     0.001800     YES
 RMS     Displacement     0.000497     0.001200     YES
 Predicted change in Energy=-1.287986D-07
 Optimization completed.
    -- Stationary point found.
                           ----------------------------
                           !   Optimized Parameters   !
                           ! (Angstroms and Degrees)  !
 --------------------------                            --------------------------
 ! Name  Definition              Value          Derivative Info.                !
 --------------------------------------------------------------------------------
 ! R1    R(1,2)                  1.0096         -DE/DX =    0.0                 !
 ! R2    R(1,3)                  1.0097         -DE/DX =    0.0                 !
 ! R3    R(1,4)                  1.0096         -DE/DX =    0.0                 !
 ! R4    R(1,5)                  1.7133         -DE/DX =    0.0                 !
 ! R5    R(5,6)                  1.2086         -DE/DX =    0.0                 !
 ! R6    R(5,7)                  1.2086         -DE/DX =    0.0                 !
 ! R7    R(5,8)                  1.2085         -DE/DX =    0.0                 !
 ! A1    A(2,1,3)              109.8894         -DE/DX =    0.0                 !
 ! A2    A(2,1,4)              109.9028         -DE/DX =    0.0                 !
 ! A3    A(2,1,5)              109.0896         -DE/DX =   -0.0001              !
 ! A4    A(3,1,4)              109.9036         -DE/DX =    0.0                 !
 ! A5    A(3,1,5)              108.9831         -DE/DX =    0.0001              !
 ! A6    A(4,1,5)              109.0485         -DE/DX =    0.0                 !
 ! A7    A(1,5,6)              104.4914         -DE/DX =    0.0                 !
 ! A8    A(1,5,7)              104.489          -DE/DX =    0.0                 !
 ! A9    A(1,5,8)              104.5078         -DE/DX =    0.0                 !
 ! A10   A(6,5,7)              113.9171         -DE/DX =    0.0                 !
 ! A11   A(6,5,8)              113.9798         -DE/DX =    0.0                 !
 ! A12   A(7,5,8)              113.9673         -DE/DX =    0.0                 !
 ! D1    D(2,1,5,6)             60.0006         -DE/DX =    0.0                 !
 ! D2    D(2,1,5,7)            179.953          -DE/DX =    0.0                 !
 ! D3    D(2,1,5,8)            -60.0308         -DE/DX =    0.0                 !
 ! D4    D(3,1,5,6)            -59.9833         -DE/DX =    0.0                 !
 ! D5    D(3,1,5,7)             59.9691         -DE/DX =    0.0                 !
 ! D6    D(3,1,5,8)            179.9853         -DE/DX =    0.0                 !
 ! D7    D(4,1,5,6)           -179.96           -DE/DX =    0.0                 !
 ! D8    D(4,1,5,7)            -60.0076         -DE/DX =    0.0                 !
 ! D9    D(4,1,5,8)             60.0086         -DE/DX =    0.0                 !
 --------------------------------------------------------------------------------
 GradGradGradGradGradGradGradGradGradGradGradGradGradGradGradGradGradGrad


 ----------------------------------------------------------------------

 Electric dipole moment (input orientation):
 (Debye = 10**-18 statcoulomb cm , SI units = C m)
                  (au)            (Debye)         (10**-30 SI)
   Tot        0.225316D+01      0.572696D+01      0.191031D+02
   x          0.174343D+01      0.443136D+01      0.147814D+02
   y          0.682843D+00      0.173561D+01      0.578938D+01
   z         -0.125335D+01     -0.318570D+01     -0.106264D+02

 Dipole polarizability, Alpha (input orientation).
 (esu units = cm**3 , SI units = C**2 m**2 J**-1)
 Alpha(0;0):
               (au)            (10**-24 esu)      (10**-40 SI)
   iso        0.202170D+02      0.299585D+01      0.333334D+01
   aniso      0.388641D+01      0.575907D+00      0.640783D+00
   xx         0.191860D+02      0.284307D+01      0.316334D+01
   yx        -0.913368D+00     -0.135347D+00     -0.150594D+00
   yy         0.211529D+02      0.313454D+01      0.348765D+01
   zx         0.167149D+01      0.247689D+00      0.275591D+00
   zy         0.657746D+00      0.974679D-01      0.108448D+00
   zz         0.203121D+02      0.300995D+01      0.334902D+01

 First dipole hyperpolarizability, Beta (input orientation).
 ||, _|_  parallel and perpendicular components, (z) with respect to z axis,
 vector components x,y,z.  Values do not include the 1/n! factor of 1/2.
 (esu units = statvolt**-1 cm**4 , SI units = C**3 m**3 J**-2)
 Beta(0;0,0):
               (au)            (10**-30 esu)      (10**-50 SI)
   || (z)     0.558953D+01      0.482892D-01      0.179220D-01
   _|_(z)     0.186318D+01      0.160964D-01      0.597401D-02
   x         -0.389912D+02     -0.336854D+00     -0.125020D+00
   y         -0.153935D+02     -0.132988D+00     -0.493572D-01
   z          0.279476D+02      0.241446D+00      0.896102D-01
   ||         0.100764D+02      0.870522D-01      0.323086D-01
   xxx       -0.740874D+01     -0.640057D-01     -0.237551D-01
   xxy       -0.722123D+01     -0.623858D-01     -0.231539D-01
   yxy        0.909032D+00      0.785333D-02      0.291468D-02
   yyy        0.564375D+01      0.487576D-01      0.180959D-01
   xxz        0.135538D+02      0.117094D+00      0.434583D-01
   yxz        0.620958D+01      0.536460D-01      0.199102D-01
   yyz       -0.171058D+01     -0.147781D-01     -0.548475D-02
   zxz       -0.649736D+01     -0.561322D-01     -0.208329D-01
   zyz       -0.355369D+01     -0.307012D-01     -0.113944D-01
   zzz       -0.252732D+01     -0.218341D-01     -0.810352D-02

 ----------------------------------------------------------------------

 Dipole orientation:
     7         -1.62629518         -2.26326552         -1.65800848
     1         -0.91465635         -0.60660807         -1.03421026
     1         -0.54635600         -3.70848517         -1.03716009
     1         -3.41704512         -2.47644844         -1.03537675
     5         -1.62619397         -2.26364608         -4.89576376
     1          0.56971581         -2.00376132         -5.46723455
     1         -2.49735036         -4.29621039         -5.46698999
     1         -2.95000849         -0.49299710         -5.46810522

 Electric dipole moment (dipole orientation):
 (Debye = 10**-18 statcoulomb cm , SI units = C m)
                  (au)            (Debye)         (10**-30 SI)
   Tot        0.225316D+01      0.572696D+01      0.191031D+02
   x          0.000000D+00      0.000000D+00      0.000000D+00
   y          0.000000D+00      0.000000D+00      0.000000D+00
   z          0.225316D+01      0.572696D+01      0.191031D+02

 Dipole polarizability, Alpha (dipole orientation).
 (esu units = cm**3 , SI units = C**2 m**2 J**-1)
 Alpha(0;0):
               (au)            (10**-24 esu)      (10**-40 SI)
   iso        0.202170D+02      0.299585D+01      0.333334D+01
   aniso      0.388641D+01      0.575907D+00      0.640783D+00
   xx         0.215124D+02      0.318781D+01      0.354692D+01
   yx        -0.131175D-02     -0.194381D-03     -0.216278D-03
   yy         0.215125D+02      0.318783D+01      0.354694D+01
   zx        -0.310667D-03     -0.460361D-04     -0.512221D-04
   zy         0.405969D-02      0.601584D-03      0.669353D-03
   zz         0.176261D+02      0.261192D+01      0.290615D+01

 First dipole hyperpolarizability, Beta (dipole orientation).
 ||, _|_  parallel and perpendicular components, (z) with respect to z axis,
 vector components x,y,z.  Values do not include the 1/n! factor of 1/2.
 (esu units = statvolt**-1 cm**4 , SI units = C**3 m**3 J**-2)
 Beta(0;0,0):
               (au)            (10**-30 esu)      (10**-50 SI)
   || (z)    -0.100764D+02     -0.870519D-01     -0.323084D-01
   _|_(z)    -0.335878D+01     -0.290173D-01     -0.107695D-01
   x         -0.459154D-01     -0.396673D-03     -0.147221D-03
   y          0.139968D+00      0.120922D-02      0.448789D-03
   z         -0.503818D+02     -0.435259D+00     -0.161542D+00
   ||         0.100764D+02      0.870522D-01      0.323086D-01
   xxx        0.128717D+01      0.111201D-01      0.412713D-02
   xxy        0.484122D+00      0.418244D-02      0.155227D-02
   yxy       -0.129098D+01     -0.111531D-01     -0.413936D-02
   yyy       -0.480752D+00     -0.415332D-02     -0.154146D-02
   xxz        0.679454D+01      0.586995D-01      0.217857D-01
   yxz        0.289364D-01      0.249988D-03      0.927804D-04
   yyz        0.679556D+01      0.587083D-01      0.217890D-01
   zxz       -0.114921D-01     -0.992829D-04     -0.368478D-04
   zyz        0.432858D-01      0.373956D-03      0.138790D-03
   zzz       -0.303840D+02     -0.262494D+00     -0.974221D-01

 ----------------------------------------------------------------------
 1\1\GINC-IISERK51\Freq\RHF\3-21G\B1H6N1\GAUSSIAN\17-Jun-2025\0\\#N Geo
 m=AllCheck Guess=TCheck SCRF=Check GenChk RHF/3-21G Freq\\Title Card R
 equired\\0,1\N,-1.3888691424,0.9907629011,0.185113515\H,-0.7696453893,
 0.2091316147,0.0271979883\H,-0.8982721002,1.723861425,0.6763279896\H,-
 1.7339781028,1.3395590364,-0.6972229263\B,-2.7146074832,0.4716968652,1
 .1382892124\H,-2.2129090738,0.0755442339,2.1639740637\H,-3.3942164245,
 1.4616603948,1.275698177\H,-3.2387979539,-0.396223081,0.4807482305\\Ve
 rsion=EM64L-G16RevB.01\State=1-A\HF=-82.1663133\RMSD=1.191e-09\RMSF=3.
 563e-05\ZeroPoint=0.0739338\Thermal=0.0776941\Dipole=1.7434323,0.68284
 29,-1.253351\DipoleDeriv=-0.7888195,-0.1663252,0.3050618,-0.1663772,-0
 .4294882,0.1194442,0.3050033,0.1194068,-0.5838251,0.2234826,0.0595767,
 -0.0102854,0.0200081,0.2522224,-0.0172626,0.0008055,-0.0413385,0.24497
 ,0.2343555,-0.032355,-0.0512179,-0.0114828,0.2124904,-0.01795,-0.01867
 38,0.0098024,0.2740103,0.293191,-0.0002902,0.0125619,0.0184146,0.22859
 79,0.0159812,-0.0310488,0.0123063,0.1990159,0.7718368,0.0920858,-0.168
 8153,0.092027,0.5729384,-0.0660525,-0.1689111,-0.0661264,0.6583375,-0.
 2778331,0.0535445,-0.1533307,0.0053248,-0.1673603,0.0757011,-0.0406261
 ,0.0852258,-0.3426316,-0.2433016,0.0505496,0.051563,0.1526943,-0.38432
 98,-0.0234181,0.0230164,0.0387818,-0.1602637,-0.2129116,-0.0567861,0.0
 144626,-0.1106087,-0.2850709,-0.0864434,-0.0695654,-0.1580581,-0.28961
 32\Polar=19.1859879,-0.9133677,21.1529207,1.6714891,0.6577458,20.31214
 08\PolarDeriv=-1.8139772,0.6680826,-3.3100733,-0.3194262,-1.9652884,0.
 465396,0.5332413,-2.9577602,-0.3319054,-1.9674758,-0.1252409,-2.022931
 2,-0.0645648,-1.9642002,0.1287262,0.8161508,-1.8863181,3.284494,4.0694
 171,-2.5721888,1.2888407,-0.7064027,0.8496007,0.1253463,-1.4797472,2.3
 552559,-3.4526219,0.6542207,-0.6629924,-0.3596851,-0.3582196,0.8511485
 ,-0.2286883,1.2534159,-1.2463679,-1.2690119,3.0529169,2.1332655,1.6050
 109,1.3351683,0.7233445,-0.1121958,0.9799671,2.4281211,4.1181462,0.781
 8277,1.110464,0.6069895,0.766007,0.5640585,0.6604067,0.9034888,1.67429
 67,1.428962,-1.1606352,0.4915673,0.0919812,-1.462601,0.3028515,-0.4514
 164,-0.1460818,-0.020098,1.6931004,0.4407726,-2.0443065,1.3710903,0.03
 48064,0.4589903,-0.7518868,-0.8178098,1.8866613,-6.3980107,0.8208023,0
 .0507342,2.0717877,-1.0936002,1.2994577,-0.9875139,-0.1753269,2.649944
 4,-1.1478417,1.3005824,0.5906543,2.0587427,-0.6755144,1.2968278,1.0098
 461,-0.4081597,2.2819716,-1.7129055,3.0713487,-1.0465457,0.212003,2.98
 8951,-0.26526,0.9267578,-0.0096853,0.3588928,-2.0988027,-0.3151537,2.3
 751904,-1.1787631,0.5476287,-0.4044453,1.0069551,1.1295923,-1.7417492,
 6.9671446,-4.5396379,2.6376457,-0.7313128,0.717421,-0.7460112,-0.35882
 78,1.3222028,-2.5829898,6.2293827,-0.2554983,0.3308685,0.7077268,0.401
 8866,-0.5408236,-0.5614744,-1.619286,1.8541479,1.2818856,-3.5002348,-2
 .3625607,-1.2282374,-1.4595102,-0.1986948,0.3924538,-1.02457,-2.231366
 2,-5.0094576,-0.6392757,-1.5746374,-1.18317,-0.6520299,-0.2615561,-1.2
 638845,-1.2573924,-2.8226423,-3.5825581\HyperPolar=-7.4087385,-7.22122
 8,0.9090317,5.6437526,13.5537854,6.2095821,-1.7105837,-6.4973637,-3.55
 36949,-2.5273249\Quadrupole=-0.0889166,0.0806212,0.0082954,-0.0790689,
 0.1446952,0.0570453\PG=C01 [X(B1H6N1)]\NImag=0\\0.54171298,-0.10072009
 ,0.75840098,0.18412883,0.07217893,0.66580690,-0.20892600,0.20155411,0.
 02044856,0.21295694,0.17552585,-0.29467004,-0.04741852,-0.20310229,0.3
 2063844,0.02772754,-0.06324728,-0.08175730,-0.02767066,0.05454291,0.07
 561821,-0.15507413,-0.13575313,-0.11540242,0.01693505,0.02407667,0.017
 62659,0.15504201,-0.12204078,-0.27818883,-0.14282279,-0.02243968,-0.02
 388374,-0.01738612,0.13934406,0.28986690,-0.09400399,-0.12457278,-0.15
 191072,-0.00342116,-0.00409162,-0.00207464,0.10969538,0.15133718,0.164
 23086,-0.09686391,0.04453376,-0.10675375,-0.00900063,0.00911475,-0.027
 34159,-0.00715867,0.00935898,-0.02039217,0.10661876,0.05682899,-0.1253
 9028,0.11116195,0.01071165,-0.01001364,0.03602480,-0.01346527,0.015984
 53,-0.03361686,-0.05557610,0.12086666,-0.13544274,0.10872322,-0.363131
 24,0.00627690,-0.00459811,0.01000483,-0.00447288,0.01120602,-0.0178327
 4,0.13612488,-0.12031588,0.38178568,-0.05231327,0.00368503,-0.00685116
 ,-0.01220379,-0.00393719,0.00996782,-0.00928551,-0.00547046,0.00695998
 ,0.00985954,0.00235103,-0.00400056,0.29509011,0.00370367,-0.06038337,-
 0.00266114,0.01650240,0.00898187,-0.01190255,-0.01626553,-0.00452614,0
 .01088653,-0.00731058,-0.00086215,0.00608361,-0.05089792,0.40568557,-0
 .00684087,-0.00264698,-0.05687498,0.00424380,0.00054142,-0.00038482,-0
 .00988163,-0.00347621,0.01009215,0.01855617,0.00798903,-0.01264674,0.0
 9393460,0.03684796,0.35818486,0.00579478,-0.00986460,0.02387128,0.0016
 3223,0.00021654,-0.00170083,0.00142227,0.00133073,-0.00116137,-0.00462
 353,-0.00194323,0.00353246,-0.07301109,0.02714243,-0.06974945,0.073936
 22,0.00060574,-0.00255786,0.00983527,-0.00010142,-0.00042167,-0.000028
 55,0.00124212,0.00006305,-0.00054605,-0.00160179,0.00006797,0.00069791
 ,0.02357980,-0.05869838,0.04532199,-0.02568530,0.05835823,-0.00058565,
 0.00778821,-0.01671965,-0.00125380,-0.00029077,0.00017638,-0.00067301,
 -0.00020779,-0.00009891,0.00273868,0.00063292,-0.00043691,-0.06143095,
 0.04602246,-0.16106972,0.06748812,-0.05680015,0.18236027,-0.01876132,0
 .01593210,0.00794146,-0.00301795,-0.00222989,0.00276872,0.00142514,0.0
 0101257,-0.00103250,0.00058760,0.00046255,-0.00103097,-0.08970599,0.07
 507677,0.00849780,-0.00321214,0.00827005,-0.00012205,0.10343042,-0.006
 22987,0.00900287,0.00171935,-0.00294535,-0.00022908,0.00199906,0.00153
 189,0.00009581,-0.00047830,0.00078958,-0.00032063,-0.00106641,0.082616
 75,-0.16123780,-0.01681801,0.00523122,-0.00490857,-0.00026220,-0.09073
 422,0.17041990,0.01415451,-0.01178274,-0.00372558,0.00296982,0.0015634
 3,-0.00174520,-0.00084673,-0.00024315,-0.00013245,-0.00145743,-0.00078
 928,0.00111965,0.00638679,-0.01222755,-0.04178507,-0.01233207,0.016352
 31,0.00501849,-0.01556521,0.01776115,0.04076010,-0.01556912,-0.0193671
 9,-0.00738281,0.00162416,0.00033556,-0.00137759,-0.00330614,-0.0010954
 1,0.00335584,0.00058084,0.00063037,-0.00098710,-0.06843000,-0.04795125
 ,-0.03876043,-0.00193873,-0.00630921,-0.00616135,0.00925425,0.00974000
 ,0.00669033,0.07778474,-0.00767352,-0.00621348,-0.00199306,-0.00017943
 ,-0.00040214,-0.00000227,-0.00071082,0.00058842,0.00108190,0.00069140,
 -0.00033248,-0.00073037,-0.05192705,-0.12895960,-0.06775920,0.00357221
 ,0.00809722,0.00311731,-0.00778992,-0.01282250,-0.01063417,0.06401713,
 0.14004455,0.01086237,0.01355941,0.00831256,-0.00159346,-0.00024874,0.
 00016253,0.00395470,0.00159286,-0.00227356,-0.00147479,-0.00108669,0.0
 0113746,-0.04496653,-0.07304933,-0.09551568,-0.00994814,-0.01483274,-0
 .00922996,-0.00145725,-0.00285463,0.00049005,0.04462309,0.07691986,0.0
 9691660\\-0.00004301,-0.00007791,-0.00007967,0.00003352,0.00003020,-0.
 00000526,-0.00000889,0.00000206,0.00005614,0.00000216,-0.00000861,0.00
 002207,0.00002496,-0.00001874,-0.00006660,-0.00000919,0.00003703,0.000
 02492,-0.00000788,0.00001444,0.00004508,0.00000833,0.00002152,0.000003
 31\\\@


 Time has a wonderful way of weeding out the trivial.
                                -- Richard Ben Sapir
 Job cpu time:       0 days  0 hours  0 minutes  0.7 seconds.
 Elapsed time:       0 days  0 hours  0 minutes  0.7 seconds.
 File lengths (MBytes):  RWF=      6 Int=      0 D2E=      0 Chk=      1 Scr=      1
 Normal termination of Gaussian 16 at Tue Jun 17 14:59:51 2025.
