 Entering Gaussian System, Link 0=g16
 Input=/home/gaussian/Documents/Summer_Internship/Acid_Base_adduct/Adduct/NH3-BH3/NH3_only_adduct_sp.com
 Output=/home/gaussian/Documents/Summer_Internship/Acid_Base_adduct/Adduct/NH3-BH3/NH3_only_adduct_sp.log
 Initial command:
 /usr/local/g16/l1.exe "/home/gaussian/tmp/Gau-92170.inp" -scrdir="/home/gaussian/tmp/"
 Entering Link 1 = /usr/local/g16/l1.exe PID=     92173.
  
 Copyright (c) 1988-2017, Gaussian, Inc.  All Rights Reserved.
  
 This is part of the Gaussian(R) 16 program.  It is based on
 the Gaussian(R) 09 system (copyright 2009, Gaussian, Inc.),
 the Gaussian(R) 03 system (copyright 2003, Gaussian, Inc.),
 the Gaussian(R) 98 system (copyright 1998, Gaussian, Inc.),
 the Gaussian(R) 94 system (copyright 1995, Gaussian, Inc.),
 the Gaussian 92(TM) system (copyright 1992, Gaussian, Inc.),
 the Gaussian 90(TM) system (copyright 1990, Gaussian, Inc.),
 the Gaussian 88(TM) system (copyright 1988, Gaussian, Inc.),
 the Gaussian 86(TM) system (copyright 1986, Carnegie Mellon
 University), and the Gaussian 82(TM) system (copyright 1983,
 Carnegie Mellon University). Gaussian is a federally registered
 trademark of Gaussian, Inc.
  
 This software contains proprietary and confidential information,
 including trade secrets, belonging to Gaussian, Inc.
  
 This software is provided under written license and may be
 used, copied, transmitted, or stored only in accord with that
 written license.
  
 The following legend is applicable only to US Government
 contracts under FAR:
  
                    RESTRICTED RIGHTS LEGEND
  
 Use, reproduction and disclosure by the US Government is
 subject to restrictions as set forth in subparagraphs (a)
 and (c) of the Commercial Computer Software - Restricted
 Rights clause in FAR 52.227-19.
  
 Gaussian, Inc.
 340 Quinnipiac St., Bldg. 40, Wallingford CT 06492
  
  
 ---------------------------------------------------------------
 Warning -- This program may not be used in any manner that
 competes with the business of Gaussian, Inc. or will provide
 assistance to any competitor of Gaussian, Inc.  The licensee
 of this program is prohibited from giving any competitor of
 Gaussian, Inc. access to this program.  By using this program,
 the user acknowledges that Gaussian, Inc. is engaged in the
 business of creating and licensing software in the field of
 computational chemistry and represents and warrants to the
 licensee that it is not a competitor of Gaussian, Inc. and that
 it will not use this program in any manner prohibited above.
 ---------------------------------------------------------------
  

 Cite this work as:
 Gaussian 16, Revision B.01,
 M. J. Frisch, G. W. Trucks, H. B. Schlegel, G. E. Scuseria, 
 M. A. Robb, J. R. Cheeseman, G. Scalmani, V. Barone, 
 G. A. Petersson, H. Nakatsuji, X. Li, M. Caricato, A. V. Marenich, 
 J. Bloino, B. G. Janesko, R. Gomperts, B. Mennucci, H. P. Hratchian, 
 J. V. Ortiz, A. F. Izmaylov, J. L. Sonnenberg, D. Williams-Young, 
 F. Ding, F. Lipparini, F. Egidi, J. Goings, B. Peng, A. Petrone, 
 T. Henderson, D. Ranasinghe, V. G. Zakrzewski, J. Gao, N. Rega, 
 G. Zheng, W. Liang, M. Hada, M. Ehara, K. Toyota, R. Fukuda, 
 J. Hasegawa, M. Ishida, T. Nakajima, Y. Honda, O. Kitao, H. Nakai, 
 T. Vreven, K. Throssell, J. A. Montgomery, Jr., J. E. Peralta, 
 F. Ogliaro, M. J. Bearpark, J. J. Heyd, E. N. Brothers, K. N. Kudin, 
 V. N. Staroverov, T. A. Keith, R. Kobayashi, J. Normand, 
 K. Raghavachari, A. P. Rendell, J. C. Burant, S. S. Iyengar, 
 J. Tomasi, M. Cossi, J. M. Millam, M. Klene, C. Adamo, R. Cammi, 
 J. W. Ochterski, R. L. Martin, K. Morokuma, O. Farkas, 
 J. B. Foresman, and D. J. Fox, Gaussian, Inc., Wallingford CT, 2016.
 
 ******************************************
 Gaussian 16:  EM64L-G16RevB.01 20-Dec-2017
                17-Jun-2025 
 ******************************************
 %chk=NH3_only_adduct_sp.chk
 -------------------------------------
 # hf/3-21g pop=full geom=connectivity
 -------------------------------------
 1/38=1,57=2,172=1/1;
 2/12=2,17=6,18=5,40=1/2;
 3/5=5,11=9,25=1,30=1/1,2,3;
 4//1;
 5/5=2,38=5/2;
 6/7=3,28=1/1;
 99/5=1,9=1/99;
 -------------------
 Title Card Required
 -------------------
 Symbolic Z-matrix:
 Charge =  0 Multiplicity = 1
 N                     0.75701   0.00006  -0.00001 
 H                     1.08727   0.33486  -0.8934 
 H                     1.08537  -0.94179   0.15659 
 H                     1.08652   0.60597   0.73727 
 
                          Input orientation:                          
 ---------------------------------------------------------------------
 Center     Atomic      Atomic             Coordinates (Angstroms)
 Number     Number       Type             X           Y           Z
 ---------------------------------------------------------------------
      1          7           0        0.757012    0.000059   -0.000005
      2          1           0        1.087273    0.334861   -0.893402
      3          1           0        1.085366   -0.941785    0.156594
      4          1           0        1.086517    0.605972    0.737269
 ---------------------------------------------------------------------
                    Distance matrix (angstroms):
                    1          2          3          4
     1  N    0.000000
     2  H    1.009615   0.000000
     3  H    1.009658   1.652973   0.000000
     4  H    1.009593   1.653055   1.653099   0.000000
 Stoichiometry    H3N
 Framework group  C1[X(H3N)]
 Deg. of freedom     6
 Full point group                 C1      NOp   1
 Largest Abelian subgroup         C1      NOp   1
 Largest concise Abelian subgroup C1      NOp   1
                         Standard orientation:                         
 ---------------------------------------------------------------------
 Center     Atomic      Atomic             Coordinates (Angstroms)
 Number     Number       Type             X           Y           Z
 ---------------------------------------------------------------------
      1          7           0       -0.000026   -0.000000   -0.098812
      2          1           0        0.323730    0.897790    0.230547
      3          1           0        0.615803   -0.729174    0.230535
      4          1           0       -0.939352   -0.168612    0.230603
 ---------------------------------------------------------------------
 Rotational constants (GHZ):         306.9218914         306.8761002         183.5118556
 Standard basis: 3-21G (6D, 7F)
 There are    15 symmetry adapted cartesian basis functions of A   symmetry.
 There are    15 symmetry adapted basis functions of A   symmetry.
    15 basis functions,    24 primitive gaussians,    15 cartesian basis functions
     5 alpha electrons        5 beta electrons
       nuclear repulsion energy        11.9671836415 Hartrees.
 NAtoms=    4 NActive=    4 NUniq=    4 SFac= 1.00D+00 NAtFMM=   60 NAOKFM=F Big=F
 Integral buffers will be    131072 words long.
 Raffenetti 1 integral format.
 Two-electron integral symmetry is turned on.
 One-electron integrals computed using PRISM.
 NBasis=    15 RedAO= T EigKep=  7.06D-02  NBF=    15
 NBsUse=    15 1.00D-06 EigRej= -1.00D+00 NBFU=    15
 ExpMin= 1.83D-01 ExpMax= 2.43D+02 ExpMxC= 2.43D+02 IAcc=3 IRadAn=         5 AccDes= 0.00D+00
 Harris functional with IExCor=  205 and IRadAn=       5 diagonalized for initial guess.
 HarFok:  IExCor=  205 AccDes= 0.00D+00 IRadAn=         5 IDoV= 1 UseB2=F ITyADJ=14
 ICtDFT=  3500011 ScaDFX=  1.000000  1.000000  1.000000  1.000000
 FoFCou: FMM=F IPFlag=           0 FMFlag=      100000 FMFlg1=           0
         NFxFlg=           0 DoJE=T BraDBF=F KetDBF=T FulRan=T
         wScrn=  0.000000 ICntrl=       500 IOpCl=  0 I1Cent=   200000004 NGrid=           0
         NMat0=    1 NMatS0=      1 NMatT0=    0 NMatD0=    1 NMtDS0=    0 NMtDT0=    0
 Petite list used in FoFCou.
 Keep R1 ints in memory in canonical form, NReq=810802.
 Requested convergence on RMS density matrix=1.00D-08 within 128 cycles.
 Requested convergence on MAX density matrix=1.00D-06.
 Requested convergence on             energy=1.00D-06.
 No special actions if energy rises.
 SCF Done:  E(RHF) =  -55.8718589521     A.U. after   10 cycles
            NFock= 10  Conv=0.35D-09     -V/T= 2.0023

 **********************************************************************

            Population analysis using the SCF Density.

 **********************************************************************

 Orbital symmetries:
       Occupied  (A) (A) (A) (A) (A)
       Virtual   (A) (A) (A) (A) (A) (A) (A) (A) (A) (A)
 The electronic state is 1-A.
 Alpha  occ. eigenvalues --  -15.43835  -1.12451  -0.61574  -0.61569  -0.39559
 Alpha virt. eigenvalues --    0.27134   0.37319   0.37321   1.17115   1.17125
 Alpha virt. eigenvalues --    1.31305   1.41491   1.59159   1.59162   2.58501
     Molecular Orbital Coefficients:
                           1         2         3         4         5
                           O         O         O         O         O
     Eigenvalues --   -15.43835  -1.12451  -0.61574  -0.61569  -0.39559
   1 1   N  1S          0.98551  -0.21664   0.00001   0.00000   0.06697
   2        2S          0.09793   0.19800  -0.00001  -0.00000  -0.06555
   3        2PX         0.00000   0.00000   0.36778  -0.09853   0.00002
   4        2PY         0.00000   0.00001   0.09854   0.36778  -0.00000
   5        2PZ         0.00325   0.07335  -0.00002   0.00001   0.46250
   6        3S         -0.04953   0.65509  -0.00001  -0.00002  -0.29623
   7        3PX        -0.00000   0.00001   0.32944  -0.08827   0.00003
   8        3PY        -0.00000   0.00001   0.08826   0.32946  -0.00000
   9        3PZ        -0.00633   0.07876  -0.00002   0.00001   0.60515
  10 2   H  1S          0.00144   0.12065   0.15255   0.21930   0.04542
  11        2S          0.00873   0.02372   0.12849   0.18474   0.04407
  12 3   H  1S          0.00144   0.12064   0.11366  -0.24175   0.04543
  13        2S          0.00873   0.02372   0.09573  -0.20367   0.04408
  14 4   H  1S          0.00144   0.12066  -0.26620   0.02245   0.04543
  15        2S          0.00873   0.02372  -0.22421   0.01891   0.04408
                           6         7         8         9        10
                           V         V         V         V         V
     Eigenvalues --     0.27134   0.37319   0.37321   1.17115   1.17125
   1 1   N  1S         -0.14818  -0.00001   0.00001  -0.00001   0.00002
   2        2S          0.03496   0.00000  -0.00000   0.00002   0.00001
   3        2PX         0.00004  -0.12288   0.27159  -0.00912  -0.06651
   4        2PY        -0.00002   0.27160   0.12288   0.06655  -0.00914
   5        2PZ         0.12705   0.00001  -0.00002   0.00003   0.00003
   6        3S          1.56524   0.00016  -0.00009  -0.00006  -0.00013
   7        3PX         0.00010  -0.41650   0.92061   0.10003   0.72959
   8        3PY        -0.00004   0.92054   0.41651  -0.72935   0.10018
   9        3PZ         0.36761   0.00005  -0.00006  -0.00002  -0.00016
  10 2   H  1S         -0.03333  -0.03022  -0.02932   0.96138  -0.50329
  11        2S         -0.79577  -1.06111  -1.03068  -0.50746   0.26554
  12 3   H  1S         -0.03334   0.04053  -0.01147  -0.91679  -0.58078
  13        2S         -0.79585   1.42301  -0.40355   0.48401   0.30651
  14 4   H  1S         -0.03334  -0.01030   0.04081  -0.04480   1.08459
  15        2S         -0.79578  -0.36210   1.43432   0.02363  -0.57224
                          11        12        13        14        15
                           V         V         V         V         V
     Eigenvalues --     1.31305   1.41491   1.59159   1.59162   2.58501
   1 1   N  1S          0.10072   0.02979   0.00001  -0.00001   0.03036
   2        2S         -0.13022  -0.04509  -0.00001   0.00003  -1.79102
   3        2PX        -0.00011   0.00004   0.37116  -1.05189  -0.00003
   4        2PY         0.00004  -0.00001  -1.05187  -0.37116  -0.00000
   5        2PZ        -0.14311   1.05646  -0.00003   0.00005  -0.09324
   6        3S         -0.20889  -0.24293   0.00001   0.00001   2.58128
   7        3PX        -0.00005  -0.00009  -0.46810   1.32662   0.00010
   8        3PY        -0.00019   0.00000   1.32651   0.46807   0.00004
   9        3PZ        -0.21868  -1.05161   0.00001  -0.00002   0.39762
  10 2   H  1S          0.79497   0.07956   0.13930   0.11371  -0.22705
  11        2S         -0.34420   0.10679  -0.70469  -0.57594  -0.44800
  12 3   H  1S          0.79481   0.07960  -0.16807   0.06355  -0.22706
  13        2S         -0.34426   0.10675   0.85104  -0.32227  -0.44793
  14 4   H  1S          0.79449   0.07947   0.02896  -0.17753  -0.22698
  15        2S         -0.34394   0.10686  -0.14644   0.89829  -0.44803
     Density Matrix:
                           1         2         3         4         5
   1 1   N  1S          2.04528
   2        2S          0.09846   0.10618
   3        2PX         0.00001  -0.00001   0.28994
   4        2PY        -0.00000   0.00000   0.00000   0.28994
   5        2PZ         0.03657  -0.03095   0.00000   0.00000   0.43859
   6        3S         -0.42114   0.28854  -0.00001  -0.00000  -0.17824
   7        3PX        -0.00000  -0.00000   0.25972  -0.00000   0.00001
   8        3PY        -0.00000   0.00000  -0.00000   0.25973  -0.00000
   9        3PZ         0.03446  -0.04938   0.00001  -0.00000   0.57127
  10 2   H  1S         -0.04336   0.04210   0.06900   0.19137   0.05972
  11        2S          0.01284   0.00532   0.05811   0.16121   0.04430
  12 3   H  1S         -0.04336   0.04210   0.13124  -0.15542   0.05971
  13        2S          0.01283   0.00532   0.11056  -0.13094   0.04430
  14 4   H  1S         -0.04337   0.04211  -0.20023  -0.03594   0.05974
  15        2S          0.01283   0.00533  -0.16864  -0.03028   0.04432
                           6         7         8         9        10
   6        3S          1.03870
   7        3PX        -0.00001   0.23265
   8        3PY        -0.00000  -0.00001   0.23267
   9        3PZ        -0.25471   0.00003  -0.00000   0.74491
  10 2   H  1S          0.13101   0.06180   0.17143   0.07396   0.17598
  11        2S          0.00409   0.05205   0.14441   0.05697   0.12998
  12 3   H  1S          0.13101   0.11757  -0.13923   0.07396  -0.03812
  13        2S          0.00410   0.09904  -0.11730   0.05697  -0.05037
  14 4   H  1S          0.13103  -0.17935  -0.03219   0.07398  -0.03812
  15        2S          0.00410  -0.15106  -0.02712   0.05698  -0.05036
                          11        12        13        14        15
  11        2S          0.10644
  12 3   H  1S         -0.05036   0.17596
  13        2S         -0.04549   0.12999   0.10646
  14 4   H  1S         -0.05036  -0.03812  -0.05036   0.17598
  15        2S         -0.04547  -0.05036  -0.04547   0.12997   0.10642
    Full Mulliken population analysis:
                           1         2         3         4         5
   1 1   N  1S          2.04528
   2        2S          0.01919   0.10618
   3        2PX         0.00000   0.00000   0.28994
   4        2PY         0.00000   0.00000  -0.00000   0.28994
   5        2PZ         0.00000   0.00000  -0.00000   0.00000   0.43859
   6        3S         -0.07758   0.21704   0.00000   0.00000   0.00000
   7        3PX         0.00000   0.00000   0.13401   0.00000  -0.00000
   8        3PY         0.00000   0.00000   0.00000   0.13402  -0.00000
   9        3PZ         0.00000   0.00000  -0.00000  -0.00000   0.29478
  10 2   H  1S         -0.00095   0.00748   0.00545   0.04195   0.00480
  11        2S          0.00090   0.00185   0.00304   0.02337   0.00236
  12 3   H  1S         -0.00095   0.00748   0.01973   0.02766   0.00480
  13        2S          0.00090   0.00185   0.01099   0.01542   0.00236
  14 4   H  1S         -0.00095   0.00748   0.04592   0.00148   0.00481
  15        2S          0.00090   0.00185   0.02558   0.00082   0.00236
                           6         7         8         9        10
   6        3S          1.03870
   7        3PX         0.00000   0.23265
   8        3PY         0.00000   0.00000   0.23267
   9        3PZ         0.00000  -0.00000  -0.00000   0.74491
  10 2   H  1S          0.04704   0.01089   0.08379   0.01326   0.17598
  11        2S          0.00263   0.00857   0.06595   0.00954   0.08396
  12 3   H  1S          0.04703   0.03942   0.05527   0.01326  -0.00056
  13        2S          0.00264   0.03102   0.04351   0.00954  -0.00745
  14 4   H  1S          0.04704   0.09172   0.00296   0.01327  -0.00056
  15        2S          0.00264   0.07218   0.00233   0.00955  -0.00744
                          11        12        13        14        15
  11        2S          0.10644
  12 3   H  1S         -0.00745   0.17596
  13        2S         -0.01861   0.08396   0.10646
  14 4   H  1S         -0.00744  -0.00056  -0.00744   0.17598
  15        2S         -0.01860  -0.00744  -0.01860   0.08395   0.10642
     Gross orbital populations:
                           1
   1 1   N  1S          1.98675
   2        2S          0.37040
   3        2PX         0.53467
   4        2PY         0.53466
   5        2PZ         0.75484
   6        3S          1.32717
   7        3PX         0.62047
   8        3PY         0.62049
   9        3PZ         1.10811
  10 2   H  1S          0.45763
  11        2S          0.25652
  12 3   H  1S          0.45761
  13        2S          0.25655
  14 4   H  1S          0.45764
  15        2S          0.25649
          Condensed to atoms (all electrons):
               1          2          3          4
     1  N    6.861756   0.331936   0.331934   0.331941
     2  H    0.331936   0.450330  -0.034065  -0.034052
     3  H    0.331934  -0.034065   0.450338  -0.034049
     4  H    0.331941  -0.034052  -0.034049   0.450286
 Mulliken charges:
               1
     1  N   -0.857567
     2  H    0.285851
     3  H    0.285842
     4  H    0.285874
 Sum of Mulliken charges =  -0.00000
 Mulliken charges with hydrogens summed into heavy atoms:
               1
     1  N   -0.000000
 Electronic spatial extent (au):  <R**2>=             25.7050
 Charge=             -0.0000 electrons
 Dipole moment (field-independent basis, Debye):
    X=              0.0002    Y=              0.0000    Z=              1.9631  Tot=              1.9631
 Quadrupole moment (field-independent basis, Debye-Ang):
   XX=             -5.8555   YY=             -5.8561   ZZ=             -8.6433
   XY=              0.0001   XZ=             -0.0001   YZ=              0.0000
 Traceless Quadrupole moment (field-independent basis, Debye-Ang):
   XX=              0.9295   YY=              0.9288   ZZ=             -1.8583
   XY=              0.0001   XZ=             -0.0001   YZ=              0.0000
 Octapole moment (field-independent basis, Debye-Ang**2):
  XXX=             -0.7376  YYY=              0.4351  ZZZ=              1.4566  XYY=              0.7378
  XXY=             -0.4351  XXZ=              0.8011  XZZ=              0.0000  YZZ=              0.0000
  YYZ=              0.8009  XYZ=              0.0000
 Hexadecapole moment (field-independent basis, Debye-Ang**3):
 XXXX=             -8.6316 YYYY=             -8.6319 ZZZZ=             -7.9895 XXXY=              0.0000
 XXXZ=             -0.2359 YYYX=              0.0001 YYYZ=              0.1391 ZZZX=             -0.0001
 ZZZY=              0.0000 XXYY=             -2.8771 XXZZ=             -2.8762 YYZZ=             -2.8762
 XXYZ=             -0.1391 YYXZ=              0.2358 ZZXY=              0.0000
 N-N= 1.196718364151D+01 E-N=-1.550393075929D+02  KE= 5.574097658501D+01
 Orbital energies and kinetic energies (alpha):
                                 1                 2
   1         O               -15.438354         21.916008
   2         O                -1.124508          1.803039
   3         O                -0.615740          1.257996
   4         O                -0.615688          1.257967
   5         O                -0.395587          1.635478
   6         V                 0.271343          1.138034
   7         V                 0.373191          1.041476
   8         V                 0.373208          1.041429
   9         V                 1.171152          2.093256
  10         V                 1.171251          2.093380
  11         V                 1.313051          2.834711
  12         V                 1.414911          3.785003
  13         V                 1.591591          4.191037
  14         V                 1.591621          4.191120
  15         V                 2.585009          4.662169
 Total kinetic energy from orbitals= 5.574097658501D+01
 1\1\GINC-IISERK51\SP\RHF\3-21G\H3N1\GAUSSIAN\17-Jun-2025\0\\# hf/3-21g
  pop=full geom=connectivity\\Title Card Required\\0,1\N,0,0.757012,0.0
 00059,-0.000005\H,0,1.087273,0.334861,-0.893402\H,0,1.085366,-0.941785
 ,0.156594\H,0,1.086517,0.605972,0.737269\\Version=EM64L-G16RevB.01\Sta
 te=1-A\HF=-55.871859\RMSD=3.540e-10\Dipole=0.7723575,-0.000794,0.00044
 04\Quadrupole=-1.3816072,0.6907973,0.6908099,0.0020189,-0.0013147,0.00
 02398\PG=C01 [X(H3N1)]\\@


 Change starts when someone sees the next step.
                            -- William Drayton
 Job cpu time:       0 days  0 hours  0 minutes  0.4 seconds.
 Elapsed time:       0 days  0 hours  0 minutes  0.4 seconds.
 File lengths (MBytes):  RWF=      6 Int=      0 D2E=      0 Chk=      1 Scr=      1
 Normal termination of Gaussian 16 at Tue Jun 17 15:09:01 2025.
