 Entering Gaussian System, Link 0=g16
 Input=/home/gaussian/Documents/Summer_Internship/Acid_Base_adduct/Adduct/NH3-BH3/NH3_BH3_adduct_sp.com
 Output=/home/gaussian/Documents/Summer_Internship/Acid_Base_adduct/Adduct/NH3-BH3/NH3_BH3_adduct_sp.log
 Initial command:
 /usr/local/g16/l1.exe "/home/gaussian/tmp/Gau-92064.inp" -scrdir="/home/gaussian/tmp/"
 Entering Link 1 = /usr/local/g16/l1.exe PID=     92067.
  
 Copyright (c) 1988-2017, Gaussian, Inc.  All Rights Reserved.
  
 This is part of the Gaussian(R) 16 program.  It is based on
 the Gaussian(R) 09 system (copyright 2009, Gaussian, Inc.),
 the Gaussian(R) 03 system (copyright 2003, Gaussian, Inc.),
 the Gaussian(R) 98 system (copyright 1998, Gaussian, Inc.),
 the Gaussian(R) 94 system (copyright 1995, Gaussian, Inc.),
 the Gaussian 92(TM) system (copyright 1992, Gaussian, Inc.),
 the Gaussian 90(TM) system (copyright 1990, Gaussian, Inc.),
 the Gaussian 88(TM) system (copyright 1988, Gaussian, Inc.),
 the Gaussian 86(TM) system (copyright 1986, Carnegie Mellon
 University), and the Gaussian 82(TM) system (copyright 1983,
 Carnegie Mellon University). Gaussian is a federally registered
 trademark of Gaussian, Inc.
  
 This software contains proprietary and confidential information,
 including trade secrets, belonging to Gaussian, Inc.
  
 This software is provided under written license and may be
 used, copied, transmitted, or stored only in accord with that
 written license.
  
 The following legend is applicable only to US Government
 contracts under FAR:
  
                    RESTRICTED RIGHTS LEGEND
  
 Use, reproduction and disclosure by the US Government is
 subject to restrictions as set forth in subparagraphs (a)
 and (c) of the Commercial Computer Software - Restricted
 Rights clause in FAR 52.227-19.
  
 Gaussian, Inc.
 340 Quinnipiac St., Bldg. 40, Wallingford CT 06492
  
  
 ---------------------------------------------------------------
 Warning -- This program may not be used in any manner that
 competes with the business of Gaussian, Inc. or will provide
 assistance to any competitor of Gaussian, Inc.  The licensee
 of this program is prohibited from giving any competitor of
 Gaussian, Inc. access to this program.  By using this program,
 the user acknowledges that Gaussian, Inc. is engaged in the
 business of creating and licensing software in the field of
 computational chemistry and represents and warrants to the
 licensee that it is not a competitor of Gaussian, Inc. and that
 it will not use this program in any manner prohibited above.
 ---------------------------------------------------------------
  

 Cite this work as:
 Gaussian 16, Revision B.01,
 M. J. Frisch, G. W. Trucks, H. B. Schlegel, G. E. Scuseria, 
 M. A. Robb, J. R. Cheeseman, G. Scalmani, V. Barone, 
 G. A. Petersson, H. Nakatsuji, X. Li, M. Caricato, A. V. Marenich, 
 J. Bloino, B. G. Janesko, R. Gomperts, B. Mennucci, H. P. Hratchian, 
 J. V. Ortiz, A. F. Izmaylov, J. L. Sonnenberg, D. Williams-Young, 
 F. Ding, F. Lipparini, F. Egidi, J. Goings, B. Peng, A. Petrone, 
 T. Henderson, D. Ranasinghe, V. G. Zakrzewski, J. Gao, N. Rega, 
 G. Zheng, W. Liang, M. Hada, M. Ehara, K. Toyota, R. Fukuda, 
 J. Hasegawa, M. Ishida, T. Nakajima, Y. Honda, O. Kitao, H. Nakai, 
 T. Vreven, K. Throssell, J. A. Montgomery, Jr., J. E. Peralta, 
 F. Ogliaro, M. J. Bearpark, J. J. Heyd, E. N. Brothers, K. N. Kudin, 
 V. N. Staroverov, T. A. Keith, R. Kobayashi, J. Normand, 
 K. Raghavachari, A. P. Rendell, J. C. Burant, S. S. Iyengar, 
 J. Tomasi, M. Cossi, J. M. Millam, M. Klene, C. Adamo, R. Cammi, 
 J. W. Ochterski, R. L. Martin, K. Morokuma, O. Farkas, 
 J. B. Foresman, and D. J. Fox, Gaussian, Inc., Wallingford CT, 2016.
 
 ******************************************
 Gaussian 16:  EM64L-G16RevB.01 20-Dec-2017
                17-Jun-2025 
 ******************************************
 %chk=NH3_BH3_adduct_sp.chk
 -------------------------------------
 # hf/3-21g pop=full geom=connectivity
 -------------------------------------
 1/38=1,57=2,172=1/1;
 2/12=2,17=6,18=5,40=1/2;
 3/5=5,11=9,25=1,30=1/1,2,3;
 4//1;
 5/5=2,38=5/2;
 6/7=3,28=1/1;
 99/5=1,9=1/99;
 -------------------
 Title Card Required
 -------------------
 Symbolic Z-matrix:
 Charge =  0 Multiplicity = 1
 N                     0.75701  -0.00006   0.00001 
 H                     1.08727  -0.33486   0.8934 
 H                     1.08537   0.94179  -0.15659 
 H                     1.08652  -0.60597  -0.73727 
 B                    -0.95634  -0.00019   0.00009 
 H                    -1.25877   0.7434    0.90358 
 H                    -1.25881   0.41135  -1.09532 
 H                    -1.25898  -1.15436   0.19169 
 
                          Input orientation:                          
 ---------------------------------------------------------------------
 Center     Atomic      Atomic             Coordinates (Angstroms)
 Number     Number       Type             X           Y           Z
 ---------------------------------------------------------------------
      1          7           0        0.757012   -0.000059    0.000005
      2          1           0        1.087273   -0.334861    0.893402
      3          1           0        1.085366    0.941785   -0.156594
      4          1           0        1.086517   -0.605972   -0.737269
      5          5           0       -0.956335   -0.000185    0.000094
      6          1           0       -1.258772    0.743395    0.903581
      7          1           0       -1.258813    0.411352   -1.095316
      8          1           0       -1.258978   -1.154359    0.191689
 ---------------------------------------------------------------------
                    Distance matrix (angstroms):
                    1          2          3          4          5
     1  N    0.000000
     2  H    1.009615   0.000000
     3  H    1.009658   1.652973   0.000000
     4  H    1.009593   1.653055   1.653099   0.000000
     5  B    1.713347   2.255292   2.253975   2.254756   0.000000
     6  H    2.330785   2.581989   2.580371   3.164421   1.208581
     7  H    2.330780   3.164799   2.580258   2.581418   1.208627
     8  H    2.330958   2.582416   3.164027   2.581674   1.208478
                    6          7          8
     6  H    0.000000
     7  H    2.026288   0.000000
     8  H    2.026884   2.026779   0.000000
 Stoichiometry    BH6N
 Framework group  C1[X(BH6N)]
 Deg. of freedom    18
 Full point group                 C1      NOp   1
 Largest Abelian subgroup         C1      NOp   1
 Largest concise Abelian subgroup C1      NOp   1
                         Standard orientation:                         
 ---------------------------------------------------------------------
 Center     Atomic      Atomic             Coordinates (Angstroms)
 Number     Number       Type             X           Y           Z
 ---------------------------------------------------------------------
      1          7           0        0.757012    0.000059   -0.000005
      2          1           0        1.087273    0.334861   -0.893402
      3          1           0        1.085366   -0.941785    0.156594
      4          1           0        1.086517    0.605972    0.737269
      5          5           0       -0.956335    0.000185   -0.000094
      6          1           0       -1.258772   -0.743395   -0.903581
      7          1           0       -1.258813   -0.411352    1.095316
      8          1           0       -1.258978    1.154359   -0.191689
 ---------------------------------------------------------------------
 Rotational constants (GHZ):          73.3136561          16.9064186          16.9055582
 Standard basis: 3-21G (6D, 7F)
 There are    30 symmetry adapted cartesian basis functions of A   symmetry.
 There are    30 symmetry adapted basis functions of A   symmetry.
    30 basis functions,    48 primitive gaussians,    30 cartesian basis functions
     9 alpha electrons        9 beta electrons
       nuclear repulsion energy        40.1482224321 Hartrees.
 NAtoms=    8 NActive=    8 NUniq=    8 SFac= 1.00D+00 NAtFMM=   60 NAOKFM=F Big=F
 Integral buffers will be    131072 words long.
 Raffenetti 1 integral format.
 Two-electron integral symmetry is turned on.
 One-electron integrals computed using PRISM.
 NBasis=    30 RedAO= T EigKep=  1.73D-02  NBF=    30
 NBsUse=    30 1.00D-06 EigRej= -1.00D+00 NBFU=    30
 ExpMin= 1.24D-01 ExpMax= 2.43D+02 ExpMxC= 2.43D+02 IAcc=3 IRadAn=         5 AccDes= 0.00D+00
 Harris functional with IExCor=  205 and IRadAn=       5 diagonalized for initial guess.
 HarFok:  IExCor=  205 AccDes= 0.00D+00 IRadAn=         5 IDoV= 1 UseB2=F ITyADJ=14
 ICtDFT=  3500011 ScaDFX=  1.000000  1.000000  1.000000  1.000000
 FoFCou: FMM=F IPFlag=           0 FMFlag=      100000 FMFlg1=           0
         NFxFlg=           0 DoJE=T BraDBF=F KetDBF=T FulRan=T
         wScrn=  0.000000 ICntrl=       500 IOpCl=  0 I1Cent=   200000004 NGrid=           0
         NMat0=    1 NMatS0=      1 NMatT0=    0 NMatD0=    1 NMtDS0=    0 NMtDT0=    0
 Petite list used in FoFCou.
 Keep R1 ints in memory in canonical form, NReq=918520.
 Requested convergence on RMS density matrix=1.00D-08 within 128 cycles.
 Requested convergence on MAX density matrix=1.00D-06.
 Requested convergence on             energy=1.00D-06.
 No special actions if energy rises.
 SCF Done:  E(RHF) =  -82.1663132864     A.U. after   10 cycles
            NFock= 10  Conv=0.56D-08     -V/T= 2.0038

 **********************************************************************

            Population analysis using the SCF Density.

 **********************************************************************

 Orbital symmetries:
       Occupied  (A) (A) (A) (A) (A) (A) (A) (A) (A)
       Virtual   (A) (A) (A) (A) (A) (A) (A) (A) (A) (A) (A) (A)
                 (A) (A) (A) (A) (A) (A) (A) (A) (A)
 The electronic state is 1-A.
 Alpha  occ. eigenvalues --  -15.56670  -7.48357  -1.24500  -0.72731  -0.72726
 Alpha  occ. eigenvalues --   -0.69703  -0.50149  -0.40830  -0.40817
 Alpha virt. eigenvalues --    0.20676   0.29783   0.29784   0.33302   0.37688
 Alpha virt. eigenvalues --    0.37708   0.48176   0.68325   0.68329   0.74831
 Alpha virt. eigenvalues --    1.04604   1.16043   1.16050   1.24113   1.43331
 Alpha virt. eigenvalues --    1.43344   1.47691   1.55083   1.55090   1.61429
 Alpha virt. eigenvalues --    2.71909
     Molecular Orbital Coefficients:
                           1         2         3         4         5
                           O         O         O         O         O
     Eigenvalues --   -15.56670  -7.48357  -1.24500  -0.72731  -0.72726
   1 1   N  1S          0.98575   0.00015  -0.22147  -0.00001  -0.00000
   2        2S          0.10024   0.00209   0.20075   0.00001   0.00002
   3        2PX         0.00057  -0.00014   0.04576   0.00013   0.00132
   4        2PY        -0.00000  -0.00000  -0.00006   0.24173   0.31663
   5        2PZ         0.00000   0.00000   0.00004   0.31664  -0.24173
   6        3S         -0.05475  -0.00058   0.69019   0.00001  -0.00002
   7        3PX         0.00101  -0.00275   0.03670   0.00013   0.00136
   8        3PY         0.00001   0.00001  -0.00008   0.22916   0.30018
   9        3PZ        -0.00000  -0.00001   0.00004   0.30018  -0.22917
  10 2   H  1S          0.00203   0.00015   0.11244  -0.13422   0.21432
  11        2S          0.00667   0.00457   0.01165  -0.08807   0.14068
  12 3   H  1S          0.00203   0.00016   0.11243  -0.11833  -0.22314
  13        2S          0.00667   0.00459   0.01163  -0.07765  -0.14642
  14 4   H  1S          0.00203   0.00016   0.11245   0.25259   0.00933
  15        2S          0.00667   0.00457   0.01164   0.16574   0.00615
  16 5   B  1S         -0.00056   0.98825  -0.02522   0.00005   0.00056
  17        2S         -0.00096   0.09219   0.02930  -0.00006  -0.00057
  18        2PX         0.00296   0.00229   0.02604  -0.00001  -0.00011
  19        2PY        -0.00000  -0.00000  -0.00001   0.02442   0.03199
  20        2PZ         0.00000   0.00000   0.00000   0.03196  -0.02440
  21        3S          0.01617  -0.06910  -0.00381  -0.00009  -0.00101
  22        3PX         0.00351  -0.00103  -0.00362  -0.00001  -0.00008
  23        3PY        -0.00000   0.00002  -0.00000   0.00403   0.00528
  24        3PZ        -0.00000  -0.00001   0.00001   0.00527  -0.00402
  25 6   H  1S         -0.00026  -0.00445   0.00703  -0.02143  -0.00113
  26        2S         -0.00416   0.01740   0.00987  -0.02603  -0.00118
  27 7   H  1S         -0.00026  -0.00445   0.00704   0.01132  -0.01849
  28        2S         -0.00415   0.01740   0.00986   0.01378  -0.02230
  29 8   H  1S         -0.00026  -0.00445   0.00703   0.01000   0.01858
  30        2S         -0.00415   0.01738   0.00986   0.01216   0.02275
                           6         7         8         9        10
                           O         O         O         O         V
     Eigenvalues --    -0.69703  -0.50149  -0.40830  -0.40817   0.20676
   1 1   N  1S         -0.00426   0.05115   0.00000  -0.00000  -0.14799
   2        2S          0.00318  -0.03958  -0.00001   0.00001   0.04951
   3        2PX        -0.28164   0.33712   0.00008  -0.00005   0.08177
   4        2PY         0.00137  -0.00027  -0.05986  -0.00417  -0.00009
   5        2PZ        -0.00086   0.00018   0.00417  -0.05981   0.00003
   6        3S          0.01720  -0.26477   0.00001   0.00001   1.53232
   7        3PX        -0.29977   0.43871   0.00012  -0.00008   0.23110
   8        3PY         0.00132  -0.00032  -0.05255  -0.00366  -0.00022
   9        3PZ        -0.00082   0.00021   0.00366  -0.05243   0.00006
  10 2   H  1S         -0.04988   0.04010  -0.02292   0.05019  -0.03731
  11        2S         -0.04434   0.04509  -0.02753   0.06029  -0.70041
  12 3   H  1S         -0.05134   0.04005   0.05493  -0.00525  -0.03732
  13        2S         -0.04543   0.04512   0.06601  -0.00631  -0.70015
  14 4   H  1S         -0.05044   0.04009  -0.03198  -0.04496  -0.03731
  15        2S         -0.04476   0.04511  -0.03841  -0.05402  -0.70024
  16 5   B  1S         -0.16719  -0.08286  -0.00004   0.00001  -0.00782
  17        2S          0.17319   0.09971   0.00006  -0.00003   0.01303
  18        2PX         0.01969  -0.18631  -0.00011   0.00004  -0.09265
  19        2PY         0.00011  -0.00012   0.33844   0.02361  -0.00004
  20        2PZ        -0.00008   0.00007  -0.02361   0.33839   0.00001
  21        3S          0.33617   0.22723  -0.00000   0.00001   0.31522
  22        3PX         0.02550  -0.06885  -0.00009   0.00004  -0.36107
  23        3PY        -0.00004  -0.00010   0.20553   0.01435  -0.00033
  24        3PZ         0.00002   0.00006  -0.01433   0.20551   0.00007
  25 6   H  1S          0.10801   0.11571  -0.14270  -0.20056   0.01204
  26        2S          0.07487   0.12673  -0.20247  -0.28473  -0.16938
  27 7   H  1S          0.10795   0.11577  -0.10229   0.22386   0.01206
  28        2S          0.07478   0.12679  -0.14514   0.31781  -0.16930
  29 8   H  1S          0.10810   0.11566   0.24507  -0.02334   0.01201
  30        2S          0.07502   0.12667   0.34774  -0.03315  -0.16920
                          11        12        13        14        15
                           V         V         V         V         V
     Eigenvalues --     0.29783   0.29784   0.33302   0.37688   0.37708
   1 1   N  1S          0.00002   0.00001  -0.00154  -0.00001   0.00000
   2        2S         -0.00002  -0.00001  -0.01005   0.00000  -0.00001
   3        2PX        -0.00019  -0.00003   0.23079  -0.00002   0.00011
   4        2PY        -0.22454  -0.18981  -0.00015   0.00075   0.01487
   5        2PZ         0.18983  -0.22454   0.00009   0.01470  -0.00068
   6        3S         -0.00015  -0.00015   0.12748   0.00012  -0.00005
   7        3PX        -0.00079  -0.00012   0.69679  -0.00005   0.00023
   8        3PY        -0.76230  -0.64447  -0.00044   0.00002  -0.00441
   9        3PZ         0.64445  -0.76239   0.00025  -0.00497   0.00024
  10 2   H  1S          0.06947  -0.03885  -0.03087   0.06131  -0.02632
  11        2S          1.23856  -0.69307  -0.49542   0.34367  -0.14767
  12 3   H  1S         -0.06845  -0.04073  -0.03104  -0.00789   0.06614
  13        2S         -1.21938  -0.72603  -0.49562  -0.04421   0.37318
  14 4   H  1S         -0.00110   0.07959  -0.03095  -0.05333  -0.04001
  15        2S         -0.01942   1.41918  -0.49553  -0.29990  -0.22506
  16 5   B  1S         -0.00011  -0.00002  -0.02666  -0.00002  -0.00001
  17        2S          0.00011   0.00002   0.02497   0.00003  -0.00002
  18        2PX         0.00011   0.00002   0.21399   0.00003  -0.00004
  19        2PY        -0.02311  -0.01955   0.00000   0.00729   0.15916
  20        2PZ         0.01959  -0.02314   0.00000   0.15919  -0.00727
  21        3S          0.00122   0.00019  -0.21960   0.00019   0.00031
  22        3PX        -0.00001   0.00000   1.34948   0.00003  -0.00031
  23        3PY         0.18314   0.15475  -0.00003   0.09358   2.05259
  24        3PZ        -0.15395   0.18261   0.00006   2.05023  -0.09376
  25 6   H  1S          0.00002   0.00269   0.03721   0.06516   0.04866
  26        2S         -0.00200   0.16197   0.39652   1.47390   1.10440
  27 7   H  1S          0.00233  -0.00128   0.03721  -0.07478   0.03195
  28        2S          0.14055  -0.07888   0.39648  -1.69265   0.72562
  29 8   H  1S         -0.00232  -0.00141   0.03721   0.00968  -0.08077
  30        2S         -0.13999  -0.08332   0.39675   0.21840  -1.83011
                          16        17        18        19        20
                           V         V         V         V         V
     Eigenvalues --     0.48176   0.68325   0.68329   0.74831   1.04604
   1 1   N  1S          0.04830   0.00000  -0.00000   0.02031   0.00393
   2        2S         -0.03348   0.00000   0.00000  -0.08316   0.03395
   3        2PX         0.13149  -0.00003   0.00001   0.15733   0.20535
   4        2PY         0.00007  -0.04227  -0.00507   0.00003  -0.00043
   5        2PZ        -0.00004   0.00505  -0.04226  -0.00003   0.00025
   6        3S         -0.45467   0.00006  -0.00005   0.12300  -0.29880
   7        3PX         0.49624  -0.00008   0.00004   0.10515   0.26092
   8        3PY         0.00022  -0.01728  -0.00208  -0.00013   0.00041
   9        3PZ        -0.00010   0.00206  -0.01725   0.00009  -0.00023
  10 2   H  1S         -0.00641   0.02417  -0.04657  -0.09531  -0.03651
  11        2S         -0.12681   0.09410  -0.18165   0.14553  -0.26271
  12 3   H  1S         -0.00651  -0.05221   0.00239  -0.09617  -0.03548
  13        2S         -0.12591  -0.20492   0.00927   0.14692  -0.26463
  14 4   H  1S         -0.00645   0.02824   0.04411  -0.09564  -0.03611
  15        2S         -0.12642   0.11041   0.17251   0.14611  -0.26345
  16 5   B  1S         -0.20619  -0.00003   0.00001  -0.01752  -0.06353
  17        2S          0.24914   0.00025  -0.00009  -0.08376  -1.48653
  18        2PX        -0.00044   0.00010  -0.00012   1.14313  -0.30244
  19        2PY        -0.00010   1.04010   0.12458  -0.00004   0.00024
  20        2PZ         0.00002  -0.12458   1.04018   0.00011  -0.00015
  21        3S          3.30866   0.00010   0.00000   0.25961   3.17063
  22        3PX         0.01741   0.00001   0.00007  -0.99592   0.41386
  23        3PY        -0.00148  -0.92824  -0.11119   0.00028  -0.00226
  24        3PZ         0.00032   0.11110  -0.92786  -0.00032   0.00107
  25 6   H  1S          0.01752  -0.10561  -0.16516  -0.09747  -0.35360
  26        2S         -1.47979   0.10729   0.16827  -0.03283  -0.53368
  27 7   H  1S          0.01754  -0.09020   0.17404  -0.09745  -0.35363
  28        2S         -1.47975   0.09172  -0.17729  -0.03266  -0.53432
  29 8   H  1S          0.01751   0.19589  -0.00890  -0.09750  -0.35359
  30        2S         -1.47846  -0.19940   0.00912  -0.03289  -0.53186
                          21        22        23        24        25
                           V         V         V         V         V
     Eigenvalues --     1.16043   1.16050   1.24113   1.43331   1.43344
   1 1   N  1S          0.00002   0.00004   0.10533   0.00002  -0.00002
   2        2S         -0.00012  -0.00002  -0.16425  -0.00005   0.00005
   3        2PX         0.00048   0.00011   0.19528   0.00028  -0.00043
   4        2PY        -0.03927   0.02582  -0.00007  -0.01546  -0.74761
   5        2PZ         0.02571   0.03913   0.00016  -0.74639   0.01555
   6        3S          0.00021  -0.00015  -0.23449   0.00002   0.00001
   7        3PX         0.00049  -0.00027  -0.48515  -0.00038   0.00042
   8        3PY         0.60682  -0.39878   0.00038   0.01818   0.88218
   9        3PZ        -0.39859  -0.60696   0.00001   0.88041  -0.01841
  10 2   H  1S         -0.89642  -0.65419   0.77364  -0.19615   0.07808
  11        2S          0.62778   0.45795  -0.32152   0.51740  -0.20655
  12 3   H  1S          1.01498  -0.44873   0.77325   0.03041  -0.20924
  13        2S         -0.71094   0.31434  -0.32143  -0.08002   0.55245
  14 4   H  1S         -0.11868   1.10389   0.77273   0.16617   0.13075
  15        2S          0.08323  -0.77266  -0.32087  -0.43768  -0.34530
  16 5   B  1S         -0.00000  -0.00001  -0.01466  -0.00001  -0.00000
  17        2S          0.00058  -0.00004  -0.16996  -0.00011   0.00060
  18        2PX         0.00098   0.00003   0.09044  -0.00004  -0.00002
  19        2PY         0.10345  -0.06796   0.00005   0.00710   0.34437
  20        2PZ        -0.06805  -0.10361   0.00005   0.34477  -0.00709
  21        3S         -0.00002   0.00000   0.28954   0.00002  -0.00118
  22        3PX        -0.00058  -0.00004  -0.04843   0.00009  -0.00004
  23        3PY        -0.70431   0.46258  -0.00017  -0.01605  -0.78135
  24        3PZ         0.46235   0.70372  -0.00036  -0.78156   0.01623
  25 6   H  1S          0.01600  -0.14564   0.01432   0.63648   0.50108
  26        2S         -0.06594   0.60854  -0.07323  -0.92970  -0.73194
  27 7   H  1S          0.11855   0.08637   0.01437  -0.75290   0.29986
  28        2S         -0.49465  -0.36064  -0.07286   1.09977  -0.43808
  29 8   H  1S         -0.13336   0.05923   0.01387   0.11622  -0.80116
  30        2S          0.55956  -0.24783  -0.07261  -0.16979   1.17088
                          26        27        28        29        30
                           V         V         V         V         V
     Eigenvalues --     1.47691   1.55083   1.55090   1.61429   2.71909
   1 1   N  1S          0.00941   0.00002  -0.00002   0.03316   0.00391
   2        2S          0.02114  -0.00018   0.00021  -0.28163  -1.84396
   3        2PX        -0.24008  -0.00067   0.00120  -1.03561   0.17031
   4        2PY        -0.00047   0.04289  -0.82814  -0.00076   0.00004
   5        2PZ         0.00005  -0.82927  -0.04307   0.00041   0.00001
   6        3S         -0.28004   0.00018  -0.00022   0.38038   2.82081
   7        3PX         0.60222   0.00101  -0.00190   1.59772  -0.29585
   8        3PY         0.00048  -0.06285   1.21472   0.00165  -0.00044
   9        3PZ         0.00001   1.21633   0.06323  -0.00097   0.00015
  10 2   H  1S         -0.00097   0.02692  -0.00854   0.13442  -0.28842
  11        2S         -0.20250   0.65320  -0.20612  -0.54556  -0.23298
  12 3   H  1S         -0.00138  -0.00588   0.02750   0.13576  -0.28889
  13        2S         -0.20174  -0.14788   0.67015  -0.54409  -0.23282
  14 4   H  1S         -0.00103  -0.02066  -0.01909   0.13500  -0.28852
  15        2S         -0.20249  -0.50712  -0.46127  -0.54514  -0.23297
  16 5   B  1S          0.03749  -0.00007   0.00010  -0.06603   0.05889
  17        2S         -1.28560  -0.00071   0.00127  -0.12125   0.10220
  18        2PX         0.20441  -0.00002   0.00002   0.16034  -0.26805
  19        2PY        -0.00004   0.02132  -0.40949  -0.00055   0.00009
  20        2PZ         0.00007  -0.40876  -0.02123   0.00029  -0.00005
  21        3S          3.82944   0.00239  -0.00436   1.25257  -1.30017
  22        3PX        -0.08837   0.00068  -0.00111   0.53490  -0.25822
  23        3PY        -0.00085  -0.02647   0.50657  -0.00013   0.00019
  24        3PZ         0.00021   0.50444   0.02625   0.00009   0.00004
  25 6   H  1S          0.63953  -0.56060  -0.51270  -0.23649   0.04950
  26        2S         -1.52814   0.73365   0.67294  -0.06051   0.30738
  27 7   H  1S          0.63924   0.72363  -0.22989  -0.23714   0.04954
  28        2S         -1.52790  -0.94841   0.30227  -0.05994   0.30724
  29 8   H  1S          0.63986  -0.16338   0.74281  -0.23509   0.04939
  30        2S         -1.52795   0.21348  -0.97245  -0.06171   0.30729
     Density Matrix:
                           1         2         3         4         5
   1 1   N  1S          2.04679
   2        2S          0.10462   0.10386
   3        2PX         0.01773  -0.00999   0.39014
   4        2PY        -0.00002   0.00002  -0.00007   0.32458
   5        2PZ         0.00001  -0.00001   0.00005   0.00000   0.32458
   6        3S         -0.44088   0.28720  -0.12510   0.00009  -0.00006
   7        3PX         0.03317  -0.02170   0.46802  -0.00015   0.00010
   8        3PY        -0.00000   0.00002  -0.00013   0.30721  -0.00001
   9        3PZ         0.00000  -0.00001   0.00008  -0.00001   0.30719
  10 2   H  1S         -0.04127   0.04207   0.06594   0.07299  -0.19470
  11        2S          0.01298   0.00219   0.05679   0.04916  -0.13113
  12 3   H  1S         -0.04125   0.04204   0.06560  -0.20522   0.03413
  13        2S          0.01300   0.00216   0.05669  -0.13826   0.02301
  14 4   H  1S         -0.04127   0.04207   0.06582   0.13206   0.16067
  15        2S          0.01299   0.00218   0.05676   0.08892   0.10822
  16 5   B  1S          0.00332  -0.00062   0.03573  -0.00003   0.00002
  17        2S         -0.00612   0.00516  -0.02767   0.00002  -0.00002
  18        2PX        -0.02493   0.02593  -0.13432   0.00009  -0.00006
  19        2PY        -0.00001   0.00000  -0.00000  -0.00865  -0.00000
  20        2PZ         0.00000  -0.00000  -0.00000  -0.00000  -0.00864
  21        3S          0.05393  -0.01443  -0.03647   0.00012  -0.00007
  22        3PX         0.00127   0.00486  -0.06111   0.00006  -0.00004
  23        3PY        -0.00001   0.00000   0.00000  -0.01943  -0.00000
  24        3PZ        -0.00000   0.00000  -0.00000   0.00000  -0.01942
  25 6   H  1S          0.00730  -0.00572   0.01781   0.00792   0.00963
  26        2S         -0.00023  -0.00635   0.04416   0.01342   0.01638
  27 7   H  1S          0.00730  -0.00572   0.01781   0.00438  -0.01167
  28        2S         -0.00022  -0.00636   0.04415   0.00741  -0.01980
  29 8   H  1S          0.00729  -0.00572   0.01782  -0.01231   0.00204
  30        2S         -0.00023  -0.00636   0.04416  -0.02093   0.00349
                           6         7         8         9        10
   6        3S          1.09951
   7        3PX        -0.19208   0.56737
   8        3PY         0.00009  -0.00022   0.29080
   9        3PZ        -0.00007   0.00014  -0.00001   0.29077
  10 2   H  1S          0.13203   0.07388   0.06902  -0.18413   0.16747
  11        2S         -0.01007   0.06734   0.04640  -0.12378   0.10194
  12 3   H  1S          0.13201   0.07355  -0.19411   0.03229  -0.03330
  13        2S         -0.01013   0.06726  -0.13054   0.02173  -0.03478
  14 4   H  1S          0.13204   0.07376   0.12488   0.15196  -0.03331
  15        2S         -0.01010   0.06732   0.08394   0.10216  -0.03479
  16 5   B  1S          0.00223   0.02024   0.00000  -0.00000   0.00489
  17        2S         -0.00640  -0.01471   0.00002  -0.00001  -0.00290
  18        2PX         0.13495  -0.17337   0.00011  -0.00007  -0.01107
  19        2PY         0.00007  -0.00000  -0.00535  -0.00000  -0.00601
  20        2PZ        -0.00003  -0.00001   0.00000  -0.00529   0.01603
  21        3S         -0.11571  -0.00204   0.00009  -0.00005  -0.01653
  22        3PX         0.03195  -0.07595   0.00007  -0.00004  -0.00889
  23        3PY         0.00005  -0.00000  -0.01669  -0.00000  -0.00680
  24        3PZ        -0.00001  -0.00000   0.00000  -0.01665   0.01815
  25 6   H  1S         -0.04782   0.03730   0.00618   0.00751  -0.00824
  26        2S         -0.05049   0.06692   0.01084   0.01323  -0.00792
  27 7   H  1S         -0.04784   0.03729   0.00341  -0.00908   0.01629
  28        2S         -0.05052   0.06689   0.00598  -0.01597   0.03021
  29 8   H  1S         -0.04778   0.03732  -0.00964   0.00160  -0.00823
  30        2S         -0.05044   0.06694  -0.01696   0.00283  -0.00790
                          11        12        13        14        15
  11        2S          0.07228
  12 3   H  1S         -0.03478   0.16744
  13        2S         -0.02342   0.10196   0.07233
  14 4   H  1S         -0.03479  -0.03330  -0.03477   0.16747
  15        2S         -0.02342  -0.03477  -0.02339   0.10193   0.07228
  16 5   B  1S          0.01594   0.00490   0.01601   0.00490   0.01596
  17        2S         -0.00501  -0.00291  -0.00504  -0.00290  -0.00503
  18        2PX        -0.01790  -0.01104  -0.01792  -0.01106  -0.01790
  19        2PY        -0.01111   0.01686   0.03120  -0.01086  -0.02008
  20        2PZ         0.02962  -0.00280  -0.00519  -0.01322  -0.02444
  21        3S         -0.01009  -0.01666  -0.01024  -0.01658  -0.01015
  22        3PX        -0.00853  -0.00891  -0.00856  -0.00890  -0.00854
  23        3PY        -0.00881   0.01912   0.02477  -0.01231  -0.01594
  24        3PZ         0.02351  -0.00318  -0.00412  -0.01497  -0.01940
  25 6   H  1S         -0.01190  -0.00824  -0.01190   0.01628   0.02640
  26        2S         -0.01381  -0.00790  -0.01378   0.03020   0.04274
  27 7   H  1S          0.02641  -0.00825  -0.01192  -0.00824  -0.01190
  28        2S          0.04275  -0.00791  -0.01380  -0.00792  -0.01382
  29 8   H  1S         -0.01188   0.01626   0.02639  -0.00823  -0.01189
  30        2S         -0.01378   0.03017   0.04272  -0.00790  -0.01377
                          16        17        18        19        20
  16 5   B  1S          2.02418
  17        2S          0.10630   0.09859
  18        2PX         0.02751  -0.02839   0.07159
  19        2PY        -0.00001   0.00002  -0.00003   0.23344
  20        2PZ         0.00000  -0.00001   0.00001  -0.00000   0.23337
  21        3S         -0.28646   0.14877  -0.07185  -0.00005   0.00003
  22        3PX         0.00102  -0.00531   0.02649  -0.00004   0.00002
  23        3PY         0.00006  -0.00001  -0.00001   0.14033   0.00000
  24        3PZ        -0.00003   0.00001   0.00000   0.00000   0.14029
  25 6   H  1S         -0.06443   0.06008  -0.03851  -0.10719  -0.13031
  26        2S         -0.01214   0.05499  -0.04369  -0.15185  -0.18474
  27 7   H  1S         -0.06443   0.06007  -0.03850  -0.05930   0.15796
  28        2S         -0.01211   0.05497  -0.04367  -0.08400   0.22392
  29 8   H  1S         -0.06445   0.06011  -0.03856   0.16645  -0.02764
  30        2S         -0.01221   0.05506  -0.04376   0.23585  -0.03918
                          21        22        23        24        25
  21        3S          0.33939
  22        3PX        -0.01386   0.01083
  23        3PY        -0.00009  -0.00002   0.08499
  24        3PZ         0.00005   0.00001   0.00000   0.08497
  25 6   H  1S          0.12576  -0.01046  -0.06463  -0.07854   0.17235
  26        2S          0.10532  -0.01375  -0.09165  -0.11147   0.21860
  27 7   H  1S          0.12578  -0.01044  -0.03576   0.09523  -0.01079
  28        2S          0.10533  -0.01373  -0.05070   0.13513  -0.04112
  29 8   H  1S          0.12576  -0.01050   0.10031  -0.01665  -0.01079
  30        2S          0.10534  -0.01382   0.14230  -0.02363  -0.04101
                          26        27        28        29        30
  26        2S          0.28965
  27 7   H  1S         -0.04111   0.17234
  28        2S         -0.07871   0.21861   0.28969
  29 8   H  1S         -0.04102  -0.01079  -0.04105   0.17236
  30        2S         -0.07845  -0.04104  -0.07852   0.21858   0.28955
    Full Mulliken population analysis:
                           1         2         3         4         5
   1 1   N  1S          2.04679
   2        2S          0.02039   0.10386
   3        2PX         0.00000   0.00000   0.39014
   4        2PY         0.00000   0.00000   0.00000   0.32458
   5        2PZ         0.00000   0.00000   0.00000   0.00000   0.32458
   6        3S         -0.08122   0.21603   0.00000   0.00000   0.00000
   7        3PX         0.00000   0.00000   0.24150   0.00000   0.00000
   8        3PY         0.00000   0.00000   0.00000   0.15852   0.00000
   9        3PZ         0.00000   0.00000   0.00000   0.00000   0.15851
  10 2   H  1S         -0.00090   0.00747   0.00532   0.00597   0.04247
  11        2S          0.00091   0.00076   0.00303   0.00266   0.01892
  12 3   H  1S         -0.00090   0.00747   0.00526   0.04718   0.00130
  13        2S          0.00091   0.00075   0.00301   0.02103   0.00058
  14 4   H  1S         -0.00090   0.00747   0.00530   0.01954   0.02892
  15        2S          0.00091   0.00076   0.00302   0.00870   0.01289
  16 5   B  1S          0.00000  -0.00000  -0.00001  -0.00000  -0.00000
  17        2S         -0.00002   0.00019   0.00156   0.00000   0.00000
  18        2PX        -0.00023   0.00216   0.01506   0.00000   0.00000
  19        2PY         0.00000  -0.00000  -0.00000  -0.00016  -0.00000
  20        2PZ         0.00000  -0.00000   0.00000  -0.00000  -0.00016
  21        3S          0.00152  -0.00222   0.00313   0.00000   0.00000
  22        3PX         0.00008   0.00153   0.00625   0.00000   0.00000
  23        3PY         0.00000  -0.00000   0.00000  -0.00146  -0.00000
  24        3PZ        -0.00000   0.00000   0.00000   0.00000  -0.00146
  25 6   H  1S          0.00000  -0.00000  -0.00000  -0.00000  -0.00000
  26        2S         -0.00000  -0.00019  -0.00118  -0.00013  -0.00020
  27 7   H  1S          0.00000  -0.00000  -0.00000  -0.00000  -0.00000
  28        2S         -0.00000  -0.00019  -0.00118  -0.00004  -0.00029
  29 8   H  1S          0.00000  -0.00000  -0.00000  -0.00000  -0.00000
  30        2S         -0.00000  -0.00019  -0.00118  -0.00032  -0.00001
                           6         7         8         9        10
   6        3S          1.09951
   7        3PX         0.00000   0.56737
   8        3PY         0.00000   0.00000   0.29080
   9        3PZ         0.00000   0.00000   0.00000   0.29077
  10 2   H  1S          0.04740   0.01328   0.01258   0.08956   0.16747
  11        2S         -0.00648   0.01131   0.00790   0.05625   0.06584
  12 3   H  1S          0.04739   0.01315   0.09953   0.00275  -0.00049
  13        2S         -0.00652   0.01123   0.06254   0.00173  -0.00514
  14 4   H  1S          0.04740   0.01323   0.04120   0.06100  -0.00049
  15        2S         -0.00650   0.01128   0.02587   0.03831  -0.00514
  16 5   B  1S          0.00004  -0.00124   0.00000   0.00000   0.00000
  17        2S         -0.00107   0.00511   0.00000   0.00000  -0.00001
  18        2PX         0.03069   0.06299   0.00000   0.00000  -0.00013
  19        2PY        -0.00000  -0.00000  -0.00071  -0.00000  -0.00001
  20        2PZ        -0.00000   0.00000   0.00000  -0.00070  -0.00008
  21        3S         -0.04134   0.00077   0.00000   0.00000  -0.00121
  22        3PX         0.01811   0.02028   0.00000   0.00000  -0.00155
  23        3PY        -0.00000  -0.00000  -0.00549  -0.00000  -0.00019
  24        3PZ        -0.00000   0.00000   0.00000  -0.00548  -0.00138
  25 6   H  1S         -0.00060  -0.00142  -0.00009  -0.00013  -0.00000
  26        2S         -0.00563  -0.01189  -0.00071  -0.00105  -0.00014
  27 7   H  1S         -0.00060  -0.00142  -0.00003  -0.00019   0.00000
  28        2S         -0.00564  -0.01188  -0.00022  -0.00154   0.00009
  29 8   H  1S         -0.00060  -0.00142  -0.00021  -0.00001  -0.00000
  30        2S         -0.00562  -0.01189  -0.00172  -0.00005  -0.00014
                          11        12        13        14        15
  11        2S          0.07228
  12 3   H  1S         -0.00514   0.16744
  13        2S         -0.00958   0.06586   0.07233
  14 4   H  1S         -0.00514  -0.00049  -0.00514   0.16747
  15        2S         -0.00958  -0.00514  -0.00957   0.06584   0.07228
  16 5   B  1S          0.00015   0.00000   0.00015   0.00000   0.00015
  17        2S         -0.00044  -0.00001  -0.00044  -0.00001  -0.00044
  18        2PX        -0.00188  -0.00013  -0.00188  -0.00013  -0.00188
  19        2PY        -0.00019  -0.00009  -0.00151  -0.00004  -0.00062
  20        2PZ        -0.00136  -0.00000  -0.00004  -0.00005  -0.00092
  21        3S         -0.00256  -0.00122  -0.00260  -0.00122  -0.00257
  22        3PX        -0.00350  -0.00155  -0.00352  -0.00155  -0.00351
  23        3PY        -0.00059  -0.00154  -0.00470  -0.00064  -0.00194
  24        3PZ        -0.00422  -0.00004  -0.00013  -0.00094  -0.00288
  25 6   H  1S         -0.00021  -0.00000  -0.00021   0.00000   0.00008
  26        2S         -0.00156  -0.00014  -0.00156   0.00009   0.00162
  27 7   H  1S          0.00008  -0.00000  -0.00021  -0.00000  -0.00021
  28        2S          0.00161  -0.00014  -0.00156  -0.00014  -0.00156
  29 8   H  1S         -0.00021   0.00000   0.00008  -0.00000  -0.00021
  30        2S         -0.00156   0.00009   0.00162  -0.00014  -0.00156
                          16        17        18        19        20
  16 5   B  1S          2.02418
  17        2S          0.01944   0.09859
  18        2PX         0.00000   0.00000   0.07159
  19        2PY         0.00000   0.00000   0.00000   0.23344
  20        2PZ         0.00000   0.00000   0.00000   0.00000   0.23337
  21        3S         -0.04980   0.11534   0.00000   0.00000   0.00000
  22        3PX         0.00000   0.00000   0.01460   0.00000   0.00000
  23        3PY         0.00000   0.00000   0.00000   0.07736   0.00000
  24        3PZ         0.00000   0.00000   0.00000   0.00000   0.07734
  25 6   H  1S         -0.00092   0.01277   0.00329   0.02252   0.03327
  26        2S         -0.00111   0.02521   0.00379   0.03242   0.04792
  27 7   H  1S         -0.00092   0.01277   0.00329   0.00690   0.04889
  28        2S         -0.00110   0.02520   0.00379   0.00993   0.07042
  29 8   H  1S         -0.00092   0.01279   0.00330   0.05430   0.00150
  30        2S         -0.00111   0.02524   0.00380   0.07816   0.00216
                          21        22        23        24        25
  21        3S          0.33939
  22        3PX         0.00000   0.01083
  23        3PY         0.00000   0.00000   0.08499
  24        3PZ         0.00000   0.00000   0.00000   0.08497
  25 6   H  1S          0.03758   0.00110   0.01672   0.02469   0.17235
  26        2S          0.06960   0.00218   0.03575   0.05283   0.14119
  27 7   H  1S          0.03758   0.00110   0.00512   0.03629  -0.00002
  28        2S          0.06960   0.00218   0.01094   0.07765  -0.00290
  29 8   H  1S          0.03758   0.00111   0.04029   0.00111  -0.00002
  30        2S          0.06961   0.00219   0.08616   0.00238  -0.00289
                          26        27        28        29        30
  26        2S          0.28965
  27 7   H  1S         -0.00290   0.17234
  28        2S         -0.02055   0.14120   0.28969
  29 8   H  1S         -0.00289  -0.00002  -0.00289   0.17236
  30        2S         -0.02046  -0.00289  -0.02048   0.14118   0.28955
     Gross orbital populations:
                           1
   1 1   N  1S          1.98734
   2        2S          0.36604
   3        2PX         0.67900
   4        2PY         0.58605
   5        2PZ         0.58606
   6        3S          1.34473
   7        3PX         0.93034
   8        3PY         0.68976
   9        3PZ         0.68975
  10 2   H  1S          0.44042
  11        2S          0.18750
  12 3   H  1S          0.44038
  13        2S          0.18749
  14 4   H  1S          0.44043
  15        2S          0.18746
  16 5   B  1S          1.98698
  17        2S          0.35176
  18        2PX         0.21212
  19        2PY         0.51170
  20        2PZ         0.51154
  21        3S          0.67695
  22        3PX         0.06634
  23        3PY         0.34078
  24        3PZ         0.34072
  25 6   H  1S          0.45614
  26        2S          0.62998
  27 7   H  1S          0.45613
  28        2S          0.62999
  29 8   H  1S          0.45617
  30        2S          0.62993
          Condensed to atoms (all electrons):
               1          2          3          4          5          6
     1  N    6.865841   0.318403   0.318386   0.318397   0.107719  -0.023226
     2  H    0.318403   0.371430  -0.020357  -0.020358  -0.019154  -0.001913
     3  H    0.318386  -0.020357   0.371487  -0.020339  -0.019261  -0.001915
     4  H    0.318397  -0.020358  -0.020339   0.371424  -0.019194   0.001782
     5  B    0.107719  -0.019154  -0.019261  -0.019194   3.689900   0.419630
     6  H   -0.023226  -0.001913  -0.001915   0.001782   0.419630   0.744392
     7  H   -0.023218   0.001781  -0.001918  -0.001916   0.419622  -0.026368
     8  H   -0.023228  -0.001907   0.001783  -0.001909   0.419643  -0.026261
               7          8
     1  N   -0.023218  -0.023228
     2  H    0.001781  -0.001907
     3  H   -0.001918   0.001783
     4  H   -0.001916  -0.001909
     5  B    0.419622   0.419643
     6  H   -0.026368  -0.026261
     7  H    0.744422  -0.026288
     8  H   -0.026288   0.744273
 Mulliken charges:
               1
     1  N   -0.859075
     2  H    0.372075
     3  H    0.372133
     4  H    0.372112
     5  B    0.001097
     6  H   -0.086121
     7  H   -0.086117
     8  H   -0.086105
 Sum of Mulliken charges =  -0.00000
 Mulliken charges with hydrogens summed into heavy atoms:
               1
     1  N    0.257246
     5  B   -0.257246
 Electronic spatial extent (au):  <R**2>=            120.9400
 Charge=             -0.0000 electrons
 Dipole moment (field-independent basis, Debye):
    X=              5.7270    Y=             -0.0010    Z=              0.0007  Tot=              5.7270
 Quadrupole moment (field-independent basis, Debye-Ang):
   XX=            -16.5485   YY=            -16.0959   ZZ=            -16.0966
   XY=              0.0004   XZ=             -0.0007   YZ=              0.0003
 Traceless Quadrupole moment (field-independent basis, Debye-Ang):
   XX=             -0.3015   YY=              0.1511   ZZ=              0.1504
   XY=              0.0004   XZ=             -0.0007   YZ=              0.0003
 Octapole moment (field-independent basis, Debye-Ang**2):
  XXX=             19.8656  YYY=             -1.6534  ZZZ=             -0.8870  XYY=              9.0869
  XXY=              0.0040  XXZ=             -0.0027  XZZ=              9.0900  YZZ=              1.6499
  YYZ=              0.8896  XYZ=              0.0003
 Hexadecapole moment (field-independent basis, Debye-Ang**3):
 XXXX=           -112.1152 YYYY=            -35.2392 ZZZZ=            -35.2347 XXXY=              0.0083
 XXXZ=             -0.0058 YYYX=             -0.4922 YYYZ=             -0.0003 ZZZX=             -0.2659
 ZZZY=              0.0011 XXYY=            -24.8491 XXZZ=            -24.8420 YYZZ=            -11.7464
 XXYZ=              0.0001 YYXZ=              0.2652 ZZXY=              0.4921
 N-N= 4.014822243214D+01 E-N=-2.709531902716D+02  KE= 8.185381147284D+01
 Orbital energies and kinetic energies (alpha):
                                 1                 2
   1         O               -15.566701         21.915664
   2         O                -7.483572         10.801876
   3         O                -1.245003          1.846237
   4         O                -0.727313          1.307826
   5         O                -0.727264          1.307792
   6         O                -0.697032          1.089292
   7         O                -0.501491          1.252252
   8         O                -0.408296          0.703029
   9         O                -0.408175          0.702938
  10         V                 0.206762          1.107081
  11         V                 0.297829          1.013787
  12         V                 0.297845          1.013728
  13         V                 0.333022          0.890843
  14         V                 0.376884          0.622661
  15         V                 0.377081          0.622884
  16         V                 0.481764          1.389621
  17         V                 0.683248          1.540648
  18         V                 0.683294          1.540821
  19         V                 0.748306          1.918259
  20         V                 1.046040          1.655826
  21         V                 1.160430          2.176896
  22         V                 1.160505          2.177031
  23         V                 1.241134          2.796771
  24         V                 1.433310          3.265960
  25         V                 1.433442          3.268548
  26         V                 1.476906          2.600555
  27         V                 1.550828          3.436389
  28         V                 1.550903          3.434335
  29         V                 1.614292          4.037401
  30         V                 2.719087          4.782204
 Total kinetic energy from orbitals= 8.185381147284D+01
 1\1\GINC-IISERK51\SP\RHF\3-21G\B1H6N1\GAUSSIAN\17-Jun-2025\0\\# hf/3-2
 1g pop=full geom=connectivity\\Title Card Required\\0,1\N,0,0.757012,-
 0.000059,0.000005\H,0,1.087273,-0.334861,0.893402\H,0,1.085366,0.94178
 5,-0.156594\H,0,1.086517,-0.605972,-0.737269\B,0,-0.956335,-0.000185,0
 .000094\H,0,-1.258772,0.743395,0.903581\H,0,-1.258813,0.411352,-1.0953
 16\H,0,-1.258978,-1.154359,0.191689\\Version=EM64L-G16RevB.01\State=1-
 A\HF=-82.1663133\RMSD=5.614e-09\Dipole=2.2531562,0.0003978,-0.0002582\
 Quadrupole=-0.2241421,0.1123059,0.1118362,-0.0003314,0.0005522,0.00019
 06\PG=C01 [X(B1H6N1)]\\@


 THERE'S A SUCKER BORN EVERY MINUTE

              -- PHINEAS TAYLOR (P.T.) BARNUM
 Job cpu time:       0 days  0 hours  0 minutes  0.5 seconds.
 Elapsed time:       0 days  0 hours  0 minutes  0.5 seconds.
 File lengths (MBytes):  RWF=      6 Int=      0 D2E=      0 Chk=      1 Scr=      1
 Normal termination of Gaussian 16 at Tue Jun 17 15:01:06 2025.
