 Entering Gaussian System, Link 0=g16
 Input=/home/gaussian/Documents/Summer_Internship/Acid_Base_adduct/Acid/BH3/MX3-/BH3_ion_sp.com
 Output=/home/gaussian/Documents/Summer_Internship/Acid_Base_adduct/Acid/BH3/MX3-/BH3_ion_sp.log
 Initial command:
 /usr/local/g16/l1.exe "/home/gaussian/tmp/Gau-30546.inp" -scrdir="/home/gaussian/tmp/"
 Entering Link 1 = /usr/local/g16/l1.exe PID=     30549.
  
 Copyright (c) 1988-2017, Gaussian, Inc.  All Rights Reserved.
  
 This is part of the Gaussian(R) 16 program.  It is based on
 the Gaussian(R) 09 system (copyright 2009, Gaussian, Inc.),
 the Gaussian(R) 03 system (copyright 2003, Gaussian, Inc.),
 the Gaussian(R) 98 system (copyright 1998, Gaussian, Inc.),
 the Gaussian(R) 94 system (copyright 1995, Gaussian, Inc.),
 the Gaussian 92(TM) system (copyright 1992, Gaussian, Inc.),
 the Gaussian 90(TM) system (copyright 1990, Gaussian, Inc.),
 the Gaussian 88(TM) system (copyright 1988, Gaussian, Inc.),
 the Gaussian 86(TM) system (copyright 1986, Carnegie Mellon
 University), and the Gaussian 82(TM) system (copyright 1983,
 Carnegie Mellon University). Gaussian is a federally registered
 trademark of Gaussian, Inc.
  
 This software contains proprietary and confidential information,
 including trade secrets, belonging to Gaussian, Inc.
  
 This software is provided under written license and may be
 used, copied, transmitted, or stored only in accord with that
 written license.
  
 The following legend is applicable only to US Government
 contracts under FAR:
  
                    RESTRICTED RIGHTS LEGEND
  
 Use, reproduction and disclosure by the US Government is
 subject to restrictions as set forth in subparagraphs (a)
 and (c) of the Commercial Computer Software - Restricted
 Rights clause in FAR 52.227-19.
  
 Gaussian, Inc.
 340 Quinnipiac St., Bldg. 40, Wallingford CT 06492
  
  
 ---------------------------------------------------------------
 Warning -- This program may not be used in any manner that
 competes with the business of Gaussian, Inc. or will provide
 assistance to any competitor of Gaussian, Inc.  The licensee
 of this program is prohibited from giving any competitor of
 Gaussian, Inc. access to this program.  By using this program,
 the user acknowledges that Gaussian, Inc. is engaged in the
 business of creating and licensing software in the field of
 computational chemistry and represents and warrants to the
 licensee that it is not a competitor of Gaussian, Inc. and that
 it will not use this program in any manner prohibited above.
 ---------------------------------------------------------------
  

 Cite this work as:
 Gaussian 16, Revision B.01,
 M. J. Frisch, G. W. Trucks, H. B. Schlegel, G. E. Scuseria, 
 M. A. Robb, J. R. Cheeseman, G. Scalmani, V. Barone, 
 G. A. Petersson, H. Nakatsuji, X. Li, M. Caricato, A. V. Marenich, 
 J. Bloino, B. G. Janesko, R. Gomperts, B. Mennucci, H. P. Hratchian, 
 J. V. Ortiz, A. F. Izmaylov, J. L. Sonnenberg, D. Williams-Young, 
 F. Ding, F. Lipparini, F. Egidi, J. Goings, B. Peng, A. Petrone, 
 T. Henderson, D. Ranasinghe, V. G. Zakrzewski, J. Gao, N. Rega, 
 G. Zheng, W. Liang, M. Hada, M. Ehara, K. Toyota, R. Fukuda, 
 J. Hasegawa, M. Ishida, T. Nakajima, Y. Honda, O. Kitao, H. Nakai, 
 T. Vreven, K. Throssell, J. A. Montgomery, Jr., J. E. Peralta, 
 F. Ogliaro, M. J. Bearpark, J. J. Heyd, E. N. Brothers, K. N. Kudin, 
 V. N. Staroverov, T. A. Keith, R. Kobayashi, J. Normand, 
 K. Raghavachari, A. P. Rendell, J. C. Burant, S. S. Iyengar, 
 J. Tomasi, M. Cossi, J. M. Millam, M. Klene, C. Adamo, R. Cammi, 
 J. W. Ochterski, R. L. Martin, K. Morokuma, O. Farkas, 
 J. B. Foresman, and D. J. Fox, Gaussian, Inc., Wallingford CT, 2016.
 
 ******************************************
 Gaussian 16:  EM64L-G16RevB.01 20-Dec-2017
                13-Jun-2025 
 ******************************************
 %chk=BH3_ion_sp.chk
 -------------------------------------
 # hf/3-21g pop=full geom=connectivity
 -------------------------------------
 1/38=1,57=2,172=1/1;
 2/12=2,17=6,18=5,40=1/2;
 3/5=5,11=9,25=1,30=1/1,2,3;
 4//1;
 5/5=2,38=5/2;
 6/7=3,28=1/1;
 99/5=1,9=1/99;
 -------------------
 Title Card Required
 -------------------
 Symbolic Z-matrix:
 Charge =  1 Multiplicity = 2
 B                     0.        0.        0.15511 
 H                     0.        1.16988  -0.25851 
 H                     1.01315  -0.58494  -0.25851 
 H                    -1.01315  -0.58494  -0.25851 
 
                          Input orientation:                          
 ---------------------------------------------------------------------
 Center     Atomic      Atomic             Coordinates (Angstroms)
 Number     Number       Type             X           Y           Z
 ---------------------------------------------------------------------
      1          5           0        0.000000    0.000000    0.155106
      2          1           0        0.000000    1.169881   -0.258510
      3          1           0        1.013147   -0.584941   -0.258510
      4          1           0       -1.013147   -0.584941   -0.258510
 ---------------------------------------------------------------------
                    Distance matrix (angstroms):
                    1          2          3          4
     1  B    0.000000
     2  H    1.240846   0.000000
     3  H    1.240847   2.026294   0.000000
     4  H    1.240847   2.026294   2.026294   0.000000
 Stoichiometry    BH3(1+,2)
 Framework group  C3V[C3(B),3SGV(H)]
 Deg. of freedom     2
 Full point group                 C3V     NOp   6
 Largest Abelian subgroup         CS      NOp   2
 Largest concise Abelian subgroup CS      NOp   2
                         Standard orientation:                         
 ---------------------------------------------------------------------
 Center     Atomic      Atomic             Coordinates (Angstroms)
 Number     Number       Type             X           Y           Z
 ---------------------------------------------------------------------
      1          5           0       -0.000000    0.000000    0.155106
      2          1           0        0.000000    1.169881   -0.258510
      3          1           0        1.013147   -0.584941   -0.258510
      4          1           0       -1.013147   -0.584941   -0.258510
 ---------------------------------------------------------------------
 Rotational constants (GHZ):         204.2098837         204.2098837         122.1313995
 Standard basis: 3-21G (6D, 7F)
 There are    11 symmetry adapted cartesian basis functions of A'  symmetry.
 There are     4 symmetry adapted cartesian basis functions of A"  symmetry.
 There are    11 symmetry adapted basis functions of A'  symmetry.
 There are     4 symmetry adapted basis functions of A"  symmetry.
    15 basis functions,    24 primitive gaussians,    15 cartesian basis functions
     4 alpha electrons        3 beta electrons
       nuclear repulsion energy         7.1804360227 Hartrees.
 NAtoms=    4 NActive=    4 NUniq=    2 SFac= 4.00D+00 NAtFMM=   60 NAOKFM=F Big=F
 Integral buffers will be    131072 words long.
 Raffenetti 2 integral format.
 Two-electron integral symmetry is turned on.
 One-electron integrals computed using PRISM.
 NBasis=    15 RedAO= T EigKep=  2.83D-02  NBF=    11     4
 NBsUse=    15 1.00D-06 EigRej= -1.00D+00 NBFU=    11     4
 ExpMin= 1.24D-01 ExpMax= 1.16D+02 ExpMxC= 1.16D+02 IAcc=3 IRadAn=         5 AccDes= 0.00D+00
 Harris functional with IExCor=  205 and IRadAn=       5 diagonalized for initial guess.
 HarFok:  IExCor=  205 AccDes= 0.00D+00 IRadAn=         5 IDoV= 1 UseB2=F ITyADJ=14
 ICtDFT=  3500011 ScaDFX=  1.000000  1.000000  1.000000  1.000000
 FoFCou: FMM=F IPFlag=           0 FMFlag=      100000 FMFlg1=           0
         NFxFlg=           0 DoJE=T BraDBF=F KetDBF=T FulRan=T
         wScrn=  0.000000 ICntrl=       500 IOpCl=  0 I1Cent=   200000004 NGrid=           0
         NMat0=    1 NMatS0=      1 NMatT0=    0 NMatD0=    1 NMtDS0=    0 NMtDT0=    0
 Petite list used in FoFCou.
 Initial guess orbital symmetries:
 Alpha Orbitals:
       Occupied  (A1) (A1) (E) (E)
       Virtual   (A1) (E) (E) (A1) (E) (E) (A1) (A1) (A1) (E) (E)
 Beta  Orbitals:
       Occupied  (A1) (A1) (E)
       Virtual   (E) (A1) (E) (E) (A1) (E) (E) (A1) (A1) (A1) (E)
                 (E)
 Initial guess <Sx>= 0.0000 <Sy>= 0.0000 <Sz>= 0.5000 <S**2>= 0.7500 S= 0.5000
 Keep R1 and R2 ints in memory in symmetry-blocked form, NReq=811818.
 Requested convergence on RMS density matrix=1.00D-08 within 128 cycles.
 Requested convergence on MAX density matrix=1.00D-06.
 Requested convergence on             energy=1.00D-06.
 No special actions if energy rises.
 Density matrix breaks symmetry, PCut= 1.00D-07
 Density has only Abelian symmetry.
 Density matrix breaks symmetry, PCut= 1.00D-07
 Density has only Abelian symmetry.
 Density matrix breaks symmetry, PCut= 1.00D-07
 Density has only Abelian symmetry.
 Density matrix breaks symmetry, PCut= 1.00D-07
 Density has only Abelian symmetry.
 Density matrix breaks symmetry, PCut= 1.00D-07
 Density has only Abelian symmetry.
 Density matrix breaks symmetry, PCut= 1.00D-07
 Density has only Abelian symmetry.
 Density matrix breaks symmetry, PCut= 1.00D-07
 Density has only Abelian symmetry.
 Density matrix breaks symmetry, PCut= 1.00D-07
 Density has only Abelian symmetry.
 Density matrix breaks symmetry, PCut= 1.00D-07
 Density has only Abelian symmetry.
 Density matrix breaks symmetry, PCut= 1.00D-07
 Density has only Abelian symmetry.
 Density matrix breaks symmetry, PCut= 1.00D-07
 Density has only Abelian symmetry.
 Density matrix breaks symmetry, PCut= 1.00D-07
 Density has only Abelian symmetry.
 Density matrix breaks symmetry, PCut= 1.00D-07
 Density has only Abelian symmetry.
 Density matrix breaks symmetry, PCut= 1.00D-07
 Density has only Abelian symmetry.
 Density matrix breaks symmetry, PCut= 1.00D-07
 Density has only Abelian symmetry.
 SCF Done:  E(UHF) =  -25.7560314604     A.U. after   14 cycles
            NFock= 14  Conv=0.34D-08     -V/T= 2.0019
 <Sx>= 0.0000 <Sy>= 0.0000 <Sz>= 0.5000 <S**2>= 0.7625 S= 0.5062
 <L.S>= 0.000000000000E+00
 Annihilation of the first spin contaminant:
 S**2 before annihilation     0.7625,   after     0.7501
 SCF density gives NOpUse=  2 NOpAll=  6.

 **********************************************************************

            Population analysis using the SCF Density.

 **********************************************************************

 Orbital symmetries:
 Alpha Orbitals:
       Occupied  (A1) (?A) (?A) (?A)
       Virtual   (?A) (?A) (?A) (?A) (?A) (?A) (?A) (?A) (?A) (?A)
                 (?A)
 Beta  Orbitals:
       Occupied  (A1) (?A) (?A)
       Virtual   (?A) (?A) (?A) (?A) (?A) (?A) (?A) (?A) (?A) (?A)
                 (?A) (?A)
 Unable to determine electronic state:  an orbital has unidentified symmetry.
 Alpha  occ. eigenvalues --   -7.98036  -1.10661  -0.89657  -0.81548
 Alpha virt. eigenvalues --   -0.26751  -0.02346   0.00798   0.06778   0.26114
 Alpha virt. eigenvalues --    0.28907   0.34140   0.52871   0.91499   1.04579
 Alpha virt. eigenvalues --    1.04880
  Beta  occ. eigenvalues --   -7.97709  -0.97687  -0.78193
  Beta virt. eigenvalues --   -0.40911  -0.25723   0.02980   0.04272   0.09612
  Beta virt. eigenvalues --    0.28986   0.32538   0.34699   0.54932   1.03282
  Beta virt. eigenvalues --    1.07547   1.07596
     Alpha Molecular Orbital Coefficients:
                           1         2         3         4         5
                        (A1)--O      O         O         O         V
     Eigenvalues --    -7.98036  -1.10661  -0.89657  -0.81548  -0.26751
   1 1   B  1S          0.98792  -0.17794   0.06639   0.00000  -0.07574
   2        2S          0.08782   0.27056  -0.09539   0.00000   0.08483
   3        2PX         0.00000   0.00000   0.00000   0.43015   0.00000
   4        2PY         0.00123   0.09694   0.38228   0.00000   0.03102
   5        2PZ         0.00038  -0.08709   0.02177   0.00000   0.39603
   6        3S         -0.05544   0.34388  -0.22177   0.00000   0.39113
   7        3PX         0.00000   0.00000   0.00000   0.18499   0.00000
   8        3PY        -0.00060   0.00138   0.11289   0.00000   0.07200
   9        3PZ         0.00714  -0.03043   0.02599   0.00000   0.60664
  10 2   H  1S         -0.00401   0.28964   0.26927   0.00000  -0.05802
  11        2S          0.01473   0.20362   0.32039   0.00000  -0.11798
  12 3   H  1S         -0.00389   0.11681  -0.16860   0.22935  -0.04846
  13        2S          0.01439   0.03912  -0.14142   0.24319  -0.05370
  14 4   H  1S         -0.00389   0.11681  -0.16860  -0.22935  -0.04846
  15        2S          0.01439   0.03912  -0.14142  -0.24319  -0.05370
                           6         7         8         9        10
                           V         V         V         V         V
     Eigenvalues --    -0.02346   0.00798   0.06778   0.26114   0.28907
   1 1   B  1S          0.04949   0.00000  -0.15663  -0.01331   0.00000
   2        2S         -0.06615   0.00000   0.23350  -0.05815   0.00000
   3        2PX         0.00000   0.25225   0.00000   0.00000  -1.03278
   4        2PY        -0.35425   0.00000   0.00005  -1.00329   0.00000
   5        2PZ         0.07406   0.00000  -0.12568   0.02636   0.00000
   6        3S         -0.71922   0.00000   2.53772   0.32234   0.00000
   7        3PX         0.00000   1.62544   0.00000   0.00000   1.06244
   8        3PY        -1.46570   0.00000  -0.52032   1.10972   0.00000
   9        3PZ         0.27393   0.00000  -0.88631  -0.13066   0.00000
  10 2   H  1S          0.16367   0.00000  -0.00807  -0.16980   0.00000
  11        2S          1.77437   0.00000  -0.89264  -0.11027   0.00000
  12 3   H  1S         -0.04270  -0.11821  -0.08075   0.04105  -0.09869
  13        2S         -0.34121  -1.34603  -1.56949  -0.12219   0.03581
  14 4   H  1S         -0.04270   0.11821  -0.08075   0.04105   0.09869
  15        2S         -0.34121   1.34603  -1.56949  -0.12219  -0.03581
                          11        12        13        14        15
                           V         V         V         V         V
     Eigenvalues --     0.34140   0.52871   0.91499   1.04579   1.04880
   1 1   B  1S         -0.02155  -0.01221  -0.03485   0.04969   0.00000
   2        2S         -0.10368  -1.45917   0.62426  -0.72158   0.00000
   3        2PX         0.00000   0.00000   0.00000   0.00000   0.42000
   4        2PY         0.05763   0.08206   0.36504   0.24455   0.00000
   5        2PZ         1.08811  -0.19652  -0.12293   0.15871   0.00000
   6        3S          0.38426   2.48842  -1.74323   2.11770   0.00000
   7        3PX         0.00000   0.00000   0.00000   0.00000  -0.90150
   8        3PY        -0.05478  -0.14205  -0.80359  -0.52953   0.00000
   9        3PZ        -1.06301  -0.30867   0.40707  -0.49818   0.00000
  10 2   H  1S         -0.08405  -0.34289  -1.26792  -0.05798   0.00000
  11        2S         -0.07890  -0.30232   2.21750  -0.17392   0.00000
  12 3   H  1S         -0.06971  -0.26821   0.05375   0.90498  -0.96003
  13        2S         -0.10372  -0.49729   0.16445  -1.56946   1.38600
  14 4   H  1S         -0.06971  -0.26821   0.05375   0.90498   0.96003
  15        2S         -0.10372  -0.49729   0.16445  -1.56946  -1.38600
     Beta Molecular Orbital Coefficients:
                           1         2         3         4         5
                        (A1)--O      O         O         V         V
     Eigenvalues --    -7.97709  -0.97687  -0.78193  -0.40911  -0.25723
   1 1   B  1S          0.98832  -0.19957   0.00000  -0.01699  -0.06390
   2        2S          0.08606   0.28918   0.00000   0.01868   0.06777
   3        2PX         0.00000   0.00000   0.45492   0.00000   0.00000
   4        2PY         0.00119  -0.00404   0.00000   0.34324  -0.00650
   5        2PZ         0.00048  -0.08932   0.00000   0.00918   0.40146
   6        3S         -0.05489   0.51755   0.00000   0.07678   0.32055
   7        3PX         0.00000   0.00000   0.24192   0.00000   0.00000
   8        3PY        -0.00013   0.03979   0.00000   0.25868   0.02517
   9        3PZ         0.00698  -0.05845   0.00000   0.00970   0.63221
  10 2   H  1S         -0.00488   0.10587   0.00000   0.22302  -0.05657
  11        2S          0.01413  -0.01688   0.00000   0.31056  -0.10198
  12 3   H  1S         -0.00396   0.15546   0.20601  -0.11540  -0.03890
  13        2S          0.01435   0.07703   0.20264  -0.17142  -0.02932
  14 4   H  1S         -0.00396   0.15546  -0.20601  -0.11540  -0.03890
  15        2S          0.01435   0.07703  -0.20264  -0.17142  -0.02932
                           6         7         8         9        10
                           V         V         V         V         V
     Eigenvalues --     0.02980   0.04272   0.09612   0.28986   0.32538
   1 1   B  1S          0.00000   0.00127  -0.15496   0.00000   0.00920
   2        2S          0.00000  -0.00711   0.23158   0.00000   0.07148
   3        2PX         0.22698   0.00000   0.00000  -1.03128   0.00000
   4        2PY         0.00000  -0.21103   0.03903   0.00000   1.06381
   5        2PZ         0.00000   0.02015  -0.11129   0.00000  -0.00174
   6        3S          0.00000  -0.14685   2.65715   0.00000  -0.30548
   7        3PX         1.62564   0.00000   0.00000   1.07007   0.00000
   8        3PY         0.00000  -1.67018  -0.16814   0.00000  -0.96415
   9        3PZ         0.00000   0.06750  -0.92458   0.00000   0.08754
  10 2   H  1S          0.00000   0.11969  -0.02596   0.00000   0.17373
  11        2S          0.00000   1.68016  -1.33606   0.00000   0.01277
  12 3   H  1S         -0.11448  -0.05365  -0.05471  -0.09481  -0.06013
  13        2S         -1.37708  -0.69107  -1.47299   0.02949   0.16167
  14 4   H  1S          0.11448  -0.05365  -0.05471   0.09481  -0.06013
  15        2S          1.37708  -0.69107  -1.47299  -0.02949   0.16167
                          11        12        13        14        15
                           V         V         V         V         V
     Eigenvalues --     0.34699   0.54932   1.03282   1.07547   1.07596
   1 1   B  1S         -0.01979  -0.00864  -0.03809   0.00000   0.04751
   2        2S         -0.08185  -1.51406   0.56044   0.00000  -0.66472
   3        2PX         0.00000   0.00000   0.00000   0.41191   0.00000
   4        2PY         0.01854   0.05776   0.33346   0.00000   0.28493
   5        2PZ         1.09692  -0.15926  -0.13128   0.00000   0.14808
   6        3S          0.34524   2.68316  -1.62839   0.00000   1.92953
   7        3PX         0.00000   0.00000   0.00000  -0.87835   0.00000
   8        3PY        -0.00662  -0.04928  -0.68124   0.00000  -0.57855
   9        3PZ        -1.05691  -0.38005   0.38564   0.00000  -0.45383
  10 2   H  1S         -0.06937  -0.25912  -1.32007   0.00000  -0.16499
  11        2S         -0.10019  -0.54980   2.03297   0.00000  -0.00113
  12 3   H  1S         -0.06221  -0.26655  -0.04122  -0.96614   0.90995
  13        2S         -0.09073  -0.53088   0.25287   1.36195  -1.51782
  14 4   H  1S         -0.06221  -0.26655  -0.04122   0.96614   0.90995
  15        2S         -0.09073  -0.53088   0.25287  -1.36195  -1.51782
     Alpha Density Matrix:
                           1         2         3         4         5
   1 1   B  1S          1.01205
   2        2S          0.03228   0.09001
   3        2PX        -0.00000   0.00000   0.18503
   4        2PY         0.00935  -0.01013   0.00000   0.15553
   5        2PZ         0.01732  -0.02561   0.00000  -0.00012   0.00806
   6        3S         -0.13068   0.10933   0.00000  -0.05151  -0.03480
   7        3PX        -0.00000   0.00000   0.07957   0.00000  -0.00000
   8        3PY         0.00665  -0.01045   0.00000   0.04329   0.00234
   9        3PZ         0.01419  -0.01009  -0.00000   0.00700   0.00322
  10 2   H  1S         -0.03762   0.05233  -0.00000   0.13101  -0.01937
  11        2S         -0.00041   0.02582  -0.00000   0.14223  -0.01075
  12 3   H  1S         -0.03583   0.04735   0.09865  -0.05313  -0.01385
  13        2S         -0.00214   0.02534   0.10461  -0.05025  -0.00648
  14 4   H  1S         -0.03583   0.04735  -0.09865  -0.05313  -0.01385
  15        2S         -0.00214   0.02534  -0.10461  -0.05025  -0.00648
                           6         7         8         9        10
   6        3S          0.17051
   7        3PX         0.00000   0.03422
   8        3PY        -0.02453   0.00000   0.01275
   9        3PZ        -0.01662  -0.00000   0.00289   0.00165
  10 2   H  1S          0.04011  -0.00000   0.03080  -0.00184   0.15642
  11        2S         -0.00185  -0.00000   0.03644   0.00224   0.14519
  12 3   H  1S          0.07778   0.04243  -0.01887  -0.00796  -0.01155
  13        2S          0.04402   0.04499  -0.01592  -0.00476  -0.02681
  14 4   H  1S          0.07778  -0.04243  -0.01887  -0.00796  -0.01155
  15        2S          0.04402  -0.04499  -0.01592  -0.00476  -0.02681
                          11        12        13        14        15
  11        2S          0.14432
  12 3   H  1S         -0.03029   0.09469
  13        2S         -0.03713   0.08413   0.08088
  14 4   H  1S         -0.03029  -0.01051  -0.02742   0.09469
  15        2S         -0.03713  -0.02742  -0.03740   0.08413   0.08088
     Beta Density Matrix:
                           1         2         3         4         5
   1 1   B  1S          1.01660
   2        2S          0.02735   0.09103
   3        2PX        -0.00000   0.00000   0.20695
   4        2PY         0.00198  -0.00107   0.00000   0.00002
   5        2PZ         0.01829  -0.02579  -0.00000   0.00036   0.00798
   6        3S         -0.15753   0.14494   0.00000  -0.00215  -0.04625
   7        3PX         0.00000  -0.00000   0.11005   0.00000   0.00000
   8        3PY        -0.00807   0.01149   0.00000  -0.00016  -0.00355
   9        3PZ         0.01857  -0.01630  -0.00000   0.00024   0.00522
  10 2   H  1S         -0.02595   0.03019   0.00000  -0.00043  -0.00946
  11        2S          0.01733  -0.00366  -0.00000   0.00008   0.00151
  12 3   H  1S         -0.03493   0.04461   0.09372  -0.00063  -0.01389
  13        2S         -0.00119   0.02351   0.09219  -0.00029  -0.00687
  14 4   H  1S         -0.03493   0.04461  -0.09372  -0.00063  -0.01389
  15        2S         -0.00119   0.02351  -0.09219  -0.00029  -0.00687
                           6         7         8         9        10
   6        3S          0.27087
   7        3PX        -0.00000   0.05852
   8        3PY         0.02060   0.00000   0.00158
   9        3PZ        -0.03063   0.00000  -0.00233   0.00347
  10 2   H  1S          0.05506  -0.00000   0.00421  -0.00622   0.01123
  11        2S         -0.00951   0.00000  -0.00067   0.00109  -0.00186
  12 3   H  1S          0.08067   0.04984   0.00619  -0.00911   0.01648
  13        2S          0.03908   0.04902   0.00306  -0.00440   0.00808
  14 4   H  1S          0.08067  -0.04984   0.00619  -0.00911   0.01648
  15        2S          0.03908  -0.04902   0.00306  -0.00440   0.00808
                          11        12        13        14        15
  11        2S          0.00048
  12 3   H  1S         -0.00268   0.06662
  13        2S         -0.00110   0.05366   0.04720
  14 4   H  1S         -0.00268  -0.01826  -0.02983   0.06662
  15        2S         -0.00110  -0.02983  -0.03493   0.05366   0.04720
    Full Mulliken population analysis:
                           1         2         3         4         5
   1 1   B  1S          2.02866
   2        2S          0.01090   0.18105
   3        2PX         0.00000   0.00000   0.39198
   4        2PY         0.00000   0.00000   0.00000   0.15555
   5        2PZ         0.00000   0.00000   0.00000   0.00000   0.01604
   6        3S         -0.05011   0.19713   0.00000   0.00000   0.00000
   7        3PX         0.00000   0.00000   0.10454   0.00000   0.00000
   8        3PY         0.00000   0.00000   0.00000   0.02378   0.00000
   9        3PZ         0.00000   0.00000   0.00000   0.00000   0.00465
  10 2   H  1S         -0.00075   0.01619  -0.00000   0.03949   0.00308
  11        2S          0.00147   0.00980  -0.00000   0.04604   0.00106
  12 3   H  1S         -0.00083   0.01804   0.05039   0.00813   0.00297
  13        2S         -0.00029   0.02161   0.05513   0.00818   0.00153
  14 4   H  1S         -0.00083   0.01804   0.05039   0.00813   0.00297
  15        2S         -0.00029   0.02161   0.05513   0.00818   0.00153
                           6         7         8         9        10
   6        3S          0.44137
   7        3PX         0.00000   0.09275
   8        3PY         0.00000   0.00000   0.01433
   9        3PZ         0.00000   0.00000   0.00000   0.00512
  10 2   H  1S          0.02758  -0.00000   0.01382   0.00113   0.16765
  11        2S         -0.00735  -0.00000   0.02150  -0.00071   0.09258
  12 3   H  1S          0.04591   0.03154   0.00250   0.00238   0.00001
  13        2S          0.05377   0.04893   0.00386   0.00195  -0.00132
  14 4   H  1S          0.04591   0.03154   0.00250   0.00238   0.00001
  15        2S          0.05377   0.04893   0.00386   0.00195  -0.00132
                          11        12        13        14        15
  11        2S          0.14481
  12 3   H  1S         -0.00232   0.16131
  13        2S         -0.00998   0.08900   0.12808
  14 4   H  1S         -0.00232  -0.00006  -0.00404   0.16131
  15        2S         -0.00998  -0.00404  -0.01888   0.08900   0.12808
     Gross orbital populations:
                         Total     Alpha     Beta      Spin
   1 1   B  1S          1.98793   0.99354   0.99438  -0.00084
   2        2S          0.49436   0.24336   0.25101  -0.00765
   3        2PX         0.70755   0.33919   0.36836  -0.02917
   4        2PY         0.29747   0.29735   0.00011   0.29724
   5        2PZ         0.03382   0.01758   0.01624   0.00134
   6        3S          0.80800   0.34502   0.46298  -0.11796
   7        3PX         0.35823   0.15393   0.20430  -0.05037
   8        3PY         0.08616   0.08769  -0.00153   0.08922
   9        3PZ         0.01885   0.00746   0.01140  -0.00394
  10 2   H  1S          0.35814   0.32192   0.03622   0.28570
  11        2S          0.28458   0.29330  -0.00872   0.30201
  12 3   H  1S          0.40493   0.23101   0.17392   0.05709
  13        2S          0.37753   0.21883   0.15870   0.06013
  14 4   H  1S          0.40493   0.23101   0.17392   0.05709
  15        2S          0.37753   0.21883   0.15870   0.06013
          Condensed to atoms (all electrons):
               1          2          3          4
     1  B    3.908632   0.172337   0.355694   0.355694
     2  H    0.172337   0.497615  -0.013616  -0.013616
     3  H    0.355694  -0.013616   0.467395  -0.027011
     4  H    0.355694  -0.013616  -0.027011   0.467395
          Atomic-Atomic Spin Densities.
               1          2          3          4
     1  B   -0.019186   0.136475   0.030284   0.030284
     2  H    0.136475   0.478977  -0.013870  -0.013870
     3  H    0.030284  -0.013870   0.101093  -0.000291
     4  H    0.030284  -0.013870  -0.000291   0.101093
 Mulliken charges and spin densities:
               1          2
     1  B    0.207642   0.177856
     2  H    0.357280   0.587712
     3  H    0.217539   0.117216
     4  H    0.217539   0.117216
 Sum of Mulliken charges =   1.00000   1.00000
 Mulliken charges and spin densities with hydrogens summed into heavy atoms:
               1          2
     1  B    1.000000   1.000000
 Electronic spatial extent (au):  <R**2>=             27.2291
 Charge=              1.0000 electrons
 Dipole moment (field-independent basis, Debye):
    X=             -0.0000    Y=              1.1573    Z=              0.5956  Tot=              1.3015
 Quadrupole moment (field-independent basis, Debye-Ang):
   XX=             -6.4922   YY=             -3.6278   ZZ=             -5.2420
   XY=             -0.0000   XZ=              0.0000   YZ=             -0.0921
 Traceless Quadrupole moment (field-independent basis, Debye-Ang):
   XX=             -1.3715   YY=              1.4929   ZZ=             -0.1213
   XY=             -0.0000   XZ=              0.0000   YZ=             -0.0921
 Octapole moment (field-independent basis, Debye-Ang**2):
  XXX=             -0.0000  YYY=              3.1362  ZZZ=              0.9881  XYY=              0.0000
  XXY=             -0.9481  XXZ=             -0.6908  XZZ=              0.0000  YZZ=              0.3644
  YYZ=             -0.7240  XYZ=              0.0000
 Hexadecapole moment (field-independent basis, Debye-Ang**3):
 XXXX=            -17.7587 YYYY=            -10.9978 ZZZZ=             -6.6110 XXXY=              0.0000
 XXXZ=              0.0000 YYYX=              0.0000 YYYZ=             -0.7209 ZZZX=             -0.0000
 ZZZY=             -0.0871 XXYY=             -4.8462 XXZZ=             -4.3006 YYZZ=             -3.3102
 XXYZ=              0.5049 YYXZ=             -0.0000 ZZXY=              0.0000
 N-N= 7.180436022662D+00 E-N=-7.104631960741D+01  KE= 2.570829202611D+01
 Symmetry A'   KE= 2.419094430914D+01
 Symmetry A"   KE= 1.517347716969D+00
 Symmetry A'   SP= 1.000000000000D+00
 Symmetry A"   SP=-1.965658538716D-15
 Orbital energies and kinetic energies (alpha):
                                 1                 2
   1         (A1)--O          -7.980361         10.802769
   2         O                -1.106609          0.880023
   3         O                -0.896573          0.796229
   4         O                -0.815476          0.759820
   5         V                -0.267510          0.651480
   6         V                -0.023459          0.758478
   7         V                 0.007983          0.639232
   8         V                 0.067778          0.987178
   9         V                 0.261138          1.376852
  10         V                 0.289065          1.429818
  11         V                 0.341402          1.590428
  12         V                 0.528710          1.410285
  13         V                 0.914992          2.348858
  14         V                 1.045789          2.450794
  15         V                 1.048803          2.379728
 Orbital energies and kinetic energies (beta):
                                 1                 2
   1         (A1)--O          -7.977094         10.814438
   2         O                -0.976866          0.897486
   3         O                -0.781928          0.757528
   4         V                -0.409113          0.641659
   5         V                -0.257227          0.630897
   6         V                 0.029798          0.625490
   7         V                 0.042717          0.602301
   8         V                 0.096116          0.965840
   9         V                 0.289863          1.424291
  10         V                 0.325379          1.539007
  11         V                 0.346989          1.604814
  12         V                 0.549324          1.419374
  13         V                 1.032821          2.467800
  14         V                 1.075465          2.401288
  15         V                 1.075964          2.469758
 Total kinetic energy from orbitals= 2.570829202611D+01
                          Isotropic Fermi Contact Couplings
        Atom                 a.u.       MegaHertz       Gauss      10(-4) cm-1
     1  B(11)             -0.09542    -136.86178     -48.83569     -45.65218
     2  H(1)               0.22413    1001.85585     357.48708     334.18314
     3  H(1)               0.04471     199.82745      71.30340      66.65526
     4  H(1)               0.04471     199.82745      71.30340      66.65526
 --------------------------------------------------------
       Center         ----  Spin Dipole Couplings  ----
                      3XX-RR        3YY-RR        3ZZ-RR
 --------------------------------------------------------
     1   Atom       -0.204514      0.366470     -0.161956
     2   Atom       -0.038048      0.049494     -0.011446
     3   Atom        0.039824     -0.018542     -0.021282
     4   Atom        0.039824     -0.018542     -0.021282
 --------------------------------------------------------
                        XY            XZ            YZ
 --------------------------------------------------------
     1   Atom       -0.000000     -0.000000     -0.031165
     2   Atom       -0.000000      0.000000     -0.045070
     3   Atom       -0.007701     -0.022075     -0.001972
     4   Atom        0.007701      0.022075     -0.001972
 --------------------------------------------------------


 ---------------------------------------------------------------------------------
              Anisotropic Spin Dipole Couplings in Principal Axis System
 ---------------------------------------------------------------------------------

       Atom             a.u.   MegaHertz   Gauss  10(-4) cm-1        Axes

              Baa    -0.2045   -35.016   -12.495   -11.680  1.0000  0.0000  0.0000
     1 B(11)  Bbb    -0.1638   -28.043   -10.006    -9.354 -0.0000  0.0587  0.9983
              Bcc     0.3683    63.059    22.501    21.034 -0.0000  0.9983 -0.0587
 
              Baa    -0.0380   -20.301    -7.244    -6.772  1.0000  0.0000  0.0000
     2 H(1)   Bbb    -0.0354   -18.877    -6.736    -6.297 -0.0000  0.4690  0.8832
              Bcc     0.0734    39.178    13.980    13.068 -0.0000  0.8832 -0.4690
 
              Baa    -0.0301   -16.044    -5.725    -5.352  0.3168  0.3616  0.8769
     3 H(1)   Bbb    -0.0176    -9.379    -3.347    -3.129 -0.0199  0.9268 -0.3750
              Bcc     0.0476    25.424     9.072     8.480  0.9483 -0.1014 -0.3008
 
              Baa    -0.0301   -16.044    -5.725    -5.352 -0.3168  0.3616  0.8769
     4 H(1)   Bbb    -0.0176    -9.379    -3.347    -3.129  0.0199  0.9268 -0.3750
              Bcc     0.0476    25.424     9.072     8.480  0.9483  0.1014  0.3008
 

 ---------------------------------------------------------------------------------

 1\1\GINC-IISERK51\SP\UHF\3-21G\B1H3(1+,2)\GAUSSIAN\13-Jun-2025\0\\# hf
 /3-21g pop=full geom=connectivity\\Title Card Required\\1,2\B,0,0.,0.,
 0.155106\H,0,0.,1.169881,-0.25851\H,0,1.013147,-0.584941,-0.25851\H,0,
 -1.013147,-0.584941,-0.25851\\Version=EM64L-G16RevB.01\HF=-25.7560315\
 S2=0.762507\S2-1=0.\S2A=0.75006\RMSD=3.377e-09\Dipole=0.0000001,0.4553
 114,0.2343163\Quadrupole=-1.0197059,1.1099029,-0.0901969,0.0000007,0.,
 -0.0684709\PG=C03V [C3(B1),3SGV(H1)]\\@


 Ideas are like rabbits. You get a couple and learn
 how to handle them, and pretty soon you have a dozen.
                                    -- John Steinbeck
 Job cpu time:       0 days  0 hours  0 minutes  0.4 seconds.
 Elapsed time:       0 days  0 hours  0 minutes  0.4 seconds.
 File lengths (MBytes):  RWF=      6 Int=      0 D2E=      0 Chk=      1 Scr=      1
 Normal termination of Gaussian 16 at Fri Jun 13 20:56:07 2025.
