 Entering Gaussian System, Link 0=g16
 Input=/home/gaussian/Documents/Summer_Internship/Aromaticity/hetrocyclic/pyridine/meth_pyridine_isomer_opt.com
 Output=/home/gaussian/Documents/Summer_Internship/Aromaticity/hetrocyclic/pyridine/meth_pyridine_isomer_opt.log
 Initial command:
 /usr/local/g16/l1.exe "/home/gaussian/tmp/Gau-46866.inp" -scrdir="/home/gaussian/tmp/"
 Entering Link 1 = /usr/local/g16/l1.exe PID=     46869.
  
 Copyright (c) 1988-2017, Gaussian, Inc.  All Rights Reserved.
  
 This is part of the Gaussian(R) 16 program.  It is based on
 the Gaussian(R) 09 system (copyright 2009, Gaussian, Inc.),
 the Gaussian(R) 03 system (copyright 2003, Gaussian, Inc.),
 the Gaussian(R) 98 system (copyright 1998, Gaussian, Inc.),
 the Gaussian(R) 94 system (copyright 1995, Gaussian, Inc.),
 the Gaussian 92(TM) system (copyright 1992, Gaussian, Inc.),
 the Gaussian 90(TM) system (copyright 1990, Gaussian, Inc.),
 the Gaussian 88(TM) system (copyright 1988, Gaussian, Inc.),
 the Gaussian 86(TM) system (copyright 1986, Carnegie Mellon
 University), and the Gaussian 82(TM) system (copyright 1983,
 Carnegie Mellon University). Gaussian is a federally registered
 trademark of Gaussian, Inc.
  
 This software contains proprietary and confidential information,
 including trade secrets, belonging to Gaussian, Inc.
  
 This software is provided under written license and may be
 used, copied, transmitted, or stored only in accord with that
 written license.
  
 The following legend is applicable only to US Government
 contracts under FAR:
  
                    RESTRICTED RIGHTS LEGEND
  
 Use, reproduction and disclosure by the US Government is
 subject to restrictions as set forth in subparagraphs (a)
 and (c) of the Commercial Computer Software - Restricted
 Rights clause in FAR 52.227-19.
  
 Gaussian, Inc.
 340 Quinnipiac St., Bldg. 40, Wallingford CT 06492
  
  
 ---------------------------------------------------------------
 Warning -- This program may not be used in any manner that
 competes with the business of Gaussian, Inc. or will provide
 assistance to any competitor of Gaussian, Inc.  The licensee
 of this program is prohibited from giving any competitor of
 Gaussian, Inc. access to this program.  By using this program,
 the user acknowledges that Gaussian, Inc. is engaged in the
 business of creating and licensing software in the field of
 computational chemistry and represents and warrants to the
 licensee that it is not a competitor of Gaussian, Inc. and that
 it will not use this program in any manner prohibited above.
 ---------------------------------------------------------------
  

 Cite this work as:
 Gaussian 16, Revision B.01,
 M. J. Frisch, G. W. Trucks, H. B. Schlegel, G. E. Scuseria, 
 M. A. Robb, J. R. Cheeseman, G. Scalmani, V. Barone, 
 G. A. Petersson, H. Nakatsuji, X. Li, M. Caricato, A. V. Marenich, 
 J. Bloino, B. G. Janesko, R. Gomperts, B. Mennucci, H. P. Hratchian, 
 J. V. Ortiz, A. F. Izmaylov, J. L. Sonnenberg, D. Williams-Young, 
 F. Ding, F. Lipparini, F. Egidi, J. Goings, B. Peng, A. Petrone, 
 T. Henderson, D. Ranasinghe, V. G. Zakrzewski, J. Gao, N. Rega, 
 G. Zheng, W. Liang, M. Hada, M. Ehara, K. Toyota, R. Fukuda, 
 J. Hasegawa, M. Ishida, T. Nakajima, Y. Honda, O. Kitao, H. Nakai, 
 T. Vreven, K. Throssell, J. A. Montgomery, Jr., J. E. Peralta, 
 F. Ogliaro, M. J. Bearpark, J. J. Heyd, E. N. Brothers, K. N. Kudin, 
 V. N. Staroverov, T. A. Keith, R. Kobayashi, J. Normand, 
 K. Raghavachari, A. P. Rendell, J. C. Burant, S. S. Iyengar, 
 J. Tomasi, M. Cossi, J. M. Millam, M. Klene, C. Adamo, R. Cammi, 
 J. W. Ochterski, R. L. Martin, K. Morokuma, O. Farkas, 
 J. B. Foresman, and D. J. Fox, Gaussian, Inc., Wallingford CT, 2016.
 
 ******************************************
 Gaussian 16:  EM64L-G16RevB.01 20-Dec-2017
                14-Jun-2025 
 ******************************************
 %chk=meth_pyridine_isomer_opt.chk
 -----------------------------------------
 # opt freq am1 pop=full geom=connectivity
 -----------------------------------------
 1/18=20,19=15,26=1,38=1,57=2/1,3;
 2/9=110,12=2,17=6,18=5,40=1/2;
 3/5=2,25=1,41=700000,71=1/1,2,3;
 4/35=1/1;
 5/5=2,35=1,38=5/2;
 6/7=3,28=1/1;
 7//1,2,3,16;
 1/18=20,19=15,26=1/3(2);
 2/9=110/2;
 99//99;
 2/9=110/2;
 3/5=2,25=1,41=700000,71=1,135=20/1,2,3;
 4/5=5,16=3,35=1/1;
 5/5=2,35=1,38=5/2;
 7//1,2,3,16;
 1/18=20,19=15,26=1/3(-5);
 2/9=110/2;
 6/7=3,19=2,28=1/1;
 99/9=1/99;
 --------------------------------------
 meth-pyridine_isomer opt freq with AM1
 --------------------------------------
 Symbolic Z-matrix:
 Charge =  0 Multiplicity = 1
 C                     0.00263   0.90536   0. 
 C                     0.00365   0.18578   1.20208 
 C                     0.00365  -1.21871   1.14907 
 C                     0.00365  -1.21871  -1.14907 
 C                     0.00365   0.18578  -1.20208 
 H                     0.00552   0.70538   2.16895 
 H                     0.00442  -1.81749   2.07749 
 H                     0.00442  -1.81749  -2.07749 
 N                     0.00339  -1.92213   0. 
 C                    -0.01255   2.38474   0. 
 H                    -0.86018   0.48643  -1.75733 
 H                     0.86839   0.48648  -1.75589 
 H                    -0.87548   2.91092   0.35129 
 H                     0.8394    2.92851  -0.35129 
 

 GradGradGradGradGradGradGradGradGradGradGradGradGradGradGradGradGradGrad
 Berny optimization.
 Initialization pass.
                           ----------------------------
                           !    Initial Parameters    !
                           ! (Angstroms and Degrees)  !
 --------------------------                            --------------------------
 ! Name  Definition              Value          Derivative Info.                !
 --------------------------------------------------------------------------------
 ! R1    R(1,2)                  1.401          estimate D2E/DX2                !
 ! R2    R(1,5)                  1.401          estimate D2E/DX2                !
 ! R3    R(1,10)                 1.4795         estimate D2E/DX2                !
 ! R4    R(2,3)                  1.4055         estimate D2E/DX2                !
 ! R5    R(2,6)                  1.0976         estimate D2E/DX2                !
 ! R6    R(3,7)                  1.1048         estimate D2E/DX2                !
 ! R7    R(3,9)                  1.3473         estimate D2E/DX2                !
 ! R8    R(4,5)                  1.4055         estimate D2E/DX2                !
 ! R9    R(4,8)                  1.1048         estimate D2E/DX2                !
 ! R10   R(4,9)                  1.3473         estimate D2E/DX2                !
 ! R11   R(5,11)                 1.07           estimate D2E/DX2                !
 ! R12   R(5,12)                 1.07           estimate D2E/DX2                !
 ! R13   R(10,13)                1.07           estimate D2E/DX2                !
 ! R14   R(10,14)                1.07           estimate D2E/DX2                !
 ! A1    A(2,1,5)              118.1897         estimate D2E/DX2                !
 ! A2    A(2,1,10)             120.9038         estimate D2E/DX2                !
 ! A3    A(5,1,10)             120.9038         estimate D2E/DX2                !
 ! A4    A(1,2,3)              118.7439         estimate D2E/DX2                !
 ! A5    A(1,2,6)              120.8412         estimate D2E/DX2                !
 ! A6    A(3,2,6)              120.4149         estimate D2E/DX2                !
 ! A7    A(2,3,7)              120.6587         estimate D2E/DX2                !
 ! A8    A(2,3,9)              123.6344         estimate D2E/DX2                !
 ! A9    A(7,3,9)              115.7069         estimate D2E/DX2                !
 ! A10   A(5,4,8)              120.6587         estimate D2E/DX2                !
 ! A11   A(5,4,9)              123.6344         estimate D2E/DX2                !
 ! A12   A(8,4,9)              115.7069         estimate D2E/DX2                !
 ! A13   A(1,5,4)              118.7439         estimate D2E/DX2                !
 ! A14   A(1,5,11)             107.4784         estimate D2E/DX2                !
 ! A15   A(1,5,12)             107.4784         estimate D2E/DX2                !
 ! A16   A(4,5,11)             107.4784         estimate D2E/DX2                !
 ! A17   A(4,5,12)             107.4784         estimate D2E/DX2                !
 ! A18   A(11,5,12)            107.7517         estimate D2E/DX2                !
 ! A19   A(3,9,4)              117.0535         estimate D2E/DX2                !
 ! A20   A(1,10,13)            120.0            estimate D2E/DX2                !
 ! A21   A(1,10,14)            120.0            estimate D2E/DX2                !
 ! A22   A(13,10,14)           120.0            estimate D2E/DX2                !
 ! D1    D(5,1,2,3)             -0.0928         estimate D2E/DX2                !
 ! D2    D(5,1,2,6)            179.8416         estimate D2E/DX2                !
 ! D3    D(10,1,2,3)           179.317          estimate D2E/DX2                !
 ! D4    D(10,1,2,6)            -0.7485         estimate D2E/DX2                !
 ! D5    D(2,1,5,4)              0.0928         estimate D2E/DX2                !
 ! D6    D(2,1,5,11)           122.2232         estimate D2E/DX2                !
 ! D7    D(2,1,5,12)          -122.0375         estimate D2E/DX2                !
 ! D8    D(10,1,5,4)          -179.317          estimate D2E/DX2                !
 ! D9    D(10,1,5,11)          -57.1866         estimate D2E/DX2                !
 ! D10   D(10,1,5,12)           58.5527         estimate D2E/DX2                !
 ! D11   D(2,1,10,13)          -67.4194         estimate D2E/DX2                !
 ! D12   D(2,1,10,14)          112.5806         estimate D2E/DX2                !
 ! D13   D(5,1,10,13)          111.9744         estimate D2E/DX2                !
 ! D14   D(5,1,10,14)          -68.0256         estimate D2E/DX2                !
 ! D15   D(1,2,3,7)           -179.9989         estimate D2E/DX2                !
 ! D16   D(1,2,3,9)              0.0344         estimate D2E/DX2                !
 ! D17   D(6,2,3,7)              0.0663         estimate D2E/DX2                !
 ! D18   D(6,2,3,9)           -179.9003         estimate D2E/DX2                !
 ! D19   D(2,3,9,4)              0.0254         estimate D2E/DX2                !
 ! D20   D(7,3,9,4)           -179.9428         estimate D2E/DX2                !
 ! D21   D(8,4,5,1)            179.9989         estimate D2E/DX2                !
 ! D22   D(8,4,5,11)            57.8685         estimate D2E/DX2                !
 ! D23   D(8,4,5,12)           -57.8707         estimate D2E/DX2                !
 ! D24   D(9,4,5,1)             -0.0344         estimate D2E/DX2                !
 ! D25   D(9,4,5,11)          -122.1648         estimate D2E/DX2                !
 ! D26   D(9,4,5,12)           122.0959         estimate D2E/DX2                !
 ! D27   D(5,4,9,3)             -0.0254         estimate D2E/DX2                !
 ! D28   D(8,4,9,3)            179.9428         estimate D2E/DX2                !
 --------------------------------------------------------------------------------
 Trust Radius=3.00D-01 FncErr=1.00D-07 GrdErr=1.00D-07 EigMax=2.50D+02 EigMin=1.00D-04
 Number of steps in this run=     74 maximum allowed number of steps=    100.
 GradGradGradGradGradGradGradGradGradGradGradGradGradGradGradGradGradGrad

                          Input orientation:                          
 ---------------------------------------------------------------------
 Center     Atomic      Atomic             Coordinates (Angstroms)
 Number     Number       Type             X           Y           Z
 ---------------------------------------------------------------------
      1          6           0        0.002628    0.905356    0.000000
      2          6           0        0.003651    0.185782    1.202077
      3          6           0        0.003651   -1.218711    1.149074
      4          6           0        0.003651   -1.218711   -1.149074
      5          6           0        0.003651    0.185782   -1.202077
      6          1           0        0.005517    0.705383    2.168950
      7          1           0        0.004424   -1.817492    2.077492
      8          1           0        0.004424   -1.817492   -2.077492
      9          7           0        0.003391   -1.922126    0.000000
     10          6           0       -0.012551    2.384741    0.000000
     11          1           0       -0.860180    0.486428   -1.757332
     12          1           0        0.868386    0.486482   -1.755893
     13          1           0       -0.875476    2.910915    0.351285
     14          1           0        0.839396    2.928510   -0.351285
 ---------------------------------------------------------------------
                    Distance matrix (angstroms):
                    1          2          3          4          5
     1  C    0.000000
     2  C    1.400991   0.000000
     3  C    2.414960   1.405493   0.000000
     4  C    2.414960   2.738706   2.298148   0.000000
     5  C    1.400991   2.404154   2.738706   1.405493   0.000000
     6  H    2.178151   1.097648   2.177680   3.835547   3.410837
     7  H    3.424891   2.186197   1.104762   3.281656   3.843004
     8  H    3.424891   3.843004   3.281656   1.104762   2.186197
     9  N    2.827482   2.426575   1.347280   1.347280   2.426575
    10  C    1.479463   2.506127   3.782261   3.782261   2.506127
    11  H    2.002037   3.097530   3.478634   2.005911   1.070000
    12  H    2.002037   3.096413   3.477684   2.005911   1.070000
    13  H    2.217371   2.987150   4.296876   4.480821   3.257629
    14  H    2.217371   3.260976   4.488763   4.305158   2.990798
                    6          7          8          9         10
     6  H    0.000000
     7  H    2.524532   0.000000
     8  H    4.939349   4.154984   0.000000
     9  N    3.407074   2.080126   2.080126   0.000000
    10  C    2.743158   4.687752   4.687752   4.306897   0.000000
    11  H    4.026545   4.556475   2.481550   3.104046   2.722184
    12  H    4.024532   4.555170   2.481563   3.103671   2.731776
    13  H    2.990723   5.109975   5.388044   4.924845   1.070000
    14  H    3.462548   5.396358   5.118741   4.934671   1.070000
                   11         12         13         14
    11  H    0.000000
    12  H    1.728567   0.000000
    13  H    3.213198   3.655015   0.000000
    14  H    3.290789   2.817315   1.853294   0.000000
 Stoichiometry    C6H7N
 Framework group  C1[X(C6H7N)]
 Deg. of freedom    36
 Full point group                 C1      NOp   1
 Largest Abelian subgroup         C1      NOp   1
 Largest concise Abelian subgroup C1      NOp   1
                         Standard orientation:                         
 ---------------------------------------------------------------------
 Center     Atomic      Atomic             Coordinates (Angstroms)
 Number     Number       Type             X           Y           Z
 ---------------------------------------------------------------------
      1          6           0       -0.949750    0.031039   -0.005414
      2          6           0       -0.224848    1.229839   -0.018514
      3          6           0        1.179388    1.170663   -0.013101
      4          6           0        1.169187   -1.127295    0.014663
      5          6           0       -0.235520   -1.174116    0.010530
      6          1           0       -0.740142    2.198895   -0.033826
      7          1           0        1.782284    2.096361   -0.023055
      8          1           0        1.763840   -2.058279    0.027140
      9          7           0        1.877691    0.018593    0.003431
     10          6           0       -2.429163    0.037729    0.004736
     11          1           0       -0.541515   -1.717554    0.879979
     12          1           0       -0.535781   -1.737023   -0.848468
     13          1           0       -2.956656    0.401737    0.861561
     14          1           0       -2.971634   -0.321440   -0.844748
 ---------------------------------------------------------------------
 Rotational constants (GHZ):           5.6627552           2.6137428           1.8269039
 Standard basis: VSTO-6G (5D, 7F)
 There are    35 symmetry adapted cartesian basis functions of A   symmetry.
 There are    35 symmetry adapted basis functions of A   symmetry.
    35 basis functions,   210 primitive gaussians,    35 cartesian basis functions
    18 alpha electrons       18 beta electrons
       nuclear repulsion energy       161.4572510092 Hartrees.
 Integral buffers will be    131072 words long.
 Regular integral format.
 Two-electron integral symmetry is turned off.
 Do NDO integrals.
 One-electron integrals computed using PRISM.
 NBasis=    35 RedAO= F EigKep=  0.00D+00  NBF=    35
 NBsUse=    35 1.00D-04 EigRej=  0.00D+00 NBFU=    35
 Simple Huckel Guess.
 Keep J ints in memory in canonical form, NReq=862419.
 Overlap will be assumed to be unity.
 Requested convergence on RMS density matrix=1.00D-08 within 128 cycles.
 Requested convergence on MAX density matrix=1.00D-06.
 Requested convergence on             energy=1.00D-06.
 No special actions if energy rises.
 SCF Done:  E(RAM1) =  0.171126787103     A.U. after   16 cycles
            NFock= 15  Conv=0.20D-08     -V/T= 1.0028

 **********************************************************************

            Population analysis using the SCF Density.

 **********************************************************************

 Orbital symmetries:
       Occupied  (A) (A) (A) (A) (A) (A) (A) (A) (A) (A) (A) (A)
                 (A) (A) (A) (A) (A) (A)
       Virtual   (A) (A) (A) (A) (A) (A) (A) (A) (A) (A) (A) (A)
                 (A) (A) (A) (A) (A)
 The electronic state is 1-A.
 Alpha  occ. eigenvalues --   -1.49376  -1.26512  -1.18331  -1.02247  -0.89634
 Alpha  occ. eigenvalues --   -0.82414  -0.63615  -0.62001  -0.61284  -0.59828
 Alpha  occ. eigenvalues --   -0.52496  -0.51692  -0.50405  -0.46597  -0.45789
 Alpha  occ. eigenvalues --   -0.39151  -0.38397  -0.27849
 Alpha virt. eigenvalues --   -0.04670   0.01987   0.07962   0.12530   0.13033
 Alpha virt. eigenvalues --    0.14164   0.14699   0.15286   0.16074   0.16689
 Alpha virt. eigenvalues --    0.16736   0.17688   0.18474   0.19202   0.20106
 Alpha virt. eigenvalues --    0.20644   0.24961
     Molecular Orbital Coefficients:
                           1         2         3         4         5
                           O         O         O         O         O
     Eigenvalues --    -1.49376  -1.26512  -1.18331  -1.02247  -0.89634
   1 1   C  1S          0.37407  -0.44392   0.15898   0.13188  -0.04503
   2        1PX         0.09252   0.04572  -0.01822  -0.29474  -0.03966
   3        1PY        -0.02343   0.04820   0.20973  -0.00285  -0.28959
   4        1PZ         0.00034  -0.00039   0.00091   0.00114  -0.00373
   5 2   C  1S          0.31497  -0.11738   0.48412  -0.26942  -0.33836
   6        1PX         0.04372   0.13747   0.06025  -0.13214   0.16134
   7        1PY        -0.10302   0.07283  -0.00801  -0.02648   0.00736
   8        1PZ         0.00168  -0.00129   0.00078   0.00121  -0.00130
   9 3   C  1S          0.33341   0.28245   0.39573  -0.15706   0.33461
  10        1PX        -0.04121   0.10847  -0.10984   0.17292   0.23959
  11        1PY        -0.12186  -0.12890   0.03284  -0.11555  -0.04906
  12        1PZ         0.00116   0.00166  -0.00119   0.00257   0.00192
  13 4   C  1S          0.39109   0.15985  -0.41691  -0.00287  -0.36933
  14        1PX        -0.06109   0.15697   0.07500   0.18952  -0.18539
  15        1PY         0.11671   0.14447   0.03433   0.11634  -0.01977
  16        1PZ        -0.00195  -0.00113   0.00042  -0.00055  -0.00118
  17 5   C  1S          0.40901  -0.30537  -0.38080  -0.23098   0.26889
  18        1PX         0.05024   0.11816  -0.11681  -0.08401  -0.18109
  19        1PY         0.09198  -0.05752   0.07591   0.02963  -0.03919
  20        1PZ        -0.00157   0.00185  -0.00081  -0.00136  -0.00142
  21 6   H  1S          0.07743  -0.04614   0.17266  -0.08521  -0.17458
  22 7   H  1S          0.07670   0.08430   0.13718  -0.06426   0.18147
  23 8   H  1S          0.09493   0.04284  -0.15281  -0.00088  -0.19486
  24 9   N  1S          0.39898   0.53675  -0.03371   0.34840   0.05454
  25        1PX        -0.15196  -0.11491   0.00174  -0.00472   0.00644
  26        1PY        -0.01002   0.02202   0.19105  -0.05723   0.40789
  27        1PZ        -0.00057  -0.00085  -0.00220   0.00072  -0.00514
  28 10  C  1S          0.13101  -0.31070   0.12882   0.59785   0.04591
  29        1PX         0.06849  -0.10523   0.03617   0.02429  -0.01501
  30        1PY        -0.00421   0.00885   0.03348  -0.00084  -0.06576
  31        1PZ        -0.00046   0.00104   0.00147  -0.00030  -0.00723
  32 11  H  1S          0.13156  -0.12059  -0.14971  -0.08328   0.14660
  33 12  H  1S          0.13186  -0.12128  -0.14991  -0.08061   0.14743
  34 13  H  1S          0.03869  -0.10088   0.05077   0.24346   0.00801
  35 14  H  1S          0.04001  -0.10399   0.03797   0.24393   0.03959
                           6         7         8         9        10
                           O         O         O         O         O
     Eigenvalues --    -0.82414  -0.63615  -0.62001  -0.61284  -0.59828
   1 1   C  1S          0.36120   0.07145   0.08532  -0.27101   0.00728
   2        1PX         0.16246  -0.23479  -0.03592   0.04539  -0.00029
   3        1PY        -0.02220  -0.01521   0.36140   0.13231  -0.06653
   4        1PZ        -0.00067   0.00021   0.05861   0.02938   0.32440
   5 2   C  1S         -0.05890   0.06945  -0.02782   0.23446  -0.02366
   6        1PX        -0.19937  -0.20133  -0.33080  -0.18216   0.07298
   7        1PY        -0.23285   0.27115  -0.18331   0.22026   0.00718
   8        1PZ         0.00279  -0.00412   0.03195   0.01151   0.18506
   9 3   C  1S         -0.26250  -0.00279  -0.00290  -0.23134   0.02488
  10        1PX         0.08680   0.19889   0.34419  -0.04762  -0.05168
  11        1PY        -0.21043   0.24318  -0.18240  -0.23332   0.05800
  12        1PZ         0.00177  -0.00295   0.02116   0.01686   0.17566
  13 4   C  1S         -0.25884  -0.02751   0.09923  -0.21450  -0.00054
  14        1PX         0.08158   0.29206  -0.26112  -0.15689   0.05311
  15        1PY         0.22102  -0.21195  -0.31020   0.16570   0.04711
  16        1PZ        -0.00254   0.00411   0.04064   0.02174   0.31209
  17 5   C  1S         -0.02055   0.03486  -0.06309   0.17302   0.00264
  18        1PX        -0.21249  -0.27463   0.33003   0.00089  -0.05889
  19        1PY         0.24166  -0.24218  -0.10582  -0.29099   0.04367
  20        1PZ        -0.00217   0.00559   0.07551   0.04465   0.57369
  21 6   H  1S         -0.08847   0.25177  -0.01662   0.31128  -0.03350
  22 7   H  1S         -0.18269   0.19907   0.02516  -0.26979   0.02519
  23 8   H  1S         -0.18959   0.20488   0.13105  -0.26986  -0.00486
  24 9   N  1S          0.24383   0.20431  -0.02434   0.22283  -0.01623
  25        1PX        -0.00337   0.30361   0.03282  -0.00772  -0.00738
  26        1PY        -0.00322  -0.04345   0.41717   0.06775  -0.07464
  27        1PZ        -0.00037   0.00170   0.02167   0.01674   0.24257
  28 10  C  1S         -0.35635  -0.11844  -0.02286   0.03751   0.00280
  29        1PX         0.19180   0.25472   0.09019  -0.21589   0.00589
  30        1PY        -0.00471  -0.00710   0.13452   0.05180   0.01706
  31        1PZ        -0.00153  -0.00417   0.08491   0.03923   0.22700
  32 11  H  1S         -0.04717   0.16514  -0.01823   0.21235   0.33382
  33 12  H  1S         -0.05290   0.16095  -0.10042   0.16852  -0.33596
  34 13  H  1S         -0.21575  -0.14845   0.03551   0.12926   0.12733
  35 14  H  1S         -0.21449  -0.14362  -0.12149   0.06424  -0.12948
                          11        12        13        14        15
                           O         O         O         O         O
     Eigenvalues --    -0.52496  -0.51692  -0.50405  -0.46597  -0.45789
   1 1   C  1S          0.02290  -0.00506  -0.01195   0.00327  -0.00437
   2        1PX        -0.07316   0.04097   0.51575   0.00905  -0.01536
   3        1PY        -0.09452   0.02042  -0.01376   0.02404   0.41054
   4        1PZ         0.01708   0.12830  -0.00925  -0.01011  -0.05288
   5 2   C  1S         -0.07170  -0.02064   0.04517  -0.00517  -0.03405
   6        1PX        -0.21035   0.09054  -0.16915  -0.00047  -0.03369
   7        1PY         0.29958  -0.10323  -0.11322  -0.02168  -0.37764
   8        1PZ        -0.00409   0.02138  -0.00406   0.28241  -0.04190
   9 3   C  1S         -0.01822   0.02571  -0.06787   0.00350   0.04304
  10        1PX         0.23756  -0.07122   0.20720   0.00021   0.02623
  11        1PY         0.31480   0.01411   0.20668   0.03311   0.28965
  12        1PZ        -0.02203  -0.08101  -0.00711   0.50283  -0.04454
  13 4   C  1S          0.06563  -0.03620  -0.04760  -0.00539  -0.05158
  14        1PX        -0.27968   0.10677   0.10607   0.00197  -0.00689
  15        1PY         0.34536  -0.01652  -0.12200   0.01832   0.26329
  16        1PZ        -0.04438  -0.19583   0.00854   0.25028   0.02755
  17 5   C  1S          0.05022   0.01789   0.05843   0.00250   0.01891
  18        1PX         0.25136  -0.10597  -0.07377   0.00371   0.05722
  19        1PY         0.25751  -0.06781   0.22136  -0.02402  -0.36318
  20        1PZ        -0.04527  -0.19703   0.01350  -0.35343   0.05136
  21 6   H  1S          0.24204  -0.11325   0.01627  -0.02316  -0.30700
  22 7   H  1S          0.29371  -0.00620   0.18449   0.02005   0.25417
  23 8   H  1S         -0.30876   0.03384   0.09783  -0.01544  -0.24205
  24 9   N  1S         -0.03055   0.00801   0.13419   0.00556   0.01014
  25        1PX        -0.04738   0.02736   0.34471   0.01146   0.03379
  26        1PY        -0.12678  -0.05997  -0.00812  -0.01351  -0.27118
  27        1PZ        -0.03611  -0.18310   0.00363   0.58293   0.00148
  28 10  C  1S         -0.00063   0.00023  -0.01639  -0.00223   0.00183
  29        1PX         0.08553  -0.03637  -0.50058  -0.00346   0.01215
  30        1PY         0.06324   0.23987  -0.00469   0.02037   0.08721
  31        1PZ         0.12384   0.57611  -0.02546   0.03497  -0.12144
  32 11  H  1S         -0.16981  -0.06184  -0.03190  -0.24626   0.20197
  33 12  H  1S         -0.11956   0.18435  -0.05735   0.26694   0.14131
  34 13  H  1S          0.06304   0.44172   0.17415   0.02939  -0.06270
  35 14  H  1S         -0.13062  -0.40896   0.21527  -0.02765   0.05430
                          16        17        18        19        20
                           O         O         O         V         V
     Eigenvalues --    -0.39151  -0.38397  -0.27849  -0.04670   0.01987
   1 1   C  1S          0.00706  -0.00167   0.00047   0.00015  -0.00643
   2        1PX        -0.11597   0.01381  -0.00637  -0.00037  -0.00280
   3        1PY        -0.03016   0.04010  -0.00317  -0.01014   0.00922
   4        1PZ         0.04708   0.47129  -0.39308   0.34867   0.51958
   5 2   C  1S          0.05356   0.01742  -0.05676  -0.04544  -0.02736
   6        1PX         0.28919  -0.06210   0.05235   0.04184   0.02161
   7        1PY        -0.02116  -0.03215   0.07135   0.06019   0.02405
   8        1PZ         0.04813   0.56640   0.25644   0.30790  -0.41683
   9 3   C  1S         -0.08146   0.00183   0.01753   0.01337   0.00974
  10        1PX        -0.25741   0.04160  -0.03313  -0.02022  -0.00995
  11        1PY         0.11395   0.01101  -0.00319  -0.00950   0.00066
  12        1PZ         0.01593   0.22848   0.37566  -0.42206  -0.00292
  13 4   C  1S         -0.07131   0.01018  -0.01526  -0.01279  -0.01170
  14        1PX        -0.26481   0.00889   0.02499   0.01572   0.01294
  15        1PY        -0.12720   0.02447  -0.01268   0.00047  -0.00119
  16        1PZ        -0.03768  -0.39704  -0.30293   0.42547  -0.48775
  17 5   C  1S          0.04614  -0.02432   0.05082   0.03877   0.02740
  18        1PX         0.29332   0.00343  -0.04343  -0.03312  -0.01588
  19        1PY         0.05239  -0.05243   0.07956   0.06472   0.04551
  20        1PZ        -0.00068  -0.02981   0.09546  -0.04539   0.00227
  21 6   H  1S         -0.12789  -0.00128   0.00563   0.01036   0.00370
  22 7   H  1S         -0.13237   0.03472  -0.02531  -0.02141  -0.01210
  23 8   H  1S         -0.12032  -0.01150   0.02334   0.02074   0.01554
  24 9   N  1S          0.33736  -0.02970   0.00116   0.00050  -0.00100
  25        1PX         0.64325  -0.05666   0.00466   0.00342   0.00150
  26        1PY         0.00042  -0.01428   0.00218   0.00218   0.00681
  27        1PZ        -0.03418  -0.32310  -0.13139  -0.13103   0.43009
  28 10  C  1S          0.04683  -0.00587   0.00021  -0.00083   0.00197
  29        1PX         0.14897  -0.01546   0.00143   0.00302   0.00442
  30        1PY        -0.03974  -0.27924   0.60740   0.50461   0.30748
  31        1PZ         0.00495  -0.02803  -0.26224  -0.25866  -0.12950
  32 11  H  1S         -0.09538  -0.01775   0.15606  -0.17631  -0.00099
  33 12  H  1S         -0.09058   0.05068  -0.16044   0.17034   0.00593
  34 13  H  1S         -0.05323  -0.14005   0.06015  -0.05927  -0.09022
  35 14  H  1S         -0.03189   0.14764  -0.05883   0.06036   0.08909
                          21        22        23        24        25
                           V         V         V         V         V
     Eigenvalues --     0.07962   0.12530   0.13033   0.14164   0.14699
   1 1   C  1S          0.00009  -0.22806  -0.05427   0.11383   0.42276
   2        1PX         0.00834   0.02633   0.06163   0.24176  -0.06950
   3        1PY         0.00888   0.25097   0.14632  -0.19308   0.17595
   4        1PZ         0.21703  -0.02145  -0.01426   0.00414   0.00249
   5 2   C  1S         -0.01389   0.01339  -0.14123  -0.21917  -0.33043
   6        1PX         0.00603  -0.00502   0.00594   0.07449  -0.08394
   7        1PY         0.00521   0.08057   0.00297  -0.17617   0.27711
   8        1PZ        -0.46324   0.01126   0.00859   0.00320  -0.01078
   9 3   C  1S          0.00673  -0.07068   0.34142  -0.00898   0.24489
  10        1PX        -0.00214  -0.04016   0.20427  -0.09262  -0.18050
  11        1PY         0.01101   0.05439  -0.11191  -0.17149   0.23735
  12        1PZ         0.57108  -0.01228  -0.00801   0.00030  -0.00377
  13 4   C  1S         -0.00781  -0.42645   0.15695  -0.28192  -0.16011
  14        1PX         0.00833   0.07336   0.38304   0.27685  -0.06625
  15        1PY         0.00674   0.19751   0.11393  -0.19531  -0.02244
  16        1PZ         0.29433   0.00519   0.00016  -0.00543   0.01747
  17 5   C  1S          0.00772   0.18595  -0.01805   0.09965  -0.05050
  18        1PX         0.00170   0.25416   0.19072   0.44818   0.15270
  19        1PY         0.01971   0.37128   0.24116  -0.26952  -0.09275
  20        1PZ         0.12738  -0.01235  -0.00090   0.01792  -0.05641
  21 6   H  1S          0.00256  -0.09696   0.14314   0.39036   0.00287
  22 7   H  1S         -0.00712   0.05066  -0.36176   0.21168  -0.30494
  23 8   H  1S          0.00854   0.51831  -0.26191  -0.06454   0.14117
  24 9   N  1S         -0.00173   0.05553  -0.26230   0.03341   0.09341
  25        1PX         0.00111  -0.10858   0.33836  -0.10622  -0.10896
  26        1PY        -0.00553  -0.00072  -0.01516  -0.20103  -0.05684
  27        1PZ        -0.47517   0.00159   0.00509   0.00675  -0.00689
  28 10  C  1S          0.00402   0.15852   0.06881   0.07493  -0.32764
  29        1PX         0.00414   0.14762   0.07247   0.12221  -0.19545
  30        1PY         0.09718  -0.05592  -0.03257   0.01498  -0.02263
  31        1PZ        -0.01821   0.05727   0.03586  -0.03565   0.06748
  32 11  H  1S         -0.18019   0.14912   0.20415  -0.08731   0.06832
  33 12  H  1S          0.19042   0.13686   0.20328  -0.07581  -0.01403
  34 13  H  1S         -0.04498  -0.10744  -0.04993   0.01360   0.15503
  35 14  H  1S          0.04002  -0.05020  -0.01345  -0.02695   0.24216
                          26        27        28        29        30
                           V         V         V         V         V
     Eigenvalues --     0.15286   0.16074   0.16689   0.16736   0.17688
   1 1   C  1S          0.05274   0.20166   0.01817  -0.01934  -0.03468
   2        1PX         0.00819   0.25862   0.20609  -0.19558  -0.22973
   3        1PY         0.00894   0.00143  -0.06861   0.05539  -0.16497
   4        1PZ        -0.16678   0.01727   0.00653  -0.00182   0.02240
   5 2   C  1S         -0.01776   0.03477  -0.04849  -0.28462   0.20976
   6        1PX         0.01617   0.45086   0.21681  -0.02329   0.05306
   7        1PY         0.03375   0.15508  -0.18917  -0.31860  -0.08704
   8        1PZ         0.08544  -0.00876   0.00152   0.00407  -0.00660
   9 3   C  1S         -0.00449  -0.33714   0.06415   0.02643  -0.06978
  10        1PX        -0.00299   0.18043   0.27063  -0.28553   0.15918
  11        1PY         0.03307   0.10867   0.21465  -0.20176  -0.20790
  12        1PZ        -0.08733   0.00618   0.00109   0.00413   0.01234
  13 4   C  1S         -0.00776   0.08982  -0.01527   0.06381  -0.04447
  14        1PX        -0.02323  -0.05170  -0.19378  -0.29190   0.11812
  15        1PY         0.00597  -0.03011   0.39774   0.12137   0.25820
  16        1PZ        -0.19774   0.01398  -0.00686   0.00239   0.00271
  17 5   C  1S         -0.05727  -0.41593  -0.01069  -0.22544   0.06130
  18        1PX         0.02484   0.12253  -0.13112  -0.16636   0.14152
  19        1PY         0.01203   0.04080  -0.32315   0.19681  -0.03463
  20        1PZ         0.67010  -0.06015  -0.00221  -0.01244  -0.01452
  21 6   H  1S         -0.00470   0.04047   0.27657   0.45702  -0.06859
  22 7   H  1S         -0.02192   0.09426  -0.34110   0.25938   0.11803
  23 8   H  1S          0.02326  -0.05926   0.36097   0.15904   0.14328
  24 9   N  1S          0.01350   0.06279  -0.06747  -0.02123  -0.13824
  25        1PX        -0.01704  -0.13458   0.10145   0.17889   0.17024
  26        1PY         0.01452   0.17983   0.06108  -0.03275   0.02068
  27        1PZ         0.11993  -0.01128  -0.00100  -0.00188  -0.00533
  28 10  C  1S         -0.03454  -0.01161   0.12362  -0.08125  -0.42223
  29        1PX        -0.01237   0.12155   0.09139  -0.13488   0.20992
  30        1PY        -0.07845   0.01686   0.00043  -0.00258  -0.00499
  31        1PZ        -0.06422  -0.00928  -0.04964   0.01969  -0.08907
  32 11  H  1S         -0.41045   0.36327  -0.15064   0.19291  -0.01164
  33 12  H  1S          0.49668   0.27616  -0.16208   0.18214  -0.02935
  34 13  H  1S          0.10937   0.06586  -0.02592  -0.00997   0.48372
  35 14  H  1S         -0.06177   0.06268  -0.09305   0.01519   0.35986
                          31        32        33        34        35
                           V         V         V         V         V
     Eigenvalues --     0.18474   0.19202   0.20106   0.20644   0.24961
   1 1   C  1S         -0.11867  -0.23678   0.14213   0.13637  -0.01408
   2        1PX         0.16113   0.25842  -0.14648   0.38232  -0.00280
   3        1PY         0.30172   0.12424   0.48619   0.05249  -0.03524
   4        1PZ        -0.11160   0.08664   0.06202   0.00815  -0.00121
   5 2   C  1S         -0.13375  -0.13188  -0.12570  -0.12324  -0.10142
   6        1PX         0.16499  -0.16378   0.40816  -0.15842  -0.12996
   7        1PY         0.03405  -0.04354   0.15552   0.43158  -0.09142
   8        1PZ         0.03587  -0.02920  -0.02296  -0.01049   0.00116
   9 3   C  1S         -0.05756   0.10411  -0.16180   0.07336  -0.16537
  10        1PX        -0.00837  -0.15136   0.10112  -0.21352  -0.40740
  11        1PY        -0.01904   0.15901  -0.13970  -0.37670   0.29269
  12        1PZ        -0.01937   0.00851   0.00716   0.00252  -0.00625
  13 4   C  1S          0.07173   0.03712   0.03133   0.07503   0.17928
  14        1PX        -0.01759  -0.11962   0.13205  -0.07426   0.35394
  15        1PY        -0.09018  -0.19483   0.01211   0.26037   0.25386
  16        1PZ        -0.01539   0.01494   0.00912  -0.00299  -0.00160
  17 5   C  1S          0.17853  -0.00994   0.29786  -0.10771   0.09136
  18        1PX        -0.24508  -0.18189  -0.12724  -0.05240   0.08279
  19        1PY         0.03516   0.12169   0.04550  -0.22152  -0.06137
  20        1PZ         0.07395  -0.05663  -0.02956  -0.00255   0.00194
  21 6   H  1S          0.12978   0.05908   0.12081  -0.24348   0.06026
  22 7   H  1S          0.05610  -0.10353   0.14436   0.24925   0.06094
  23 8   H  1S         -0.09234  -0.08988  -0.05781   0.11720  -0.06264
  24 9   N  1S          0.01893   0.09991  -0.04613  -0.13809   0.01334
  25        1PX        -0.02547  -0.10347   0.02346   0.28125  -0.00534
  26        1PY         0.00465  -0.03842   0.04419   0.00207   0.65445
  27        1PZ         0.01249  -0.00783  -0.00485   0.00127  -0.00759
  28 10  C  1S         -0.06483  -0.00740  -0.04013   0.12047   0.00056
  29        1PX         0.33617   0.45022  -0.21367   0.12920   0.00586
  30        1PY         0.12793  -0.17934  -0.19036  -0.02165   0.00010
  31        1PZ         0.44668  -0.36812  -0.24682  -0.02934   0.00078
  32 11  H  1S         -0.18261   0.04383  -0.15629  -0.02205  -0.04069
  33 12  H  1S         -0.09652  -0.01428  -0.17663  -0.03060  -0.04014
  34 13  H  1S         -0.14423   0.46632   0.14837  -0.01090   0.00096
  35 14  H  1S          0.51581  -0.09248  -0.25111  -0.05565   0.00223
     Density Matrix:
                           1         2         3         4         5
   1 1   C  1S          1.19763
   2        1PX        -0.01586   0.94264
   3        1PY        -0.00573   0.00038   0.93037
   4        1PZ        -0.00131   0.00459   0.00528   1.01626
   5 2   C  1S          0.28516   0.23223   0.40188   0.05958   1.22842
   6        1PX        -0.25089  -0.08420  -0.34058  -0.05312  -0.02300
   7        1PY        -0.41146  -0.32166  -0.43930  -0.06589   0.06330
   8        1PZ         0.00735   0.00682   0.02421   0.46545  -0.00864
   9 3   C  1S         -0.01280  -0.01342  -0.02338  -0.01668   0.28792
  10        1PX         0.03950   0.02475   0.04681   0.02652  -0.47128
  11        1PY        -0.00484  -0.02030   0.00560   0.00596   0.00315
  12        1PZ         0.00087  -0.00183  -0.00148   0.01209  -0.03498
  13 4   C  1S         -0.00325  -0.00779   0.01353   0.01541  -0.03696
  14        1PX         0.02730   0.01783  -0.02881  -0.02320   0.00487
  15        1PY         0.00457   0.02003   0.00782   0.00665  -0.02853
  16        1PZ        -0.00026   0.00064   0.00160   0.00900   0.02184
  17 5   C  1S          0.25787   0.21549  -0.36285  -0.05354  -0.01073
  18        1PX        -0.23012  -0.06606   0.31001   0.04321   0.02454
  19        1PY         0.44682   0.34924  -0.48292  -0.08182  -0.03364
  20        1PZ        -0.01004  -0.00965   0.01309   0.22984  -0.00584
  21 6   H  1S         -0.04036  -0.03895  -0.05940  -0.00948   0.56290
  22 7   H  1S          0.04523   0.03258   0.06256   0.02040  -0.05957
  23 8   H  1S          0.04616   0.03462  -0.06165  -0.02040   0.00374
  24 9   N  1S         -0.02149  -0.01603   0.00009  -0.00015   0.02471
  25        1PX         0.03608   0.02996  -0.00785  -0.00261   0.06938
  26        1PY         0.00404   0.00299  -0.02508  -0.00416  -0.02743
  27        1PZ         0.00279   0.00399  -0.00475  -0.10377   0.00317
  28 10  C  1S          0.27085  -0.44797  -0.00092   0.00226  -0.02547
  29        1PX         0.48965  -0.66205  -0.00292   0.00188  -0.03533
  30        1PY        -0.00307  -0.00162   0.20899  -0.65987  -0.02026
  31        1PZ        -0.00374   0.00810  -0.05143   0.50448   0.00186
  32 11  H  1S         -0.01203  -0.02038   0.01843   0.03982   0.00945
  33 12  H  1S         -0.01152  -0.01708   0.01960  -0.03177   0.04139
  34 13  H  1S         -0.04630   0.07743   0.00361   0.02931  -0.00697
  35 14  H  1S         -0.04644   0.07967  -0.00052  -0.02996   0.03653
                           6         7         8         9        10
   6        1PX         0.93714
   7        1PY        -0.03657   0.97905
   8        1PZ        -0.00475   0.00344   1.01264
   9 3   C  1S          0.48647  -0.02809   0.00542   1.24328
  10        1PX        -0.63023   0.03375  -0.00358   0.02641   0.91510
  11        1PY         0.01755   0.11872   0.01368   0.06411   0.05313
  12        1PZ         0.02604   0.05490   0.80433   0.00986  -0.02182
  13 4   C  1S         -0.02250   0.01579  -0.00239   0.01840   0.00144
  14        1PX        -0.02560  -0.02506   0.00294   0.00073  -0.00972
  15        1PY        -0.03683  -0.00016  -0.00048  -0.00426  -0.03712
  16        1PZ        -0.01653  -0.03305  -0.35923  -0.00711   0.01224
  17 5   C  1S          0.02307   0.02703   0.00350  -0.03064   0.00015
  18        1PX         0.01546  -0.03394   0.00151  -0.02810  -0.02251
  19        1PY         0.03858   0.04269   0.00331  -0.01499   0.01878
  20        1PZ         0.00528   0.00752   0.02115   0.00239  -0.00391
  21 6   H  1S         -0.37267   0.70086  -0.01315  -0.05080   0.06684
  22 7   H  1S         -0.08780   0.00808   0.00116   0.57646   0.43738
  23 8   H  1S         -0.00344  -0.00278   0.00019   0.05783   0.04212
  24 9   N  1S          0.02413   0.01251  -0.00092   0.16590   0.18914
  25        1PX         0.10332   0.00454  -0.00104  -0.30151  -0.08503
  26        1PY        -0.05210   0.00989  -0.00145   0.39152   0.33906
  27        1PZ        -0.00119  -0.00365  -0.02359  -0.00648  -0.00283
  28 10  C  1S          0.02359   0.02179  -0.00111   0.02214  -0.03797
  29        1PX         0.02515   0.04717  -0.00100   0.03442  -0.05762
  30        1PY        -0.02774   0.00178   0.02167   0.00863   0.00088
  31        1PZ         0.01099   0.00339  -0.02163  -0.00157  -0.00192
  32 11  H  1S         -0.01361  -0.01533   0.01933   0.01164  -0.00976
  33 12  H  1S         -0.04088  -0.05518  -0.01390   0.00248   0.00507
  34 13  H  1S          0.00546   0.00252  -0.04067   0.00015   0.00197
  35 14  H  1S         -0.02928  -0.04228   0.04240  -0.01154   0.01923
                          11        12        13        14        15
  11        1PY         0.96583
  12        1PZ        -0.00429   0.97423
  13 4   C  1S          0.00684  -0.00924   1.25669
  14        1PX         0.04268   0.01187   0.01618   0.92723
  15        1PY         0.04874  -0.00600  -0.06286  -0.04404   0.98060
  16        1PZ         0.00253  -0.01538   0.00667  -0.00955   0.00294
  17 5   C  1S          0.02626   0.02792   0.25362  -0.42872   0.00526
  18        1PX         0.04038  -0.02210   0.50032  -0.66236  -0.01003
  19        1PY         0.00437   0.04535   0.05543  -0.07433   0.11737
  20        1PZ        -0.00146  -0.06200  -0.00076  -0.00032   0.00085
  21 6   H  1S          0.00512   0.00581   0.01481  -0.00953   0.00493
  22 7   H  1S          0.63930  -0.02491   0.05857   0.04624   0.09042
  23 8   H  1S         -0.08997   0.01405   0.57702   0.42396  -0.64713
  24 9   N  1S         -0.30499   0.00611   0.16439   0.19475   0.29753
  25        1PX         0.48618  -0.00463  -0.30456  -0.09653  -0.48977
  26        1PY        -0.47281   0.01594  -0.38703  -0.34940  -0.46647
  27        1PZ         0.01295   0.45652   0.00591   0.00171   0.01249
  28 10  C  1S          0.00178  -0.00028   0.02325  -0.03950  -0.00126
  29        1PX         0.00667   0.00100   0.03662  -0.06094  -0.00583
  30        1PY         0.01229   0.31176  -0.00890   0.00295   0.00713
  31        1PZ        -0.00577  -0.17749   0.00073   0.00187  -0.00262
  32 11  H  1S         -0.00377  -0.01867  -0.02284   0.03405  -0.00801
  33 12  H  1S          0.00027   0.01449  -0.01460   0.02142  -0.00515
  34 13  H  1S         -0.00287  -0.01055  -0.01155   0.01873  -0.00027
  35 14  H  1S          0.00023   0.01125  -0.00083   0.00371   0.00279
                          16        17        18        19        20
  16        1PZ         0.90834
  17 5   C  1S         -0.02029   1.15739
  18        1PX         0.01331  -0.01524   0.94805
  19        1PY        -0.03237  -0.04520   0.03484   0.99797
  20        1PZ         0.23945   0.00874  -0.00721   0.01109   1.03093
  21 6   H  1S         -0.00387   0.03558  -0.04063   0.06807  -0.00060
  22 7   H  1S          0.00916   0.00311  -0.00211   0.00304  -0.00281
  23 8   H  1S         -0.00278  -0.06015  -0.09662  -0.00884   0.00252
  24 9   N  1S         -0.00262   0.02294   0.02887  -0.01056   0.00039
  25        1PX         0.00176   0.06507   0.11286   0.00646   0.00083
  26        1PY         0.01206   0.02096   0.04996   0.01327  -0.00040
  27        1PZ         0.85952  -0.00446   0.00075  -0.00587  -0.05904
  28 10  C  1S          0.00157  -0.02768   0.02337  -0.02365   0.00142
  29        1PX        -0.00004  -0.03885   0.02504  -0.05463   0.00017
  30        1PY        -0.20393   0.02085   0.02437   0.00782   0.07148
  31        1PZ         0.10479  -0.00122  -0.00940   0.00351  -0.04775
  32 11  H  1S          0.07043   0.49494  -0.25693  -0.40580   0.66516
  33 12  H  1S         -0.06694   0.46267  -0.22401  -0.47833  -0.65545
  34 13  H  1S          0.00211   0.03416  -0.02572   0.04872  -0.02137
  35 14  H  1S         -0.00283  -0.00518   0.00314  -0.00345   0.02074
                          21        22        23        24        25
  21 6   H  1S          0.85605
  22 7   H  1S         -0.01279   0.84127
  23 8   H  1S          0.01730  -0.02743   0.84027
  24 9   N  1S          0.01762  -0.06714  -0.06493   1.71663
  25        1PX        -0.06923   0.03048   0.02537   0.40436   1.33968
  26        1PY         0.06076  -0.04179   0.04431   0.00046  -0.00779
  27        1PZ        -0.00044   0.00210  -0.00096   0.00036  -0.00031
  28 10  C  1S         -0.01101  -0.01371  -0.01449   0.00709   0.00511
  29        1PX        -0.02156  -0.02178  -0.02393   0.01283   0.00458
  30        1PY        -0.00355   0.00283  -0.00086  -0.00118  -0.00154
  31        1PZ         0.00491  -0.00274   0.00257   0.00033   0.00083
  32 11  H  1S         -0.01088   0.00515   0.00125   0.01199  -0.03944
  33 12  H  1S         -0.01613   0.01749  -0.01328   0.01211  -0.04244
  34 13  H  1S          0.01065  -0.00090   0.01224  -0.00289   0.00183
  35 14  H  1S          0.00330   0.01187  -0.00035  -0.00294   0.00041
                          26        27        28        29        30
  26        1PY         0.97299
  27        1PZ         0.00198   1.11420
  28 10  C  1S         -0.00022  -0.00054   1.27057
  29        1PX        -0.00059  -0.00067  -0.06652   0.91229
  30        1PY        -0.00492  -0.02856  -0.00192  -0.00285   1.08951
  31        1PZ         0.00190   0.02216   0.00203   0.00153   0.00501
  32 11  H  1S         -0.03713  -0.10690  -0.00773  -0.01432   0.17560
  33 12  H  1S         -0.03715   0.10592  -0.00435  -0.01260  -0.16198
  34 13  H  1S          0.00091   0.01483   0.56620  -0.37329   0.39528
  35 14  H  1S         -0.00049  -0.01544   0.56522  -0.38668  -0.38942
                          31        32        33        34        35
  31        1PZ         0.98759
  32 11  H  1S         -0.09876   0.87586
  33 12  H  1S          0.09004  -0.01296   0.88432
  34 13  H  1S          0.58429  -0.00201   0.01041   0.87326
  35 14  H  1S         -0.58076   0.01253   0.00221  -0.09872   0.87569
    Full Mulliken population analysis:
                           1         2         3         4         5
   1 1   C  1S          1.19763
   2        1PX         0.00000   0.94264
   3        1PY         0.00000   0.00000   0.93037
   4        1PZ         0.00000   0.00000   0.00000   1.01626
   5 2   C  1S          0.00000   0.00000   0.00000   0.00000   1.22842
   6        1PX         0.00000   0.00000   0.00000   0.00000   0.00000
   7        1PY         0.00000   0.00000   0.00000   0.00000   0.00000
   8        1PZ         0.00000   0.00000   0.00000   0.00000   0.00000
   9 3   C  1S          0.00000   0.00000   0.00000   0.00000   0.00000
  10        1PX         0.00000   0.00000   0.00000   0.00000   0.00000
  11        1PY         0.00000   0.00000   0.00000   0.00000   0.00000
  12        1PZ         0.00000   0.00000   0.00000   0.00000   0.00000
  13 4   C  1S          0.00000   0.00000   0.00000   0.00000   0.00000
  14        1PX         0.00000   0.00000   0.00000   0.00000   0.00000
  15        1PY         0.00000   0.00000   0.00000   0.00000   0.00000
  16        1PZ         0.00000   0.00000   0.00000   0.00000   0.00000
  17 5   C  1S          0.00000   0.00000   0.00000   0.00000   0.00000
  18        1PX         0.00000   0.00000   0.00000   0.00000   0.00000
  19        1PY         0.00000   0.00000   0.00000   0.00000   0.00000
  20        1PZ         0.00000   0.00000   0.00000   0.00000   0.00000
  21 6   H  1S          0.00000   0.00000   0.00000   0.00000   0.00000
  22 7   H  1S          0.00000   0.00000   0.00000   0.00000   0.00000
  23 8   H  1S          0.00000   0.00000   0.00000   0.00000   0.00000
  24 9   N  1S          0.00000   0.00000   0.00000   0.00000   0.00000
  25        1PX         0.00000   0.00000   0.00000   0.00000   0.00000
  26        1PY         0.00000   0.00000   0.00000   0.00000   0.00000
  27        1PZ         0.00000   0.00000   0.00000   0.00000   0.00000
  28 10  C  1S          0.00000   0.00000   0.00000   0.00000   0.00000
  29        1PX         0.00000   0.00000   0.00000   0.00000   0.00000
  30        1PY         0.00000   0.00000   0.00000   0.00000   0.00000
  31        1PZ         0.00000   0.00000   0.00000   0.00000   0.00000
  32 11  H  1S          0.00000   0.00000   0.00000   0.00000   0.00000
  33 12  H  1S          0.00000   0.00000   0.00000   0.00000   0.00000
  34 13  H  1S          0.00000   0.00000   0.00000   0.00000   0.00000
  35 14  H  1S          0.00000   0.00000   0.00000   0.00000   0.00000
                           6         7         8         9        10
   6        1PX         0.93714
   7        1PY         0.00000   0.97905
   8        1PZ         0.00000   0.00000   1.01264
   9 3   C  1S          0.00000   0.00000   0.00000   1.24328
  10        1PX         0.00000   0.00000   0.00000   0.00000   0.91510
  11        1PY         0.00000   0.00000   0.00000   0.00000   0.00000
  12        1PZ         0.00000   0.00000   0.00000   0.00000   0.00000
  13 4   C  1S          0.00000   0.00000   0.00000   0.00000   0.00000
  14        1PX         0.00000   0.00000   0.00000   0.00000   0.00000
  15        1PY         0.00000   0.00000   0.00000   0.00000   0.00000
  16        1PZ         0.00000   0.00000   0.00000   0.00000   0.00000
  17 5   C  1S          0.00000   0.00000   0.00000   0.00000   0.00000
  18        1PX         0.00000   0.00000   0.00000   0.00000   0.00000
  19        1PY         0.00000   0.00000   0.00000   0.00000   0.00000
  20        1PZ         0.00000   0.00000   0.00000   0.00000   0.00000
  21 6   H  1S          0.00000   0.00000   0.00000   0.00000   0.00000
  22 7   H  1S          0.00000   0.00000   0.00000   0.00000   0.00000
  23 8   H  1S          0.00000   0.00000   0.00000   0.00000   0.00000
  24 9   N  1S          0.00000   0.00000   0.00000   0.00000   0.00000
  25        1PX         0.00000   0.00000   0.00000   0.00000   0.00000
  26        1PY         0.00000   0.00000   0.00000   0.00000   0.00000
  27        1PZ         0.00000   0.00000   0.00000   0.00000   0.00000
  28 10  C  1S          0.00000   0.00000   0.00000   0.00000   0.00000
  29        1PX         0.00000   0.00000   0.00000   0.00000   0.00000
  30        1PY         0.00000   0.00000   0.00000   0.00000   0.00000
  31        1PZ         0.00000   0.00000   0.00000   0.00000   0.00000
  32 11  H  1S          0.00000   0.00000   0.00000   0.00000   0.00000
  33 12  H  1S          0.00000   0.00000   0.00000   0.00000   0.00000
  34 13  H  1S          0.00000   0.00000   0.00000   0.00000   0.00000
  35 14  H  1S          0.00000   0.00000   0.00000   0.00000   0.00000
                          11        12        13        14        15
  11        1PY         0.96583
  12        1PZ         0.00000   0.97423
  13 4   C  1S          0.00000   0.00000   1.25669
  14        1PX         0.00000   0.00000   0.00000   0.92723
  15        1PY         0.00000   0.00000   0.00000   0.00000   0.98060
  16        1PZ         0.00000   0.00000   0.00000   0.00000   0.00000
  17 5   C  1S          0.00000   0.00000   0.00000   0.00000   0.00000
  18        1PX         0.00000   0.00000   0.00000   0.00000   0.00000
  19        1PY         0.00000   0.00000   0.00000   0.00000   0.00000
  20        1PZ         0.00000   0.00000   0.00000   0.00000   0.00000
  21 6   H  1S          0.00000   0.00000   0.00000   0.00000   0.00000
  22 7   H  1S          0.00000   0.00000   0.00000   0.00000   0.00000
  23 8   H  1S          0.00000   0.00000   0.00000   0.00000   0.00000
  24 9   N  1S          0.00000   0.00000   0.00000   0.00000   0.00000
  25        1PX         0.00000   0.00000   0.00000   0.00000   0.00000
  26        1PY         0.00000   0.00000   0.00000   0.00000   0.00000
  27        1PZ         0.00000   0.00000   0.00000   0.00000   0.00000
  28 10  C  1S          0.00000   0.00000   0.00000   0.00000   0.00000
  29        1PX         0.00000   0.00000   0.00000   0.00000   0.00000
  30        1PY         0.00000   0.00000   0.00000   0.00000   0.00000
  31        1PZ         0.00000   0.00000   0.00000   0.00000   0.00000
  32 11  H  1S          0.00000   0.00000   0.00000   0.00000   0.00000
  33 12  H  1S          0.00000   0.00000   0.00000   0.00000   0.00000
  34 13  H  1S          0.00000   0.00000   0.00000   0.00000   0.00000
  35 14  H  1S          0.00000   0.00000   0.00000   0.00000   0.00000
                          16        17        18        19        20
  16        1PZ         0.90834
  17 5   C  1S          0.00000   1.15739
  18        1PX         0.00000   0.00000   0.94805
  19        1PY         0.00000   0.00000   0.00000   0.99797
  20        1PZ         0.00000   0.00000   0.00000   0.00000   1.03093
  21 6   H  1S          0.00000   0.00000   0.00000   0.00000   0.00000
  22 7   H  1S          0.00000   0.00000   0.00000   0.00000   0.00000
  23 8   H  1S          0.00000   0.00000   0.00000   0.00000   0.00000
  24 9   N  1S          0.00000   0.00000   0.00000   0.00000   0.00000
  25        1PX         0.00000   0.00000   0.00000   0.00000   0.00000
  26        1PY         0.00000   0.00000   0.00000   0.00000   0.00000
  27        1PZ         0.00000   0.00000   0.00000   0.00000   0.00000
  28 10  C  1S          0.00000   0.00000   0.00000   0.00000   0.00000
  29        1PX         0.00000   0.00000   0.00000   0.00000   0.00000
  30        1PY         0.00000   0.00000   0.00000   0.00000   0.00000
  31        1PZ         0.00000   0.00000   0.00000   0.00000   0.00000
  32 11  H  1S          0.00000   0.00000   0.00000   0.00000   0.00000
  33 12  H  1S          0.00000   0.00000   0.00000   0.00000   0.00000
  34 13  H  1S          0.00000   0.00000   0.00000   0.00000   0.00000
  35 14  H  1S          0.00000   0.00000   0.00000   0.00000   0.00000
                          21        22        23        24        25
  21 6   H  1S          0.85605
  22 7   H  1S          0.00000   0.84127
  23 8   H  1S          0.00000   0.00000   0.84027
  24 9   N  1S          0.00000   0.00000   0.00000   1.71663
  25        1PX         0.00000   0.00000   0.00000   0.00000   1.33968
  26        1PY         0.00000   0.00000   0.00000   0.00000   0.00000
  27        1PZ         0.00000   0.00000   0.00000   0.00000   0.00000
  28 10  C  1S          0.00000   0.00000   0.00000   0.00000   0.00000
  29        1PX         0.00000   0.00000   0.00000   0.00000   0.00000
  30        1PY         0.00000   0.00000   0.00000   0.00000   0.00000
  31        1PZ         0.00000   0.00000   0.00000   0.00000   0.00000
  32 11  H  1S          0.00000   0.00000   0.00000   0.00000   0.00000
  33 12  H  1S          0.00000   0.00000   0.00000   0.00000   0.00000
  34 13  H  1S          0.00000   0.00000   0.00000   0.00000   0.00000
  35 14  H  1S          0.00000   0.00000   0.00000   0.00000   0.00000
                          26        27        28        29        30
  26        1PY         0.97299
  27        1PZ         0.00000   1.11420
  28 10  C  1S          0.00000   0.00000   1.27057
  29        1PX         0.00000   0.00000   0.00000   0.91229
  30        1PY         0.00000   0.00000   0.00000   0.00000   1.08951
  31        1PZ         0.00000   0.00000   0.00000   0.00000   0.00000
  32 11  H  1S          0.00000   0.00000   0.00000   0.00000   0.00000
  33 12  H  1S          0.00000   0.00000   0.00000   0.00000   0.00000
  34 13  H  1S          0.00000   0.00000   0.00000   0.00000   0.00000
  35 14  H  1S          0.00000   0.00000   0.00000   0.00000   0.00000
                          31        32        33        34        35
  31        1PZ         0.98759
  32 11  H  1S          0.00000   0.87586
  33 12  H  1S          0.00000   0.00000   0.88432
  34 13  H  1S          0.00000   0.00000   0.00000   0.87326
  35 14  H  1S          0.00000   0.00000   0.00000   0.00000   0.87569
     Gross orbital populations:
                           1
   1 1   C  1S          1.19763
   2        1PX         0.94264
   3        1PY         0.93037
   4        1PZ         1.01626
   5 2   C  1S          1.22842
   6        1PX         0.93714
   7        1PY         0.97905
   8        1PZ         1.01264
   9 3   C  1S          1.24328
  10        1PX         0.91510
  11        1PY         0.96583
  12        1PZ         0.97423
  13 4   C  1S          1.25669
  14        1PX         0.92723
  15        1PY         0.98060
  16        1PZ         0.90834
  17 5   C  1S          1.15739
  18        1PX         0.94805
  19        1PY         0.99797
  20        1PZ         1.03093
  21 6   H  1S          0.85605
  22 7   H  1S          0.84127
  23 8   H  1S          0.84027
  24 9   N  1S          1.71663
  25        1PX         1.33968
  26        1PY         0.97299
  27        1PZ         1.11420
  28 10  C  1S          1.27057
  29        1PX         0.91229
  30        1PY         1.08951
  31        1PZ         0.98759
  32 11  H  1S          0.87586
  33 12  H  1S          0.88432
  34 13  H  1S          0.87326
  35 14  H  1S          0.87569
          Condensed to atoms (all electrons):
               1          2          3          4          5          6
     1  C    4.086901   0.000000   0.000000   0.000000   0.000000   0.000000
     2  C    0.000000   4.157250   0.000000   0.000000   0.000000   0.000000
     3  C    0.000000   0.000000   4.098444   0.000000   0.000000   0.000000
     4  C    0.000000   0.000000   0.000000   4.072854   0.000000   0.000000
     5  C    0.000000   0.000000   0.000000   0.000000   4.134342   0.000000
     6  H    0.000000   0.000000   0.000000   0.000000   0.000000   0.856054
     7  H    0.000000   0.000000   0.000000   0.000000   0.000000   0.000000
     8  H    0.000000   0.000000   0.000000   0.000000   0.000000   0.000000
     9  N    0.000000   0.000000   0.000000   0.000000   0.000000   0.000000
    10  C    0.000000   0.000000   0.000000   0.000000   0.000000   0.000000
    11  H    0.000000   0.000000   0.000000   0.000000   0.000000   0.000000
    12  H    0.000000   0.000000   0.000000   0.000000   0.000000   0.000000
    13  H    0.000000   0.000000   0.000000   0.000000   0.000000   0.000000
    14  H    0.000000   0.000000   0.000000   0.000000   0.000000   0.000000
               7          8          9         10         11         12
     1  C    0.000000   0.000000   0.000000   0.000000   0.000000   0.000000
     2  C    0.000000   0.000000   0.000000   0.000000   0.000000   0.000000
     3  C    0.000000   0.000000   0.000000   0.000000   0.000000   0.000000
     4  C    0.000000   0.000000   0.000000   0.000000   0.000000   0.000000
     5  C    0.000000   0.000000   0.000000   0.000000   0.000000   0.000000
     6  H    0.000000   0.000000   0.000000   0.000000   0.000000   0.000000
     7  H    0.841271   0.000000   0.000000   0.000000   0.000000   0.000000
     8  H    0.000000   0.840272   0.000000   0.000000   0.000000   0.000000
     9  N    0.000000   0.000000   5.143508   0.000000   0.000000   0.000000
    10  C    0.000000   0.000000   0.000000   4.259964   0.000000   0.000000
    11  H    0.000000   0.000000   0.000000   0.000000   0.875864   0.000000
    12  H    0.000000   0.000000   0.000000   0.000000   0.000000   0.884323
    13  H    0.000000   0.000000   0.000000   0.000000   0.000000   0.000000
    14  H    0.000000   0.000000   0.000000   0.000000   0.000000   0.000000
              13         14
     1  C    0.000000   0.000000
     2  C    0.000000   0.000000
     3  C    0.000000   0.000000
     4  C    0.000000   0.000000
     5  C    0.000000   0.000000
     6  H    0.000000   0.000000
     7  H    0.000000   0.000000
     8  H    0.000000   0.000000
     9  N    0.000000   0.000000
    10  C    0.000000   0.000000
    11  H    0.000000   0.000000
    12  H    0.000000   0.000000
    13  H    0.873260   0.000000
    14  H    0.000000   0.875693
 Mulliken charges:
               1
     1  C   -0.086901
     2  C   -0.157250
     3  C   -0.098444
     4  C   -0.072854
     5  C   -0.134342
     6  H    0.143946
     7  H    0.158729
     8  H    0.159728
     9  N   -0.143508
    10  C   -0.259964
    11  H    0.124136
    12  H    0.115677
    13  H    0.126740
    14  H    0.124307
 Sum of Mulliken charges =  -0.00000
 Mulliken charges with hydrogens summed into heavy atoms:
               1
     1  C   -0.086901
     2  C   -0.013304
     3  C    0.060286
     4  C    0.086874
     5  C    0.105471
     9  N   -0.143508
    10  C   -0.008918
 Charge=             -0.0000 electrons
 Dipole moment (field-independent basis, Debye):
    X=             -1.4996    Y=             -0.8508    Z=             -0.0183  Tot=              1.7243
 N-N= 1.614572510092D+02 E-N=-2.362674007096D+02  KE=-6.095250091013D+01
 Orbital energies and kinetic energies (alpha):
                                 1                 2
   1         O                -1.493760         -2.581157
   2         O                -1.265117         -2.434582
   3         O                -1.183306         -2.145484
   4         O                -1.022466         -2.026558
   5         O                -0.896343         -1.911906
   6         O                -0.824138         -1.753631
   7         O                -0.636148         -1.530011
   8         O                -0.620007         -1.714448
   9         O                -0.612840         -1.382022
  10         O                -0.598282         -1.430033
  11         O                -0.524962         -1.268673
  12         O                -0.516920         -1.182965
  13         O                -0.504050         -1.524769
  14         O                -0.465966         -1.638278
  15         O                -0.457892         -1.267943
  16         O                -0.391508         -1.761614
  17         O                -0.383974         -1.529090
  18         O                -0.278493         -1.393085
  19         V                -0.046698         -1.363532
  20         V                 0.019868         -1.482204
  21         V                 0.079624         -1.407247
  22         V                 0.125298         -1.004081
  23         V                 0.130334         -1.124762
  24         V                 0.141635         -1.115292
  25         V                 0.146986         -1.176592
  26         V                 0.152858         -0.848014
  27         V                 0.160741         -1.121665
  28         V                 0.166895         -0.896981
  29         V                 0.167357         -0.931406
  30         V                 0.176876         -0.920374
  31         V                 0.184739         -0.914884
  32         V                 0.192023         -1.036406
  33         V                 0.201059         -1.095274
  34         V                 0.206440         -1.175921
  35         V                 0.249607         -1.460653
 Total kinetic energy from orbitals=-6.095250091013D+01
 Calling FoFJK, ICntrl=      2127 FMM=F ISym2X=0 I1Cent= 0 IOpClX= 0 NMat=1 NMatS=1 NMatT=0.
 ***** Axes restored to original set *****
 -------------------------------------------------------------------
 Center     Atomic                   Forces (Hartrees/Bohr)
 Number     Number              X              Y              Z
 -------------------------------------------------------------------
      1        6          -0.003929824    0.148622764    0.063385243
      2        6          -0.020432873   -0.041409491    0.027546854
      3        6          -0.000942179    0.052491243    0.040654717
      4        6          -0.000387127   -0.114943337    0.058261487
      5        6           0.018764368    0.025483671   -0.047029534
      6        1           0.000338615    0.000116958   -0.000222746
      7        1           0.002543357   -0.000145905   -0.000435780
      8        1           0.001507842   -0.000059397   -0.000834255
      9        7          -0.001010374   -0.004774773   -0.078685624
     10        6           0.003943982   -0.109677741   -0.000776828
     11        1          -0.039449755    0.015802249   -0.027857339
     12        1           0.038990410    0.016169026   -0.034631239
     13        1          -0.003580897    0.005979913    0.023996779
     14        1           0.003644455    0.006344820   -0.023371734
 -------------------------------------------------------------------
 Cartesian Forces:  Max     0.148622764 RMS     0.043177227

 GradGradGradGradGradGradGradGradGradGradGradGradGradGradGradGradGradGrad
 Berny optimization.
 FormGI is forming the generalized inverse of G from B-inverse, IUseBI=4.
 Internal  Forces:  Max     0.097389000 RMS     0.025428835
 Search for a local minimum.
 Step number   1 out of a maximum of   74
 All quantities printed in internal units (Hartrees-Bohrs-Radians)
 Mixed Optimization -- RFO/linear search
 Second derivative matrix not updated -- first step.
 ITU=  0
     Eigenvalues ---    0.01038   0.01038   0.01792   0.02044   0.02055
     Eigenvalues ---    0.02067   0.02101   0.02141   0.02289   0.05032
     Eigenvalues ---    0.07431   0.11332   0.12365   0.16000   0.16000
     Eigenvalues ---    0.16000   0.16000   0.16000   0.22035   0.22858
     Eigenvalues ---    0.23911   0.24998   0.33161   0.33161   0.33944
     Eigenvalues ---    0.34631   0.37230   0.37230   0.37230   0.37230
     Eigenvalues ---    0.41061   0.43453   0.44724   0.45320   0.53638
     Eigenvalues ---    0.54783
 RFO step:  Lambda=-9.30515201D-02 EMin= 1.03761440D-02
 Linear search not attempted -- first point.
 Maximum step size (   0.300) exceeded in Quadratic search.
    -- Step size scaled by   0.738
 Iteration  1 RMS(Cart)=  0.06476372 RMS(Int)=  0.00227704
 Iteration  2 RMS(Cart)=  0.00254630 RMS(Int)=  0.00017520
 Iteration  3 RMS(Cart)=  0.00000647 RMS(Int)=  0.00017512
 Iteration  4 RMS(Cart)=  0.00000000 RMS(Int)=  0.00017512
 Variable       Old X    -DE/DX   Delta X   Delta X   Delta X     New X
                                 (Linear)    (Quad)   (Total)
    R1        2.64749   0.02990   0.00000   0.04110   0.04107   2.68856
    R2        2.64749   0.09201   0.00000   0.12802   0.12825   2.77574
    R3        2.79578  -0.09739   0.00000  -0.16356  -0.16356   2.63222
    R4        2.65600  -0.02314   0.00000  -0.03489  -0.03515   2.62085
    R5        2.07425  -0.00014   0.00000  -0.00024  -0.00024   2.07402
    R6        2.08770  -0.00029   0.00000  -0.00050  -0.00050   2.08720
    R7        2.54599   0.05225   0.00000   0.05598   0.05574   2.60173
    R8        2.65600   0.09149   0.00000   0.12802   0.12826   2.78426
    R9        2.08770   0.00073   0.00000   0.00128   0.00128   2.08897
   R10        2.54599  -0.04272   0.00000  -0.04922  -0.04920   2.49679
   R11        2.02201   0.05074   0.00000   0.08046   0.08046   2.10247
   R12        2.02201   0.05398   0.00000   0.08559   0.08559   2.10760
   R13        2.02201   0.01371   0.00000   0.02173   0.02173   2.04374
   R14        2.02201   0.01380   0.00000   0.02188   0.02188   2.04389
    A1        2.06280  -0.00103   0.00000   0.00657   0.00676   2.06956
    A2        2.11017   0.00020   0.00000  -0.00395  -0.00406   2.10611
    A3        2.11017   0.00084   0.00000  -0.00257  -0.00267   2.10750
    A4        2.07247   0.00419   0.00000   0.00668   0.00635   2.07883
    A5        2.10908  -0.00231   0.00000  -0.00398  -0.00384   2.10523
    A6        2.10164  -0.00188   0.00000  -0.00272  -0.00258   2.09905
    A7        2.10589  -0.00542   0.00000  -0.00679  -0.00654   2.09935
    A8        2.15783   0.01159   0.00000   0.01575   0.01524   2.17306
    A9        2.01947  -0.00617   0.00000  -0.00897  -0.00872   2.01074
   A10        2.10589  -0.00273   0.00000  -0.00881  -0.00893   2.09696
   A11        2.15783   0.00461   0.00000   0.01516   0.01540   2.17322
   A12        2.01947  -0.00189   0.00000  -0.00636  -0.00647   2.01299
   A13        2.07247  -0.03179   0.00000  -0.05990  -0.05915   2.01332
   A14        1.87585   0.00843   0.00000   0.01358   0.01346   1.88931
   A15        1.87585   0.01253   0.00000   0.02939   0.02928   1.90514
   A16        1.87585   0.01019   0.00000   0.01934   0.01910   1.89495
   A17        1.87585   0.00827   0.00000   0.01468   0.01488   1.89073
   A18        1.88062  -0.00649   0.00000  -0.01538  -0.01565   1.86497
   A19        2.04297   0.01243   0.00000   0.01574   0.01539   2.05836
   A20        2.09440  -0.00084   0.00000  -0.00245  -0.00246   2.09194
   A21        2.09440  -0.00027   0.00000  -0.00079  -0.00079   2.09360
   A22        2.09440   0.00111   0.00000   0.00324   0.00324   2.09764
    D1       -0.00162   0.00125   0.00000   0.00763   0.00766   0.00604
    D2        3.13883  -0.00066   0.00000  -0.00414  -0.00415   3.13468
    D3        3.12967   0.00199   0.00000   0.01210   0.01218  -3.14134
    D4       -0.01306   0.00008   0.00000   0.00034   0.00037  -0.01270
    D5        0.00162  -0.00034   0.00000  -0.00269  -0.00274  -0.00112
    D6        2.13320  -0.00226   0.00000  -0.00806  -0.00801   2.12519
    D7       -2.12996   0.00071   0.00000  -0.00440  -0.00415  -2.13411
    D8       -3.12967  -0.00108   0.00000  -0.00715  -0.00725  -3.13692
    D9       -0.99809  -0.00301   0.00000  -0.01253  -0.01252  -1.01061
   D10        1.02194  -0.00004   0.00000  -0.00886  -0.00866   1.01328
   D11       -1.17669   0.01790   0.00000   0.12805   0.12804  -1.04865
   D12        1.96490   0.01733   0.00000   0.12399   0.12398   2.08888
   D13        1.95432   0.01865   0.00000   0.13270   0.13271   2.08703
   D14       -1.18727   0.01808   0.00000   0.12864   0.12865  -1.05862
   D15       -3.14157  -0.00254   0.00000  -0.01597  -0.01601   3.12560
   D16        0.00060  -0.00125   0.00000  -0.00735  -0.00740  -0.00680
   D17        0.00116  -0.00064   0.00000  -0.00425  -0.00424  -0.00308
   D18       -3.13985   0.00066   0.00000   0.00437   0.00437  -3.13549
   D19        0.00044   0.00022   0.00000   0.00145   0.00143   0.00187
   D20       -3.14059   0.00146   0.00000   0.00968   0.00964  -3.13095
   D21        3.14157  -0.00028   0.00000   0.00028   0.00029  -3.14132
   D22        1.01000   0.00253   0.00000   0.00854   0.00859   1.01859
   D23       -1.01004   0.00081   0.00000   0.00936   0.00939  -1.00064
   D24       -0.00060  -0.00075   0.00000  -0.00341  -0.00334  -0.00394
   D25       -2.13218   0.00206   0.00000   0.00485   0.00496  -2.12721
   D26        2.13098   0.00034   0.00000   0.00568   0.00576   2.13674
   D27       -0.00044   0.00082   0.00000   0.00406   0.00413   0.00369
   D28        3.14059   0.00037   0.00000   0.00054   0.00066   3.14125
         Item               Value     Threshold  Converged?
 Maximum Force            0.097389     0.000450     NO 
 RMS     Force            0.025429     0.000300     NO 
 Maximum Displacement     0.277422     0.001800     NO 
 RMS     Displacement     0.064772     0.001200     NO 
 Predicted change in Energy=-5.060190D-02
 GradGradGradGradGradGradGradGradGradGradGradGradGradGradGradGradGradGrad

                          Input orientation:                          
 ---------------------------------------------------------------------
 Center     Atomic      Atomic             Coordinates (Angstroms)
 Number     Number       Type             X           Y           Z
 ---------------------------------------------------------------------
      1          6           0       -0.002720    0.945212    0.012556
      2          6           0       -0.016382    0.200759    1.224890
      3          6           0       -0.008246   -1.184853    1.165870
      4          6           0        0.012121   -1.255159   -1.145018
      5          6           0        0.011791    0.213630   -1.261069
      6          1           0       -0.020907    0.713085    2.195486
      7          1           0       -0.003323   -1.781899    2.095080
      8          1           0        0.022854   -1.883896   -2.054175
      9          7           0        0.004790   -1.915763   -0.000798
     10          6           0       -0.010040    2.337939    0.033849
     11          1           0       -0.879979    0.522336   -1.850374
     12          1           0        0.909232    0.519276   -1.848489
     13          1           0       -0.832409    2.865037    0.498091
     14          1           0        0.807782    2.889143   -0.410172
 ---------------------------------------------------------------------
                    Distance matrix (angstroms):
                    1          2          3          4          5
     1  C    0.000000
     2  C    1.422726   0.000000
     3  C    2.422259   1.386893   0.000000
     4  C    2.486328   2.781541   2.312047   0.000000
     5  C    1.468858   2.486152   2.801105   1.473366   0.000000
     6  H    2.195312   1.097522   2.159268   3.877375   3.492606
     7  H    3.431331   2.165256   1.104500   3.282671   3.904625
     8  H    3.503695   3.885819   3.295196   1.105437   2.242488
     9  N    2.861016   2.445900   1.376777   1.321246   2.474398
    10  C    1.392909   2.446662   3.700208   3.781609   2.487967
    11  H    2.102122   3.210368   3.573813   2.110179   1.112580
    12  H    2.115790   3.225503   3.582203   2.109099   1.115294
    13  H    2.147058   2.879673   4.186501   4.515424   3.292002
    14  H    2.148135   3.252704   4.443789   4.283493   2.918218
                    6          7          8          9         10
     6  H    0.000000
     7  H    2.497065   0.000000
     8  H    4.980546   4.150591   0.000000
     9  N    3.425663   2.100165   2.053703   0.000000
    10  C    2.704245   4.606710   4.710075   4.253869   0.000000
    11  H    4.140456   4.652379   2.578099   3.185604   2.757445
    12  H    4.154088   4.656168   2.569671   3.187694   2.774128
    13  H    2.858424   4.983149   5.458745   4.879124   1.081501
    14  H    3.494483   5.362165   5.108890   4.888712   1.081579
                   11         12         13         14
    11  H    0.000000
    12  H    1.789214   0.000000
    13  H    3.317499   3.747312   0.000000
    14  H    3.244148   2.774043   1.875033   0.000000
 Stoichiometry    C6H7N
 Framework group  C1[X(C6H7N)]
 Deg. of freedom    36
 Full point group                 C1      NOp   1
 Largest Abelian subgroup         C1      NOp   1
 Largest concise Abelian subgroup C1      NOp   1
                         Standard orientation:                         
 ---------------------------------------------------------------------
 Center     Atomic      Atomic             Coordinates (Angstroms)
 Number     Number       Type             X           Y           Z
 ---------------------------------------------------------------------
      1          6           0       -0.986070    0.022452   -0.002200
      2          6           0       -0.258876    1.245224   -0.015105
      3          6           0        1.127452    1.205724   -0.017375
      4          6           0        1.230476   -1.103760    0.017683
      5          6           0       -0.236517   -1.240632    0.016063
      6          1           0       -0.784879    2.208273   -0.035410
      7          1           0        1.711321    2.142944   -0.042571
      8          1           0        1.872032   -2.003887    0.030688
      9          7           0        1.874816    0.049582   -0.000193
     10          6           0       -2.378976    0.024118    0.000132
     11          1           0       -0.540031   -1.812841    0.920657
     12          1           0       -0.530643   -1.853560   -0.868069
     13          1           0       -2.915500    0.500293    0.809481
     14          1           0       -2.920943   -0.447059   -0.808618
 ---------------------------------------------------------------------
 Rotational constants (GHZ):           5.4376549           2.6415864           1.8155492
 Standard basis: VSTO-6G (5D, 7F)
 There are    35 symmetry adapted cartesian basis functions of A   symmetry.
 There are    35 symmetry adapted basis functions of A   symmetry.
    35 basis functions,   210 primitive gaussians,    35 cartesian basis functions
    18 alpha electrons       18 beta electrons
       nuclear repulsion energy       160.7045298241 Hartrees.
 Integral buffers will be    131072 words long.
 Regular integral format.
 Two-electron integral symmetry is turned off.
 Do NDO integrals.
 One-electron integrals computed using PRISM.
 NBasis=    35 RedAO= F EigKep=  0.00D+00  NBF=    35
 NBsUse=    35 1.00D-04 EigRej=  0.00D+00 NBFU=    35
 Initial guess from the checkpoint file:  "meth_pyridine_isomer_opt.chk"
 B after Tr=     0.000000   -0.000000    0.000000
         Rot=    0.999951    0.003382   -0.000110   -0.009340 Ang=   1.14 deg.
 Keep J ints in memory in canonical form, NReq=862419.
 Overlap will be assumed to be unity.
 Requested convergence on RMS density matrix=1.00D-08 within 128 cycles.
 Requested convergence on MAX density matrix=1.00D-06.
 Requested convergence on             energy=1.00D-06.
 No special actions if energy rises.
 SCF Done:  E(RAM1) =  0.123648690479     A.U. after   14 cycles
            NFock= 13  Conv=0.27D-08     -V/T= 1.0020
 Calling FoFJK, ICntrl=      2127 FMM=F ISym2X=0 I1Cent= 0 IOpClX= 0 NMat=1 NMatS=1 NMatT=0.
 ***** Axes restored to original set *****
 -------------------------------------------------------------------
 Center     Atomic                   Forces (Hartrees/Bohr)
 Number     Number              X              Y              Z
 -------------------------------------------------------------------
      1        6          -0.002131527    0.050063077    0.009341948
      2        6          -0.020475970   -0.037270888    0.008353701
      3        6          -0.000425548    0.032529607    0.019081049
      4        6          -0.000405806   -0.032854771    0.036667751
      5        6           0.020192600    0.004639292   -0.014268104
      6        1           0.000152544    0.001641674   -0.000999818
      7        1           0.002046849   -0.001726102   -0.001405791
      8        1           0.001174097    0.003521369   -0.001739149
      9        7          -0.000972772    0.003755078   -0.038974194
     10        6           0.002854157   -0.045002230   -0.002945673
     11        1          -0.009013105    0.003220101   -0.004639105
     12        1           0.007112208    0.002677875   -0.008858375
     13        1           0.005384468    0.006958511    0.021920590
[...]
   zx        -0.355546D+01     -0.526865D+00     -0.586217D+00
   zy         0.441201D+01      0.653792D+00      0.727442D+00
   zz         0.675289D+02      0.100067D+02      0.111340D+02

 First dipole hyperpolarizability, Beta (input orientation).
 ||, _|_  parallel and perpendicular components, (z) with respect to z axis,
 vector components x,y,z.  Values do not include the 1/n! factor of 1/2.
 (esu units = statvolt**-1 cm**4 , SI units = C**3 m**3 J**-2)
 Beta(0;0,0):
               (au)            (10**-30 esu)      (10**-50 SI)
   || (z)    -0.415025D+02     -0.358550D+00     -0.133072D+00
   _|_(z)    -0.138342D+02     -0.119517D+00     -0.443574D-01
   x          0.144884D+02      0.125168D+00      0.464550D-01
   y          0.130919D+03      0.113103D+01      0.419772D+00
   z         -0.207513D+03     -0.179275D+01     -0.665361D+00
   ||         0.491573D+02      0.424681D+00      0.157616D+00
   xxx        0.567100D+01      0.489930D-01      0.181833D-01
   xxy        0.130565D+02      0.112798D+00      0.418639D-01
   yxy       -0.153086D+00     -0.132254D-02     -0.490848D-03
   yyy        0.477494D+02      0.412518D+00      0.153102D+00
   xxz       -0.266217D+02     -0.229991D+00     -0.853589D-01
   yxz        0.212449D+01      0.183539D-01      0.681188D-02
   yyz        0.977539D+00      0.844518D-02      0.313434D-02
   zxz       -0.688446D+00     -0.594763D-02     -0.220741D-02
   zyz       -0.171664D+02     -0.148305D+00     -0.550418D-01
   zzz       -0.435267D+02     -0.376037D+00     -0.139562D+00

 ----------------------------------------------------------------------

 Dipole orientation:
     6         -0.04979166         -0.74736643          1.67018456
     6         -0.12389451         -2.27730351         -0.61380480
     6         -0.07021987         -1.18977166         -2.93195140
     6          0.13004366          2.88062262         -1.36753055
     6          0.08922453          2.05669756          1.34015395
     1         -0.22487196         -4.33982896         -0.38494049
     1         -0.12463571         -2.29411186         -4.70020367
     1          0.23218072          4.94390914         -1.69678849
     7          0.05842455          1.42951083         -3.33377938
     6         -0.10344212         -1.78697801          3.98065777
     1         -1.57786163          2.96780247          2.29504441
     1          1.83825852          2.79882011          2.29483511
     1         -0.20539945         -3.83732486          4.27014657
     1         -0.04818809         -0.64218918          5.70803289

 Electric dipole moment (dipole orientation):
 (Debye = 10**-18 statcoulomb cm , SI units = C m)
                  (au)            (Debye)         (10**-30 SI)
   Tot        0.778690D+00      0.197923D+01      0.660201D+01
   x          0.000000D+00      0.000000D+00      0.000000D+00
   y          0.000000D+00      0.000000D+00      0.000000D+00
   z          0.778690D+00      0.197923D+01      0.660201D+01

 Dipole polarizability, Alpha (dipole orientation).
 (esu units = cm**3 , SI units = C**2 m**2 J**-1)
 Alpha(0;0):
               (au)            (10**-24 esu)      (10**-40 SI)
   iso        0.611765D+02      0.906542D+01      0.100866D+02
   aniso      0.702757D+02      0.104138D+02      0.115869D+02
   xx         0.180923D+02      0.268100D+01      0.298301D+01
   yx         0.285556D+01      0.423151D+00      0.470819D+00
   yy         0.755291D+02      0.111923D+02      0.124531D+02
   zx        -0.723700D+00     -0.107241D+00     -0.119322D+00
   zy        -0.139166D+02     -0.206223D+01     -0.229454D+01
   zz         0.899080D+02      0.133230D+02      0.148238D+02

 First dipole hyperpolarizability, Beta (dipole orientation).
 ||, _|_  parallel and perpendicular components, (z) with respect to z axis,
 vector components x,y,z.  Values do not include the 1/n! factor of 1/2.
 (esu units = statvolt**-1 cm**4 , SI units = C**3 m**3 J**-2)
 Beta(0;0,0):
               (au)            (10**-30 esu)      (10**-50 SI)
   || (z)     0.404708D+02      0.349637D+00      0.129764D+00
   _|_(z)     0.134903D+02      0.116546D+00      0.432547D-01
   x          0.681111D+01      0.588427D-01      0.218389D-01
   y          0.139347D+03      0.120385D+01      0.446795D+00
   z          0.202354D+03      0.174818D+01      0.648821D+00
   ||         0.491573D+02      0.424681D+00      0.157616D+00
   xxx        0.289877D+01      0.250431D-01      0.929451D-02
   xxy        0.194317D+02      0.167875D+00      0.623051D-01
   yxy        0.429809D+00      0.371321D-02      0.137812D-02
   yyy        0.476362D+02      0.411540D+00      0.152739D+00
   xxz        0.227100D+02      0.196197D+00      0.728165D-01
   yxz       -0.457569D+00     -0.395304D-02     -0.146713D-02
   yyz        0.134345D+02      0.116063D+00      0.430758D-01
   zxz       -0.105821D+01     -0.914211D-02     -0.339300D-02
   zyz       -0.206191D+02     -0.178133D+00     -0.661122D-01
   zzz        0.313069D+02      0.270467D+00      0.100381D+00

 ----------------------------------------------------------------------
 1\1\GINC-IISERK51\Freq\RAM1\ZDO\C6H7N1\GAUSSIAN\14-Jun-2025\0\\#N Geom
 =AllCheck Guess=TCheck SCRF=Check GenChk RAM1/ZDO Freq\\meth-pyridine_
 isomer opt freq with AM1\\0,1\C,-0.0100723334,0.9684664349,0.014883093
 3\C,-0.0947514606,0.1775399519,1.2335159962\C,-0.088477451,-1.17698261
 23,1.1882258915\C,0.0761303986,-1.2668745246,-1.1141517785\C,0.0844377
 604,0.2219822448,-1.2779985155\H,-0.1637853317,0.719849801,2.187403669
 \H,-0.1517432007,-1.8060498679,2.092761305\H,0.1443977806,-1.858172260
 1,-2.0474843496\N,-0.0021280107,-1.9197527763,0.0000084671\C,-0.016003
 0677,2.3092645706,0.0384693965\H,-0.7758259762,0.5115100694,-1.9429481
 956\H,1.0294810161,0.5155307427,-1.8135453472\H,-0.084606866,2.8785237
 341,0.9737950455\H,0.0475097923,2.9100120018,-0.8772099176\\Version=EM
 64L-G16RevB.01\State=1-A\HF=0.0735499\RMSD=1.278e-09\RMSF=1.844e-05\Ze
 roPoint=0.1181666\Thermal=0.1239806\Dipole=0.0203264,0.7155545,-0.3064
 743\DipoleDeriv=-0.0448298,0.0035855,-0.0010384,0.0007489,-0.0581706,-
 0.0112683,-0.0010482,-0.0495953,-0.0301916,-0.1661217,0.0051269,0.0007
 583,0.0015813,-0.1734543,-0.0213801,0.0010306,-0.0753061,-0.1757393,-0
 .0853608,-0.0100516,-0.0143475,0.0045162,-0.0049261,-0.0657123,-0.0149
 576,0.1401984,0.1172409,-0.107931,0.0027123,-0.0196652,0.0173237,0.234
 3296,-0.2529886,-0.0201661,-0.0493198,0.1725591,0.0304385,0.0031993,0.
 0180087,-0.0060701,-0.1129753,0.089498,0.0183762,-0.0380986,-0.2226426
 ,0.144734,-0.0059761,0.0000118,-0.0025189,0.0727011,0.0379965,-0.00013
 46,0.0869769,0.1436923,0.1583593,0.0095263,0.0008601,0.0061978,0.15377
 35,-0.0868842,0.0009995,-0.133383,0.1488003,0.1253445,-0.0052421,-0.00
 32562,-0.0081992,0.093873,0.1154143,-0.0031743,0.0736923,0.1668596,-0.
 2179798,-0.0026522,0.0193384,-0.0148445,-0.2654546,0.2093889,0.0197834
 ,0.038435,-0.4934149,-0.3150414,-0.0039052,-0.0153445,0.000622,-0.2148
 884,-0.0134548,-0.0155302,0.0506391,-0.1005189,0.0891013,-0.0000138,0.
 0304907,-0.009538,0.0254681,-0.0057028,0.0055287,-0.0258517,0.081104,0
 .0939711,0.0040182,-0.0286169,0.0106145,0.0255302,-0.004371,-0.0035466
 ,-0.0256086,0.0762023,0.1510827,-0.008517,0.0056224,-0.0026889,0.11635
 86,0.0393647,0.00539,0.1209887,0.0707753,0.1442243,0.0081783,0.0071849
 ,0.002255,0.1078462,-0.029897,0.0074482,-0.1137736,0.045277\Polar=18.2
 06202,-0.5338628,97.7943222,-3.5554629,4.4120079,67.5288615\HyperPolar
 =5.6709976,13.0565003,-0.1530856,47.7494442,-26.6217222,2.1244902,0.97
 75392,-0.6884456,-17.1664238,-43.5266963\PG=C01 [X(C6H7N1)]\NImag=0\\0
 .17492962,-0.00156076,1.03007351,-0.03597325,-0.01482525,0.67681436,-0
 .07490973,-0.00824452,0.01354816,0.14412567,-0.00806646,-0.12656730,0.
 11515105,-0.00281588,0.95406207,0.01354732,0.11782000,-0.26855996,-0.0
 3799672,0.01301258,0.67571503,0.00850050,-0.00238052,0.00059318,-0.062
 95041,0.00048228,0.00161904,0.15477110,-0.00252140,-0.06819123,0.03805
 347,0.00288603,-0.56047655,-0.02488730,-0.00225727,0.92958272,0.000599
 61,0.03601111,-0.00109297,0.00154381,0.00881070,-0.08473505,-0.0410842
 4,0.00754345,0.72743831,0.00337979,0.00274561,0.00011488,0.00080039,-0
 .00072438,0.00036642,0.00527875,0.00053257,0.00989318,0.17965985,0.001
 70966,-0.03785722,-0.02253194,0.00026487,-0.01060114,-0.00334155,-0.00
 005217,0.03070669,-0.00005180,0.01135085,0.70776370,0.00014756,-0.0369
 3373,0.00255850,0.00033825,0.01046696,-0.00421944,0.00990869,-0.008249
 87,-0.13246192,-0.05831903,-0.17572329,0.99589949,-0.07295779,0.006383
 70,0.01153960,0.00803923,0.00042030,0.00416448,-0.01019795,-0.00028193
 ,-0.00086272,-0.07968546,-0.00009314,-0.00093729,0.48167771,0.00689052
 ,-0.11955106,-0.09458050,-0.00046566,0.01081279,0.00641389,0.00019660,
 -0.00404523,-0.00297202,-0.00052390,-0.26546102,0.01325948,-0.00169803
 ,0.61157851,0.01152286,-0.08765145,-0.22982097,0.00420405,-0.00588582,
 -0.05030979,-0.00087784,0.00369836,0.00186849,-0.00092136,0.00732592,-
 0.06720758,-0.00737778,0.01853607,0.58359212,0.00674037,0.00032266,0.0
 0304989,-0.04240768,0.00861388,0.01477825,0.00395514,0.00083089,0.0005
 7862,0.00012756,-0.00005251,0.00002315,0.00207219,-0.00012544,0.000241
 43,0.02427722,-0.00092509,0.00722475,0.01300205,0.00851020,-0.10454721
 ,-0.11770330,0.00217208,-0.02699220,-0.02954821,-0.00004988,-0.0002427
 1,0.00070963,-0.00010274,-0.00115887,0.00155512,-0.00958014,0.13094472
 ,0.00309026,-0.00460554,-0.03637472,0.01478363,-0.11916378,-0.24551533
 ,0.00053661,-0.01066426,-0.00321565,0.00002357,0.00075848,-0.00022328,
 0.00023821,0.00189001,-0.00133765,-0.01903718,0.13130366,0.28656557,0.
 00854920,0.00007832,0.00061920,0.00569900,-0.00049620,0.00037301,-0.04
 450255,-0.00886367,0.01191535,0.00206787,0.00025575,0.00038467,-0.0003
 8330,0.00000855,-0.00004334,-0.00178508,-0.00000130,-0.00016336,0.0243
 6924,0.00007892,-0.00282975,-0.00076592,-0.00174501,-0.02980203,0.0255
 7042,-0.00893291,-0.12855405,0.12760225,0.00020399,-0.00262807,-0.0027
 0801,-0.00000122,-0.00006305,0.00000463,0.00000492,-0.00061685,-0.0001
 0472,0.00973220,0.15269851,0.00062309,-0.00073969,-0.00010257,0.000410
 10,0.00814479,-0.00026716,0.01191665,0.12650976,-0.21434735,0.00038851
 ,-0.00345008,-0.00323577,-0.00004310,-0.00012545,0.00021928,-0.0001642
 4,-0.00002128,0.00050650,-0.01632660,-0.14018168,0.25610423,0.00106219
 ,-0.00004655,0.00004667,-0.00008658,-0.00002017,-0.00001965,0.01255276
 ,-0.00020685,0.00107143,-0.04448588,0.00859103,0.01289634,0.00868814,0
 .00053583,0.00064745,-0.00142097,-0.00000171,-0.00009610,-0.00049837,0
 .00003865,0.00001357,0.02510147,-0.00011871,-0.00312657,0.00178976,-0.
 00002663,-0.00007048,0.00037645,-0.00009736,-0.00203672,0.00183147,0.0
 0893691,-0.11543845,-0.12242331,0.00164250,-0.02741674,-0.02177428,0.0
 0000713,-0.00001543,-0.00014716,-0.00004126,0.00056028,0.00054807,-0.0
 0963792,0.13701956,0.00005165,0.00078542,0.00032057,-0.00001972,0.0002
 5278,0.00018224,0.00107014,0.00335627,-0.00239821,0.01288197,-0.117608
 07,-0.21946033,0.00061185,-0.00628866,0.00039754,-0.00009736,-0.000021
 41,-0.00007004,0.00001505,-0.00056680,-0.00069726,-0.01772487,0.130846
 58,0.26694750,-0.00491556,-0.00059212,0.00028549,0.01037969,0.00520639
 ,0.00176299,-0.06827421,0.00997732,0.01590975,-0.06509915,-0.02035309,
 0.03507663,0.03214757,-0.00286597,0.00380542,0.00855463,0.00008620,0.0
 0053212,0.00698786,0.00066407,0.00324091,-0.00096513,-0.00075868,0.003
 23929,0.08265939,-0.00005308,-0.00409244,0.00070653,0.00375880,-0.0626
 6666,-0.05045634,0.01122127,-0.17774210,-0.15392341,-0.02008731,-0.263
 20986,0.28703914,-0.00340589,-0.05123451,0.05026266,0.00001159,-0.0041
 1189,0.00022300,-0.00068078,0.01168868,0.00945095,0.00073755,0.0120956
 1,-0.01066414,0.00843069,0.54737723,0.00026112,0.00827935,-0.00887996,
 0.00180775,-0.07070299,-0.01261586,0.01587056,-0.13642763,-0.28564725,
 0.03506896,0.29074846,-0.56189519,0.00382434,0.04272715,-0.02232730,0.
 00053776,-0.00080398,0.00109064,0.00328530,-0.00946903,-0.03850187,0.0
 0319017,0.01020890,-0.04566449,-0.06348402,-0.13190176,0.97077751,-0.0
 6079241,0.00243326,0.00116427,0.00714058,-0.00273272,0.00094792,0.0008
 2181,-0.00018293,0.00035420,0.00059312,0.00004117,0.00035573,0.0062882
 8,0.00304282,0.00134260,-0.00039770,-0.00008788,0.00002477,-0.00007651
 ,-0.00004265,-0.00002733,-0.00014578,0.00006844,-0.00001882,-0.0001965
 8,0.00006131,-0.00004402,0.13235307,0.00293759,-0.62383231,-0.01616997
 ,-0.00233819,-0.06473651,0.03578115,-0.00036650,0.00756645,0.00490677,
 -0.00000164,-0.00225425,0.00011123,0.00231396,-0.04325021,-0.03016774,
 -0.00003102,-0.00020777,0.00045476,0.00000909,-0.00022355,-0.00012591,
 -0.00000528,-0.00021120,0.00007160,0.00032086,-0.00071186,-0.00447326,
 -0.00297013,0.96253658,0.00114075,-0.00907289,-0.07633606,0.00092744,0
 .04135667,-0.00758051,0.00036345,0.00228278,-0.00432591,0.00035834,-0.
 00046805,-0.00436375,0.00137486,-0.04046631,-0.01112645,0.00002286,0.0
 0122490,-0.00076504,-0.00002767,0.00060487,0.00031158,-0.00001617,-0.0
 0095454,0.00011219,-0.00005624,-0.00083972,0.00060104,-0.03250844,0.00
 484590,0.58501375,0.00135421,-0.00216464,-0.00902599,-0.00056755,0.000
 10814,0.00040301,0.00014885,-0.00010346,-0.00021988,-0.00044899,0.0104
 2993,-0.00557539,-0.17581451,0.04651594,-0.10658397,0.00009372,-0.0000
 4143,0.00005354,0.00007578,0.00001687,-0.00000377,-0.00002782,0.000205
 87,0.00005910,-0.00085440,-0.00078808,0.00100353,0.00015953,0.00020457
 ,0.00020229,0.20813507,-0.00820977,0.00519803,-0.01003825,0.00033695,-
 0.00077631,-0.00085732,0.00155668,0.00022612,-0.00018820,0.02428005,-0
 .02027254,0.01943529,0.04861625,-0.05295233,0.03501551,-0.00020765,0.0
 0014461,-0.00024097,-0.00001621,-0.00002686,-0.00004357,-0.00033006,-0
 .00060638,-0.00009589,-0.00367573,-0.00376967,0.00057473,-0.00009803,-
 0.00109987,-0.00128970,-0.05841372,0.06851307,-0.02119260,-0.00414575,
 -0.03088675,0.00059130,-0.00068540,-0.00133495,-0.00019980,-0.00063165
 ,-0.00061039,-0.00707100,0.01298393,-0.00363583,-0.10737367,0.03400726
 ,-0.11676452,-0.00018984,0.00018006,-0.00026421,-0.00004708,0.00001449
 ,-0.00000507,0.00004258,-0.00013770,0.00017168,0.00022928,-0.00002179,
 0.00163279,-0.00031132,0.00023383,-0.00059973,0.13014860,-0.04064031,0
 .14537644,-0.00362530,0.00270288,0.01300049,-0.00044294,-0.00000861,-0
 .00027013,0.00008025,0.00019249,0.00032070,-0.00212482,-0.01209587,0.0
 0570379,-0.20433263,-0.05152571,0.09376756,0.00006616,0.00001509,-0.00
 000503,0.00006704,-0.00001837,0.00001430,-0.00001009,-0.00018155,-0.00
 008487,-0.00064967,0.00079603,-0.00133560,0.00012851,-0.00023207,-0.00
 009113,-0.03222685,-0.00409249,0.00480055,0.24301877,0.00952665,0.0052
 4790,-0.00871206,-0.00020919,-0.00077683,-0.00089674,-0.00151465,0.000
 21855,-0.00040692,-0.02671946,-0.02044130,0.01580525,-0.05375128,-0.05
 339868,0.02812245,0.00023925,0.00014548,-0.00020903,0.00002257,-0.0000
 2689,-0.00004077,0.00034293,-0.00060652,-0.00004828,0.00357021,-0.0037
 4869,0.00108983,0.00028634,-0.00109821,-0.00125953,0.00412819,0.005464
 13,-0.00112610,0.06434693,0.06906280,0.02514479,-0.00368755,-0.0259458
 9,-0.00046036,-0.00069417,-0.00145657,0.00030157,-0.00061011,-0.000536
 37,0.00722268,0.01140768,-0.00179436,0.09456412,0.02742507,-0.08777655
 ,0.00023624,0.00018465,-0.00023748,0.00005727,0.00001220,0.00000369,-0
 .00006800,-0.00016549,0.00015331,-0.00055630,0.00009068,0.00140959,0.0
 0041296,0.00020737,-0.00056722,-0.01042850,-0.00175056,0.00686931,-0.1
 1585227,-0.03240022,0.10990474,0.00591489,0.00079549,0.00064677,-0.003
 96070,-0.00003593,-0.00033229,-0.00014376,0.00000157,0.00001117,-0.000
 13700,-0.00000725,0.00000271,0.00819598,0.00002930,0.00054562,0.000271
 37,-0.00000233,0.00002891,0.00038450,0.00000336,0.00002000,0.00037175,
 0.00000318,0.00003018,-0.00017261,0.00000620,-0.00002418,-0.04254678,0
 .00911261,0.01486990,-0.00013675,0.00030380,0.00114520,0.00002808,-0.0
 0032398,-0.00115812,0.02350881,0.00230775,-0.03028561,-0.03072265,-0.0
 0001255,-0.00086419,0.00003558,0.00002434,0.00007176,-0.00035053,0.000
 06681,0.00002053,-0.00093749,-0.00003609,-0.00303388,0.00100102,-0.000
 04125,-0.00056671,0.00062050,-0.00000479,-0.00001007,0.00008530,0.0000
 0059,-0.00019934,0.00001517,-0.00001547,-0.00007817,0.00021079,0.00881
 274,-0.11195045,-0.12026071,0.00001891,0.00001799,0.00006319,-0.000027
 61,0.00001569,0.00005194,-0.01044730,0.13966000,0.00057720,-0.00951672
 ,-0.00169921,-0.00033239,0.00037275,0.00066298,0.00000948,-0.00003765,
 -0.00027710,-0.00000217,0.00010322,-0.00010685,0.00055067,0.00008979,0
 .00051570,0.00003097,0.00006835,-0.00016521,0.00002033,-0.00003681,0.0
 0010158,0.00003039,-0.00001850,-0.00004943,-0.00002325,-0.00008942,0.0
 0015341,0.01488325,-0.12446596,-0.24433762,-0.00002208,0.00015051,0.00
 010415,0.00001038,0.00010564,-0.00005890,-0.01842724,0.14107416,0.2739
 2718,0.00676949,-0.00047281,0.00039062,0.00914093,0.00006945,0.0006563
 2,-0.00003913,-0.00000323,-0.00003082,0.00007446,0.00001088,-0.0000059
 3,-0.00373702,-0.00001493,-0.00027263,-0.00014690,0.00000890,-0.000009
 93,-0.00095473,-0.00000285,-0.00006210,-0.00013596,-0.00000194,-0.0000
 1356,0.00039663,-0.00000837,0.00003819,-0.04332851,-0.00895388,0.01343
 980,0.00010962,-0.00005019,-0.00057216,0.00002342,0.00005560,0.0005838
 9,0.00842232,-0.00064606,0.00269447,0.02340512,-0.00199583,-0.03141089
 ,0.02964379,0.00010079,-0.00298932,-0.00086769,-0.00005183,-0.00033474
 ,0.00073494,-0.00001021,-0.00008425,0.00014847,-0.00000637,-0.00082534
 ,-0.00004248,0.00000768,-0.00000004,-0.00011486,-0.00000227,-0.0001664
 0,-0.00001042,0.00000196,0.00005216,-0.00003450,0.00000527,0.00020504,
 -0.00006007,-0.00863173,-0.12052671,0.12429626,-0.00011707,-0.00006013
 ,-0.00009398,0.00012885,-0.00005756,-0.00007139,0.00056130,0.00720234,
 -0.00779929,0.01000945,0.14899576,0.00045961,0.00828269,0.00000565,0.0
 0065471,-0.00043622,0.00003428,-0.00002745,0.00006466,0.00034180,-0.00
 000494,-0.00015285,0.00014658,-0.00027355,0.00008427,0.00007770,-0.000
 01055,-0.00013023,0.00000576,-0.00006213,0.00002416,-0.00008981,-0.000
 01382,0.00001973,0.00005475,0.00003784,0.00012332,-0.00013354,0.013424
 24,0.12879030,-0.23603598,-0.00001043,-0.00003135,-0.00005302,0.000021
 22,-0.00002355,0.00003259,0.00264139,0.00911359,-0.02877070,-0.0168361
 8,-0.14572863,0.26438393\\0.00000355,-0.00000699,-0.00006747,0.0000001
 4,-0.00003370,0.00003561,0.00002761,0.00002349,-0.00000161,0.00000380,
 -0.00001344,0.00001501,-0.00001527,0.00000064,0.00004894,0.00000340,0.
 00000461,-0.00000439,-0.00001337,-0.00000278,-0.00000372,0.00000968,0.
 00000029,0.00000611,-0.00001886,0.00000758,-0.00001973,-0.00000952,-0.
 00001638,0.00001149,0.00000046,0.00001069,-0.00000285,0.00000915,-0.00
 000287,-0.00002051,-0.00000207,0.00001408,-0.00000721,0.00000132,0.000
 01477,0.00001034\\\@


          EVOLUTION
 IN THE BEGINNING GOD MADE MAN.
 HE WORKED THE DIRT WITH HIS HANDS.
 THEN GOD DECIDED TO GIVE MAN SCIENCE,
 MAN SHOULD BE USEFUL (LIKE AN APPLIANCE.)
 BUT SOON MAN'S KNOWLEDGE GREW TOO GREAT,
 TO THE HEADING SCIENCE HE COULDN'T RELATE
 SO GOD SAID "LETS HAVE DIFFERENT FIELDS,
 WE'LL DIVIDE THEM UP, SEE WHAT IT YIELDS."
 ENTER PHYSICS, CHEMISTRY, BIO
 THEY SPRANG UP AROUND THE NILE.
 BUT CHEMISTRY SURPASSED THE REST
 FAR AND AWAY IT WAS THE BEST.
 EXPERIMENT WAS GOD'S DECREE
 EXPERIMENT DID CHEMISTS WITH LOTS OF GLEE
 BUT SOON THEIR TESTS BEGAN TO BOG,
 THEY FOUND THEMSELVES DEEP IN A FOG.
 "GIVE US SOME HELP" THEY CRIED TO GOD.
 GOD LOOKED AROUND, THEN GAVE THE NOD.
 ENTER EINSTEIN, HEISENBERG, BOHR,
 REACTION PATHS WERE CLEAR ONCE MORE.
 WITH THEORISTS GOD SEND DIRECTION
 AND THEN HE STOPPED, HE'D MADE PERFECTION.
          -- THOMAS A. HOLME, 1981
 Job cpu time:       0 days  0 hours  0 minutes  0.5 seconds.
 Elapsed time:       0 days  0 hours  0 minutes  0.5 seconds.
 File lengths (MBytes):  RWF=     11 Int=      0 D2E=      0 Chk=      2 Scr=      1
 Normal termination of Gaussian 16 at Sat Jun 14 14:28:34 2025.
