 Entering Gaussian System, Link 0=g16
 Input=/home/gaussian/Documents/Summer_Internship/Aromaticity/hetrocyclic/pyridine/meth_pyridine_sp.com
 Output=/home/gaussian/Documents/Summer_Internship/Aromaticity/hetrocyclic/pyridine/meth_pyridine_sp.log
 Initial command:
 /usr/local/g16/l1.exe "/home/gaussian/tmp/Gau-46770.inp" -scrdir="/home/gaussian/tmp/"
 Entering Link 1 = /usr/local/g16/l1.exe PID=     46773.
  
 Copyright (c) 1988-2017, Gaussian, Inc.  All Rights Reserved.
  
 This is part of the Gaussian(R) 16 program.  It is based on
 the Gaussian(R) 09 system (copyright 2009, Gaussian, Inc.),
 the Gaussian(R) 03 system (copyright 2003, Gaussian, Inc.),
 the Gaussian(R) 98 system (copyright 1998, Gaussian, Inc.),
 the Gaussian(R) 94 system (copyright 1995, Gaussian, Inc.),
 the Gaussian 92(TM) system (copyright 1992, Gaussian, Inc.),
 the Gaussian 90(TM) system (copyright 1990, Gaussian, Inc.),
 the Gaussian 88(TM) system (copyright 1988, Gaussian, Inc.),
 the Gaussian 86(TM) system (copyright 1986, Carnegie Mellon
 University), and the Gaussian 82(TM) system (copyright 1983,
 Carnegie Mellon University). Gaussian is a federally registered
 trademark of Gaussian, Inc.
  
 This software contains proprietary and confidential information,
 including trade secrets, belonging to Gaussian, Inc.
  
 This software is provided under written license and may be
 used, copied, transmitted, or stored only in accord with that
 written license.
  
 The following legend is applicable only to US Government
 contracts under FAR:
  
                    RESTRICTED RIGHTS LEGEND
  
 Use, reproduction and disclosure by the US Government is
 subject to restrictions as set forth in subparagraphs (a)
 and (c) of the Commercial Computer Software - Restricted
 Rights clause in FAR 52.227-19.
  
 Gaussian, Inc.
 340 Quinnipiac St., Bldg. 40, Wallingford CT 06492
  
  
 ---------------------------------------------------------------
 Warning -- This program may not be used in any manner that
 competes with the business of Gaussian, Inc. or will provide
 assistance to any competitor of Gaussian, Inc.  The licensee
 of this program is prohibited from giving any competitor of
 Gaussian, Inc. access to this program.  By using this program,
 the user acknowledges that Gaussian, Inc. is engaged in the
 business of creating and licensing software in the field of
 computational chemistry and represents and warrants to the
 licensee that it is not a competitor of Gaussian, Inc. and that
 it will not use this program in any manner prohibited above.
 ---------------------------------------------------------------
  

 Cite this work as:
 Gaussian 16, Revision B.01,
 M. J. Frisch, G. W. Trucks, H. B. Schlegel, G. E. Scuseria, 
 M. A. Robb, J. R. Cheeseman, G. Scalmani, V. Barone, 
 G. A. Petersson, H. Nakatsuji, X. Li, M. Caricato, A. V. Marenich, 
 J. Bloino, B. G. Janesko, R. Gomperts, B. Mennucci, H. P. Hratchian, 
 J. V. Ortiz, A. F. Izmaylov, J. L. Sonnenberg, D. Williams-Young, 
 F. Ding, F. Lipparini, F. Egidi, J. Goings, B. Peng, A. Petrone, 
 T. Henderson, D. Ranasinghe, V. G. Zakrzewski, J. Gao, N. Rega, 
 G. Zheng, W. Liang, M. Hada, M. Ehara, K. Toyota, R. Fukuda, 
 J. Hasegawa, M. Ishida, T. Nakajima, Y. Honda, O. Kitao, H. Nakai, 
 T. Vreven, K. Throssell, J. A. Montgomery, Jr., J. E. Peralta, 
 F. Ogliaro, M. J. Bearpark, J. J. Heyd, E. N. Brothers, K. N. Kudin, 
 V. N. Staroverov, T. A. Keith, R. Kobayashi, J. Normand, 
 K. Raghavachari, A. P. Rendell, J. C. Burant, S. S. Iyengar, 
 J. Tomasi, M. Cossi, J. M. Millam, M. Klene, C. Adamo, R. Cammi, 
 J. W. Ochterski, R. L. Martin, K. Morokuma, O. Farkas, 
 J. B. Foresman, and D. J. Fox, Gaussian, Inc., Wallingford CT, 2016.
 
 ******************************************
 Gaussian 16:  EM64L-G16RevB.01 20-Dec-2017
                14-Jun-2025 
 ******************************************
 %chk=meth_pyridine_sp.chk
 --------------------------------------
 # hf/3-21g* pop=full geom=connectivity
 --------------------------------------
 1/38=1,57=2,172=1/1;
 2/12=2,17=6,18=5,40=1/2;
 3/5=5,7=1,11=9,25=1,30=1/1,2,3;
 4//1;
 5/5=2,38=5/2;
 6/7=3,28=1/1;
 99/5=1,9=1/99;
 ------------------------------
 meth-pyridine sp with HF#-21G*
 ------------------------------
 Symbolic Z-matrix:
 Charge =  0 Multiplicity = 1
 C                     0.00263   0.90536   0. 
 C                     0.00365   0.18578   1.20208 
 C                     0.00365  -1.21871   1.14907 
 C                     0.00365  -1.21871  -1.14907 
 C                     0.00365   0.18578  -1.20208 
 H                     0.00552   0.70538   2.16895 
 H                     0.00442  -1.81749   2.07749 
 H                     0.00442  -1.81749  -2.07749 
 H                     0.00552   0.70538  -2.16895 
 N                     0.00339  -1.92213   0. 
 C                    -0.01255   2.38474   0. 
 H                     0.49909   2.79027  -0.90744 
 H                    -1.06989   2.75313   0. 
 H                     0.49909   2.79027   0.90744 
 
                          Input orientation:                          
 ---------------------------------------------------------------------
 Center     Atomic      Atomic             Coordinates (Angstroms)
 Number     Number       Type             X           Y           Z
 ---------------------------------------------------------------------
      1          6           0        0.002628    0.905356    0.000000
      2          6           0        0.003651    0.185782    1.202077
      3          6           0        0.003651   -1.218711    1.149074
      4          6           0        0.003651   -1.218711   -1.149074
      5          6           0        0.003651    0.185782   -1.202077
      6          1           0        0.005517    0.705383    2.168950
      7          1           0        0.004424   -1.817492    2.077492
      8          1           0        0.004424   -1.817492   -2.077492
      9          1           0        0.005517    0.705383   -2.168950
     10          7           0        0.003391   -1.922126    0.000000
     11          6           0       -0.012551    2.384741    0.000000
     12          1           0        0.499087    2.790272   -0.907436
     13          1           0       -1.069888    2.753125    0.000000
     14          1           0        0.499087    2.790272    0.907436
 ---------------------------------------------------------------------
                    Distance matrix (angstroms):
                    1          2          3          4          5
     1  C    0.000000
     2  C    1.400991   0.000000
     3  C    2.414960   1.405493   0.000000
     4  C    2.414960   2.738706   2.298148   0.000000
     5  C    1.400991   2.404154   2.738706   1.405493   0.000000
     6  H    2.178151   1.097648   2.177680   3.835547   3.410837
     7  H    3.424891   2.186197   1.104762   3.281656   3.843004
     8  H    3.424891   3.843004   3.281656   1.104762   2.186197
     9  H    2.178151   3.410837   3.835547   2.177680   1.097648
    10  N    2.827482   2.426575   1.347280   1.347280   2.426575
    11  C    1.479463   2.506127   3.782261   3.782261   2.506127
    12  H    2.150074   3.388048   4.532840   4.046701   2.667515
    13  H    2.136479   3.031291   4.271807   4.271807   3.031291
    14  H    2.150074   2.667515   4.046701   4.532840   3.388048
                    6          7          8          9         10
     6  H    0.000000
     7  H    2.524532   0.000000
     8  H    4.939349   4.154984   0.000000
     9  H    4.337900   4.939349   2.524532   0.000000
    10  N    3.407074   2.080126   2.080126   3.407074   0.000000
    11  C    2.743158   4.687752   4.687752   2.743158   4.306897
    12  H    3.748936   5.512348   4.779666   2.486321   4.824505
    13  H    3.170818   5.134263   5.134263   3.170818   4.796864
    14  H    2.486321   4.779666   5.512348   3.748936   4.824505
                   11         12         13         14
    11  C    0.000000
    12  H    1.117886   0.000000
    13  H    1.119673   1.812871   0.000000
    14  H    1.117886   1.814872   1.812871   0.000000
 Stoichiometry    C6H7N
 Framework group  CS[SG(C2HN),X(C4H6)]
 Deg. of freedom    20
 Full point group                 CS      NOp   2
 Largest Abelian subgroup         CS      NOp   2
 Largest concise Abelian subgroup CS      NOp   2
                         Standard orientation:                         
 ---------------------------------------------------------------------
 Center     Atomic      Atomic             Coordinates (Angstroms)
 Number     Number       Type             X           Y           Z
 ---------------------------------------------------------------------
      1          6           0        0.002628    0.905356   -0.000000
      2          6           0        0.003651    0.185782    1.202077
      3          6           0        0.003651   -1.218711    1.149074
      4          6           0        0.003651   -1.218711   -1.149074
      5          6           0        0.003651    0.185782   -1.202077
      6          1           0        0.005517    0.705383    2.168950
      7          1           0        0.004424   -1.817492    2.077492
      8          1           0        0.004424   -1.817492   -2.077492
      9          1           0        0.005517    0.705383   -2.168950
     10          7           0        0.003391   -1.922126    0.000000
     11          6           0       -0.012551    2.384741   -0.000000
     12          1           0        0.499087    2.790272   -0.907436
     13          1           0       -1.069888    2.753125   -0.000000
     14          1           0        0.499087    2.790272    0.907436
 ---------------------------------------------------------------------
 Rotational constants (GHZ):           5.7516760           2.5454011           1.7851610
 Standard basis: 3-21G* (6D, 7F)
 There are    47 symmetry adapted cartesian basis functions of A'  symmetry.
 There are    30 symmetry adapted cartesian basis functions of A"  symmetry.
 There are    47 symmetry adapted basis functions of A'  symmetry.
 There are    30 symmetry adapted basis functions of A"  symmetry.
    77 basis functions,   126 primitive gaussians,    77 cartesian basis functions
    25 alpha electrons       25 beta electrons
       nuclear repulsion energy       270.8148676273 Hartrees.
 NAtoms=   14 NActive=   14 NUniq=    9 SFac= 2.42D+00 NAtFMM=   60 NAOKFM=F Big=F
 Integral buffers will be    131072 words long.
 Raffenetti 1 integral format.
 Two-electron integral symmetry is turned on.
 One-electron integrals computed using PRISM.
 NBasis=    77 RedAO= T EigKep=  3.02D-03  NBF=    47    30
 NBsUse=    77 1.00D-06 EigRej= -1.00D+00 NBFU=    47    30
 ExpMin= 1.83D-01 ExpMax= 2.43D+02 ExpMxC= 2.43D+02 IAcc=3 IRadAn=         5 AccDes= 0.00D+00
 Harris functional with IExCor=  205 and IRadAn=       5 diagonalized for initial guess.
 HarFok:  IExCor=  205 AccDes= 0.00D+00 IRadAn=         5 IDoV= 1 UseB2=F ITyADJ=14
 ICtDFT=  3500011 ScaDFX=  1.000000  1.000000  1.000000  1.000000
 FoFCou: FMM=F IPFlag=           0 FMFlag=      100000 FMFlg1=           0
         NFxFlg=           0 DoJE=T BraDBF=F KetDBF=T FulRan=T
         wScrn=  0.000000 ICntrl=       500 IOpCl=  0 I1Cent=   200000004 NGrid=           0
         NMat0=    1 NMatS0=      1 NMatT0=    0 NMatD0=    1 NMtDS0=    0 NMtDT0=    0
 Petite list used in FoFCou.
 Initial guess orbital symmetries:
       Occupied  (A') (A') (A') (A") (A') (A") (A') (A') (A') (A")
                 (A') (A") (A') (A") (A') (A') (A') (A") (A') (A")
                 (A') (A") (A') (A") (A')
       Virtual   (A') (A") (A') (A') (A") (A') (A") (A') (A') (A")
                 (A') (A') (A") (A') (A") (A') (A") (A") (A') (A')
                 (A') (A") (A') (A') (A") (A") (A') (A") (A') (A')
                 (A') (A") (A") (A') (A') (A") (A') (A") (A') (A')
                 (A") (A') (A') (A") (A") (A') (A') (A") (A') (A")
                 (A') (A')
 The electronic state of the initial guess is 1-A'.
 Keep R1 ints in memory in symmetry-blocked form, NReq=6782638.
 Requested convergence on RMS density matrix=1.00D-08 within 128 cycles.
 Requested convergence on MAX density matrix=1.00D-06.
 Requested convergence on             energy=1.00D-06.
 No special actions if energy rises.
 SCF Done:  E(RHF) =  -284.126544491     A.U. after   13 cycles
            NFock= 13  Conv=0.52D-08     -V/T= 2.0037

 **********************************************************************

            Population analysis using the SCF Density.

 **********************************************************************

 Orbital symmetries:
       Occupied  (A') (A") (A') (A') (A") (A') (A') (A') (A') (A")
                 (A') (A") (A') (A') (A") (A') (A") (A') (A") (A')
                 (A') (A") (A') (A') (A")
       Virtual   (A') (A") (A') (A') (A") (A') (A") (A') (A") (A')
                 (A') (A') (A") (A") (A') (A') (A") (A") (A') (A')
                 (A') (A') (A") (A") (A') (A") (A") (A') (A') (A')
                 (A') (A") (A") (A') (A') (A") (A') (A") (A') (A')
                 (A") (A') (A') (A") (A") (A') (A') (A") (A') (A")
                 (A') (A')
 The electronic state is 1-A'.
 Alpha  occ. eigenvalues --  -15.49212 -11.22406 -11.22361 -11.21310 -11.18977
 Alpha  occ. eigenvalues --  -11.18965 -11.18583  -1.26036  -1.11212  -1.02647
 Alpha  occ. eigenvalues --   -0.96816  -0.85287  -0.81742  -0.69286  -0.67112
 Alpha  occ. eigenvalues --   -0.64381  -0.59534  -0.58954  -0.55150  -0.54957
 Alpha  occ. eigenvalues --   -0.52415  -0.50137  -0.40033  -0.36512  -0.34887
 Alpha virt. eigenvalues --    0.12872   0.13509   0.26261   0.28699   0.29412
 Alpha virt. eigenvalues --    0.31226   0.33457   0.34672   0.36233   0.38439
 Alpha virt. eigenvalues --    0.41417   0.48981   0.52381   0.54018   0.54447
 Alpha virt. eigenvalues --    0.73225   0.75845   0.87820   0.93419   0.93923
 Alpha virt. eigenvalues --    0.97188   0.97902   1.02598   1.03751   1.05475
 Alpha virt. eigenvalues --    1.08557   1.10597   1.10782   1.13070   1.15861
 Alpha virt. eigenvalues --    1.18409   1.20273   1.27226   1.28514   1.31357
 Alpha virt. eigenvalues --    1.34185   1.38787   1.38857   1.47734   1.54939
 Alpha virt. eigenvalues --    1.56000   1.60722   1.65702   1.71256   1.74417
 Alpha virt. eigenvalues --    1.81045   1.84619   1.97728   2.20573   2.24658
 Alpha virt. eigenvalues --    2.28037   3.23682
     Molecular Orbital Coefficients:
                           1         2         3         4         5
                           O         O         O         O         O
     Eigenvalues --   -15.49212 -11.22406 -11.22361 -11.21310 -11.18977
   1 1   C  1S         -0.00039   0.00000  -0.01448   0.98725   0.00000
   2        2S         -0.00171   0.00000  -0.00295   0.10010   0.00000
   3        2PX        -0.00001   0.00000  -0.00001  -0.00002   0.00000
   4        2PY        -0.00008   0.00000   0.00136  -0.00025   0.00000
   5        2PZ         0.00000  -0.00097   0.00000   0.00000  -0.00186
   6        3S          0.03208   0.00000   0.01114  -0.09123   0.00000
   7        3PX         0.00009   0.00000   0.00022  -0.00033   0.00000
   8        3PY        -0.01992   0.00000  -0.01383   0.00757   0.00000
   9        3PZ         0.00000   0.00254   0.00000   0.00000   0.02187
  10 2   C  1S          0.00056  -0.00333  -0.00273  -0.00832   0.69811
  11        2S          0.00273  -0.00283  -0.00149  -0.00441   0.07058
  12        2PX         0.00000  -0.00000   0.00000  -0.00001   0.00001
  13        2PY         0.00030   0.00076   0.00128  -0.00037  -0.00027
  14        2PZ        -0.00082  -0.00008  -0.00010   0.00128  -0.00160
  15        3S         -0.02521   0.02275   0.00385   0.02738  -0.05900
  16        3PX        -0.00000   0.00001  -0.00005   0.00009  -0.00002
  17        3PY         0.00753  -0.01486  -0.00535   0.00495   0.00215
  18        3PZ         0.02407  -0.00232   0.00934  -0.01531   0.01335
  19 3   C  1S         -0.00026   0.69806   0.69747   0.01005   0.00289
  20        2S         -0.00109   0.06988   0.06630   0.00037  -0.00208
  21        2PX         0.00000   0.00000   0.00000  -0.00000  -0.00000
  22        2PY        -0.00086   0.00073   0.00013  -0.00079  -0.00072
  23        2PZ        -0.00111  -0.00193   0.00013   0.00024   0.00011
  24        3S          0.03329  -0.04994  -0.03484  -0.00336   0.01840
  25        3PX        -0.00001  -0.00001   0.00001  -0.00002   0.00001
  26        3PY         0.00312  -0.01620  -0.00205  -0.00010   0.00872
  27        3PZ        -0.02641   0.00658  -0.00870   0.00236  -0.00585
  28 4   C  1S         -0.00026  -0.69806   0.69747   0.01005  -0.00289
  29        2S         -0.00109  -0.06988   0.06630   0.00037   0.00208
  30        2PX         0.00000  -0.00000   0.00000  -0.00000   0.00000
  31        2PY        -0.00086  -0.00073   0.00013  -0.00079   0.00072
  32        2PZ         0.00111  -0.00193  -0.00013  -0.00024   0.00011
  33        3S          0.03329   0.04994  -0.03484  -0.00336  -0.01840
  34        3PX        -0.00001   0.00001   0.00001  -0.00002  -0.00001
  35        3PY         0.00312   0.01620  -0.00205  -0.00010  -0.00872
  36        3PZ         0.02641   0.00658   0.00870  -0.00236  -0.00585
  37 5   C  1S          0.00056   0.00333  -0.00273  -0.00832  -0.69811
  38        2S          0.00273   0.00283  -0.00149  -0.00441  -0.07058
  39        2PX         0.00000   0.00000   0.00000  -0.00001  -0.00001
  40        2PY         0.00030  -0.00076   0.00128  -0.00037   0.00027
  41        2PZ         0.00082  -0.00008   0.00010  -0.00128  -0.00160
  42        3S         -0.02521  -0.02275   0.00385   0.02738   0.05900
  43        3PX        -0.00000  -0.00001  -0.00005   0.00009   0.00002
  44        3PY         0.00753   0.01486  -0.00535   0.00495  -0.00215
  45        3PZ        -0.02407  -0.00232  -0.00934   0.01531   0.01335
  46 6   H  1S         -0.00180  -0.00042  -0.00130  -0.00058  -0.00125
  47        2S         -0.00694   0.00155  -0.00228   0.00174   0.00465
  48 7   H  1S          0.00066  -0.00194  -0.00037  -0.00025  -0.00016
  49        2S          0.00581   0.00308   0.01092   0.00055   0.00204
  50 8   H  1S          0.00066   0.00194  -0.00037  -0.00025   0.00016
  51        2S          0.00581  -0.00308   0.01092   0.00055  -0.00204
  52 9   H  1S         -0.00180   0.00042  -0.00130  -0.00058   0.00125
  53        2S         -0.00694  -0.00155  -0.00228   0.00174  -0.00465
  54 10  N  1S          0.98667   0.00000   0.00028  -0.00005   0.00000
  55        2S          0.10535   0.00000   0.00134  -0.00049   0.00000
  56        2PX         0.00000   0.00000   0.00000  -0.00000   0.00000
  57        2PY         0.00549   0.00000  -0.00005  -0.00005   0.00000
  58        2PZ         0.00000   0.00006   0.00000   0.00000  -0.00033
  59        3S         -0.08678   0.00000  -0.00100   0.00352   0.00000
  60        3PX        -0.00001   0.00000  -0.00001   0.00002   0.00000
  61        3PY        -0.02480   0.00000  -0.00319   0.00079   0.00000
  62        3PZ         0.00000  -0.00208   0.00000   0.00000  -0.00234
  63 11  C  1S          0.00000   0.00000  -0.00229  -0.00493   0.00000
  64        2S          0.00007   0.00000  -0.00138  -0.00224   0.00000
  65        2PX         0.00004   0.00000   0.00010  -0.00040   0.00000
  66        2PY        -0.00021   0.00000  -0.00010   0.00059   0.00000
  67        2PZ         0.00000  -0.00033   0.00000   0.00000  -0.00034
  68        3S          0.00474   0.00000   0.00818   0.01464   0.00000
  69        3PX        -0.00014   0.00000  -0.00053   0.00230   0.00000
  70        3PY        -0.00206   0.00000  -0.00441  -0.00999   0.00000
  71        3PZ         0.00000   0.00146   0.00000   0.00000  -0.00283
  72 12  H  1S         -0.00008   0.00032  -0.00040  -0.00090  -0.00017
  73        2S          0.00023   0.00010   0.00053  -0.00002  -0.00039
  74 13  H  1S         -0.00005   0.00000  -0.00037  -0.00123   0.00000
  75        2S         -0.00008   0.00000  -0.00038   0.00359   0.00000
  76 14  H  1S         -0.00008  -0.00032  -0.00040  -0.00090   0.00017
  77        2S          0.00023  -0.00010   0.00053  -0.00002   0.00039
                           6         7         8         9        10
                           O         O         O         O         O
     Eigenvalues --   -11.18965 -11.18583  -1.26036  -1.11212  -1.02647
   1 1   C  1S          0.01061   0.00495  -0.04145  -0.15789   0.00000
   2        2S         -0.00423  -0.00155   0.05187   0.17147   0.00000
   3        2PX        -0.00001  -0.00009  -0.00004  -0.00068   0.00000
   4        2PY         0.00208  -0.00105  -0.02940  -0.01233   0.00000
   5        2PZ         0.00000   0.00000   0.00000   0.00000   0.10403
   6        3S          0.04701   0.02054  -0.01752   0.35047   0.00000
   7        3PX         0.00015   0.00024  -0.00050  -0.00066   0.00000
   8        3PY        -0.03585   0.01774   0.06105  -0.00845   0.00000
   9        3PZ         0.00000   0.00000   0.00000   0.00000  -0.00087
  10 2   C  1S          0.69767   0.02735  -0.05066  -0.09052  -0.11512
  11        2S          0.07064   0.00214   0.04944   0.10096   0.12352
  12        2PX        -0.00001   0.00010  -0.00006  -0.00028  -0.00001
  13        2PY        -0.00095  -0.00090  -0.02966   0.03687  -0.05631
  14        2PZ        -0.00034   0.00018  -0.02590  -0.06213  -0.00020
  15        3S         -0.07390  -0.00259   0.14704   0.18121   0.25596
  16        3PX         0.00000  -0.00041   0.00009   0.00053  -0.00004
  17        3PY         0.01281   0.00280  -0.02704  -0.01115   0.01005
  18        3PZ         0.02213  -0.00131  -0.08100   0.00232  -0.01961
  19 3   C  1S          0.00256   0.00152  -0.10040   0.01086  -0.12178
  20        2S         -0.00226  -0.00067   0.11600  -0.00851   0.13380
  21        2PX         0.00000  -0.00003  -0.00002   0.00002  -0.00000
  22        2PY        -0.00108  -0.00041  -0.01431   0.06857   0.04677
  23        2PZ        -0.00001   0.00006  -0.08811   0.03850  -0.00174
  24        3S          0.02959   0.00455   0.09325  -0.02503   0.27579
  25        3PX        -0.00001   0.00021  -0.00003  -0.00029  -0.00001
  26        3PY         0.01565   0.00350  -0.01138   0.00013   0.04836
  27        3PZ        -0.00960  -0.00182   0.05990  -0.01110   0.00637
  28 4   C  1S          0.00256   0.00152  -0.10040   0.01086   0.12178
  29        2S         -0.00226  -0.00067   0.11600  -0.00851  -0.13380
  30        2PX         0.00000  -0.00003  -0.00002   0.00002   0.00000
  31        2PY        -0.00108  -0.00041  -0.01431   0.06857  -0.04677
  32        2PZ         0.00001  -0.00006   0.08811  -0.03850  -0.00174
  33        3S          0.02959   0.00455   0.09325  -0.02503  -0.27579
  34        3PX        -0.00001   0.00021  -0.00003  -0.00029   0.00001
  35        3PY         0.01565   0.00350  -0.01138   0.00013  -0.04836
  36        3PZ         0.00960   0.00182  -0.05990   0.01110   0.00637
  37 5   C  1S          0.69767   0.02735  -0.05066  -0.09052   0.11512
  38        2S          0.07064   0.00214   0.04944   0.10096  -0.12352
  39        2PX        -0.00001   0.00010  -0.00006  -0.00028   0.00001
  40        2PY        -0.00095  -0.00090  -0.02966   0.03687   0.05631
  41        2PZ         0.00034  -0.00018   0.02590   0.06213  -0.00020
  42        3S         -0.07390  -0.00259   0.14704   0.18121  -0.25596
  43        3PX         0.00000  -0.00041   0.00009   0.00053   0.00004
  44        3PY         0.01281   0.00280  -0.02704  -0.01115  -0.01005
  45        3PZ        -0.02213   0.00131   0.08100  -0.00232  -0.01961
  46 6   H  1S         -0.00208  -0.00013   0.01720   0.03723   0.05893
  47        2S          0.00204   0.00027   0.02128   0.00067   0.01310
  48 7   H  1S          0.00002   0.00004   0.02452  -0.00444   0.06212
  49        2S          0.00378   0.00127  -0.02468  -0.00005   0.01698
  50 8   H  1S          0.00002   0.00004   0.02452  -0.00444  -0.06212
  51        2S          0.00378   0.00127  -0.02468  -0.00005  -0.01698
  52 9   H  1S         -0.00208  -0.00013   0.01720   0.03723  -0.05893
  53        2S          0.00204   0.00027   0.02128   0.00067  -0.01310
  54 10  N  1S          0.00035   0.00005  -0.17363   0.08405   0.00000
  55        2S          0.00215   0.00031   0.14881  -0.07514   0.00000
  56        2PX        -0.00000   0.00003  -0.00002  -0.00001   0.00000
  57        2PY         0.00007   0.00004   0.09974  -0.02704   0.00000
  58        2PZ         0.00000   0.00000   0.00000   0.00000   0.11512
  59        3S         -0.01416  -0.00204   0.57018  -0.27985   0.00000
  60        3PX         0.00000  -0.00014   0.00002   0.00018   0.00000
  61        3PY        -0.00787  -0.00166   0.13711  -0.04326   0.00000
  62        3PZ         0.00000   0.00000   0.00000   0.00000   0.08482
  63 11  C  1S         -0.03895   0.98682  -0.00972  -0.09326   0.00000
  64        2S         -0.00540   0.10190   0.01140   0.09290   0.00000
  65        2PX         0.00003  -0.00010   0.00006   0.00067   0.00000
  66        2PY         0.00015  -0.00015  -0.00918  -0.05826   0.00000
  67        2PZ         0.00000   0.00000   0.00000   0.00000   0.01428
  68        3S          0.01583  -0.08448  -0.00300   0.22564   0.00000
  69        3PX        -0.00008   0.00029  -0.00008  -0.00434   0.00000
  70        3PY        -0.00651   0.00814   0.01234  -0.00585   0.00000
  71        3PZ         0.00000   0.00000   0.00000   0.00000   0.00609
  72 12  H  1S         -0.00045   0.00064   0.00411   0.03922  -0.00506
  73        2S         -0.00026   0.01324  -0.00239  -0.00247  -0.00266
  74 13  H  1S         -0.00049   0.00066   0.00408   0.03969   0.00000
  75        2S         -0.00048   0.01370  -0.00229  -0.00985   0.00000
  76 14  H  1S         -0.00045   0.00064   0.00411   0.03922   0.00506
  77        2S         -0.00026   0.01324  -0.00239  -0.00247   0.00266
                          11        12        13        14        15
                           O         O         O         O         O
     Eigenvalues --    -0.96816  -0.85287  -0.81742  -0.69286  -0.67112
   1 1   C  1S         -0.00813   0.00000  -0.10838  -0.04102   0.00000
   2        2S          0.00876   0.00000   0.11132   0.03756   0.00000
   3        2PX        -0.00120   0.00000   0.00002   0.00064   0.00000
   4        2PY         0.16257   0.00000  -0.06732   0.12445   0.00000
   5        2PZ         0.00000   0.18252   0.00000   0.00000   0.22253
   6        3S          0.00720   0.00000   0.37145   0.17680   0.00000
   7        3PX        -0.00077   0.00000  -0.00023   0.00036   0.00000
   8        3PY         0.02079   0.00000  -0.04469   0.09062   0.00000
   9        3PZ         0.00000   0.09640   0.00000   0.00000   0.15508
  10 2   C  1S          0.07561  -0.09411   0.02464  -0.00815   0.00566
  11        2S         -0.08076   0.09532  -0.02446   0.00367  -0.00244
  12        2PX        -0.00038   0.00003  -0.00012   0.00064  -0.00002
  13        2PY         0.04906   0.08756   0.12762   0.13613   0.19857
  14        2PZ         0.01609  -0.00574  -0.13020   0.11102  -0.09130
  15        3S         -0.19037   0.30796  -0.09192   0.05312  -0.05167
  16        3PX         0.00082   0.00005  -0.00027   0.00060   0.00048
  17        3PY         0.01347  -0.00500   0.03759   0.07279   0.11538
  18        3PZ         0.01192  -0.00064  -0.04344   0.08880  -0.03809
  19 3   C  1S          0.02540   0.08900   0.07567  -0.00050   0.00684
  20        2S         -0.02936  -0.09457  -0.08320  -0.00562  -0.00721
  21        2PX         0.00002   0.00003  -0.00006   0.00033   0.00014
  22        2PY        -0.09116   0.11956  -0.07308  -0.14398  -0.19966
  23        2PZ        -0.04106   0.03113  -0.11787   0.11704  -0.12567
  24        3S         -0.06967  -0.27753  -0.23537   0.02747  -0.02466
  25        3PX        -0.00043   0.00003   0.00013   0.00026  -0.00002
  26        3PY        -0.03303  -0.01104  -0.03403  -0.11044  -0.07999
  27        3PZ         0.00047   0.00121  -0.06197   0.08319  -0.06154
  28 4   C  1S          0.02540  -0.08900   0.07567  -0.00050  -0.00684
  29        2S         -0.02936   0.09457  -0.08320  -0.00562   0.00721
  30        2PX         0.00002  -0.00003  -0.00006   0.00033  -0.00014
  31        2PY        -0.09116  -0.11956  -0.07308  -0.14398   0.19966
  32        2PZ         0.04106   0.03113   0.11787  -0.11704  -0.12567
  33        3S         -0.06967   0.27753  -0.23537   0.02747   0.02466
  34        3PX        -0.00043  -0.00003   0.00013   0.00026   0.00002
  35        3PY        -0.03303   0.01104  -0.03403  -0.11044   0.07999
  36        3PZ        -0.00047   0.00121   0.06197  -0.08319  -0.06154
  37 5   C  1S          0.07561   0.09411   0.02464  -0.00815  -0.00566
  38        2S         -0.08076  -0.09532  -0.02446   0.00367   0.00244
  39        2PX        -0.00038  -0.00003  -0.00012   0.00064   0.00002
  40        2PY         0.04906  -0.08756   0.12762   0.13613  -0.19857
  41        2PZ        -0.01609  -0.00574   0.13020  -0.11102  -0.09130
  42        3S         -0.19037  -0.30796  -0.09192   0.05312   0.05167
  43        3PX         0.00082  -0.00005  -0.00027   0.00060  -0.00048
  44        3PY         0.01347   0.00500   0.03759   0.07279  -0.11538
  45        3PZ        -0.01192  -0.00064   0.04344  -0.08880  -0.03809
  46 6   H  1S         -0.03217   0.08430  -0.04577   0.09968   0.00638
  47        2S         -0.00471   0.04213  -0.02701   0.06465   0.00325
  48 7   H  1S         -0.01209  -0.08029  -0.08627   0.09636  -0.00599
  49        2S         -0.00583  -0.04197  -0.03697   0.05751   0.00084
  50 8   H  1S         -0.01209   0.08029  -0.08627   0.09636   0.00599
  51        2S         -0.00583   0.04197  -0.03697   0.05751  -0.00084
  52 9   H  1S         -0.03217  -0.08430  -0.04577   0.09968  -0.00638
  53        2S         -0.00471  -0.04213  -0.02701   0.06465  -0.00325
  54 10  N  1S         -0.06665   0.00000  -0.05981  -0.03893   0.00000
  55        2S          0.06022   0.00000   0.05622   0.03785   0.00000
  56        2PX        -0.00005   0.00000  -0.00002   0.00024   0.00000
  57        2PY         0.00219   0.00000   0.01156  -0.13502   0.00000
  58        2PZ         0.00000  -0.20701   0.00000   0.00000   0.22788
  59        3S          0.23861   0.00000   0.22656   0.14206   0.00000
  60        3PX         0.00021   0.00000  -0.00012   0.00015   0.00000
  61        3PY         0.02513   0.00000   0.02478  -0.10512   0.00000
  62        3PZ         0.00000  -0.15751   0.00000   0.00000   0.18605
  63 11  C  1S         -0.16861   0.00000   0.07155   0.03657   0.00000
  64        2S          0.15775   0.00000  -0.06494  -0.02715   0.00000
  65        2PX        -0.00086   0.00000   0.00088   0.00592   0.00000
  66        2PY        -0.01367   0.00000  -0.08842  -0.14730   0.00000
  67        2PZ         0.00000   0.04283   0.00000   0.00000   0.12823
  68        3S          0.52108   0.00000  -0.25728  -0.17369   0.00000
  69        3PX        -0.00347   0.00000  -0.00032   0.00248   0.00000
  70        3PY        -0.01909   0.00000  -0.03625  -0.07771   0.00000
  71        3PZ         0.00000   0.02378   0.00000   0.00000   0.08597
  72 12  H  1S          0.09079  -0.01821  -0.06299  -0.05437  -0.06562
  73        2S          0.01490  -0.01251  -0.02869  -0.03480  -0.05188
  74 13  H  1S          0.09124   0.00000  -0.06021  -0.05816   0.00000
  75        2S          0.01137   0.00000  -0.03019  -0.04122   0.00000
  76 14  H  1S          0.09079   0.01821  -0.06299  -0.05437   0.06562
  77        2S          0.01490   0.01251  -0.02869  -0.03480   0.05188
                          16        17        18        19        20
                           O         O         O         O         O
     Eigenvalues --    -0.64381  -0.59534  -0.58954  -0.55150  -0.54957
   1 1   C  1S         -0.06581   0.00000  -0.00249   0.00000  -0.01234
   2        2S          0.06978   0.00000   0.00492   0.00000   0.01105
   3        2PX        -0.00585   0.00000   0.15206   0.00000   0.00616
   4        2PY        -0.01012   0.00000  -0.01267   0.00000   0.32386
   5        2PZ         0.00000  -0.09086   0.00000   0.02080   0.00000
   6        3S          0.21470   0.00000  -0.00676   0.00000   0.04452
   7        3PX        -0.00563   0.00000   0.12311   0.00000   0.00431
   8        3PY         0.03934   0.00000  -0.01304   0.00000   0.33897
   9        3PZ         0.00000  -0.06434   0.00000   0.01601   0.00000
  10 2   C  1S          0.05389   0.02055   0.00249   0.02154   0.02298
  11        2S         -0.05309  -0.02464  -0.00282  -0.02001  -0.02446
  12        2PX        -0.00318   0.00065   0.08894   0.00058   0.00524
  13        2PY        -0.06167   0.11793  -0.00033  -0.09174  -0.10145
  14        2PZ        -0.16077   0.18121  -0.01352  -0.07292   0.07835
  15        3S         -0.19842  -0.03798  -0.01202  -0.08658  -0.06054
  16        3PX        -0.00232   0.00095   0.08203   0.00278   0.00590
  17        3PY        -0.07112   0.09875   0.00931  -0.08126  -0.08841
  18        3PZ        -0.14822   0.14603  -0.01359  -0.08645   0.00499
  19 3   C  1S         -0.05235   0.01448  -0.00182  -0.01417  -0.02647
  20        2S          0.05574  -0.01939   0.00128   0.01488   0.03275
  21        2PX        -0.00136   0.00039   0.06351   0.00062   0.00525
  22        2PY        -0.05208  -0.13818  -0.00576   0.07191   0.09716
  23        2PZ         0.12616   0.18179   0.00656   0.10302  -0.06531
  24        3S          0.18479  -0.00458   0.01483   0.05396   0.04924
  25        3PX        -0.00123   0.00017   0.05789  -0.00025   0.00483
  26        3PY        -0.04930  -0.10329  -0.00021   0.01975   0.09822
  27        3PZ         0.11146   0.14826   0.00811   0.08701  -0.04582
  28 4   C  1S         -0.05235  -0.01448  -0.00182   0.01417  -0.02647
  29        2S          0.05574   0.01939   0.00128  -0.01488   0.03275
  30        2PX        -0.00136  -0.00039   0.06351  -0.00062   0.00525
  31        2PY        -0.05208   0.13818  -0.00576  -0.07191   0.09716
  32        2PZ        -0.12616   0.18179  -0.00656   0.10302   0.06531
  33        3S          0.18479   0.00458   0.01483  -0.05396   0.04924
  34        3PX        -0.00123  -0.00017   0.05789   0.00025   0.00483
  35        3PY        -0.04930   0.10329  -0.00021  -0.01975   0.09822
  36        3PZ        -0.11146   0.14826  -0.00811   0.08701   0.04582
  37 5   C  1S          0.05389  -0.02055   0.00249  -0.02154   0.02298
  38        2S         -0.05309   0.02464  -0.00282   0.02001  -0.02446
  39        2PX        -0.00318  -0.00065   0.08894  -0.00058   0.00524
  40        2PY        -0.06167  -0.11793  -0.00033   0.09174  -0.10145
  41        2PZ         0.16077   0.18121   0.01352  -0.07292  -0.07835
  42        3S         -0.19842   0.03798  -0.01202   0.08658  -0.06054
  43        3PX        -0.00232  -0.00095   0.08203  -0.00278   0.00590
  44        3PY        -0.07112  -0.09875   0.00931   0.08126  -0.08841
  45        3PZ         0.14822   0.14603   0.01359  -0.08645  -0.00499
  46 6   H  1S         -0.15928   0.12557  -0.00957  -0.09552  -0.01263
  47        2S         -0.10111   0.10253  -0.00628  -0.06535   0.00410
  48 7   H  1S          0.13284   0.13458   0.00747   0.05124  -0.04431
  49        2S          0.08195   0.10159   0.00522   0.03317  -0.03442
  50 8   H  1S          0.13284  -0.13458   0.00747  -0.05124  -0.04431
  51        2S          0.08195  -0.10159   0.00522  -0.03317  -0.03442
  52 9   H  1S         -0.15928  -0.12557  -0.00957   0.09552  -0.01263
  53        2S         -0.10111  -0.10253  -0.00628   0.06535   0.00410
  54 10  N  1S          0.04470   0.00000   0.00182   0.00000   0.03309
  55        2S         -0.04135   0.00000  -0.00170   0.00000  -0.03539
  56        2PX        -0.00101   0.00000   0.06145   0.00000   0.00579
  57        2PY        -0.04369   0.00000  -0.00415   0.00000   0.16807
  58        2PZ         0.00000  -0.08023   0.00000  -0.13380   0.00000
  59        3S         -0.17442   0.00000  -0.00591   0.00000  -0.11969
  60        3PX        -0.00084   0.00000   0.06036   0.00000   0.00614
  61        3PY        -0.03270   0.00000  -0.00417   0.00000   0.16502
  62        3PZ         0.00000  -0.07437   0.00000  -0.12030   0.00000
  63 11  C  1S          0.00064   0.00000  -0.00064   0.00000  -0.00905
  64        2S          0.00191   0.00000   0.00052   0.00000   0.01996
  65        2PX        -0.01526   0.00000   0.32074   0.00000   0.01520
  66        2PY        -0.07257   0.00000   0.01435   0.00000  -0.30765
  67        2PZ         0.00000   0.04103   0.00000   0.31163   0.00000
  68        3S         -0.03487   0.00000   0.00748   0.00000  -0.06037
  69        3PX        -0.01003   0.00000   0.27333   0.00000   0.01288
  70        3PY        -0.02585   0.00000   0.00851   0.00000  -0.18888
  71        3PZ         0.00000   0.04408   0.00000   0.28392   0.00000
  72 12  H  1S         -0.02485  -0.02679   0.10581  -0.18292  -0.06673
  73        2S         -0.02932  -0.02573   0.09291  -0.16752  -0.07620
  74 13  H  1S         -0.00488   0.00000  -0.20453   0.00000  -0.07297
  75        2S         -0.01076   0.00000  -0.17987   0.00000  -0.08346
  76 14  H  1S         -0.02485   0.02679   0.10581   0.18292  -0.06673
  77        2S         -0.02932   0.02573   0.09291   0.16752  -0.07620
                          21        22        23        24        25
                           O         O         O         O         O
     Eigenvalues --    -0.52415  -0.50137  -0.40033  -0.36512  -0.34887
   1 1   C  1S          0.00057   0.00000  -0.00395   0.00038   0.00000
   2        2S         -0.00171   0.00000   0.00363   0.00050   0.00000
   3        2PX         0.07451   0.00000  -0.00353  -0.26066   0.00000
   4        2PY        -0.00455   0.00000  -0.06392   0.00015   0.00000
   5        2PZ         0.00000   0.24810   0.00000   0.00000   0.00099
   6        3S          0.00665   0.00000   0.00779  -0.00897   0.00000
   7        3PX         0.08938   0.00000  -0.00304  -0.30988   0.00000
   8        3PY        -0.00569   0.00000  -0.16739   0.00362   0.00000
   9        3PZ         0.00000   0.21419   0.00000   0.00000   0.01264
  10 2   C  1S         -0.00127  -0.00816   0.02261   0.00012  -0.00030
  11        2S          0.00156   0.00935  -0.01781  -0.00029   0.00071
  12        2PX         0.12616  -0.00153  -0.00135  -0.17346   0.23755
  13        2PY         0.00233   0.07566   0.15832  -0.00250   0.00072
  14        2PZ         0.00147  -0.19151   0.00505  -0.00138  -0.00157
  15        3S          0.00528   0.01834  -0.20553   0.00059  -0.00420
  16        3PX         0.11583  -0.00306  -0.00205  -0.21159   0.29523
  17        3PY        -0.00389  -0.00691   0.21344   0.00125  -0.00306
  18        3PZ         0.00557  -0.18563   0.02189  -0.00519   0.00243
  19 3   C  1S          0.00117   0.00374  -0.02308  -0.00006   0.00008
  20        2S         -0.00097  -0.00410   0.02538  -0.00020  -0.00009
  21        2PX         0.18641  -0.00065   0.00155   0.08300   0.23314
  22        2PY        -0.00064  -0.04331  -0.16714   0.00208  -0.00032
  23        2PZ         0.00037   0.16318  -0.04944   0.00048   0.00016
  24        3S         -0.00752  -0.01783   0.12053   0.00279  -0.00097
  25        3PX         0.19377  -0.00000   0.00217   0.11755   0.26928
  26        3PY        -0.00413  -0.08793   0.01321   0.00216  -0.00115
  27        3PZ        -0.00157   0.17303   0.01393   0.00084  -0.00172
  28 4   C  1S          0.00117  -0.00374  -0.02308  -0.00006  -0.00008
  29        2S         -0.00097   0.00410   0.02538  -0.00020   0.00009
  30        2PX         0.18641   0.00065   0.00155   0.08300  -0.23314
  31        2PY        -0.00064   0.04331  -0.16714   0.00208   0.00032
  32        2PZ        -0.00037   0.16318   0.04944  -0.00048   0.00016
  33        3S         -0.00752   0.01783   0.12053   0.00279   0.00097
  34        3PX         0.19377   0.00000   0.00217   0.11755  -0.26928
  35        3PY        -0.00413   0.08793   0.01321   0.00216   0.00115
  36        3PZ         0.00157   0.17303  -0.01393  -0.00084  -0.00172
  37 5   C  1S         -0.00127   0.00816   0.02261   0.00012   0.00030
  38        2S          0.00156  -0.00935  -0.01781  -0.00029  -0.00071
  39        2PX         0.12616   0.00153  -0.00135  -0.17346  -0.23755
  40        2PY         0.00233  -0.07566   0.15832  -0.00250  -0.00072
  41        2PZ        -0.00147  -0.19151  -0.00505   0.00138  -0.00157
  42        3S          0.00528  -0.01834  -0.20553   0.00059   0.00420
  43        3PX         0.11583   0.00306  -0.00205  -0.21159  -0.29523
  44        3PY        -0.00389   0.00691   0.21344   0.00125   0.00306
  45        3PZ        -0.00557  -0.18563  -0.02189   0.00519   0.00243
  46 6   H  1S          0.00270  -0.10320   0.04928  -0.00167  -0.00019
  47        2S          0.00042  -0.08841   0.05797   0.00057  -0.00147
  48 7   H  1S         -0.00070   0.12343   0.08800  -0.00076   0.00045
  49        2S         -0.00056   0.09564   0.11135  -0.00111   0.00095
  50 8   H  1S         -0.00070  -0.12343   0.08800  -0.00076  -0.00045
  51        2S         -0.00056  -0.09564   0.11135  -0.00111  -0.00095
  52 9   H  1S          0.00270   0.10320   0.04928  -0.00167   0.00019
  53        2S          0.00042   0.08841   0.05797   0.00057   0.00147
  54 10  N  1S         -0.00148   0.00000   0.07641  -0.00052   0.00000
  55        2S          0.00156   0.00000  -0.07456   0.00047   0.00000
  56        2PX         0.23761   0.00000   0.00290   0.25203   0.00000
  57        2PY        -0.00465   0.00000   0.39762  -0.00423   0.00000
  58        2PZ         0.00000  -0.14948   0.00000   0.00000  -0.00026
  59        3S          0.00461   0.00000  -0.30289   0.00267   0.00000
  60        3PX         0.25020   0.00000   0.00336   0.31151   0.00000
  61        3PY        -0.00442   0.00000   0.47954  -0.00563   0.00000
  62        3PZ         0.00000  -0.14501   0.00000   0.00000  -0.00134
  63 11  C  1S          0.00039   0.00000   0.01344  -0.00035   0.00000
  64        2S         -0.00076   0.00000  -0.01644   0.00027   0.00000
  65        2PX        -0.16135   0.00000  -0.00528   0.09627   0.00000
  66        2PY         0.00263   0.00000   0.07105  -0.00007   0.00000
  67        2PZ         0.00000  -0.14909   0.00000   0.00000  -0.00429
  68        3S         -0.00040   0.00000   0.00496   0.00119   0.00000
  69        3PX        -0.16120   0.00000  -0.00490   0.10867   0.00000
  70        3PY         0.00071   0.00000   0.03226   0.00158   0.00000
  71        3PZ         0.00000  -0.16275   0.00000   0.00000  -0.02070
  72 12  H  1S         -0.05634   0.09973   0.00974   0.04512   0.00091
  73        2S         -0.05257   0.10516   0.01954   0.05517  -0.01086
  74 13  H  1S          0.11656   0.00000   0.00957  -0.09211   0.00000
  75        2S          0.11061   0.00000   0.02197  -0.11569   0.00000
  76 14  H  1S         -0.05634  -0.09973   0.00974   0.04512  -0.00091
  77        2S         -0.05257  -0.10516   0.01954   0.05517   0.01086
                          26        27        28        29        30
                           V         V         V         V         V
     Eigenvalues --     0.12872   0.13509   0.26261   0.28699   0.29412
   1 1   C  1S         -0.00139   0.00000   0.01988   0.00741   0.00000
   2        2S         -0.00195   0.00000  -0.00249   0.00062   0.00000
   3        2PX         0.29569   0.00000   0.00474   0.00508   0.00000
   4        2PY         0.00099   0.00000  -0.04177  -0.04867   0.00000
   5        2PZ         0.00000   0.00199   0.00000   0.00000   0.04478
   6        3S          0.03764   0.00000  -0.48658   0.14370   0.00000
   7        3PX         0.60909   0.00000   0.04574   0.03362   0.00000
   8        3PY        -0.01266   0.00000   0.06881  -0.39036   0.00000
   9        3PZ         0.00000  -0.05852   0.00000   0.00000   0.05846
  10 2   C  1S         -0.00143   0.00106   0.05504   0.01444  -0.00970
  11        2S          0.00063  -0.00254  -0.03740   0.00886  -0.00709
  12        2PX        -0.12060  -0.22591   0.00998  -0.00034   0.03132
  13        2PY         0.00225  -0.00209  -0.08348  -0.03400   0.02892
  14        2PZ         0.00476   0.00420  -0.08976  -0.03407   0.15242
  15        3S          0.00760   0.02092  -0.54845  -0.31113   0.30686
  16        3PX        -0.29446  -0.50412   0.01479  -0.00581   0.03974
  17        3PY         0.00097   0.01774  -0.25710  -0.24275   0.21102
  18        3PZ         0.02570  -0.01057  -0.53045   0.09439   0.50703
  19 3   C  1S          0.00056  -0.00065   0.02188   0.05659  -0.02637
  20        2S         -0.00037   0.00065  -0.01051  -0.03229   0.00551
  21        2PX        -0.14571   0.24850  -0.02579  -0.00273  -0.01688
  22        2PY        -0.00252   0.00137   0.05438   0.02830  -0.03646
  23        2PZ         0.00002  -0.00020  -0.04729  -0.06536   0.10638
  24        3S         -0.00485   0.00907  -0.30923  -0.66269   0.45543
  25        3PX        -0.24532   0.51619  -0.05481  -0.00233  -0.03171
  26        3PY        -0.00236   0.00639   0.09967   0.12972  -0.12250
  27        3PZ        -0.00255   0.00953  -0.12755  -0.34814   0.32319
  28 4   C  1S          0.00056   0.00065   0.02188   0.05659   0.02637
  29        2S         -0.00037  -0.00065  -0.01051  -0.03229  -0.00551
  30        2PX        -0.14571  -0.24850  -0.02579  -0.00273   0.01688
  31        2PY        -0.00252  -0.00137   0.05438   0.02830   0.03646
  32        2PZ        -0.00002  -0.00020   0.04729   0.06536   0.10638
  33        3S         -0.00485  -0.00907  -0.30923  -0.66269  -0.45543
  34        3PX        -0.24532  -0.51619  -0.05481  -0.00233   0.03171
  35        3PY        -0.00236  -0.00639   0.09967   0.12972   0.12250
  36        3PZ         0.00255   0.00953   0.12755   0.34814   0.32319
  37 5   C  1S         -0.00143  -0.00106   0.05504   0.01444   0.00970
  38        2S          0.00063   0.00254  -0.03740   0.00886   0.00709
  39        2PX        -0.12060   0.22591   0.00998  -0.00034  -0.03132
  40        2PY         0.00225   0.00209  -0.08348  -0.03400  -0.02892
  41        2PZ        -0.00476   0.00420   0.08976   0.03407   0.15242
  42        3S          0.00760  -0.02092  -0.54845  -0.31113  -0.30686
  43        3PX        -0.29446   0.50412   0.01479  -0.00581  -0.03974
  44        3PY         0.00097  -0.01774  -0.25710  -0.24275  -0.21102
  45        3PZ        -0.02570  -0.01057   0.53045  -0.09439   0.50703
  46 6   H  1S          0.00147  -0.00069   0.02049   0.04869  -0.01861
  47        2S         -0.02208  -0.00126   0.95711   0.31369  -0.80783
  48 7   H  1S         -0.00021  -0.00118   0.01702   0.02726  -0.02904
  49        2S         -0.00009  -0.00698   0.40754   0.73571  -0.67121
  50 8   H  1S         -0.00021   0.00118   0.01702   0.02726   0.02904
  51        2S         -0.00009   0.00698   0.40754   0.73571   0.67121
  52 9   H  1S          0.00147   0.00069   0.02049   0.04869   0.01861
  53        2S         -0.02208   0.00126   0.95711   0.31369   0.80783
  54 10  N  1S         -0.00047   0.00000   0.00688  -0.00810   0.00000
  55        2S          0.00063   0.00000  -0.01210   0.00988   0.00000
  56        2PX         0.25985   0.00000   0.03191   0.00214   0.00000
  57        2PY         0.00341   0.00000  -0.06055  -0.00364   0.00000
  58        2PZ         0.00000   0.00038   0.00000   0.00000   0.03334
  59        3S          0.00096   0.00000  -0.00933   0.00787   0.00000
  60        3PX         0.47435   0.00000   0.06506   0.00392   0.00000
  61        3PY         0.00533   0.00000  -0.12006  -0.06951   0.00000
  62        3PZ         0.00000   0.00550   0.00000   0.00000   0.04395
  63 11  C  1S         -0.00038   0.00000   0.06301  -0.14200   0.00000
  64        2S         -0.00068   0.00000  -0.01160   0.04349   0.00000
  65        2PX         0.01093   0.00000  -0.04107  -0.02049   0.00000
  66        2PY         0.00476   0.00000  -0.14362   0.04858   0.00000
  67        2PZ         0.00000   0.01744   0.00000   0.00000   0.19049
  68        3S          0.01139   0.00000  -0.94940   1.89139   0.00000
  69        3PX         0.10547   0.00000  -0.21983  -0.11502   0.00000
  70        3PY         0.01330   0.00000  -0.58273   0.21843   0.00000
  71        3PZ         0.00000   0.14131   0.00000   0.00000   0.80653
  72 12  H  1S         -0.03774   0.00437   0.01086  -0.00625   0.03401
  73        2S         -0.15575   0.11992   0.69176  -0.75299   0.83884
  74 13  H  1S          0.07322   0.00000  -0.00293  -0.00766   0.00000
  75        2S          0.29982   0.00000   0.31760  -0.92960   0.00000
  76 14  H  1S         -0.03774  -0.00437   0.01086  -0.00625  -0.03401
  77        2S         -0.15575  -0.11992   0.69176  -0.75299  -0.83884
                          31        32        33        34        35
                           V         V         V         V         V
     Eigenvalues --     0.31226   0.33457   0.34672   0.36233   0.38439
   1 1   C  1S         -0.00719   0.00000   0.01126   0.00000  -0.03713
   2        2S         -0.02467   0.00000  -0.03927   0.00000   0.00411
   3        2PX         0.05638   0.00000  -0.07041   0.00000  -0.21791
   4        2PY        -0.00298   0.00000   0.08978   0.00000  -0.05207
   5        2PZ         0.00000   0.02097   0.00000  -0.08262   0.00000
   6        3S          0.33780   0.00000   0.29486   0.00000   0.61364
   7        3PX         0.00496   0.00000  -0.18691   0.00000  -0.73460
   8        3PY        -0.15839   0.00000  -0.02657   0.00000  -0.19701
   9        3PZ         0.00000   0.06083   0.00000  -0.10543   0.00000
  10 2   C  1S          0.00124   0.04669  -0.04786  -0.07675   0.02348
  11        2S          0.00136  -0.01564   0.03817   0.03667  -0.01265
  12        2PX        -0.09839   0.03911   0.06941  -0.00213   0.17450
  13        2PY        -0.01725  -0.06331   0.02964   0.00071  -0.02786
  14        2PZ         0.01412  -0.05684   0.06084   0.09738   0.00403
  15        3S         -0.09657  -0.67741   0.37893   1.01773  -0.30486
  16        3PX        -0.23504   0.03950   0.19833  -0.00018   0.53198
  17        3PY        -0.08746  -0.14681   0.32425   0.00998  -0.32170
  18        3PZ         0.19668  -0.19961   0.57661   0.67431   0.06255
  19 3   C  1S          0.03246   0.01333   0.06642   0.07704  -0.00058
  20        2S         -0.01749   0.00477  -0.04127  -0.04199   0.00672
  21        2PX         0.14262  -0.01904  -0.07299   0.00090  -0.14013
  22        2PY         0.02311   0.07769   0.10073   0.01837  -0.04066
  23        2PZ        -0.02995  -0.11435  -0.06417  -0.10394   0.02331
  24        3S         -0.37773  -0.32625  -0.63584  -1.00601  -0.10429
  25        3PX         0.33114  -0.03268  -0.19105   0.00056  -0.40558
  26        3PY         0.11243   0.34405   0.47338   0.06978  -0.14663
  27        3PZ        -0.18493  -0.35249  -0.49077  -0.70472   0.16794
  28 4   C  1S          0.03246  -0.01333   0.06642  -0.07704  -0.00058
  29        2S         -0.01749  -0.00477  -0.04127   0.04199   0.00672
  30        2PX         0.14262   0.01904  -0.07299  -0.00090  -0.14013
  31        2PY         0.02311  -0.07769   0.10073  -0.01837  -0.04066
  32        2PZ         0.02995  -0.11435   0.06417  -0.10394  -0.02331
  33        3S         -0.37773   0.32625  -0.63584   1.00601  -0.10429
  34        3PX         0.33114   0.03268  -0.19105  -0.00056  -0.40558
  35        3PY         0.11243  -0.34405   0.47338  -0.06978  -0.14663
  36        3PZ         0.18493  -0.35249   0.49077  -0.70472  -0.16794
  37 5   C  1S          0.00124  -0.04669  -0.04786   0.07675   0.02348
  38        2S          0.00136   0.01564   0.03817  -0.03667  -0.01265
  39        2PX        -0.09839  -0.03911   0.06941   0.00213   0.17450
  40        2PY        -0.01725   0.06331   0.02964  -0.00071  -0.02786
  41        2PZ        -0.01412  -0.05684  -0.06084   0.09738  -0.00403
  42        3S         -0.09657   0.67741   0.37893  -1.01773  -0.30486
  43        3PX        -0.23504  -0.03950   0.19833   0.00018   0.53198
  44        3PY        -0.08746   0.14681   0.32425  -0.00998  -0.32170
  45        3PZ        -0.19668  -0.19961  -0.57661   0.67431  -0.06255
  46 6   H  1S          0.00824   0.01239  -0.04388   0.00093   0.02408
  47        2S         -0.04806   0.64054  -0.91564  -1.06023   0.27801
  48 7   H  1S          0.01032   0.00360   0.02281   0.00379  -0.00767
  49        2S          0.41479   0.71358   1.05666   1.10354  -0.23031
  50 8   H  1S          0.01032  -0.00360   0.02281  -0.00379  -0.00767
  51        2S          0.41479  -0.71358   1.05666  -1.10354  -0.23031
  52 9   H  1S          0.00824  -0.01239  -0.04388  -0.00093   0.02408
  53        2S         -0.04806  -0.64054  -0.91564   1.06023   0.27801
  54 10  N  1S         -0.01339   0.00000  -0.03691   0.00000  -0.00891
  55        2S          0.01118   0.00000   0.03788   0.00000  -0.00341
  56        2PX        -0.16410   0.00000   0.08397   0.00000   0.16261
  57        2PY         0.01713   0.00000   0.05347   0.00000   0.01642
  58        2PZ         0.00000  -0.01110   0.00000   0.07489   0.00000
  59        3S          0.08176   0.00000   0.19492   0.00000   0.15395
  60        3PX        -0.34454   0.00000   0.17985   0.00000   0.34973
  61        3PY        -0.00470   0.00000  -0.05586   0.00000   0.11659
  62        3PZ         0.00000   0.04618   0.00000   0.09117   0.00000
  63 11  C  1S          0.02347   0.00000   0.05579   0.00000  -0.00929
  64        2S         -0.00545   0.00000  -0.01668   0.00000   0.01166
  65        2PX         0.22327   0.00000  -0.02901   0.00000   0.18533
  66        2PY        -0.02774   0.00000  -0.01962   0.00000   0.00596
  67        2PZ         0.00000   0.20738   0.00000   0.04291   0.00000
  68        3S         -0.30899   0.00000  -0.69250   0.00000   0.09891
  69        3PX         1.02251   0.00000  -0.06367   0.00000   0.93741
  70        3PY        -0.11104   0.00000  -0.03473   0.00000   0.04712
  71        3PZ         0.00000   1.03977   0.00000  -0.00409   0.00000
  72 12  H  1S         -0.02880   0.06725   0.01217  -0.04779  -0.00015
  73        2S         -0.41851   1.06799   0.37154  -0.02453  -0.51462
  74 13  H  1S          0.06152   0.00000  -0.01636   0.00000   0.00478
  75        2S          1.38832   0.00000   0.16445   0.00000   0.88675
  76 14  H  1S         -0.02880  -0.06725   0.01217   0.04779  -0.00015
  77        2S         -0.41851  -1.06799   0.37154   0.02453  -0.51462
                          36        37        38        39        40
                           V         V         V         V         V
     Eigenvalues --     0.41417   0.48981   0.52381   0.54018   0.54447
   1 1   C  1S         -0.15375  -0.05118   0.00000   0.00000  -0.07327
   2        2S          0.05996   0.01516   0.00000   0.00000  -0.01930
   3        2PX         0.03684  -0.02001   0.00000   0.00000   0.01912
   4        2PY         0.02015   0.31498   0.00000   0.00000   0.00189
   5        2PZ         0.00000   0.00000  -0.21664  -0.18351   0.00000
   6        3S          2.36972   0.74154   0.00000   0.00000   2.02184
   7        3PX         0.13563  -0.07625   0.00000   0.00000   0.07113
   8        3PY         0.42783   2.36291   0.00000   0.00000  -0.21449
   9        3PZ         0.00000   0.00000  -1.70103  -1.55861   0.00000
  10 2   C  1S          0.05411   0.01143   0.00586  -0.10058  -0.02866
  11        2S         -0.01284  -0.03973  -0.02944   0.00770  -0.01077
  12        2PX        -0.02805   0.01410   0.00799   0.01995  -0.01858
  13        2PY        -0.03879   0.02516   0.11470  -0.08446  -0.13577
  14        2PZ         0.03145  -0.01227   0.05128  -0.12183   0.12843
  15        3S         -0.83835   0.42741   0.41292   2.28539   0.81258
  16        3PX        -0.08583   0.03534   0.00048   0.00210  -0.03371
  17        3PY        -0.51766  -0.20493   1.66346  -0.60884  -1.41472
  18        3PZ         0.19235  -0.72473  -0.26431  -0.95343   0.78103
  19 3   C  1S          0.03212  -0.04153  -0.09429   0.04496   0.03203
  20        2S          0.00611   0.02377   0.01973  -0.02728   0.00110
  21        2PX         0.01853  -0.00624  -0.00250  -0.00627   0.00672
  22        2PY         0.05101   0.07732   0.04607  -0.12351  -0.20442
  23        2PZ         0.07771  -0.09077  -0.10953   0.08574  -0.09664
  24        3S         -0.63743   0.21792   1.87001  -0.59042  -0.99252
  25        3PX         0.05802  -0.02028  -0.00188  -0.00425   0.01885
  26        3PY         0.32753  -0.21610   0.47321  -1.52908  -1.32418
  27        3PZ         0.57284  -0.51111  -0.67503   0.10761  -0.60997
  28 4   C  1S          0.03212  -0.04153   0.09429  -0.04496   0.03203
  29        2S          0.00611   0.02377  -0.01973   0.02728   0.00110
  30        2PX         0.01853  -0.00624   0.00250   0.00627   0.00672
  31        2PY         0.05101   0.07732  -0.04607   0.12351  -0.20442
  32        2PZ        -0.07771   0.09077  -0.10953   0.08574   0.09664
  33        3S         -0.63743   0.21792  -1.87001   0.59042  -0.99252
  34        3PX         0.05802  -0.02028   0.00188   0.00425   0.01885
  35        3PY         0.32753  -0.21610  -0.47321   1.52908  -1.32418
  36        3PZ        -0.57284   0.51111  -0.67503   0.10761   0.60997
  37 5   C  1S          0.05411   0.01143  -0.00586   0.10058  -0.02866
  38        2S         -0.01284  -0.03973   0.02944  -0.00770  -0.01077
  39        2PX        -0.02805   0.01410  -0.00799  -0.01995  -0.01858
  40        2PY        -0.03879   0.02516  -0.11470   0.08446  -0.13577
  41        2PZ        -0.03145   0.01227   0.05128  -0.12183  -0.12843
  42        3S         -0.83835   0.42741  -0.41292  -2.28539   0.81258
  43        3PX        -0.08583   0.03534  -0.00048  -0.00210  -0.03371
  44        3PY        -0.51766  -0.20493  -1.66346   0.60884  -1.41472
  45        3PZ        -0.19235   0.72473  -0.26431  -0.95343  -0.78103
  46 6   H  1S         -0.03898   0.01947   0.08210   0.05323   0.06264
  47        2S          0.33926   0.52400  -0.52079   0.41210  -0.26310
  48 7   H  1S         -0.01870  -0.02593   0.07130   0.05834  -0.04218
  49        2S         -0.04512   0.23171   0.17650  -0.60655   0.00663
  50 8   H  1S         -0.01870  -0.02593  -0.07130  -0.05834  -0.04218
  51        2S         -0.04512   0.23171  -0.17650   0.60655   0.00663
  52 9   H  1S         -0.03898   0.01947  -0.08210  -0.05323   0.06264
  53        2S          0.33926   0.52400   0.52079  -0.41210  -0.26310
  54 10  N  1S         -0.10715   0.08178   0.00000   0.00000   0.07969
  55        2S          0.02041  -0.02988   0.00000   0.00000  -0.00519
  56        2PX        -0.02177   0.00751   0.00000   0.00000  -0.00762
  57        2PY         0.10516  -0.10165   0.00000   0.00000   0.05332
  58        2PZ         0.00000   0.00000  -0.24387  -0.08680   0.00000
  59        3S          1.40301  -1.04403   0.00000   0.00000  -1.26316
  60        3PX        -0.04651   0.01437   0.00000   0.00000  -0.01330
  61        3PY         0.46965  -0.40899   0.00000   0.00000  -0.04036
  62        3PZ         0.00000   0.00000  -0.88854  -0.54283   0.00000
  63 11  C  1S          0.06351   0.07585   0.00000   0.00000   0.02355
  64        2S          0.00275   0.02297   0.00000   0.00000   0.04215
  65        2PX        -0.06896   0.04133   0.00000   0.00000  -0.09265
  66        2PY         0.08305   0.12616   0.00000   0.00000  -0.15382
  67        2PZ         0.00000   0.00000  -0.06432   0.11512   0.00000
  68        3S         -1.03656  -1.67260   0.00000   0.00000  -0.64609
  69        3PX        -0.28921   0.11413   0.00000   0.00000  -0.21395
  70        3PY         0.94104   1.86926   0.00000   0.00000   0.12988
  71        3PZ         0.00000   0.00000   0.41128   0.73620   0.00000
  72 12  H  1S         -0.02456  -0.06999   0.03580  -0.05526  -0.00664
  73        2S          0.19537  -0.24920   0.15473   0.48902   0.40554
  74 13  H  1S         -0.02576  -0.06527   0.00000   0.00000   0.01604
  75        2S         -0.28701   0.01244   0.00000   0.00000  -0.09793
  76 14  H  1S         -0.02456  -0.06999  -0.03580   0.05526  -0.00664
  77        2S          0.19537  -0.24920  -0.15473  -0.48902   0.40554
                          41        42        43        44        45
                           V         V         V         V         V
     Eigenvalues --     0.73225   0.75845   0.87820   0.93419   0.93923
   1 1   C  1S          0.10971   0.00000   0.00000   0.03257   0.03276
   2        2S          0.00787   0.00000   0.00000  -0.04222  -0.04699
   3        2PX        -0.00534   0.00000   0.00000  -0.41773   0.26007
   4        2PY         0.12008   0.00000   0.00000   0.09798   0.16157
   5        2PZ         0.00000   0.28730   0.17083   0.00000   0.00000
   6        3S         -2.66143   0.00000   0.00000   0.04554   0.16236
   7        3PX        -0.01213   0.00000   0.00000   0.11948  -0.10152
   8        3PY         2.76358   0.00000   0.00000   0.16943  -0.02424
   9        3PZ         0.00000   3.07591  -0.22110   0.00000   0.00000
  10 2   C  1S         -0.13227   0.05050   0.00557  -0.00367  -0.00095
  11        2S          0.06755  -0.01262   0.03645   0.01845   0.00663
  12        2PX         0.00791  -0.03517  -0.01880  -0.36767   0.26066
  13        2PY        -0.15921  -0.03910   0.42230   0.17575   0.18434
  14        2PZ        -0.15690   0.12412  -0.17147   0.00550   0.08104
  15        3S          2.71836  -0.87079  -0.33203  -0.08666  -0.24059
  16        3PX        -0.00086   0.02082   0.01803   0.26498  -0.17492
  17        3PY        -0.99787  -1.92505  -0.21081  -0.11330  -0.05498
  18        3PZ        -2.10106   1.50330   0.06665  -0.18537  -0.17376
  19 3   C  1S          0.07774  -0.03670  -0.03304   0.00652   0.01533
  20        2S          0.09415  -0.01281   0.03934  -0.04879  -0.09267
  21        2PX        -0.00188   0.00768   0.00243  -0.29334   0.24811
  22        2PY        -0.09376   0.02177  -0.23136  -0.04019  -0.08408
  23        2PZ        -0.00907  -0.08958  -0.18986   0.16218   0.26240
  24        3S         -1.92882   0.10541   0.05612  -0.05254   0.00719
  25        3PX        -0.00044  -0.00583  -0.00540   0.20649  -0.18797
  26        3PY        -1.09409  -1.67472   0.58668   0.21260   0.35903
  27        3PZ         1.10249  -1.44738   0.20905  -0.06684  -0.16134
  28 4   C  1S          0.07774   0.03670   0.03304   0.00652   0.01533
  29        2S          0.09415   0.01281  -0.03934  -0.04879  -0.09267
  30        2PX        -0.00188  -0.00768  -0.00243  -0.29334   0.24811
  31        2PY        -0.09376  -0.02177   0.23136  -0.04019  -0.08408
  32        2PZ         0.00907  -0.08958  -0.18986  -0.16218  -0.26240
  33        3S         -1.92882  -0.10541  -0.05612  -0.05254   0.00719
  34        3PX        -0.00044   0.00583   0.00540   0.20649  -0.18797
  35        3PY        -1.09409   1.67472  -0.58668   0.21260   0.35903
  36        3PZ        -1.10249  -1.44738   0.20905   0.06684   0.16134
  37 5   C  1S         -0.13227  -0.05050  -0.00557  -0.00367  -0.00095
  38        2S          0.06755   0.01262  -0.03645   0.01845   0.00663
  39        2PX         0.00791   0.03517   0.01880  -0.36767   0.26066
  40        2PY        -0.15921   0.03910  -0.42230   0.17575   0.18434
  41        2PZ         0.15690   0.12412  -0.17147  -0.00550  -0.08104
  42        3S          2.71836   0.87079   0.33203  -0.08666  -0.24059
  43        3PX        -0.00086  -0.02082  -0.01803   0.26498  -0.17492
  44        3PY        -0.99787   1.92505   0.21081  -0.11330  -0.05498
  45        3PZ         2.10106   1.50330   0.06665   0.18537   0.17376
  46 6   H  1S         -0.13266   0.06683   0.14123   0.14306   0.21381
  47        2S          1.01128  -0.12071   0.00380   0.03223  -0.03675
  48 7   H  1S          0.09549  -0.09708   0.00850   0.14245   0.23070
  49        2S         -0.50642   0.08596   0.03011  -0.03580  -0.03931
  50 8   H  1S          0.09549   0.09708  -0.00850   0.14245   0.23070
  51        2S         -0.50642  -0.08596  -0.03011  -0.03580  -0.03931
  52 9   H  1S         -0.13266  -0.06683  -0.14123   0.14306   0.21381
  53        2S          1.01128   0.12071  -0.00380   0.03223  -0.03675
  54 10  N  1S         -0.08125   0.00000   0.00000  -0.02129  -0.03111
  55        2S          0.03581   0.00000   0.00000   0.01575   0.02809
  56        2PX         0.00145   0.00000   0.00000  -0.03563   0.02944
  57        2PY         0.13755   0.00000   0.00000  -0.05335  -0.06944
  58        2PZ         0.00000  -0.30072  -0.05479   0.00000   0.00000
  59        3S          1.35742   0.00000   0.00000   0.16375   0.18263
  60        3PX         0.00089   0.00000   0.00000  -0.04796   0.04568
  61        3PY         0.83301   0.00000   0.00000   0.02059   0.00223
  62        3PZ         0.00000  -1.59669   0.04369   0.00000   0.00000
  63 11  C  1S         -0.00227   0.00000   0.00000  -0.00915  -0.01320
  64        2S          0.07427   0.00000   0.00000   0.06720   0.08276
  65        2PX         0.05094   0.00000   0.00000  -0.27947   0.12051
  66        2PY        -0.11868   0.00000   0.00000  -0.37244  -0.55613
  67        2PZ         0.00000   0.12232   0.42171   0.00000   0.00000
  68        3S         -0.99531   0.00000   0.00000  -0.10950  -0.02329
  69        3PX         0.00515   0.00000   0.00000   0.51232  -0.23003
  70        3PY         0.82463   0.00000   0.00000   0.49217   0.65879
  71        3PZ         0.00000  -0.91888  -0.52174   0.00000   0.00000
  72 12  H  1S         -0.04090  -0.03840  -0.34488  -0.18305  -0.01830
  73        2S         -0.10047  -0.38724   0.10927  -0.02537   0.00362
  74 13  H  1S         -0.03915   0.00000   0.00000   0.22975  -0.19248
  75        2S          0.00256   0.00000   0.00000   0.01101  -0.05203
  76 14  H  1S         -0.04090   0.03840   0.34488  -0.18305  -0.01830
  77        2S         -0.10047   0.38724  -0.10927  -0.02537   0.00362
                          46        47        48        49        50
                           V         V         V         V         V
     Eigenvalues --     0.97188   0.97902   1.02598   1.03751   1.05475
   1 1   C  1S          0.05409  -0.03081   0.00000   0.00000   0.00763
   2        2S         -0.00786  -0.00301   0.00000   0.00000  -0.24285
   3        2PX        -0.09359  -0.21181   0.00000   0.00000  -0.02554
   4        2PY        -0.09476   0.02921   0.00000   0.00000   0.55317
   5        2PZ         0.00000   0.00000   0.27891   0.12695   0.00000
   6        3S          0.37593  -0.37524   0.00000   0.00000  -0.09042
   7        3PX        -0.07663  -0.08383   0.00000   0.00000   0.00596
   8        3PY         0.31750   0.03218   0.00000   0.00000  -0.77758
   9        3PZ         0.00000   0.00000  -0.54535  -0.23812   0.00000
  10 2   C  1S         -0.01389   0.00692   0.04543   0.01178  -0.02617
  11        2S          0.03199  -0.00002   0.10449   0.01325  -0.19612
  12        2PX         0.05104   0.01319  -0.13352   0.52089  -0.03476
  13        2PY         0.33790  -0.20401   0.02088   0.03780   0.02977
  14        2PZ        -0.30538   0.14512   0.02074  -0.00259   0.09496
  15        3S         -0.05125   0.18817  -0.00394   0.09738  -0.36556
  16        3PX         0.04825   0.12650   0.12045  -0.41712   0.04418
  17        3PY        -0.28523   0.09210   0.39735   0.02256   0.16320
  18        3PZ         0.26543  -0.26479  -0.24982  -0.03056   0.03257
  19 3   C  1S         -0.04140   0.02417  -0.00173  -0.00330   0.01280
  20        2S          0.01995   0.01955   0.07292   0.00899  -0.16035
  21        2PX         0.30259   0.44464  -0.07329   0.54848   0.03403
  22        2PY        -0.10007   0.12404   0.56185   0.11617  -0.52975
  23        2PZ        -0.26353   0.14864   0.30245   0.04598  -0.06862
  24        3S          0.06140  -0.14649   0.00946  -0.01071   0.19317
  25        3PX        -0.30437  -0.46432   0.05099  -0.48097  -0.04650
  26        3PY         0.14839  -0.23138  -0.12965  -0.08373   0.78338
  27        3PZ         0.15324  -0.04378  -0.06457  -0.01234   0.07114
  28 4   C  1S         -0.04140   0.02417   0.00173   0.00330   0.01280
  29        2S          0.01995   0.01955  -0.07292  -0.00899  -0.16035
  30        2PX         0.30259   0.44464   0.07329  -0.54848   0.03403
  31        2PY        -0.10007   0.12404  -0.56185  -0.11617  -0.52975
  32        2PZ         0.26353  -0.14864   0.30245   0.04598   0.06862
  33        3S          0.06140  -0.14649  -0.00946   0.01071   0.19317
  34        3PX        -0.30437  -0.46432  -0.05099   0.48097  -0.04650
  35        3PY         0.14839  -0.23138   0.12965   0.08373   0.78338
  36        3PZ        -0.15324   0.04378  -0.06457  -0.01234  -0.07114
  37 5   C  1S         -0.01389   0.00692  -0.04543  -0.01178  -0.02617
  38        2S          0.03199  -0.00002  -0.10449  -0.01325  -0.19612
  39        2PX         0.05104   0.01319   0.13352  -0.52089  -0.03476
  40        2PY         0.33790  -0.20401  -0.02088  -0.03780   0.02977
  41        2PZ         0.30538  -0.14512   0.02074  -0.00259  -0.09496
  42        3S         -0.05125   0.18817   0.00394  -0.09738  -0.36556
  43        3PX         0.04825   0.12650  -0.12045   0.41712   0.04418
  44        3PY        -0.28523   0.09210  -0.39735  -0.02256   0.16320
  45        3PZ        -0.26543   0.26479  -0.24982  -0.03056  -0.03257
  46 6   H  1S         -0.16336   0.10275   0.35949   0.07349  -0.23360
  47        2S          0.06730   0.03046  -0.12651  -0.03937   0.09951
  48 7   H  1S         -0.28843   0.17256   0.03317  -0.02486   0.06126
  49        2S          0.15428  -0.12975   0.02264   0.00761   0.08315
  50 8   H  1S         -0.28843   0.17256  -0.03317   0.02486   0.06126
  51        2S          0.15428  -0.12975  -0.02264  -0.00761   0.08315
  52 9   H  1S         -0.16336   0.10275  -0.35949  -0.07349  -0.23360
  53        2S          0.06730   0.03046   0.12651   0.03937   0.09951
  54 10  N  1S          0.03720  -0.02493   0.00000   0.00000   0.01034
  55        2S         -0.06571   0.04307   0.00000   0.00000  -0.03484
  56        2PX         0.03428   0.05061   0.00000   0.00000   0.00548
  57        2PY        -0.08677   0.07087   0.00000   0.00000  -0.24108
  58        2PZ         0.00000   0.00000   0.20987   0.02329   0.00000
  59        3S          0.02038   0.00339   0.00000   0.00000   0.33816
  60        3PX         0.08366   0.12926   0.00000   0.00000   0.01308
  61        3PY        -0.09499   0.10308   0.00000   0.00000  -0.08302
  62        3PZ         0.00000   0.00000   0.32254   0.03357   0.00000
  63 11  C  1S         -0.01513   0.01195   0.00000   0.00000   0.02360
  64        2S          0.08395  -0.05602   0.00000   0.00000  -0.07571
  65        2PX        -0.25481  -0.45251   0.00000   0.00000  -0.02859
  66        2PY        -0.30254   0.31128   0.00000   0.00000   0.40172
  67        2PZ         0.00000   0.00000   0.22933  -0.06348   0.00000
  68        3S         -0.21602   0.01884   0.00000   0.00000   0.31440
  69        3PX         0.49727   0.84410   0.00000   0.00000   0.03695
  70        3PY         0.36597  -0.30249   0.00000   0.00000  -0.57441
  71        3PZ         0.00000   0.00000  -0.34518   0.07190   0.00000
  72 12  H  1S         -0.12935  -0.15513  -0.18379  -0.05977   0.04211
  73        2S         -0.02237  -0.02248   0.01407   0.03521   0.03702
  74 13  H  1S          0.22765   0.37673   0.00000   0.00000   0.01920
  75        2S         -0.00058   0.09474   0.00000   0.00000   0.08680
  76 14  H  1S         -0.12935  -0.15513   0.18379   0.05977   0.04211
  77        2S         -0.02237  -0.02248  -0.01407  -0.03521   0.03702
                          51        52        53        54        55
                           V         V         V         V         V
     Eigenvalues --     1.08557   1.10597   1.10782   1.13070   1.15861
   1 1   C  1S          0.00000   0.00000   0.00518  -0.02188   0.00396
   2        2S          0.00000   0.00000  -0.03966   0.09767  -0.17581
   3        2PX         0.00000   0.00000   0.19282  -0.08560  -0.74701
   4        2PY         0.00000   0.00000   0.05869  -0.22935  -0.28212
   5        2PZ         0.13997   0.44406   0.00000   0.00000   0.00000
   6        3S          0.00000   0.00000   0.01080  -0.76664   0.13344
   7        3PX         0.00000   0.00000  -0.16798   0.13825   1.30412
   8        3PY         0.00000   0.00000   0.01194   0.37348   0.23784
   9        3PZ        -0.45420  -0.33377   0.00000   0.00000   0.00000
  10 2   C  1S          0.00705   0.00859  -0.00342   0.01005   0.00373
  11        2S         -0.02287   0.13630  -0.00414   0.07698  -0.13178
  12        2PX         0.51150   0.09802   0.52193   0.07376   0.28334
  13        2PY         0.11025  -0.38153   0.03670  -0.18806  -0.09117
  14        2PZ        -0.03504   0.17721  -0.04097   0.24204   0.18238
  15        3S          0.32554  -0.27911   0.06421  -0.19292   0.00106
  16        3PX        -0.67749  -0.12589  -0.62793  -0.12322  -0.64567
  17        3PY        -0.07479   0.34781  -0.10683   0.42012   0.23800
  18        3PZ        -0.00670  -0.22774   0.01585  -0.74519  -0.03133
  19 3   C  1S         -0.00864   0.03033   0.00337  -0.02653   0.00304
  20        2S         -0.02667   0.18783  -0.01895   0.34439  -0.12162
  21        2PX        -0.53796  -0.07100  -0.38280  -0.02511   0.00393
  22        2PY         0.07553  -0.25029   0.00769  -0.14335  -0.08250
  23        2PZ         0.00928  -0.16590   0.03785  -0.54015   0.11821
  24        3S         -0.01724  -0.10824  -0.07049  -0.06869   0.26849
  25        3PX         0.71624   0.10378   0.57340   0.05722   0.14395
  26        3PY        -0.17058   0.51796  -0.06288   0.49547   0.16954
  27        3PZ         0.01939   0.12168  -0.03756   0.80637  -0.20040
  28 4   C  1S          0.00864  -0.03033   0.00337  -0.02653   0.00304
  29        2S          0.02667  -0.18783  -0.01895   0.34439  -0.12162
  30        2PX         0.53796   0.07100  -0.38280  -0.02511   0.00393
  31        2PY        -0.07553   0.25029   0.00769  -0.14335  -0.08250
  32        2PZ         0.00928  -0.16590  -0.03785   0.54015  -0.11821
  33        3S          0.01724   0.10824  -0.07049  -0.06869   0.26849
  34        3PX        -0.71624  -0.10378   0.57340   0.05722   0.14395
  35        3PY         0.17058  -0.51796  -0.06288   0.49547   0.16954
  36        3PZ         0.01939   0.12168   0.03756  -0.80637   0.20040
  37 5   C  1S         -0.00705  -0.00859  -0.00342   0.01005   0.00373
  38        2S          0.02287  -0.13630  -0.00414   0.07698  -0.13178
  39        2PX        -0.51150  -0.09802   0.52193   0.07376   0.28334
  40        2PY        -0.11025   0.38153   0.03670  -0.18806  -0.09117
  41        2PZ        -0.03504   0.17721   0.04097  -0.24204  -0.18238
  42        3S         -0.32554   0.27911   0.06421  -0.19292   0.00106
  43        3PX         0.67749   0.12589  -0.62793  -0.12322  -0.64567
  44        3PY         0.07479  -0.34781  -0.10683   0.42012   0.23800
  45        3PZ        -0.00670  -0.22774  -0.01585   0.74519   0.03133
  46 6   H  1S          0.00470   0.28639  -0.00914   0.23225  -0.22523
  47        2S         -0.02951  -0.12375   0.03173   0.04525   0.06683
  48 7   H  1S         -0.12246   0.54972   0.00809   0.25782  -0.14521
  49        2S          0.02318  -0.22162  -0.00900  -0.26746   0.20165
  50 8   H  1S          0.12246  -0.54972   0.00809   0.25782  -0.14521
  51        2S         -0.02318   0.22162  -0.00900  -0.26746   0.20165
  52 9   H  1S         -0.00470  -0.28639  -0.00914   0.23225  -0.22523
  53        2S          0.02951   0.12375   0.03173   0.04525   0.06683
  54 10  N  1S          0.00000   0.00000  -0.00277   0.00902   0.00585
  55        2S          0.00000   0.00000   0.00278  -0.01635  -0.00951
  56        2PX         0.00000   0.00000  -0.08746  -0.01464  -0.07609
  57        2PY         0.00000   0.00000   0.01114  -0.38981   0.08970
  58        2PZ        -0.03355   0.11097   0.00000   0.00000   0.00000
  59        3S          0.00000   0.00000  -0.02661   0.88460  -0.19779
  60        3PX         0.00000   0.00000  -0.14913  -0.01172  -0.00560
  61        3PY         0.00000   0.00000   0.01223   0.22152  -0.15300
  62        3PZ        -0.02038   0.04849   0.00000   0.00000   0.00000
  63 11  C  1S          0.00000   0.00000   0.00430  -0.01457  -0.03894
  64        2S          0.00000   0.00000  -0.01642  -0.00715  -0.00668
  65        2PX         0.00000   0.00000  -0.44279  -0.02676   0.31119
  66        2PY         0.00000   0.00000   0.10493  -0.17599  -0.10669
  67        2PZ        -0.25358  -0.00883   0.00000   0.00000   0.00000
  68        3S          0.00000   0.00000  -0.04736   0.04931   0.07221
  69        3PX         0.00000   0.00000   0.86599   0.03201  -0.79219
  70        3PY         0.00000   0.00000  -0.11512   0.28065   0.29062
  71        3PZ         0.42653  -0.04013   0.00000   0.00000   0.00000
  72 12  H  1S         -0.05713   0.00337  -0.15067  -0.09177  -0.24600
  73        2S          0.15487  -0.06921  -0.00959  -0.04152   0.17506
  74 13  H  1S          0.00000   0.00000   0.31772  -0.04791  -0.20174
  75        2S          0.00000   0.00000   0.11667  -0.02752  -0.29886
  76 14  H  1S          0.05713  -0.00337  -0.15067  -0.09177  -0.24600
  77        2S         -0.15487   0.06921  -0.00959  -0.04152   0.17506
                          56        57        58        59        60
                           V         V         V         V         V
     Eigenvalues --     1.18409   1.20273   1.27226   1.28514   1.31357
   1 1   C  1S         -0.01363   0.00000   0.00000  -0.01076   0.00819
   2        2S          0.30388   0.00000   0.00000   0.09502  -0.06213
   3        2PX        -0.52993   0.00000   0.00000   0.11077  -0.24050
   4        2PY         0.44229   0.00000   0.00000  -0.12022  -0.04774
   5        2PZ         0.00000  -0.58877   0.01504   0.00000   0.00000
   6        3S          0.00488   0.00000   0.00000  -0.97776  -0.34728
   7        3PX         0.99208   0.00000   0.00000  -0.16719   0.37974
   8        3PY        -0.80177   0.00000   0.00000   1.53125   0.77744
   9        3PZ         0.00000   2.35045  -0.25769   0.00000   0.00000
  10 2   C  1S         -0.00253  -0.01103  -0.02072  -0.02342  -0.01252
  11        2S          0.15636   0.02240   0.03055   0.01886  -0.00298
  12        2PX         0.19300   0.22549  -0.03040  -0.01800   0.04897
  13        2PY         0.09227  -0.11673   0.31584   0.39628   0.25652
  14        2PZ        -0.25097   0.12402   0.34982   0.48736   0.15757
  15        3S         -0.17288  -1.27799   0.63278   1.03156   0.61441
  16        3PX        -0.46977  -0.30134   0.04247   0.06905  -0.16971
  17        3PY        -0.18800  -0.24998  -0.84335  -1.17121  -0.75792
  18        3PZ         0.37433   0.27376  -1.02497  -1.48895  -0.69292
  19 3   C  1S          0.00046   0.00739   0.02902   0.00749   0.00554
  20        2S          0.07986   0.01950  -0.07970  -0.04280  -0.03467
  21        2PX         0.00864  -0.09427   0.01100  -0.00405   0.00652
  22        2PY         0.09872   0.02192   0.39933   0.26006   0.18759
  23        2PZ        -0.07038   0.07210  -0.45017  -0.10754  -0.07742
  24        3S         -0.15324   0.06061  -0.36560  -0.85915  -0.51302
  25        3PX         0.09707   0.17866  -0.02332  -0.01016   0.02735
  26        3PY        -0.18954   0.04846  -1.10707  -0.93854  -0.63022
  27        3PZ         0.07014  -0.26503   1.17464   0.62847   0.35165
[...]
  71        3PZ        -0.00010   0.00048  -0.00000  -0.00001  -0.00000
  72 12  H  1S          0.00000  -0.00000   0.00000   0.00000  -0.00000
  73        2S          0.00000  -0.00000   0.00000   0.00000  -0.00000
  74 13  H  1S          0.00000  -0.00000   0.00000   0.00000   0.00000
  75        2S          0.00001   0.00009   0.00000   0.00000   0.00000
  76 14  H  1S         -0.00000   0.00003  -0.00000  -0.00000   0.00000
  77        2S          0.00011   0.00088  -0.00000  -0.00000   0.00000
                          51        52        53        54        55
  51        2S          0.09690
  52 9   H  1S         -0.00012   0.17797
  53        2S          0.00010   0.07723   0.08734
  54 10  N  1S          0.00036  -0.00000  -0.00000   2.05839
  55        2S         -0.00152   0.00000   0.00001   0.02113   0.11128
  56        2PX        -0.00000  -0.00000   0.00000   0.00000   0.00000
  57        2PY         0.00013   0.00000   0.00004   0.00000   0.00000
  58        2PZ        -0.00165   0.00000   0.00001   0.00000   0.00000
  59        3S         -0.02082   0.00000   0.00027  -0.10245   0.24557
  60        3PX        -0.00000  -0.00000   0.00000   0.00000   0.00000
  61        3PY         0.00098   0.00001   0.00109   0.00000   0.00000
  62        3PZ        -0.00978   0.00001   0.00027   0.00000   0.00000
  63 11  C  1S          0.00000   0.00000   0.00001   0.00000   0.00000
  64        2S         -0.00000  -0.00000  -0.00004  -0.00000   0.00000
  65        2PX        -0.00000  -0.00000  -0.00000   0.00000  -0.00000
  66        2PY        -0.00000  -0.00000  -0.00007  -0.00000  -0.00000
  67        2PZ        -0.00000  -0.00000  -0.00002  -0.00000  -0.00000
  68        3S         -0.00000  -0.00014  -0.00049   0.00000  -0.00000
  69        3PX        -0.00000  -0.00000  -0.00000  -0.00000  -0.00000
  70        3PY        -0.00002  -0.00011   0.00001   0.00000  -0.00000
  71        3PZ        -0.00001  -0.00010   0.00048   0.00000  -0.00000
  72 12  H  1S         -0.00000  -0.00000   0.00003   0.00000  -0.00000
  73        2S         -0.00000   0.00011   0.00088   0.00000   0.00000
  74 13  H  1S          0.00000   0.00000  -0.00000   0.00000   0.00000
  75        2S          0.00000   0.00001   0.00009   0.00000   0.00000
  76 14  H  1S          0.00000   0.00000  -0.00000   0.00000  -0.00000
  77        2S          0.00000   0.00000  -0.00000   0.00000   0.00000
                          56        57        58        59        60
  56        2PX         0.24759
  57        2PY         0.00000   0.43479
  58        2PZ         0.00000   0.00000   0.30944
  59        3S          0.00000   0.00000   0.00000   1.35235
  60        3PX         0.14625   0.00000   0.00000   0.00000   0.32666
  61        3PY         0.00000   0.25712   0.00000   0.00000   0.00000
  62        3PZ         0.00000   0.00000   0.13262   0.00000   0.00000
  63 11  C  1S          0.00000   0.00000   0.00000  -0.00000   0.00000
  64        2S          0.00000  -0.00000  -0.00000   0.00000  -0.00000
  65        2PX         0.00000  -0.00000   0.00000   0.00000   0.00000
  66        2PY        -0.00000   0.00000   0.00000   0.00000  -0.00000
  67        2PZ         0.00000   0.00000  -0.00000   0.00000   0.00000
  68        3S         -0.00000   0.00000   0.00000  -0.00001  -0.00000
  69        3PX         0.00000  -0.00000   0.00000   0.00000   0.00001
  70        3PY         0.00000   0.00000   0.00000  -0.00001   0.00000
  71        3PZ         0.00000   0.00000  -0.00000  -0.00000   0.00000
  72 12  H  1S          0.00000  -0.00000   0.00000  -0.00000   0.00000
  73        2S          0.00000   0.00000   0.00000  -0.00000   0.00000
  74 13  H  1S          0.00000  -0.00000   0.00000  -0.00000   0.00000
  75        2S          0.00000   0.00000   0.00000  -0.00000   0.00000
  76 14  H  1S          0.00000  -0.00000   0.00000  -0.00000   0.00000
  77        2S          0.00000   0.00000   0.00000  -0.00000   0.00000
                          61        62        63        64        65
  61        3PY         0.58396
  62        3PZ         0.00000   0.21532
  63 11  C  1S          0.00000   0.00000   2.03859
  64        2S         -0.00000  -0.00000   0.02273   0.09938
  65        2PX        -0.00000   0.00000   0.00000   0.00000   0.27741
  66        2PY         0.00000   0.00000   0.00000   0.00000   0.00000
  67        2PZ         0.00000  -0.00000   0.00000   0.00000   0.00000
  68        3S          0.00003   0.00000  -0.07830   0.17429   0.00000
  69        3PX        -0.00000   0.00000   0.00000   0.00000   0.13174
  70        3PY         0.00008   0.00000   0.00000   0.00000   0.00000
  71        3PZ         0.00000  -0.00000   0.00000   0.00000   0.00000
  72 12  H  1S         -0.00000   0.00000  -0.00078   0.00794   0.01162
  73        2S          0.00000   0.00000   0.00129   0.00347   0.00908
  74 13  H  1S         -0.00000   0.00000  -0.00076   0.00776   0.04891
  75        2S          0.00000   0.00000   0.00157   0.00238   0.03880
  76 14  H  1S         -0.00000   0.00000  -0.00078   0.00794   0.01162
  77        2S          0.00000   0.00000   0.00129   0.00347   0.00908
                          66        67        68        69        70
  66        2PY         0.27671
  67        2PZ         0.00000   0.27905
  68        3S          0.00000   0.00000   0.86288
  69        3PX         0.00000   0.00000   0.00000   0.22568
  70        3PY         0.08202   0.00000   0.00000   0.00000   0.09119
  71        3PZ         0.00000   0.13411   0.00000   0.00000   0.00000
  72 12  H  1S          0.00685   0.03663   0.05724   0.01900   0.00691
  73        2S          0.00605   0.02881   0.03409   0.02111   0.00866
  74 13  H  1S          0.00560   0.00000   0.05541   0.08114   0.00564
  75        2S          0.00535   0.00000   0.02815   0.09025   0.00752
  76 14  H  1S          0.00685   0.03663   0.05724   0.01900   0.00691
  77        2S          0.00605   0.02881   0.03409   0.02111   0.00866
                          71        72        73        74        75
  71        3PZ         0.23494
  72 12  H  1S          0.06106   0.17416
  73        2S          0.06760   0.09262   0.13338
  74 13  H  1S          0.00000  -0.00014  -0.00423   0.17254
  75        2S          0.00000  -0.00431  -0.01305   0.09243   0.13716
  76 14  H  1S          0.06106  -0.00014  -0.00420  -0.00014  -0.00431
  77        2S          0.06760  -0.00420  -0.01282  -0.00423  -0.01305
                          76        77
  76 14  H  1S          0.17416
  77        2S          0.09262   0.13338
     Gross orbital populations:
                           1
   1 1   C  1S          1.98855
   2        2S          0.39898
   3        2PX         0.37289
   4        2PY         0.59987
   5        2PZ         0.62332
   6        3S          0.83761
   7        3PX         0.53645
   8        3PY         0.32420
   9        3PZ         0.31952
  10 2   C  1S          1.98831
  11        2S          0.39036
  12        2PX         0.42116
  13        2PY         0.60206
  14        2PZ         0.58051
  15        3S          0.93306
  16        3PX         0.63144
  17        3PY         0.31036
  18        3PZ         0.46187
  19 3   C  1S          1.98715
  20        2S          0.40410
  21        2PX         0.38339
  22        2PY         0.60872
  23        2PZ         0.57271
  24        3S          0.76643
  25        3PX         0.55946
  26        3PY         0.28267
  27        3PZ         0.31243
  28 4   C  1S          1.98715
  29        2S          0.40410
  30        2PX         0.38339
  31        2PY         0.60872
  32        2PZ         0.57271
  33        3S          0.76643
  34        3PX         0.55946
  35        3PY         0.28267
  36        3PZ         0.31243
  37 5   C  1S          1.98831
  38        2S          0.39036
  39        2PX         0.42116
  40        2PY         0.60206
  41        2PZ         0.58051
  42        3S          0.93306
  43        3PX         0.63144
  44        3PY         0.31036
  45        3PZ         0.46187
  46 6   H  1S          0.46218
  47        2S          0.29796
  48 7   H  1S          0.46703
  49        2S          0.28530
  50 8   H  1S          0.46703
  51        2S          0.28530
  52 9   H  1S          0.46218
  53        2S          0.29796
  54 10  N  1S          1.99038
  55        2S          0.38434
  56        2PX         0.44307
  57        2PY         0.73876
  58        2PZ         0.56529
  59        3S          1.45976
  60        3PX         0.67054
  61        3PY         0.89057
  62        3PZ         0.51364
  63 11  C  1S          1.98835
  64        2S          0.35256
  65        2PX         0.53697
  66        2PY         0.53824
  67        2PZ         0.54014
  68        3S          1.14606
  69        3PX         0.58666
  70        3PY         0.30972
  71        3PZ         0.58589
  72 12  H  1S          0.45350
  73        2S          0.33099
  74 13  H  1S          0.44924
  75        2S          0.32214
  76 14  H  1S          0.45350
  77        2S          0.33099
          Condensed to atoms (all electrons):
               1          2          3          4          5          6
     1  C    5.414921   0.401672  -0.101835  -0.101835   0.401672  -0.035075
     2  C    0.401672   5.404670   0.376687  -0.009972  -0.057777   0.389709
     3  C   -0.101835   0.376687   4.936677  -0.135697  -0.009972  -0.018551
     4  C   -0.101835  -0.009972  -0.135697   4.936677   0.376687   0.000088
     5  C    0.401672  -0.057777  -0.009972   0.376687   5.404670   0.002000
     6  H   -0.035075   0.389709  -0.018551   0.000088   0.002000   0.419764
     7  H    0.003285  -0.057566   0.401937   0.003554  -0.000849  -0.000119
     8  H    0.003285  -0.000849   0.003554   0.401937  -0.057566   0.000003
     9  H   -0.035075   0.002000   0.000088  -0.018551   0.389709  -0.000024
    10  N   -0.013558  -0.071709   0.422296   0.422296  -0.071709   0.001709
    11  C    0.227620  -0.057830   0.001785   0.001785  -0.057830  -0.000486
    12  H   -0.053832   0.002436  -0.000068   0.000193  -0.001565  -0.000000
    13  H   -0.056023  -0.000774  -0.000035  -0.000035  -0.000774   0.000100
    14  H   -0.053832  -0.001565   0.000193  -0.000068   0.002436   0.001017
               7          8          9         10         11         12
     1  C    0.003285   0.003285  -0.035075  -0.013558   0.227620  -0.053832
     2  C   -0.057566  -0.000849   0.002000  -0.071709  -0.057830   0.002436
     3  C    0.401937   0.003554   0.000088   0.422296   0.001785  -0.000068
     4  C    0.003554   0.401937  -0.018551   0.422296   0.001785   0.000193
     5  C   -0.000849  -0.057566   0.389709  -0.071709  -0.057830  -0.001565
     6  H   -0.000119   0.000003  -0.000024   0.001709  -0.000486  -0.000000
     7  H    0.439614   0.000022   0.000003  -0.037528  -0.000028   0.000000
     8  H    0.000022   0.439614  -0.000119  -0.037528  -0.000028  -0.000000
     9  H    0.000003  -0.000119   0.419764   0.001709  -0.000486   0.001017
    10  N   -0.037528  -0.037528   0.001709   7.040266   0.000094   0.000001
    11  C   -0.000028  -0.000028  -0.000486   0.000094   5.319033   0.386622
    12  H    0.000000  -0.000000   0.001017   0.000001   0.386622   0.492770
    13  H    0.000001   0.000001   0.000100   0.000005   0.377727  -0.021735
    14  H   -0.000000   0.000000  -0.000000   0.000001   0.386622  -0.021351
              13         14
     1  C   -0.056023  -0.053832
     2  C   -0.000774  -0.001565
     3  C   -0.000035   0.000193
     4  C   -0.000035  -0.000068
     5  C   -0.000774   0.002436
     6  H    0.000100   0.001017
     7  H    0.000001  -0.000000
     8  H    0.000001   0.000000
     9  H    0.000100  -0.000000
    10  N    0.000005   0.000001
    11  C    0.377727   0.386622
    12  H   -0.021735  -0.021351
    13  H    0.494557  -0.021735
    14  H   -0.021735   0.492770
 Mulliken charges:
               1
     1  C   -0.001390
     2  C   -0.319133
     3  C    0.122941
     4  C    0.122941
     5  C   -0.319133
     6  H    0.239865
     7  H    0.247675
     8  H    0.247675
     9  H    0.239865
    10  N   -0.656345
    11  C   -0.584600
    12  H    0.215511
    13  H    0.228619
    14  H    0.215511
 Sum of Mulliken charges =  -0.00000
 Mulliken charges with hydrogens summed into heavy atoms:
               1
     1  C   -0.001390
     2  C   -0.079268
     3  C    0.370616
     4  C    0.370616
     5  C   -0.079268
    10  N   -0.656345
    11  C    0.075041
 Electronic spatial extent (au):  <R**2>=            695.6976
 Charge=             -0.0000 electrons
 Dipole moment (field-independent basis, Debye):
    X=             -0.0573    Y=              2.8514    Z=              0.0000  Tot=              2.8520
 Quadrupole moment (field-independent basis, Debye-Ang):
   XX=            -45.6547   YY=            -45.4529   ZZ=            -35.7316
   XY=             -0.0866   XZ=              0.0000   YZ=              0.0000
 Traceless Quadrupole moment (field-independent basis, Debye-Ang):
   XX=             -3.3750   YY=             -3.1732   ZZ=              6.5482
   XY=             -0.0866   XZ=              0.0000   YZ=              0.0000
 Octapole moment (field-independent basis, Debye-Ang**2):
  XXX=             -0.9026  YYY=             21.9132  ZZZ=             -0.0000  XYY=             -0.1712
  XXY=              1.1863  XXZ=              0.0000  XZZ=              0.7429  YZZ=             -4.9344
  YYZ=              0.0000  XYZ=              0.0000
 Hexadecapole moment (field-independent basis, Debye-Ang**3):
 XXXX=            -53.0934 YYYY=           -643.9890 ZZZZ=           -257.9113 XXXY=             -1.2965
 XXXZ=              0.0000 YYYX=              1.0704 YYYZ=              0.0000 ZZZX=              0.0000
 ZZZY=             -0.0000 XXYY=           -109.0724 XXZZ=            -64.1208 YYZZ=           -127.3663
 XXYZ=             -0.0000 YYXZ=              0.0000 ZZXY=              2.4361
 N-N= 2.708148676273D+02 E-N=-1.202585018643D+03  KE= 2.830804684401D+02
 Symmetry A'   KE= 2.010683031653D+02
 Symmetry A"   KE= 8.201216527482D+01
 Orbital energies and kinetic energies (alpha):
                                 1                 2
   1         O               -15.492119         21.929607
   2         O               -11.224057         15.875534
   3         O               -11.223613         15.869378
   4         O               -11.213099         15.877464
   5         O               -11.189767         15.874500
   6         O               -11.189653         15.879338
   7         O               -11.185835         15.877244
   8         O                -1.260358          1.809573
   9         O                -1.112124          1.599859
  10         O                -1.026472          1.611341
  11         O                -0.968164          1.473521
  12         O                -0.852875          1.519470
  13         O                -0.817423          1.475328
  14         O                -0.692863          1.095383
  15         O                -0.671117          1.425205
  16         O                -0.643808          1.240389
  17         O                -0.595337          1.178902
  18         O                -0.589540          0.887583
  19         O                -0.551503          1.129471
  20         O                -0.549567          1.455829
  21         O                -0.524147          1.034391
  22         O                -0.501374          1.345801
  23         O                -0.400332          1.832964
  24         O                -0.365120          1.196302
  25         O                -0.348869          1.045859
  26         V                 0.128717          1.393292
  27         V                 0.135095          1.230373
  28         V                 0.262608          0.957567
  29         V                 0.286987          1.108107
  30         V                 0.294121          0.931306
  31         V                 0.312262          1.142969
  32         V                 0.334569          0.984425
  33         V                 0.346718          1.239664
  34         V                 0.362329          1.229802
  35         V                 0.384387          1.418092
  36         V                 0.414167          1.891939
  37         V                 0.489809          1.707426
  38         V                 0.523805          1.782159
  39         V                 0.540183          1.739832
  40         V                 0.544474          1.706479
  41         V                 0.732248          2.707307
  42         V                 0.758455          1.929489
  43         V                 0.878197          2.187616
  44         V                 0.934187          2.447621
  45         V                 0.939233          2.445549
  46         V                 0.971881          2.714482
  47         V                 0.979019          2.505135
  48         V                 1.025980          2.921801
  49         V                 1.037511          2.661878
  50         V                 1.054747          2.933500
  51         V                 1.085569          2.756624
  52         V                 1.105968          2.786450
  53         V                 1.107822          2.610354
  54         V                 1.130699          3.293348
  55         V                 1.158610          2.833779
  56         V                 1.184094          2.858501
  57         V                 1.202730          2.751374
  58         V                 1.272259          3.223997
  59         V                 1.285139          3.171591
  60         V                 1.313570          2.943713
  61         V                 1.341851          2.618866
  62         V                 1.387875          3.105014
  63         V                 1.388573          3.253308
  64         V                 1.477340          2.927418
  65         V                 1.549386          3.905928
  66         V                 1.560003          3.028922
  67         V                 1.607218          2.897072
  68         V                 1.657022          3.593778
  69         V                 1.712562          3.039467
  70         V                 1.744173          3.327264
  71         V                 1.810453          3.216955
  72         V                 1.846187          3.196890
  73         V                 1.977278          3.593976
  74         V                 2.205733          3.357216
  75         V                 2.246578          3.637087
  76         V                 2.280369          3.417481
  77         V                 3.236821          5.045572
 Total kinetic energy from orbitals= 2.830804684401D+02
 1\1\GINC-IISERK51\SP\RHF\3-21G*\C6H7N1\GAUSSIAN\14-Jun-2025\0\\# hf/3-
 21g* pop=full geom=connectivity\\meth-pyridine sp with HF#-21G*\\0,1\C
 ,0,0.002628,0.905356,0.\C,0,0.003651,0.185782,1.202077\C,0,0.003651,-1
 .218711,1.149074\C,0,0.003651,-1.218711,-1.149074\C,0,0.003651,0.18578
 2,-1.202077\H,0,0.005517,0.705383,2.16895\H,0,0.004424,-1.817492,2.077
 492\H,0,0.004424,-1.817492,-2.077492\H,0,0.005517,0.705383,-2.16895\N,
 0,0.003391,-1.922126,0.\C,0,-0.012551,2.384741,0.\H,0,0.499087,2.79027
 2,-0.907436\H,0,-1.069888,2.753125,0.\H,0,0.499087,2.790272,0.907436\\
 Version=EM64L-G16RevB.01\State=1-A'\HF=-284.1265445\RMSD=5.189e-09\Dip
 ole=-0.022539,1.1218284,0.\Quadrupole=-2.50923,-2.3591872,4.8684172,-0
 .0643519,0.,0.\PG=CS [SG(C2H1N1),X(C4H6)]\\@


 DEFINE YOUR TERMS, YOU WILL PERMIT ME AGAIN TO SAY, 
 OR WE SHALL NEVER UNDERSTAND ONE ANOTHER.

                                    -- VOLTAIRE
 Job cpu time:       0 days  0 hours  0 minutes  0.8 seconds.
 Elapsed time:       0 days  0 hours  0 minutes  0.8 seconds.
 File lengths (MBytes):  RWF=      6 Int=      0 D2E=      0 Chk=      1 Scr=      1
 Normal termination of Gaussian 16 at Sat Jun 14 14:23:20 2025.
