 Entering Gaussian System, Link 0=g16
 Input=/home/gaussian/Documents/Summer_Internship/Aromaticity/hetrocyclic/pyridine/meth_pyridine_opt.com
 Output=/home/gaussian/Documents/Summer_Internship/Aromaticity/hetrocyclic/pyridine/meth_pyridine_opt.log
 Initial command:
 /usr/local/g16/l1.exe "/home/gaussian/tmp/Gau-46748.inp" -scrdir="/home/gaussian/tmp/"
 Entering Link 1 = /usr/local/g16/l1.exe PID=     46751.
  
 Copyright (c) 1988-2017, Gaussian, Inc.  All Rights Reserved.
  
 This is part of the Gaussian(R) 16 program.  It is based on
 the Gaussian(R) 09 system (copyright 2009, Gaussian, Inc.),
 the Gaussian(R) 03 system (copyright 2003, Gaussian, Inc.),
 the Gaussian(R) 98 system (copyright 1998, Gaussian, Inc.),
 the Gaussian(R) 94 system (copyright 1995, Gaussian, Inc.),
 the Gaussian 92(TM) system (copyright 1992, Gaussian, Inc.),
 the Gaussian 90(TM) system (copyright 1990, Gaussian, Inc.),
 the Gaussian 88(TM) system (copyright 1988, Gaussian, Inc.),
 the Gaussian 86(TM) system (copyright 1986, Carnegie Mellon
 University), and the Gaussian 82(TM) system (copyright 1983,
 Carnegie Mellon University). Gaussian is a federally registered
 trademark of Gaussian, Inc.
  
 This software contains proprietary and confidential information,
 including trade secrets, belonging to Gaussian, Inc.
  
 This software is provided under written license and may be
 used, copied, transmitted, or stored only in accord with that
 written license.
  
 The following legend is applicable only to US Government
 contracts under FAR:
  
                    RESTRICTED RIGHTS LEGEND
  
 Use, reproduction and disclosure by the US Government is
 subject to restrictions as set forth in subparagraphs (a)
 and (c) of the Commercial Computer Software - Restricted
 Rights clause in FAR 52.227-19.
  
 Gaussian, Inc.
 340 Quinnipiac St., Bldg. 40, Wallingford CT 06492
  
  
 ---------------------------------------------------------------
 Warning -- This program may not be used in any manner that
 competes with the business of Gaussian, Inc. or will provide
 assistance to any competitor of Gaussian, Inc.  The licensee
 of this program is prohibited from giving any competitor of
 Gaussian, Inc. access to this program.  By using this program,
 the user acknowledges that Gaussian, Inc. is engaged in the
 business of creating and licensing software in the field of
 computational chemistry and represents and warrants to the
 licensee that it is not a competitor of Gaussian, Inc. and that
 it will not use this program in any manner prohibited above.
 ---------------------------------------------------------------
  

 Cite this work as:
 Gaussian 16, Revision B.01,
 M. J. Frisch, G. W. Trucks, H. B. Schlegel, G. E. Scuseria, 
 M. A. Robb, J. R. Cheeseman, G. Scalmani, V. Barone, 
 G. A. Petersson, H. Nakatsuji, X. Li, M. Caricato, A. V. Marenich, 
 J. Bloino, B. G. Janesko, R. Gomperts, B. Mennucci, H. P. Hratchian, 
 J. V. Ortiz, A. F. Izmaylov, J. L. Sonnenberg, D. Williams-Young, 
 F. Ding, F. Lipparini, F. Egidi, J. Goings, B. Peng, A. Petrone, 
 T. Henderson, D. Ranasinghe, V. G. Zakrzewski, J. Gao, N. Rega, 
 G. Zheng, W. Liang, M. Hada, M. Ehara, K. Toyota, R. Fukuda, 
 J. Hasegawa, M. Ishida, T. Nakajima, Y. Honda, O. Kitao, H. Nakai, 
 T. Vreven, K. Throssell, J. A. Montgomery, Jr., J. E. Peralta, 
 F. Ogliaro, M. J. Bearpark, J. J. Heyd, E. N. Brothers, K. N. Kudin, 
 V. N. Staroverov, T. A. Keith, R. Kobayashi, J. Normand, 
 K. Raghavachari, A. P. Rendell, J. C. Burant, S. S. Iyengar, 
 J. Tomasi, M. Cossi, J. M. Millam, M. Klene, C. Adamo, R. Cammi, 
 J. W. Ochterski, R. L. Martin, K. Morokuma, O. Farkas, 
 J. B. Foresman, and D. J. Fox, Gaussian, Inc., Wallingford CT, 2016.
 
 ******************************************
 Gaussian 16:  EM64L-G16RevB.01 20-Dec-2017
                14-Jun-2025 
 ******************************************
 %chk=meth_pyridine_opt.chk
 -----------------------------------------
 # opt freq am1 pop=full geom=connectivity
 -----------------------------------------
 1/18=20,19=15,26=1,38=1,57=2/1,3;
 2/9=110,12=2,17=6,18=5,40=1/2;
 3/5=2,25=1,41=700000,71=1/1,2,3;
 4/35=1/1;
 5/5=2,35=1,38=5/2;
 6/7=3,28=1/1;
 7//1,2,3,16;
 1/18=20,19=15,26=1/3(2);
 2/9=110/2;
 99//99;
 2/9=110/2;
 3/5=2,25=1,41=700000,71=1,135=20/1,2,3;
 4/5=5,16=3,35=1/1;
 5/5=2,35=1,38=5/2;
 7//1,2,3,16;
 1/18=20,19=15,26=1/3(-5);
 2/9=110/2;
 6/7=3,19=2,28=1/1;
 99/9=1/99;
 -------------------------------
 meth-pyridine opt freq with AM1
 -------------------------------
 Symbolic Z-matrix:
 Charge =  0 Multiplicity = 1
 C                     0.       -1.37722  -0.00016 
 C                     1.20144  -0.66714  -0.00012 
 C                     1.17206   0.73409   0.00034 
 C                    -1.1721    0.73407   0.0007 
 C                    -1.20144  -0.66717   0.00026 
 H                     2.13631  -1.18765  -0.00043 
 H                     2.08955   1.28465   0.00037 
 H                    -2.08959   1.28461   0.00102 
 H                    -2.1363   -1.18769   0.00023 
 N                    -0.00002   1.39094   0.00073 
 C                     0.00002  -2.91722  -0.00065 
 H                    -0.87355  -3.27406   0.50377 
 H                    -0.00013  -3.27356  -1.00957 
 H                     0.87375  -3.27404   0.5035 
 

 GradGradGradGradGradGradGradGradGradGradGradGradGradGradGradGradGradGrad
 Berny optimization.
 Initialization pass.
                           ----------------------------
                           !    Initial Parameters    !
                           ! (Angstroms and Degrees)  !
 --------------------------                            --------------------------
 ! Name  Definition              Value          Derivative Info.                !
 --------------------------------------------------------------------------------
 ! R1    R(1,2)                  1.3956         estimate D2E/DX2                !
 ! R2    R(1,5)                  1.3956         estimate D2E/DX2                !
 ! R3    R(1,11)                 1.54           estimate D2E/DX2                !
 ! R4    R(2,3)                  1.4015         estimate D2E/DX2                !
 ! R5    R(2,6)                  1.07           estimate D2E/DX2                !
 ! R6    R(3,7)                  1.07           estimate D2E/DX2                !
 ! R7    R(3,10)                 1.3436         estimate D2E/DX2                !
 ! R8    R(4,5)                  1.4015         estimate D2E/DX2                !
 ! R9    R(4,8)                  1.07           estimate D2E/DX2                !
 ! R10   R(4,10)                 1.3436         estimate D2E/DX2                !
 ! R11   R(5,9)                  1.07           estimate D2E/DX2                !
 ! R12   R(11,12)                1.07           estimate D2E/DX2                !
 ! R13   R(11,13)                1.07           estimate D2E/DX2                !
 ! R14   R(11,14)                1.07           estimate D2E/DX2                !
 ! A1    A(2,1,5)              118.8332         estimate D2E/DX2                !
 ! A2    A(2,1,11)             120.5834         estimate D2E/DX2                !
 ! A3    A(5,1,11)             120.5834         estimate D2E/DX2                !
 ! A4    A(1,2,3)              119.383          estimate D2E/DX2                !
 ! A5    A(1,2,6)              120.3085         estimate D2E/DX2                !
 ! A6    A(3,2,6)              120.3085         estimate D2E/DX2                !
 ! A7    A(2,3,7)              119.766          estimate D2E/DX2                !
 ! A8    A(2,3,10)             120.468          estimate D2E/DX2                !
 ! A9    A(7,3,10)             119.766          estimate D2E/DX2                !
 ! A10   A(5,4,8)              119.766          estimate D2E/DX2                !
 ! A11   A(5,4,10)             120.468          estimate D2E/DX2                !
 ! A12   A(8,4,10)             119.766          estimate D2E/DX2                !
 ! A13   A(1,5,4)              119.383          estimate D2E/DX2                !
 ! A14   A(1,5,9)              120.3085         estimate D2E/DX2                !
 ! A15   A(4,5,9)              120.3085         estimate D2E/DX2                !
 ! A16   A(3,10,4)             121.4649         estimate D2E/DX2                !
 ! A17   A(1,11,12)            109.4712         estimate D2E/DX2                !
 ! A18   A(1,11,13)            109.4712         estimate D2E/DX2                !
 ! A19   A(1,11,14)            109.4712         estimate D2E/DX2                !
 ! A20   A(12,11,13)           109.4712         estimate D2E/DX2                !
 ! A21   A(12,11,14)           109.4712         estimate D2E/DX2                !
 ! A22   A(13,11,14)           109.4712         estimate D2E/DX2                !
 ! D1    D(5,1,2,3)              0.0            estimate D2E/DX2                !
 ! D2    D(5,1,2,6)           -179.9999         estimate D2E/DX2                !
 ! D3    D(11,1,2,3)           180.0            estimate D2E/DX2                !
 ! D4    D(11,1,2,6)             0.0001         estimate D2E/DX2                !
 ! D5    D(2,1,5,4)              0.0            estimate D2E/DX2                !
 ! D6    D(2,1,5,9)            179.9999         estimate D2E/DX2                !
 ! D7    D(11,1,5,4)          -180.0            estimate D2E/DX2                !
 ! D8    D(11,1,5,9)            -0.0001         estimate D2E/DX2                !
 ! D9    D(2,1,11,12)          150.0            estimate D2E/DX2                !
 ! D10   D(2,1,11,13)          -90.0            estimate D2E/DX2                !
 ! D11   D(2,1,11,14)           30.0            estimate D2E/DX2                !
 ! D12   D(5,1,11,12)          -30.0            estimate D2E/DX2                !
 ! D13   D(5,1,11,13)           90.0            estimate D2E/DX2                !
 ! D14   D(5,1,11,14)         -150.0            estimate D2E/DX2                !
 ! D15   D(1,2,3,7)            179.9999         estimate D2E/DX2                !
 ! D16   D(1,2,3,10)            -0.0001         estimate D2E/DX2                !
 ! D17   D(6,2,3,7)             -0.0002         estimate D2E/DX2                !
 ! D18   D(6,2,3,10)           179.9997         estimate D2E/DX2                !
 ! D19   D(2,3,10,4)             0.0003         estimate D2E/DX2                !
 ! D20   D(7,3,10,4)          -179.9998         estimate D2E/DX2                !
 ! D21   D(8,4,5,1)           -179.9999         estimate D2E/DX2                !
 ! D22   D(8,4,5,9)              0.0002         estimate D2E/DX2                !
 ! D23   D(10,4,5,1)             0.0001         estimate D2E/DX2                !
 ! D24   D(10,4,5,9)          -179.9997         estimate D2E/DX2                !
 ! D25   D(5,4,10,3)            -0.0003         estimate D2E/DX2                !
 ! D26   D(8,4,10,3)           179.9998         estimate D2E/DX2                !
 --------------------------------------------------------------------------------
 Trust Radius=3.00D-01 FncErr=1.00D-07 GrdErr=1.00D-07 EigMax=2.50D+02 EigMin=1.00D-04
 Number of steps in this run=     72 maximum allowed number of steps=    100.
 GradGradGradGradGradGradGradGradGradGradGradGradGradGradGradGradGradGrad

                          Input orientation:                          
 ---------------------------------------------------------------------
 Center     Atomic      Atomic             Coordinates (Angstroms)
 Number     Number       Type             X           Y           Z
 ---------------------------------------------------------------------
      1          6           0        0.000005   -1.377218   -0.000157
      2          6           0        1.201440   -0.667145   -0.000116
      3          6           0        1.172064    0.734089    0.000338
      4          6           0       -1.172096    0.734066    0.000701
      5          6           0       -1.201444   -0.667169    0.000257
      6          1           0        2.136308   -1.187646   -0.000429
      7          1           0        2.089550    1.284651    0.000374
      8          1           0       -2.089593    1.284610    0.001022
      9          1           0       -2.136302   -1.187688    0.000233
     10          7           0       -0.000022    1.390945    0.000728
     11          6           0        0.000020   -2.917218   -0.000652
     12          1           0       -0.873550   -3.274056    0.503772
     13          1           0       -0.000133   -3.273561   -1.009572
     14          1           0        0.873753   -3.274038    0.503501
 ---------------------------------------------------------------------
                    Distance matrix (angstroms):
                    1          2          3          4          5
     1  C    0.000000
     2  C    1.395583   0.000000
     3  C    2.414817   1.401542   0.000000
     4  C    2.414817   2.756277   2.344160   0.000000
     5  C    1.395583   2.402885   2.756277   1.401542   0.000000
     6  H    2.144698   1.070000   2.150077   3.826031   3.378090
     7  H    3.384044   2.144353   1.070000   3.307791   3.826257
     8  H    3.384044   3.826257   3.307791   1.070000   2.144353
     9  H    2.144698   3.378090   3.826031   2.150077   1.070000
    10  N    2.768164   2.383117   1.343595   1.343595   2.383117
    11  C    1.540000   2.550734   3.834805   3.834805   2.550734
    12  H    2.148263   3.369788   4.528046   4.050586   2.675239
    13  H    2.148263   3.042398   4.295954   4.295954   3.042398
    14  H    2.148263   2.675239   4.050586   4.528046   3.369788
                    6          7          8          9         10
     6  H    0.000000
     7  H    2.472740   0.000000
     8  H    4.895946   4.179143   0.000000
     9  H    4.272611   4.895946   2.472740   0.000000
    10  N    3.348588   2.092274   2.092274   3.348588   0.000000
    11  C    2.748663   4.692744   4.692744   2.748663   4.308164
    12  H    3.696832   5.460328   4.744781   2.490186   4.772665
    13  H    3.151792   5.115082   5.115082   3.151792   4.772664
    14  H    2.490186   4.744781   5.460328   3.696832   4.772665
                   11         12         13         14
    11  C    0.000000
    12  H    1.070000   0.000000
    13  H    1.070000   1.747303   0.000000
    14  H    1.070000   1.747303   1.747303   0.000000
 Stoichiometry    C6H7N
 Framework group  CS[SG(C2HN),X(C4H6)]
 Deg. of freedom    20
 Full point group                 CS      NOp   2
 Largest Abelian subgroup         CS      NOp   2
 Largest concise Abelian subgroup CS      NOp   2
                         Standard orientation:                         
 ---------------------------------------------------------------------
 Center     Atomic      Atomic             Coordinates (Angstroms)
 Number     Number       Type             X           Y           Z
 ---------------------------------------------------------------------
      1          6           0        0.000001    0.880125    0.000000
      2          6           0        0.000001    0.170063    1.201442
      3          6           0       -0.000000   -1.231171    1.172080
      4          6           0       -0.000000   -1.231171   -1.172080
      5          6           0        0.000001    0.170063   -1.201442
      6          1           0       -0.000001    0.690574    2.136305
      7          1           0        0.000001   -1.781725    2.089571
      8          1           0        0.000001   -1.781725   -2.089571
      9          1           0       -0.000001    0.690574   -2.136305
     10          7           0       -0.000003   -1.888039   -0.000000
     11          6           0        0.000001    2.420125    0.000000
     12          1           0        0.504404    2.776791   -0.873651
     13          1           0       -1.008805    2.776791    0.000000
     14          1           0        0.504404    2.776791    0.873651
 ---------------------------------------------------------------------
 Rotational constants (GHZ):           5.6982272           2.5475354           1.7795462
 Standard basis: VSTO-6G (5D, 7F)
 There are    21 symmetry adapted cartesian basis functions of A'  symmetry.
 There are    14 symmetry adapted cartesian basis functions of A"  symmetry.
 There are    21 symmetry adapted basis functions of A'  symmetry.
 There are    14 symmetry adapted basis functions of A"  symmetry.
    35 basis functions,   210 primitive gaussians,    35 cartesian basis functions
    18 alpha electrons       18 beta electrons
       nuclear repulsion energy       160.6429424048 Hartrees.
 Integral buffers will be    131072 words long.
 Regular integral format.
 Two-electron integral symmetry is turned off.
 Do NDO integrals.
 One-electron integrals computed using PRISM.
 NBasis=    35 RedAO= T EigKep=  1.00D+00  NBF=    21    14
 NBsUse=    35 1.00D-06 EigRej= -1.00D+00 NBFU=    21    14
 Simple Huckel Guess.
 Initial guess orbital symmetries:
       Occupied  (A') (A') (A") (A') (A") (A') (A') (A') (A") (A')
                 (A") (A') (A") (A') (A") (A') (A") (A')
       Virtual   (A') (A") (A') (A') (A") (A") (A') (A') (A") (A")
                 (A') (A') (A") (A') (A") (A') (A')
 The electronic state of the initial guess is 1-A'.
 Keep J ints in memory in canonical form, NReq=862419.
 Overlap will be assumed to be unity.
 Requested convergence on RMS density matrix=1.00D-08 within 128 cycles.
 Requested convergence on MAX density matrix=1.00D-06.
 Requested convergence on             energy=1.00D-06.
 No special actions if energy rises.
 Fock symm off for IB=2 I1=    1 I=   22 J=   16 Cut=1.00D-07 Err=1.99D-02
 Fock matrix is not symmetric: symmetry in diagonalization turned off.
 SCF Done:  E(RAM1) =  0.504810251245E-01 A.U. after   13 cycles
            NFock= 12  Conv=0.87D-08     -V/T= 1.0008

 **********************************************************************

            Population analysis using the SCF Density.

 **********************************************************************

 Orbital symmetries:
       Occupied  (A') (A') (A") (A') (A") (A') (A') (A") (A') (A')
                 (A") (A') (A") (A') (A") (A') (A') (A")
       Virtual   (A") (A') (A') (A') (A') (A") (A') (A") (A") (A')
                 (A') (A") (A') (A') (A") (A') (A")
 The electronic state is 1-A'.
 Alpha  occ. eigenvalues --   -1.47942  -1.26785  -1.17127  -1.06001  -0.89096
 Alpha  occ. eigenvalues --   -0.84655  -0.63964  -0.62588  -0.61302  -0.55154
 Alpha  occ. eigenvalues --   -0.53893  -0.50608  -0.50421  -0.49806  -0.45995
 Alpha  occ. eigenvalues --   -0.38172  -0.38067  -0.36568
 Alpha virt. eigenvalues --    0.00632   0.01129   0.10372   0.12830   0.12963
 Alpha virt. eigenvalues --    0.14024   0.15083   0.15297   0.16333   0.16447
 Alpha virt. eigenvalues --    0.17063   0.17932   0.18005   0.18560   0.19755
 Alpha virt. eigenvalues --    0.21198   0.25654
     Molecular Orbital Coefficients:
                           1         2         3         4         5
                           O         O         O         O         O
     Eigenvalues --    -1.47942  -1.26785  -1.17127  -1.06001  -0.89096
   1 1   C  1S          0.37310  -0.46665  -0.00000  -0.05899   0.00000
   2        1PX        -0.00001   0.00002   0.00000  -0.00007   0.00000
   3        1PY        -0.09079  -0.07797  -0.00000   0.27726  -0.00000
   4        1PZ         0.00000  -0.00000   0.20869   0.00000  -0.32419
   5 2   C  1S          0.34930  -0.18765   0.42821  -0.28424  -0.33867
   6        1PX         0.00002  -0.00013   0.00002   0.00022  -0.00012
   7        1PY        -0.05138  -0.13596  -0.10084   0.04993  -0.17301
   8        1PZ        -0.10252   0.07367   0.03182   0.02527  -0.01500
   9 3   C  1S          0.36822   0.20853   0.44277  -0.02620   0.32065
  10        1PX        -0.00000  -0.00002  -0.00000   0.00004  -0.00004
  11        1PY         0.04728  -0.10778   0.08677  -0.17970  -0.21621
  12        1PZ        -0.12799  -0.11770   0.02705  -0.11061  -0.04188
  13 4   C  1S          0.36822   0.20853  -0.44277  -0.02620  -0.32065
  14        1PX        -0.00000  -0.00002   0.00000   0.00004   0.00004
  15        1PY         0.04728  -0.10778  -0.08677  -0.17970   0.21621
  16        1PZ         0.12799   0.11770   0.02705   0.11061  -0.04188
  17 5   C  1S          0.34930  -0.18765  -0.42821  -0.28424   0.33867
  18        1PX         0.00002  -0.00013  -0.00002   0.00022   0.00012
  19        1PY        -0.05138  -0.13596   0.10084   0.04993   0.17301
  20        1PZ         0.10252  -0.07367   0.03182  -0.02527  -0.01500
  21 6   H  1S          0.09218  -0.07700   0.16092  -0.08798  -0.19439
  22 7   H  1S          0.09014   0.06112   0.16500  -0.01234   0.17556
  23 8   H  1S          0.09014   0.06112  -0.16500  -0.01234  -0.17556
  24 9   H  1S          0.09218  -0.07700  -0.16092  -0.08798   0.19439
  25 10  N  1S          0.42923   0.47715   0.00000   0.38182   0.00000
  26        1PX        -0.00001  -0.00002  -0.00000   0.00000   0.00000
  27        1PY         0.15531   0.09722   0.00000   0.01223   0.00000
  28        1PZ        -0.00000  -0.00000   0.22535   0.00000   0.39298
  29 11  C  1S          0.14462  -0.42635  -0.00000   0.57407  -0.00000
  30        1PX         0.00020  -0.00020   0.00000  -0.00080   0.00000
  31        1PY        -0.05999   0.09386   0.00000   0.03898  -0.00000
  32        1PZ         0.00000   0.00000   0.03429  -0.00000  -0.08456
  33 12  H  1S          0.05113  -0.15655  -0.01657   0.23635   0.04337
  34 13  H  1S          0.04965  -0.15474  -0.00000   0.23844  -0.00000
  35 14  H  1S          0.05113  -0.15655   0.01657   0.23635  -0.04337
                           6         7         8         9        10
                           O         O         O         O         O
     Eigenvalues --    -0.84655  -0.63964  -0.62588  -0.61302  -0.55154
   1 1   C  1S          0.39421  -0.14888   0.00000  -0.25584   0.00455
   2        1PX        -0.00029  -0.00244   0.00000   0.00769   0.38496
   3        1PY        -0.08754  -0.25891   0.00000  -0.00716  -0.00536
   4        1PZ         0.00000   0.00000   0.37574   0.00000   0.00000
   5 2   C  1S         -0.07802  -0.01097   0.00859   0.22565  -0.00731
   6        1PX        -0.00027  -0.00097   0.00059   0.00415   0.28381
   7        1PY         0.22168  -0.23564   0.32064   0.12293  -0.00369
   8        1PZ        -0.23958  -0.20553  -0.16739   0.30923  -0.01203
   9 3   C  1S         -0.27560  -0.03572  -0.04159  -0.20989   0.00524
  10        1PX        -0.00006  -0.00050   0.00024   0.00240   0.26367
  11        1PY        -0.11174   0.26707  -0.29374   0.09008  -0.00161
  12        1PZ        -0.23036  -0.24952  -0.26786  -0.17374   0.00185
  13 4   C  1S         -0.27560  -0.03572   0.04159  -0.20989   0.00524
  14        1PX        -0.00006  -0.00050  -0.00024   0.00240   0.26367
  15        1PY        -0.11174   0.26707   0.29374   0.09008  -0.00161
  16        1PZ         0.23036   0.24952  -0.26786   0.17374  -0.00185
  17 5   C  1S         -0.07802  -0.01097  -0.00859   0.22565  -0.00731
  18        1PX        -0.00027  -0.00097  -0.00059   0.00415   0.28381
  19        1PY         0.22168  -0.23564  -0.32064   0.12293  -0.00369
  20        1PZ         0.23958   0.20553  -0.16739  -0.30923   0.01203
  21 6   H  1S         -0.09228  -0.19901   0.01564   0.34784  -0.01116
  22 7   H  1S         -0.19571  -0.24818  -0.06827  -0.24668   0.00496
  23 8   H  1S         -0.19571  -0.24818   0.06827  -0.24668   0.00496
  24 9   H  1S         -0.09228  -0.19901  -0.01564   0.34784  -0.01116
  25 10  N  1S          0.29130  -0.16028   0.00000   0.23089  -0.00804
  26        1PX        -0.00005  -0.00037  -0.00000   0.00209   0.29094
  27        1PY        -0.00003   0.30119  -0.00000  -0.01126   0.00454
  28        1PZ        -0.00000   0.00000   0.43334   0.00000   0.00000
  29 11  C  1S         -0.24076   0.09836  -0.00000   0.00094   0.00036
  30        1PX        -0.00045  -0.00792  -0.00000   0.01888   0.50641
  31        1PY        -0.18352   0.28309  -0.00000   0.15042   0.00154
  32        1PZ         0.00000   0.00000   0.21772   0.00000  -0.00000
  33 12  H  1S         -0.14024   0.10592  -0.12748   0.05327   0.18784
  34 13  H  1S         -0.13855   0.11910  -0.00000   0.02405  -0.37292
  35 14  H  1S         -0.14024   0.10592   0.12748   0.05327   0.18784
                          11        12        13        14        15
                           O         O         O         O         O
     Eigenvalues --    -0.53893  -0.50608  -0.50421  -0.49806  -0.45995
   1 1   C  1S         -0.00000  -0.00115   0.00000   0.04916   0.00000
   2        1PX         0.00000   0.03310  -0.00000   0.00165  -0.00000
   3        1PY        -0.00000   0.01058   0.00000   0.54564  -0.00000
   4        1PZ        -0.06810   0.00000   0.07094  -0.00000   0.40539
   5 2   C  1S         -0.07644   0.00388  -0.06369  -0.06418   0.00252
   6        1PX         0.00099   0.18654   0.00295  -0.00173  -0.00229
   7        1PY         0.23637  -0.00031  -0.16367  -0.13166   0.09808
   8        1PZ         0.26068   0.00910  -0.17152   0.14919  -0.35645
   9 3   C  1S         -0.02054  -0.00224   0.05601   0.06952   0.02328
  10        1PX         0.00046   0.36181   0.00148  -0.00438  -0.00126
  11        1PY        -0.26221   0.00335   0.12750   0.16199  -0.07179
  12        1PZ         0.33115  -0.00204   0.09057  -0.14782   0.25041
  13 4   C  1S          0.02054  -0.00224  -0.05601   0.06952  -0.02328
  14        1PX        -0.00046   0.36181  -0.00148  -0.00438   0.00126
  15        1PY         0.26221   0.00335  -0.12750   0.16199   0.07179
  16        1PZ         0.33115   0.00204   0.09057   0.14782   0.25041
  17 5   C  1S          0.07644   0.00388   0.06369  -0.06418  -0.00252
  18        1PX        -0.00099   0.18654  -0.00295  -0.00173   0.00229
  19        1PY        -0.23637  -0.00031   0.16367  -0.13166  -0.09808
  20        1PZ         0.26068  -0.00910  -0.17152  -0.14919  -0.35645
  21 6   H  1S          0.22555   0.00606  -0.21353   0.00898  -0.24800
  22 7   H  1S          0.30856  -0.00425   0.04086  -0.12318   0.23864
  23 8   H  1S         -0.30856  -0.00425  -0.04086  -0.12318  -0.23864
  24 9   H  1S         -0.22555   0.00606   0.21353   0.00898   0.24800
  25 10  N  1S          0.00000   0.00377  -0.00000  -0.13786  -0.00000
  26        1PX         0.00000   0.48288  -0.00000  -0.00613  -0.00000
  27        1PY         0.00000  -0.00057   0.00000   0.34608   0.00000
  28        1PZ        -0.12735  -0.00000  -0.16830   0.00000  -0.22130
  29 11  C  1S         -0.00000  -0.00039   0.00000   0.02588  -0.00000
  30        1PX         0.00000  -0.47148   0.00000   0.01023   0.00000
  31        1PY         0.00000  -0.00874  -0.00000  -0.52929   0.00000
  32        1PZ         0.18847   0.00000   0.60143  -0.00000  -0.24898
  33 12  H  1S         -0.13126  -0.19022  -0.40906  -0.13342   0.19699
  34 13  H  1S         -0.00000   0.37298  -0.00000  -0.14388   0.00000
  35 14  H  1S          0.13126  -0.19022   0.40906  -0.13342  -0.19699
                          16        17        18        19        20
                           O         O         O         V         V
     Eigenvalues --    -0.38172  -0.38067  -0.36568   0.00632   0.01129
   1 1   C  1S         -0.00258  -0.00089   0.00000   0.00000   0.00004
   2        1PX        -0.18781   0.53789  -0.00000   0.00000   0.62694
   3        1PY        -0.11289  -0.03880   0.00000  -0.00000  -0.00044
   4        1PZ        -0.00000   0.00000   0.00075   0.00012   0.00000
   5 2   C  1S         -0.05975  -0.01919   0.00044  -0.00033   0.00071
   6        1PX        -0.12354   0.35887   0.50714  -0.49273  -0.32082
   7        1PY         0.26887   0.09361   0.00048  -0.00022   0.00050
   8        1PZ         0.02493   0.01062  -0.00084   0.00041   0.00089
   9 3   C  1S          0.07903   0.02648  -0.00009   0.00008  -0.00038
  10        1PX         0.05611  -0.15939   0.49274   0.50715  -0.26869
  11        1PY        -0.23100  -0.08007  -0.00027   0.00011  -0.00067
  12        1PZ        -0.11692  -0.04024   0.00021  -0.00001  -0.00010
  13 4   C  1S          0.07903   0.02648   0.00009  -0.00008  -0.00038
  14        1PX         0.05611  -0.15939  -0.49274  -0.50715  -0.26869
  15        1PY        -0.23100  -0.08007   0.00027  -0.00011  -0.00067
  16        1PZ         0.11692   0.04024   0.00021  -0.00001   0.00010
  17 5   C  1S         -0.05975  -0.01919  -0.00044   0.00033   0.00071
  18        1PX        -0.12354   0.35887  -0.50714   0.49273  -0.32082
  19        1PY         0.26887   0.09361  -0.00048   0.00022   0.00050
  20        1PZ        -0.02493  -0.01062  -0.00084   0.00041  -0.00089
  21 6   H  1S          0.12718   0.04542  -0.00034   0.00015   0.00040
  22 7   H  1S          0.11681   0.04008   0.00034  -0.00012   0.00018
  23 8   H  1S          0.11681   0.04008  -0.00034   0.00012   0.00018
  24 9   H  1S          0.12718   0.04542   0.00034  -0.00015   0.00040
  25 10  N  1S         -0.31065  -0.10622   0.00000  -0.00000  -0.00006
  26        1PX         0.16028  -0.46119   0.00000   0.00000   0.48453
  27        1PY         0.63275   0.21779   0.00000  -0.00000   0.00075
  28        1PZ         0.00000  -0.00000  -0.00016   0.00005   0.00000
  29 11  C  1S         -0.04164  -0.01515   0.00000  -0.00000   0.00080
  30        1PX         0.05391  -0.17669   0.00000   0.00000   0.01749
  31        1PY         0.14442   0.04963  -0.00000   0.00000   0.00082
  32        1PZ        -0.00000   0.00000  -0.00546   0.00449  -0.00000
  33 12  H  1S          0.05777  -0.08370   0.00177   0.00150  -0.06045
  34 13  H  1S         -0.03559   0.19532  -0.00000   0.00000   0.11967
  35 14  H  1S          0.05777  -0.08370  -0.00177  -0.00150  -0.06045
                          21        22        23        24        25
                           V         V         V         V         V
     Eigenvalues --     0.10372   0.12830   0.12963   0.14024   0.15083
   1 1   C  1S         -0.00015   0.20679   0.34694   0.00000   0.36837
   2        1PX        -0.32840  -0.00226   0.00088   0.00000  -0.00066
   3        1PY         0.00022   0.28918   0.27161  -0.00000  -0.32466
   4        1PZ         0.00000   0.00000  -0.00000   0.41584  -0.00000
   5 2   C  1S         -0.00125   0.00963  -0.15872  -0.16881  -0.34075
   6        1PX         0.36472   0.00139  -0.00068   0.00195  -0.00005
   7        1PY        -0.00001   0.11542   0.06451   0.05341  -0.28009
   8        1PZ        -0.00118   0.11308   0.08261   0.30749   0.08482
   9 3   C  1S          0.00126  -0.18011   0.31347   0.18697  -0.09414
  10        1PX        -0.44466  -0.00114   0.00064  -0.00079   0.00008
  11        1PY         0.00044   0.31136  -0.02025   0.04975   0.08805
  12        1PZ        -0.00031   0.16123  -0.00926   0.15467   0.10201
  13 4   C  1S          0.00126  -0.18011   0.31347  -0.18697  -0.09414
  14        1PX        -0.44466  -0.00114   0.00064   0.00079   0.00008
  15        1PY         0.00044   0.31136  -0.02025  -0.04975   0.08805
  16        1PZ         0.00031  -0.16123   0.00926   0.15467  -0.10201
  17 5   C  1S         -0.00125   0.00963  -0.15872   0.16881  -0.34075
  18        1PX         0.36472   0.00139  -0.00068  -0.00195  -0.00005
  19        1PY        -0.00001   0.11542   0.06451  -0.05341  -0.28009
  20        1PZ         0.00118  -0.11308  -0.08261   0.30749  -0.08482
  21 6   H  1S          0.00062  -0.18776   0.04109  -0.14794   0.34351
  22 7   H  1S         -0.00078   0.22164  -0.32055  -0.27957   0.04339
  23 8   H  1S         -0.00078   0.22164  -0.32055   0.27957   0.04339
  24 9   H  1S          0.00062  -0.18776   0.04109   0.14794   0.34351
  25 10  N  1S         -0.00064   0.26844  -0.14089   0.00000   0.11557
  26        1PX         0.45656   0.00106  -0.00063  -0.00000  -0.00006
  27        1PY        -0.00140   0.30579  -0.22552   0.00000   0.13960
  28        1PZ         0.00000  -0.00000   0.00000   0.01848  -0.00000
  29 11  C  1S         -0.00169  -0.15306  -0.20437  -0.00000  -0.07879
  30        1PX        -0.07491   0.00672   0.00001   0.00000   0.00476
  31        1PY        -0.00142   0.39059   0.46300   0.00000  -0.06928
  32        1PZ        -0.00000  -0.00000  -0.00000   0.32412  -0.00000
  33 12  H  1S          0.05373  -0.00619   0.00916   0.27117   0.07479
  34 13  H  1S         -0.10397   0.00067   0.00938   0.00000   0.08075
  35 14  H  1S          0.05373  -0.00619   0.00916  -0.27117   0.07479
                          26        27        28        29        30
                           V         V         V         V         V
     Eigenvalues --     0.15297   0.16333   0.16447   0.17063   0.17932
   1 1   C  1S         -0.00000   0.00000   0.01976   0.11200   0.00000
   2        1PX         0.00000  -0.00000  -0.15727   0.01922  -0.00000
   3        1PY         0.00000  -0.00000  -0.02882  -0.27472  -0.00000
   4        1PZ        -0.00033  -0.05519   0.00000   0.00000  -0.03528
   5 2   C  1S         -0.32113   0.04870   0.02340   0.09663  -0.02362
   6        1PX         0.00039   0.00259   0.06744  -0.00864   0.00040
   7        1PY         0.21699  -0.17001  -0.01353  -0.00058  -0.24764
   8        1PZ        -0.20107  -0.05699   0.04681   0.31599  -0.28697
   9 3   C  1S          0.25668  -0.20305  -0.00311   0.02785   0.02505
  10        1PX        -0.00014  -0.00105  -0.03256   0.00396  -0.00016
  11        1PY         0.26716  -0.01552  -0.03656  -0.14162  -0.26308
  12        1PZ        -0.15516  -0.15943   0.01717   0.22114   0.26974
  13 4   C  1S         -0.25668   0.20305  -0.00311   0.02785  -0.02505
  14        1PX         0.00014   0.00105  -0.03256   0.00396   0.00016
  15        1PY        -0.26716   0.01552  -0.03656  -0.14162   0.26308
  16        1PZ        -0.15516  -0.15943  -0.01717  -0.22114   0.26974
  17 5   C  1S          0.32113  -0.04870   0.02340   0.09663   0.02362
  18        1PX        -0.00039  -0.00259   0.06744  -0.00864  -0.00040
  19        1PY        -0.21699   0.17001  -0.01353  -0.00058   0.24764
  20        1PZ        -0.20107  -0.05699  -0.04681  -0.31599  -0.28697
  21 6   H  1S          0.33253   0.08217  -0.04127  -0.31496   0.32126
  22 7   H  1S          0.04652   0.27496  -0.02787  -0.24492  -0.31944
  23 8   H  1S         -0.04652  -0.27496  -0.02787  -0.24492   0.31944
  24 9   H  1S         -0.33253  -0.08217  -0.04127  -0.31496  -0.32126
  25 10  N  1S         -0.00000   0.00000   0.00096   0.07372   0.00000
  26        1PX         0.00000   0.00000   0.02286  -0.00264   0.00000
  27        1PY        -0.00000   0.00000   0.02053   0.19468   0.00000
  28        1PZ        -0.24881   0.03204  -0.00000   0.00000   0.02594
  29 11  C  1S          0.00000   0.00000  -0.01706  -0.14793   0.00000
  30        1PX        -0.00000   0.00000   0.68734  -0.08574   0.00000
  31        1PY         0.00000   0.00000  -0.02238  -0.25212   0.00000
  32        1PZ         0.05415   0.55682  -0.00000   0.00000   0.08439
  33 12  H  1S          0.05360   0.39895  -0.26211   0.21032   0.05827
  34 13  H  1S         -0.00000   0.00000   0.58066   0.10296  -0.00000
  35 14  H  1S         -0.05360  -0.39895  -0.26211   0.21032  -0.05827
                          31        32        33        34        35
                           V         V         V         V         V
     Eigenvalues --     0.18005   0.18560   0.19755   0.21198   0.25654
   1 1   C  1S          0.19933  -0.09769   0.00000  -0.18179  -0.00000
   2        1PX         0.00364  -0.00420  -0.00000  -0.00046  -0.00000
   3        1PY         0.02782  -0.29294  -0.00000   0.31025   0.00000
   4        1PZ        -0.00000  -0.00000   0.59773   0.00000  -0.04081
   5 2   C  1S          0.13781  -0.13039  -0.22643   0.09724  -0.07836
   6        1PX        -0.00050   0.00250  -0.00075   0.00006   0.00003
   7        1PY        -0.31537   0.23081  -0.34160  -0.09675   0.08919
   8        1PZ         0.13708  -0.00716   0.13572  -0.34242  -0.08554
   9 3   C  1S         -0.15591   0.14019  -0.13897  -0.05322  -0.18247
  10        1PX         0.00005  -0.00107   0.00028  -0.00003  -0.00000
  11        1PY        -0.30616   0.18813   0.01357  -0.14241   0.35468
  12        1PZ        -0.00552   0.24406  -0.09259   0.35998   0.30076
  13 4   C  1S         -0.15591   0.14019   0.13897  -0.05322   0.18247
  14        1PX         0.00005  -0.00107  -0.00028  -0.00003   0.00000
  15        1PY        -0.30616   0.18813  -0.01357  -0.14241  -0.35468
  16        1PZ         0.00552  -0.24406  -0.09259  -0.35998   0.30076
  17 5   C  1S          0.13781  -0.13039   0.22643   0.09724   0.07836
  18        1PX        -0.00050   0.00250   0.00075   0.00006  -0.00003
  19        1PY        -0.31537   0.23081   0.34160  -0.09675  -0.08919
  20        1PZ        -0.13708   0.00716   0.13572   0.34242  -0.08554
  21 6   H  1S         -0.06329   0.01513   0.18111   0.17366   0.05364
  22 7   H  1S         -0.01498  -0.18185   0.15313  -0.22125   0.04523
  23 8   H  1S         -0.01498  -0.18185  -0.15313  -0.22125  -0.04523
  24 9   H  1S         -0.06329   0.01513  -0.18111   0.17366  -0.05364
  25 10  N  1S         -0.02789   0.12644  -0.00000   0.15528   0.00000
  26        1PX         0.00011   0.00072  -0.00000   0.00003  -0.00000
  27        1PY         0.09884   0.11207  -0.00000   0.28867   0.00000
  28        1PZ        -0.00000  -0.00000   0.05474  -0.00000   0.66824
  29 11  C  1S          0.29677   0.44788   0.00000  -0.12341   0.00000
  30        1PX        -0.02313   0.01684  -0.00000   0.00348   0.00000
  31        1PY         0.32964  -0.01659   0.00000   0.03664   0.00000
  32        1PZ         0.00000  -0.00000  -0.24458  -0.00000   0.00317
  33 12  H  1S         -0.26766  -0.28884  -0.13875   0.05843   0.00238
  34 13  H  1S         -0.29883  -0.26756  -0.00000   0.06392  -0.00000
  35 14  H  1S         -0.26766  -0.28884   0.13875   0.05843  -0.00238
     Density Matrix:
                           1         2         3         4         5
   1 1   C  1S          1.21182
   2        1PX         0.00014   0.94792
   3        1PY         0.03827   0.00021   0.95612
   4        1PZ         0.00000   0.00000   0.00000   0.92768
   5 2   C  1S          0.28957  -0.00020  -0.23056   0.40818   1.22261
   6        1PX         0.00004   0.66340  -0.00031  -0.00028   0.00039
   7        1PY         0.25016  -0.00068  -0.07195   0.33514   0.01558
   8        1PZ        -0.41976  -0.00021   0.32176  -0.45163   0.06026
   9 3   C  1S         -0.00958   0.00002   0.01171  -0.02474   0.28088
  10        1PX         0.00002   0.03443   0.00000   0.00007   0.00021
  11        1PY        -0.03939   0.00031   0.02379  -0.04874   0.47699
  12        1PZ        -0.00487   0.00013   0.02044   0.00793   0.00113
  13 4   C  1S         -0.00958   0.00002   0.01171   0.02474  -0.03395
  14        1PX         0.00002   0.03443   0.00000  -0.00007  -0.00018
  15        1PY        -0.03939   0.00031   0.02379   0.04874  -0.00139
  16        1PZ         0.00487  -0.00013  -0.02044   0.00793  -0.02906
  17 5   C  1S          0.28957  -0.00020  -0.23056  -0.40818  -0.00953
  18        1PX         0.00004   0.66340  -0.00031   0.00028   0.00037
  19        1PY         0.25016  -0.00068  -0.07195  -0.33514  -0.02750
  20        1PZ         0.41976   0.00021  -0.32176  -0.45163  -0.03080
  21 6   H  1S         -0.04042  -0.00069   0.03852  -0.05714   0.56240
  22 7   H  1S          0.04476  -0.00009  -0.03049   0.06099  -0.05804
  23 8   H  1S          0.04476  -0.00009  -0.03049  -0.06099   0.00186
  24 9   H  1S         -0.04042  -0.00069   0.03852   0.05714   0.03997
  25 10  N  1S         -0.02267   0.00015   0.01617   0.00000   0.02504
  26        1PX        -0.00006  -0.30037   0.00018  -0.00000  -0.00021
  27        1PY        -0.02981  -0.00043   0.02548  -0.00000  -0.07508
  28        1PZ         0.00000   0.00000   0.00000  -0.02106  -0.02595
  29 11  C  1S          0.22130  -0.00074   0.38858   0.00000  -0.02724
  30        1PX        -0.00049   0.14871   0.00075  -0.00000  -0.00261
  31        1PY        -0.49575  -0.00096  -0.71301  -0.00000   0.03970
  32        1PZ         0.00000  -0.00000   0.00000   0.09054  -0.01630
  33 12  H  1S         -0.02411   0.02018  -0.04305  -0.01128   0.04034
  34 13  H  1S         -0.02222  -0.03958  -0.04266   0.00000   0.01065
  35 14  H  1S         -0.02411   0.02018  -0.04305   0.01128  -0.01448
                           6         7         8         9        10
   6        1PX         1.03325
   7        1PY         0.00038   0.95396
   8        1PZ         0.00069   0.03678   0.97748
   9 3   C  1S         -0.00021  -0.47540  -0.01812   1.23511
  10        1PX         0.65621   0.00026  -0.00021  -0.00005   0.94360
  11        1PY        -0.00039  -0.63943  -0.01890  -0.02995  -0.00015
  12        1PZ        -0.00010  -0.01135   0.11364   0.06662  -0.00004
  13 4   C  1S         -0.00017   0.02539   0.00994   0.01632   0.00006
  14        1PX        -0.34337  -0.00000   0.00034   0.00006  -0.02757
  15        1PY        -0.00037  -0.01776   0.01894   0.00139  -0.00000
  16        1PZ         0.00001   0.03793  -0.00222  -0.01147   0.00007
  17 5   C  1S          0.00037  -0.02750   0.03080  -0.03395  -0.00018
  18        1PX         0.00442   0.00046   0.00050  -0.00017  -0.34337
  19        1PY         0.00046   0.01322   0.03501   0.02539  -0.00000
  20        1PZ        -0.00050  -0.03501   0.03725  -0.00994  -0.00034
  21 6   H  1S          0.00043   0.38840   0.69529  -0.04513  -0.00002
  22 7   H  1S          0.00008   0.08664   0.00767   0.59260   0.00012
  23 8   H  1S          0.00009   0.00364  -0.00196   0.05782  -0.00005
  24 9   H  1S          0.00033   0.04296  -0.06165   0.01126   0.00020
  25 10  N  1S         -0.00003  -0.02485   0.01208   0.17507  -0.00006
  26        1PX        -0.02527  -0.00031  -0.00038   0.00011   0.66792
  27        1PY         0.00046   0.10397  -0.00834   0.29723   0.00016
  28        1PZ         0.00002   0.04794   0.00659   0.39161  -0.00004
  29 11  C  1S         -0.00030  -0.02652   0.01737   0.02012  -0.00016
  30        1PX        -0.02845  -0.00210  -0.00374   0.00100  -0.01174
  31        1PY         0.00017   0.03305  -0.05717  -0.03737  -0.00003
  32        1PZ        -0.00020   0.00535   0.00128   0.00608  -0.00269
  33 12  H  1S         -0.03972   0.02825  -0.03991  -0.01119  -0.00421
  34 13  H  1S          0.07714   0.00698  -0.01342  -0.00357   0.00827
  35 14  H  1S         -0.03584  -0.00590   0.01655   0.00384  -0.00392
                          11        12        13        14        15
  11        1PY         0.90963
  12        1PZ        -0.05387   0.95986
  13 4   C  1S          0.00139   0.01147   1.23511
  14        1PX        -0.00000  -0.00007  -0.00005   0.94360
  15        1PY        -0.01326  -0.04118  -0.02995  -0.00015   0.90963
  16        1PZ         0.04118   0.05934  -0.06662   0.00004   0.05387
  17 5   C  1S         -0.00139   0.02906   0.28088   0.00021   0.47699
  18        1PX        -0.00037  -0.00001  -0.00021   0.65621  -0.00039
  19        1PY        -0.01776  -0.03793  -0.47540   0.00026  -0.63943
  20        1PZ        -0.01894  -0.00222   0.01812   0.00021   0.01890
  21 6   H  1S         -0.06345   0.00194   0.01126   0.00020   0.00522
  22 7   H  1S         -0.42665   0.63298   0.05782  -0.00005  -0.04100
  23 8   H  1S         -0.04100  -0.09115   0.59260   0.00012  -0.42665
  24 9   H  1S          0.00522  -0.00428  -0.04513  -0.00002  -0.06345
  25 10  N  1S         -0.19269  -0.31921   0.17507  -0.00006  -0.19269
  26        1PX         0.00030   0.00004   0.00011   0.66792   0.00030
  27        1PY        -0.06691  -0.47952   0.29723   0.00016  -0.06691
  28        1PZ        -0.32976  -0.47853  -0.39161   0.00004   0.32976
  29 11  C  1S          0.03581   0.00117   0.02012  -0.00016   0.03581
  30        1PX         0.00153   0.00016   0.00100  -0.01174   0.00153
  31        1PY        -0.06680  -0.00561  -0.03737  -0.00003  -0.06680
  32        1PZ         0.00489   0.00137  -0.00608   0.00269  -0.00489
  33 12  H  1S         -0.01774   0.00027   0.00384  -0.00392   0.00326
  34 13  H  1S         -0.00649  -0.00076  -0.00357   0.00827  -0.00649
  35 14  H  1S          0.00326  -0.00253  -0.01119  -0.00421  -0.01774
                          16        17        18        19        20
  16        1PZ         0.95986
  17 5   C  1S         -0.00113   1.22261
  18        1PX         0.00010   0.00039   1.03325
  19        1PY         0.01135   0.01558   0.00038   0.95396
  20        1PZ         0.11364  -0.06026  -0.00069  -0.03678   0.97748
  21 6   H  1S          0.00428   0.03997   0.00033   0.04296   0.06165
  22 7   H  1S          0.09115   0.00186   0.00009   0.00364   0.00196
  23 8   H  1S         -0.63298  -0.05804   0.00008   0.08664  -0.00767
  24 9   H  1S         -0.00194   0.56240   0.00043   0.38840  -0.69529
  25 10  N  1S          0.31921   0.02504  -0.00003  -0.02485  -0.01208
  26        1PX        -0.00004  -0.00021  -0.02527  -0.00031   0.00038
  27        1PY         0.47952  -0.07508   0.00046   0.10397   0.00834
  28        1PZ        -0.47853   0.02595  -0.00002  -0.04794   0.00659
  29 11  C  1S         -0.00117  -0.02724  -0.00030  -0.02652  -0.01737
  30        1PX        -0.00016  -0.00261  -0.02845  -0.00210   0.00374
  31        1PY         0.00561   0.03970   0.00017   0.03305   0.05717
  32        1PZ         0.00137   0.01630   0.00020  -0.00535   0.00128
  33 12  H  1S          0.00253  -0.01448  -0.03584  -0.00590  -0.01655
  34 13  H  1S          0.00076   0.01065   0.07714   0.00698   0.01342
  35 14  H  1S         -0.00027   0.04034  -0.03972   0.02825   0.03991
                          21        22        23        24        25
  21 6   H  1S          0.86332
  22 7   H  1S         -0.01027   0.83953
  23 8   H  1S          0.01755  -0.02661   0.83953
  24 9   H  1S         -0.02428   0.01755  -0.01027   0.86332
  25 10  N  1S          0.01822  -0.06932  -0.06932   0.01822   1.69684
  26        1PX        -0.00026  -0.00007  -0.00007  -0.00026   0.00006
  27        1PY         0.07064  -0.02428  -0.02428   0.07064  -0.40121
  28        1PZ         0.05749  -0.04478   0.04478  -0.05749   0.00000
  29 11  C  1S         -0.01427  -0.01257  -0.01257  -0.01427   0.00625
  30        1PX        -0.00259  -0.00023  -0.00023  -0.00259  -0.00011
  31        1PY         0.02506   0.02501   0.02501   0.02506  -0.01480
  32        1PZ         0.00240  -0.00148   0.00148  -0.00240  -0.00000
  33 12  H  1S          0.00251   0.01018  -0.00333   0.01935  -0.00186
  34 13  H  1S          0.00488   0.00332   0.00332   0.00488  -0.00166
  35 14  H  1S          0.01935  -0.00333   0.01018   0.00251  -0.00186
                          26        27        28        29        30
  26        1PX         1.11250
  27        1PY        -0.00048   1.38432
  28        1PZ         0.00000   0.00000   0.97302
  29 11  C  1S          0.00012  -0.00608  -0.00000   1.20504
  30        1PX         0.01955  -0.00171   0.00000   0.00012   1.02679
  31        1PY        -0.00011   0.00578  -0.00000   0.05079  -0.00175
  32        1PZ         0.00000  -0.00000  -0.00255  -0.00000  -0.00000
  33 12  H  1S          0.02312   0.00006   0.00007   0.49921   0.40286
  34 13  H  1S         -0.04657  -0.00099  -0.00000   0.49930  -0.80636
  35 14  H  1S          0.02312   0.00006  -0.00007   0.49921   0.40286
                          31        32        33        34        35
  31        1PY         0.90784
  32        1PZ        -0.00000   1.02998
  33 12  H  1S          0.26389  -0.70362   0.91619
  34 13  H  1S          0.26285   0.00000  -0.04752   0.91105
  35 14  H  1S          0.26389   0.70362  -0.05091  -0.04752   0.91619
    Full Mulliken population analysis:
                           1         2         3         4         5
   1 1   C  1S          1.21182
   2        1PX         0.00000   0.94792
   3        1PY         0.00000   0.00000   0.95612
   4        1PZ         0.00000   0.00000   0.00000   0.92768
   5 2   C  1S          0.00000   0.00000   0.00000   0.00000   1.22261
   6        1PX         0.00000   0.00000   0.00000   0.00000   0.00000
   7        1PY         0.00000   0.00000   0.00000   0.00000   0.00000
   8        1PZ         0.00000   0.00000   0.00000   0.00000   0.00000
   9 3   C  1S          0.00000   0.00000   0.00000   0.00000   0.00000
  10        1PX         0.00000   0.00000   0.00000   0.00000   0.00000
  11        1PY         0.00000   0.00000   0.00000   0.00000   0.00000
  12        1PZ         0.00000   0.00000   0.00000   0.00000   0.00000
  13 4   C  1S          0.00000   0.00000   0.00000   0.00000   0.00000
  14        1PX         0.00000   0.00000   0.00000   0.00000   0.00000
  15        1PY         0.00000   0.00000   0.00000   0.00000   0.00000
  16        1PZ         0.00000   0.00000   0.00000   0.00000   0.00000
  17 5   C  1S          0.00000   0.00000   0.00000   0.00000   0.00000
  18        1PX         0.00000   0.00000   0.00000   0.00000   0.00000
  19        1PY         0.00000   0.00000   0.00000   0.00000   0.00000
  20        1PZ         0.00000   0.00000   0.00000   0.00000   0.00000
  21 6   H  1S          0.00000   0.00000   0.00000   0.00000   0.00000
  22 7   H  1S          0.00000   0.00000   0.00000   0.00000   0.00000
  23 8   H  1S          0.00000   0.00000   0.00000   0.00000   0.00000
  24 9   H  1S          0.00000   0.00000   0.00000   0.00000   0.00000
  25 10  N  1S          0.00000   0.00000   0.00000   0.00000   0.00000
  26        1PX         0.00000   0.00000   0.00000   0.00000   0.00000
  27        1PY         0.00000   0.00000   0.00000   0.00000   0.00000
  28        1PZ         0.00000   0.00000   0.00000   0.00000   0.00000
  29 11  C  1S          0.00000   0.00000   0.00000   0.00000   0.00000
  30        1PX         0.00000   0.00000   0.00000   0.00000   0.00000
  31        1PY         0.00000   0.00000   0.00000   0.00000   0.00000
  32        1PZ         0.00000   0.00000   0.00000   0.00000   0.00000
  33 12  H  1S          0.00000   0.00000   0.00000   0.00000   0.00000
  34 13  H  1S          0.00000   0.00000   0.00000   0.00000   0.00000
  35 14  H  1S          0.00000   0.00000   0.00000   0.00000   0.00000
                           6         7         8         9        10
   6        1PX         1.03325
   7        1PY         0.00000   0.95396
   8        1PZ         0.00000   0.00000   0.97748
   9 3   C  1S          0.00000   0.00000   0.00000   1.23511
  10        1PX         0.00000   0.00000   0.00000   0.00000   0.94360
  11        1PY         0.00000   0.00000   0.00000   0.00000   0.00000
  12        1PZ         0.00000   0.00000   0.00000   0.00000   0.00000
  13 4   C  1S          0.00000   0.00000   0.00000   0.00000   0.00000
  14        1PX         0.00000   0.00000   0.00000   0.00000   0.00000
  15        1PY         0.00000   0.00000   0.00000   0.00000   0.00000
  16        1PZ         0.00000   0.00000   0.00000   0.00000   0.00000
  17 5   C  1S          0.00000   0.00000   0.00000   0.00000   0.00000
  18        1PX         0.00000   0.00000   0.00000   0.00000   0.00000
  19        1PY         0.00000   0.00000   0.00000   0.00000   0.00000
  20        1PZ         0.00000   0.00000   0.00000   0.00000   0.00000
  21 6   H  1S          0.00000   0.00000   0.00000   0.00000   0.00000
  22 7   H  1S          0.00000   0.00000   0.00000   0.00000   0.00000
  23 8   H  1S          0.00000   0.00000   0.00000   0.00000   0.00000
  24 9   H  1S          0.00000   0.00000   0.00000   0.00000   0.00000
  25 10  N  1S          0.00000   0.00000   0.00000   0.00000   0.00000
  26        1PX         0.00000   0.00000   0.00000   0.00000   0.00000
  27        1PY         0.00000   0.00000   0.00000   0.00000   0.00000
  28        1PZ         0.00000   0.00000   0.00000   0.00000   0.00000
  29 11  C  1S          0.00000   0.00000   0.00000   0.00000   0.00000
  30        1PX         0.00000   0.00000   0.00000   0.00000   0.00000
  31        1PY         0.00000   0.00000   0.00000   0.00000   0.00000
  32        1PZ         0.00000   0.00000   0.00000   0.00000   0.00000
  33 12  H  1S          0.00000   0.00000   0.00000   0.00000   0.00000
  34 13  H  1S          0.00000   0.00000   0.00000   0.00000   0.00000
  35 14  H  1S          0.00000   0.00000   0.00000   0.00000   0.00000
                          11        12        13        14        15
  11        1PY         0.90963
  12        1PZ         0.00000   0.95986
  13 4   C  1S          0.00000   0.00000   1.23511
  14        1PX         0.00000   0.00000   0.00000   0.94360
  15        1PY         0.00000   0.00000   0.00000   0.00000   0.90963
  16        1PZ         0.00000   0.00000   0.00000   0.00000   0.00000
  17 5   C  1S          0.00000   0.00000   0.00000   0.00000   0.00000
  18        1PX         0.00000   0.00000   0.00000   0.00000   0.00000
  19        1PY         0.00000   0.00000   0.00000   0.00000   0.00000
  20        1PZ         0.00000   0.00000   0.00000   0.00000   0.00000
  21 6   H  1S          0.00000   0.00000   0.00000   0.00000   0.00000
  22 7   H  1S          0.00000   0.00000   0.00000   0.00000   0.00000
  23 8   H  1S          0.00000   0.00000   0.00000   0.00000   0.00000
  24 9   H  1S          0.00000   0.00000   0.00000   0.00000   0.00000
  25 10  N  1S          0.00000   0.00000   0.00000   0.00000   0.00000
  26        1PX         0.00000   0.00000   0.00000   0.00000   0.00000
  27        1PY         0.00000   0.00000   0.00000   0.00000   0.00000
  28        1PZ         0.00000   0.00000   0.00000   0.00000   0.00000
  29 11  C  1S          0.00000   0.00000   0.00000   0.00000   0.00000
  30        1PX         0.00000   0.00000   0.00000   0.00000   0.00000
  31        1PY         0.00000   0.00000   0.00000   0.00000   0.00000
  32        1PZ         0.00000   0.00000   0.00000   0.00000   0.00000
  33 12  H  1S          0.00000   0.00000   0.00000   0.00000   0.00000
  34 13  H  1S          0.00000   0.00000   0.00000   0.00000   0.00000
  35 14  H  1S          0.00000   0.00000   0.00000   0.00000   0.00000
                          16        17        18        19        20
  16        1PZ         0.95986
  17 5   C  1S          0.00000   1.22261
  18        1PX         0.00000   0.00000   1.03325
  19        1PY         0.00000   0.00000   0.00000   0.95396
  20        1PZ         0.00000   0.00000   0.00000   0.00000   0.97748
  21 6   H  1S          0.00000   0.00000   0.00000   0.00000   0.00000
  22 7   H  1S          0.00000   0.00000   0.00000   0.00000   0.00000
  23 8   H  1S          0.00000   0.00000   0.00000   0.00000   0.00000
  24 9   H  1S          0.00000   0.00000   0.00000   0.00000   0.00000
  25 10  N  1S          0.00000   0.00000   0.00000   0.00000   0.00000
  26        1PX         0.00000   0.00000   0.00000   0.00000   0.00000
  27        1PY         0.00000   0.00000   0.00000   0.00000   0.00000
  28        1PZ         0.00000   0.00000   0.00000   0.00000   0.00000
  29 11  C  1S          0.00000   0.00000   0.00000   0.00000   0.00000
  30        1PX         0.00000   0.00000   0.00000   0.00000   0.00000
  31        1PY         0.00000   0.00000   0.00000   0.00000   0.00000
  32        1PZ         0.00000   0.00000   0.00000   0.00000   0.00000
  33 12  H  1S          0.00000   0.00000   0.00000   0.00000   0.00000
  34 13  H  1S          0.00000   0.00000   0.00000   0.00000   0.00000
  35 14  H  1S          0.00000   0.00000   0.00000   0.00000   0.00000
                          21        22        23        24        25
  21 6   H  1S          0.86332
  22 7   H  1S          0.00000   0.83953
  23 8   H  1S          0.00000   0.00000   0.83953
  24 9   H  1S          0.00000   0.00000   0.00000   0.86332
  25 10  N  1S          0.00000   0.00000   0.00000   0.00000   1.69684
  26        1PX         0.00000   0.00000   0.00000   0.00000   0.00000
  27        1PY         0.00000   0.00000   0.00000   0.00000   0.00000
  28        1PZ         0.00000   0.00000   0.00000   0.00000   0.00000
  29 11  C  1S          0.00000   0.00000   0.00000   0.00000   0.00000
  30        1PX         0.00000   0.00000   0.00000   0.00000   0.00000
  31        1PY         0.00000   0.00000   0.00000   0.00000   0.00000
  32        1PZ         0.00000   0.00000   0.00000   0.00000   0.00000
  33 12  H  1S          0.00000   0.00000   0.00000   0.00000   0.00000
  34 13  H  1S          0.00000   0.00000   0.00000   0.00000   0.00000
  35 14  H  1S          0.00000   0.00000   0.00000   0.00000   0.00000
                          26        27        28        29        30
  26        1PX         1.11250
  27        1PY         0.00000   1.38432
  28        1PZ         0.00000   0.00000   0.97302
  29 11  C  1S          0.00000   0.00000   0.00000   1.20504
  30        1PX         0.00000   0.00000   0.00000   0.00000   1.02679
  31        1PY         0.00000   0.00000   0.00000   0.00000   0.00000
  32        1PZ         0.00000   0.00000   0.00000   0.00000   0.00000
  33 12  H  1S          0.00000   0.00000   0.00000   0.00000   0.00000
  34 13  H  1S          0.00000   0.00000   0.00000   0.00000   0.00000
  35 14  H  1S          0.00000   0.00000   0.00000   0.00000   0.00000
                          31        32        33        34        35
  31        1PY         0.90784
  32        1PZ         0.00000   1.02998
  33 12  H  1S          0.00000   0.00000   0.91619
  34 13  H  1S          0.00000   0.00000   0.00000   0.91105
  35 14  H  1S          0.00000   0.00000   0.00000   0.00000   0.91619
     Gross orbital populations:
                           1
   1 1   C  1S          1.21182
   2        1PX         0.94792
   3        1PY         0.95612
   4        1PZ         0.92768
   5 2   C  1S          1.22261
   6        1PX         1.03325
   7        1PY         0.95396
   8        1PZ         0.97748
   9 3   C  1S          1.23511
  10        1PX         0.94360
  11        1PY         0.90963
  12        1PZ         0.95986
  13 4   C  1S          1.23511
  14        1PX         0.94360
  15        1PY         0.90963
  16        1PZ         0.95986
  17 5   C  1S          1.22261
  18        1PX         1.03325
  19        1PY         0.95396
  20        1PZ         0.97748
  21 6   H  1S          0.86332
  22 7   H  1S          0.83953
  23 8   H  1S          0.83953
  24 9   H  1S          0.86332
  25 10  N  1S          1.69684
  26        1PX         1.11250
  27        1PY         1.38432
  28        1PZ         0.97302
  29 11  C  1S          1.20504
  30        1PX         1.02679
  31        1PY         0.90784
  32        1PZ         1.02998
  33 12  H  1S          0.91619
  34 13  H  1S          0.91105
  35 14  H  1S          0.91619
          Condensed to atoms (all electrons):
               1          2          3          4          5          6
     1  C    4.043547   0.000000   0.000000   0.000000   0.000000   0.000000
     2  C    0.000000   4.187299   0.000000   0.000000   0.000000   0.000000
     3  C    0.000000   0.000000   4.048193   0.000000   0.000000   0.000000
     4  C    0.000000   0.000000   0.000000   4.048193   0.000000   0.000000
     5  C    0.000000   0.000000   0.000000   0.000000   4.187299   0.000000
     6  H    0.000000   0.000000   0.000000   0.000000   0.000000   0.863321
     7  H    0.000000   0.000000   0.000000   0.000000   0.000000   0.000000
     8  H    0.000000   0.000000   0.000000   0.000000   0.000000   0.000000
     9  H    0.000000   0.000000   0.000000   0.000000   0.000000   0.000000
    10  N    0.000000   0.000000   0.000000   0.000000   0.000000   0.000000
    11  C    0.000000   0.000000   0.000000   0.000000   0.000000   0.000000
    12  H    0.000000   0.000000   0.000000   0.000000   0.000000   0.000000
    13  H    0.000000   0.000000   0.000000   0.000000   0.000000   0.000000
    14  H    0.000000   0.000000   0.000000   0.000000   0.000000   0.000000
               7          8          9         10         11         12
     1  C    0.000000   0.000000   0.000000   0.000000   0.000000   0.000000
     2  C    0.000000   0.000000   0.000000   0.000000   0.000000   0.000000
     3  C    0.000000   0.000000   0.000000   0.000000   0.000000   0.000000
     4  C    0.000000   0.000000   0.000000   0.000000   0.000000   0.000000
     5  C    0.000000   0.000000   0.000000   0.000000   0.000000   0.000000
     6  H    0.000000   0.000000   0.000000   0.000000   0.000000   0.000000
     7  H    0.839527   0.000000   0.000000   0.000000   0.000000   0.000000
     8  H    0.000000   0.839527   0.000000   0.000000   0.000000   0.000000
     9  H    0.000000   0.000000   0.863321   0.000000   0.000000   0.000000
    10  N    0.000000   0.000000   0.000000   5.166683   0.000000   0.000000
    11  C    0.000000   0.000000   0.000000   0.000000   4.169651   0.000000
    12  H    0.000000   0.000000   0.000000   0.000000   0.000000   0.916194
    13  H    0.000000   0.000000   0.000000   0.000000   0.000000   0.000000
    14  H    0.000000   0.000000   0.000000   0.000000   0.000000   0.000000
              13         14
     1  C    0.000000   0.000000
     2  C    0.000000   0.000000
     3  C    0.000000   0.000000
     4  C    0.000000   0.000000
     5  C    0.000000   0.000000
     6  H    0.000000   0.000000
     7  H    0.000000   0.000000
     8  H    0.000000   0.000000
     9  H    0.000000   0.000000
    10  N    0.000000   0.000000
    11  C    0.000000   0.000000
    12  H    0.000000   0.000000
    13  H    0.911048   0.000000
    14  H    0.000000   0.916194
 Mulliken charges:
               1
     1  C   -0.043547
     2  C   -0.187299
     3  C   -0.048193
     4  C   -0.048193
     5  C   -0.187299
     6  H    0.136679
     7  H    0.160473
     8  H    0.160473
     9  H    0.136679
    10  N   -0.166683
    11  C   -0.169651
    12  H    0.083806
    13  H    0.088952
    14  H    0.083806
 Sum of Mulliken charges =  -0.00000
 Mulliken charges with hydrogens summed into heavy atoms:
               1
     1  C   -0.043547
     2  C   -0.050621
     3  C    0.112280
     4  C    0.112280
     5  C   -0.050621
    10  N   -0.166683
    11  C    0.086912
 Charge=              0.0000 electrons
 Dipole moment (field-independent basis, Debye):
    X=             -0.0291    Y=              2.2608    Z=             -0.0000  Tot=              2.2610
 N-N= 1.606429424048D+02 E-N=-2.346613251242D+02  KE=-6.096072607444D+01
 Symmetry A'   KE=-3.915743806614D+01
 Symmetry A"   KE=-2.180328800831D+01
 Orbital energies and kinetic energies (alpha):
                                 1                 2
   1         O                -1.479422         -2.601429
   2         O                -1.267853         -2.369495
   3         O                -1.171269         -2.157712
   4         O                -1.060011         -2.020443
   5         O                -0.890959         -1.902949
   6         O                -0.846551         -1.806051
   7         O                -0.639638         -1.520169
   8         O                -0.625884         -1.725775
   9         O                -0.613021         -1.348258
  10         O                -0.551539         -1.463285
  11         O                -0.538932         -1.254805
  12         O                -0.506076         -1.516904
  13         O                -0.504207         -1.135783
  14         O                -0.498056         -1.560692
  15         O                -0.459947         -1.218222
  16         O                -0.381724         -1.755433
  17         O                -0.380669         -1.616558
  18         O                -0.365678         -1.506397
  19         V                 0.006318         -1.387328
  20         V                 0.011291         -1.503954
  21         V                 0.103722         -1.443205
  22         V                 0.128295         -1.253578
  23         V                 0.129633         -1.195018
  24         V                 0.140240         -0.951596
  25         V                 0.150829         -1.100371
  26         V                 0.152974         -1.131634
  27         V                 0.163328         -0.798697
  28         V                 0.164472         -0.792260
  29         V                 0.170627         -0.876294
  30         V                 0.179316         -0.840441
  31         V                 0.180053         -1.051500
  32         V                 0.185602         -1.006644
  33         V                 0.197551         -1.118480
  34         V                 0.211983         -1.147292
  35         V                 0.256537         -1.472885
 Total kinetic energy from orbitals=-6.096072607444D+01
 Calling FoFJK, ICntrl=      2127 FMM=F ISym2X=1 I1Cent= 0 IOpClX= 0 NMat=1 NMatS=1 NMatT=0.
 ***** Axes restored to original set *****
 -------------------------------------------------------------------
 Center     Atomic                   Forces (Hartrees/Bohr)
 Number     Number              X              Y              Z
 -------------------------------------------------------------------
      1        6           0.000000320   -0.037194758   -0.000305709
      2        6          -0.007879865   -0.004508962   -0.000161514
      3        6          -0.032492886   -0.019817409   -0.000115055
      4        6           0.032493240   -0.019816766   -0.000125125
      5        6           0.007879904   -0.004508806   -0.000163956
      6        1           0.018647316   -0.010472654    0.000067997
      7        1           0.016609760    0.017181004    0.000023865
      8        1          -0.016610091    0.017180675    0.000029012
      9        1          -0.018647087   -0.010473023    0.000073776
     10        7          -0.000000332    0.034568859    0.000061954
     11        6          -0.000000448    0.069884281    0.001569171
     12        1          -0.028718177   -0.011016849    0.016269350
     13        1          -0.000005090   -0.009989310   -0.033484215
     14        1           0.028723436   -0.011016281    0.016260449
 -------------------------------------------------------------------
 Cartesian Forces:  Max     0.069884281 RMS     0.019655552

 GradGradGradGradGradGradGradGradGradGradGradGradGradGradGradGradGradGrad
 Berny optimization.
 FormGI is forming the generalized inverse of G from B-inverse, IUseBI=4.
 Internal  Forces:  Max     0.037862035 RMS     0.011868691
 Search for a local minimum.
 Step number   1 out of a maximum of   72
 All quantities printed in internal units (Hartrees-Bohrs-Radians)
 Mixed Optimization -- RFO/linear search
 Second derivative matrix not updated -- first step.
 ITU=  0
     Eigenvalues ---    0.00237   0.01369   0.02102   0.02104   0.02132
     Eigenvalues ---    0.02132   0.02181   0.02212   0.02361   0.07243
     Eigenvalues ---    0.07243   0.16000   0.16000   0.16000   0.16000
     Eigenvalues ---    0.16000   0.16000   0.16000   0.22000   0.22858
     Eigenvalues ---    0.23877   0.25000   0.28519   0.37230   0.37230
     Eigenvalues ---    0.37230   0.37230   0.37230   0.37230   0.37230
     Eigenvalues ---    0.41662   0.44146   0.45367   0.46185   0.54274
     Eigenvalues ---    0.55669
 RFO step:  Lambda=-2.47735351D-02 EMin= 2.36824218D-03
 Linear search not attempted -- first point.
 Iteration  1 RMS(Cart)=  0.03388878 RMS(Int)=  0.00041484
 Iteration  2 RMS(Cart)=  0.00065477 RMS(Int)=  0.00006642
 Iteration  3 RMS(Cart)=  0.00000019 RMS(Int)=  0.00006642
 ClnCor:  largest displacement from symmetrization is 1.99D-09 for atom     8.
 Variable       Old X    -DE/DX   Delta X   Delta X   Delta X     New X
                                 (Linear)    (Quad)   (Total)
    R1        2.63727   0.00198   0.00000   0.00455   0.00445   2.64172
    R2        2.63727   0.00198   0.00000   0.00455   0.00445   2.64172
    R3        2.91018  -0.03786   0.00000  -0.12215  -0.12215   2.78803
    R4        2.64853   0.01482   0.00000   0.03096   0.03096   2.67949
    R5        2.02201   0.02139   0.00000   0.05386   0.05386   2.07587
    R6        2.02201   0.02308   0.00000   0.05813   0.05813   2.08014
    R7        2.53903   0.00181   0.00000   0.00266   0.00276   2.54178
    R8        2.64853   0.01482   0.00000   0.03096   0.03096   2.67949
    R9        2.02201   0.02308   0.00000   0.05813   0.05813   2.08014
   R10        2.53903   0.00181   0.00000   0.00266   0.00276   2.54178
   R11        2.02201   0.02139   0.00000   0.05386   0.05386   2.07587
   R12        2.02201   0.03479   0.00000   0.08762   0.08762   2.10962
   R13        2.02201   0.03490   0.00000   0.08789   0.08789   2.10990
   R14        2.02201   0.03479   0.00000   0.08762   0.08762   2.10962
    A1        2.07403  -0.00104   0.00000  -0.00320  -0.00343   2.07060
    A2        2.10458   0.00052   0.00000   0.00160   0.00171   2.10629
    A3        2.10458   0.00052   0.00000   0.00160   0.00171   2.10629
    A4        2.08363  -0.00383   0.00000  -0.01603  -0.01615   2.06748
    A5        2.09978   0.00184   0.00000   0.00758   0.00764   2.10742
    A6        2.09978   0.00200   0.00000   0.00845   0.00851   2.10829
    A7        2.09031  -0.00092   0.00000   0.00575   0.00570   2.09601
    A8        2.10256   0.01434   0.00000   0.05620   0.05629   2.15885
    A9        2.09031  -0.01342   0.00000  -0.06194  -0.06199   2.02832
   A10        2.09031  -0.00092   0.00000   0.00575   0.00570   2.09601
   A11        2.10256   0.01434   0.00000   0.05620   0.05629   2.15885
   A12        2.09031  -0.01342   0.00000  -0.06194  -0.06199   2.02832
   A13        2.08363  -0.00383   0.00000  -0.01603  -0.01615   2.06748
   A14        2.09978   0.00184   0.00000   0.00758   0.00764   2.10742
   A15        2.09978   0.00200   0.00000   0.00845   0.00851   2.10829
   A16        2.11996  -0.01998   0.00000  -0.07714  -0.07685   2.04312
   A17        1.91063  -0.00029   0.00000  -0.00101  -0.00103   1.90960
   A18        1.91063  -0.00243   0.00000  -0.01425  -0.01428   1.89636
   A19        1.91063  -0.00029   0.00000  -0.00101  -0.00103   1.90960
   A20        1.91063   0.00107   0.00000   0.00471   0.00468   1.91531
   A21        1.91063   0.00086   0.00000   0.00685   0.00685   1.91748
   A22        1.91063   0.00107   0.00000   0.00471   0.00468   1.91531
    D1       -0.00000   0.00001   0.00000   0.00039   0.00039   0.00039
    D2       -3.14159  -0.00000   0.00000   0.00021   0.00022  -3.14137
    D3        3.14159  -0.00012   0.00000  -0.00293  -0.00293   3.13867
    D4        0.00000  -0.00013   0.00000  -0.00310  -0.00310  -0.00310
    D5        0.00000  -0.00001   0.00000  -0.00039  -0.00039  -0.00039
    D6        3.14159   0.00000   0.00000  -0.00021  -0.00022   3.14137
    D7       -3.14159   0.00012   0.00000   0.00293   0.00293  -3.13867
    D8       -0.00000   0.00013   0.00000   0.00310   0.00310   0.00310
    D9        2.61799   0.00041   0.00000   0.00527   0.00526   2.62325
   D10       -1.57080   0.00006   0.00000   0.00169   0.00169  -1.56910
   D11        0.52360  -0.00028   0.00000  -0.00189  -0.00187   0.52173
   D12       -0.52360   0.00028   0.00000   0.00189   0.00187  -0.52173
   D13        1.57080  -0.00006   0.00000  -0.00169  -0.00169   1.56910
   D14       -2.61799  -0.00041   0.00000  -0.00527  -0.00526  -2.62325
   D15        3.14159  -0.00002   0.00000  -0.00047  -0.00047   3.14112
   D16       -0.00000   0.00001   0.00000   0.00003   0.00004   0.00004
   D17       -0.00000  -0.00001   0.00000  -0.00030  -0.00030  -0.00030
   D18        3.14159   0.00001   0.00000   0.00021   0.00021  -3.14138
   D19        0.00000  -0.00002   0.00000  -0.00047  -0.00046  -0.00045
   D20       -3.14159   0.00001   0.00000   0.00004   0.00004  -3.14155
   D21       -3.14159   0.00002   0.00000   0.00047   0.00047  -3.14112
   D22        0.00000   0.00001   0.00000   0.00030   0.00030   0.00030
   D23        0.00000  -0.00001   0.00000  -0.00003  -0.00004  -0.00004
   D24       -3.14159  -0.00001   0.00000  -0.00021  -0.00021   3.14138
   D25       -0.00000   0.00002   0.00000   0.00047   0.00046   0.00045
   D26        3.14159  -0.00001   0.00000  -0.00004  -0.00004   3.14155
         Item               Value     Threshold  Converged?
 Maximum Force            0.037862     0.000450     NO 
 RMS     Force            0.011869     0.000300     NO 
 Maximum Displacement     0.088430     0.001800     NO 
 RMS     Displacement     0.034005     0.001200     NO 
 Predicted change in Energy=-1.330056D-02
 GradGradGradGradGradGradGradGradGradGradGradGradGradGradGradGradGradGrad

                          Input orientation:                          
 ---------------------------------------------------------------------
 Center     Atomic      Atomic             Coordinates (Angstroms)
 Number     Number       Type             X           Y           Z
 ---------------------------------------------------------------------
      1          6           0        0.000006   -1.409235    0.003048
      2          6           0        1.202245   -0.695903    0.001432
      3          6           0        1.147210    0.720954   -0.000912
      4          6           0       -1.147242    0.720932   -0.000556
      5          6           0       -1.202249   -0.695926    0.001805
      6          1           0        2.166973   -1.221265    0.002130
      7          1           0        2.077466    1.309427   -0.001772
      8          1           0       -2.077510    1.309386   -0.001129
      9          1           0       -2.166966   -1.221308    0.002801
     10          7           0       -0.000023    1.423111   -0.001635
     11          6           0        0.000020   -2.884595    0.001797
     12          1           0       -0.913605   -3.256086    0.524820
     13          1           0       -0.000140   -3.240802   -1.056367
     14          1           0        0.913814   -3.256068    0.524537
 ---------------------------------------------------------------------
                    Distance matrix (angstroms):
                    1          2          3          4          5
     1  C    0.000000
     2  C    1.397936   0.000000
     3  C    2.419463   1.417927   0.000000
     4  C    2.419463   2.743632   2.294452   0.000000
     5  C    1.397936   2.404494   2.743632   1.417927   0.000000
     6  H    2.175105   1.098502   2.193660   3.841375   3.409932
     7  H    3.421548   2.188006   1.100762   3.277968   3.844214
     8  H    3.421548   3.844214   3.277968   1.100762   2.188006
     9  H    2.175105   3.409932   3.841375   2.193660   1.098502
    10  N    2.832350   2.436325   1.345053   1.345053   2.436325
    11  C    1.475361   2.497143   3.783655   3.783655   2.497143
    12  H    2.125509   3.362335   4.510012   4.018368   2.628931
    13  H    2.115892   3.006856   4.257454   4.257454   3.006856
    14  H    2.125509   2.628931   4.018368   4.510012   3.362335
                    6          7          8          9         10
     6  H    0.000000
     7  H    2.532278   0.000000
     8  H    4.941644   4.154976   0.000000
     9  H    4.333939   4.941644   2.532278   0.000000
    10  N    3.418861   2.080597   2.080597   3.418861   0.000000
    11  C    2.731731   4.680344   4.680344   2.731731   4.307708
    12  H    3.728762   5.483404   4.740763   2.446168   4.796527
    13  H    3.145684   5.112065   5.112065   3.145684   4.781689
    14  H    2.446168   4.740763   5.483404   3.728762   4.796527
                   11         12         13         14
    11  C    0.000000
    12  H    1.116364   0.000000
    13  H    1.116510   1.826145   0.000000
    14  H    1.116364   1.827419   1.826145   0.000000
 Stoichiometry    C6H7N
 Framework group  CS[SG(C2HN),X(C4H6)]
 Deg. of freedom    20
 Full point group                 CS      NOp   2
 Largest Abelian subgroup         CS      NOp   2
 Largest concise Abelian subgroup CS      NOp   2
                         Standard orientation:                         
 ---------------------------------------------------------------------
 Center     Atomic      Atomic             Coordinates (Angstroms)
 Number     Number       Type             X           Y           Z
 ---------------------------------------------------------------------
      1          6           0        0.001076    0.907687    0.000000
      2          6           0        0.000831    0.194365    1.202247
      3          6           0        0.000831   -1.222495    1.147226
      4          6           0        0.000831   -1.222495   -1.147226
      5          6           0        0.000831    0.194365   -1.202247
      6          1           0        0.000805    0.719737    2.166970
      7          1           0        0.001091   -1.810959    2.077488
      8          1           0        0.001091   -1.810959   -2.077488
      9          1           0        0.000805    0.719737   -2.166970
     10          7           0        0.001095   -1.924664   -0.000000
     11          6           0       -0.002625    2.383043    0.000000
     12          1           0        0.519639    2.755392   -0.913710
     13          1           0       -1.061379    2.737492    0.000000
     14          1           0        0.519639    2.755392    0.913710
 ---------------------------------------------------------------------
 Rotational constants (GHZ):           5.7557948           2.5462458           1.7862694
 Standard basis: VSTO-6G (5D, 7F)
 There are    21 symmetry adapted cartesian basis functions of A'  symmetry.
 There are    14 symmetry adapted cartesian basis functions of A"  symmetry.
 There are    21 symmetry adapted basis functions of A'  symmetry.
 There are    14 symmetry adapted basis functions of A"  symmetry.
    35 basis functions,   210 primitive gaussians,    35 cartesian basis functions
    18 alpha electrons       18 beta electrons
       nuclear repulsion energy       160.3727581336 Hartrees.
 Integral buffers will be    131072 words long.
 Regular integral format.
 Two-electron integral symmetry is turned off.
 Do NDO integrals.
 One-electron integrals computed using PRISM.
 NBasis=    35 RedAO= T EigKep=  1.00D+00  NBF=    21    14
 NBsUse=    35 1.00D-06 EigRej= -1.00D+00 NBFU=    21    14
 Initial guess from the checkpoint file:  "meth_pyridine_opt.chk"
 B after Tr=    -0.000000   -0.000000    0.000000
         Rot=    1.000000   -0.000000    0.000000   -0.000606 Ang=  -0.07 deg.
 Initial guess orbital symmetries:
       Occupied  (A') (A') (A") (A') (A") (A') (A') (A") (A') (A')
                 (A") (A') (A") (A') (A") (A') (A') (A")
       Virtual   (A") (A') (A') (A') (A') (A") (A') (A") (A") (A')
                 (A') (A") (A') (A') (A") (A') (A")
 Keep J ints in memory in canonical form, NReq=862419.
 Overlap will be assumed to be unity.
 Requested convergence on RMS density matrix=1.00D-08 within 128 cycles.
 Requested convergence on MAX density matrix=1.00D-06.
 Requested convergence on             energy=1.00D-06.
 No special actions if energy rises.
 Fock symm off for IB=2 I1=    1 I=   22 J=    7 Cut=1.00D-07 Err=3.41D-03
 Fock matrix is not symmetric: symmetry in diagonalization turned off.
 SCF Done:  E(RAM1) =  0.390641872728E-01 A.U. after   12 cycles
            NFock= 11  Conv=0.23D-08     -V/T= 1.0006
 Calling FoFJK, ICntrl=      2127 FMM=F ISym2X=1 I1Cent= 0 IOpClX= 0 NMat=1 NMatS=1 NMatT=0.
 ***** Axes restored to original set *****
 -------------------------------------------------------------------
 Center     Atomic                   Forces (Hartrees/Bohr)
 Number     Number              X              Y              Z
 -------------------------------------------------------------------
[...]

 Electric dipole moment (input orientation):
 (Debye = 10**-18 statcoulomb cm , SI units = C m)
                  (au)            (Debye)         (10**-30 SI)
   Tot        0.914544D+00      0.232454D+01      0.775383D+01
   x          0.000000D+00      0.000000D+00      0.000000D+00
   y         -0.914432D+00     -0.232425D+01     -0.775288D+01
   z         -0.142998D-01     -0.363465D-01     -0.121239D+00

 Dipole polarizability, Alpha (input orientation).
 (esu units = cm**3 , SI units = C**2 m**2 J**-1)
 Alpha(0;0):
               (au)            (10**-24 esu)      (10**-40 SI)
   iso        0.549603D+02      0.814428D+01      0.906173D+01
   aniso      0.558970D+02      0.828308D+01      0.921617D+01
   xx         0.732443D+02      0.108537D+02      0.120764D+02
   yx         0.341982D-04      0.506766D-05      0.563853D-05
   yy         0.739375D+02      0.109564D+02      0.121907D+02
   zx        -0.860982D-02     -0.127584D-02     -0.141957D-02
   zy         0.264933D+00      0.392590D-01      0.436816D-01
   zz         0.176990D+02      0.262273D+01      0.291818D+01

 First dipole hyperpolarizability, Beta (input orientation).
 ||, _|_  parallel and perpendicular components, (z) with respect to z axis,
 vector components x,y,z.  Values do not include the 1/n! factor of 1/2.
 (esu units = statvolt**-1 cm**4 , SI units = C**3 m**3 J**-2)
 Beta(0;0,0):
               (au)            (10**-30 esu)      (10**-50 SI)
   || (z)     0.330850D+00      0.285829D-02      0.106083D-02
   _|_(z)     0.110283D+00      0.952763D-03      0.353609D-03
   x         -0.135258D-02     -0.116852D-04     -0.433686D-05
   y          0.162695D+03      0.140556D+01      0.521659D+00
   z          0.165425D+01      0.142914D-01      0.530413D-02
   ||         0.325407D+02      0.281126D+00      0.104337D+00
   xxx        0.560364D-02      0.484111D-04      0.179673D-04
   xxy       -0.338650D+02     -0.292567D+00     -0.108584D+00
   yxy       -0.698618D-03     -0.603552D-05     -0.224002D-05
   yyy        0.114814D+03      0.991907D+00      0.368137D+00
   xxz        0.989288D+01      0.854668D-01      0.317202D-01
   yxz        0.113474D-02      0.980331D-05      0.363840D-05
   yyz        0.714126D+01      0.616949D-01      0.228975D-01
   zxz       -0.535589D-02     -0.462707D-04     -0.171729D-04
   zyz       -0.267177D+02     -0.230820D+00     -0.856667D-01
   zzz       -0.164827D+02     -0.142398D+00     -0.528496D-01

 ----------------------------------------------------------------------

 Dipole orientation:
     6         -0.00000796          0.05814346          2.65315703
     6          2.27158513          0.03046662          1.29363356
     6          2.17141443         -0.02665761         -1.35985837
     6         -2.17145528         -0.02601699         -1.35985837
     6         -2.27160912          0.03113680          1.29363356
     1          4.09871312          0.05486013          2.27523289
     1          3.92586694         -0.04981724         -2.49116034
     1         -3.92591455         -0.04865902         -2.49116034
     1         -4.09872983          0.05606935          2.27523289
     7         -0.00002472         -0.05544730         -2.68880226
     6         -0.00000332          0.08965093          5.44875917
     1         -1.71466317          1.07303371          6.19410910
     1         -0.00029578         -1.89297646          6.18775858
     1          1.71494658          1.07252781          6.19410910

 Electric dipole moment (dipole orientation):
 (Debye = 10**-18 statcoulomb cm , SI units = C m)
                  (au)            (Debye)         (10**-30 SI)
   Tot        0.914544D+00      0.232454D+01      0.775383D+01
   x          0.000000D+00      0.000000D+00      0.000000D+00
   y          0.000000D+00      0.000000D+00      0.000000D+00
   z          0.914544D+00      0.232454D+01      0.775383D+01

 Dipole polarizability, Alpha (dipole orientation).
 (esu units = cm**3 , SI units = C**2 m**2 J**-1)
 Alpha(0;0):
               (au)            (10**-24 esu)      (10**-40 SI)
   iso        0.549603D+02      0.814428D+01      0.906173D+01
   aniso      0.558970D+02      0.828308D+01      0.921617D+01
   xx         0.732443D+02      0.108537D+02      0.120764D+02
   yx        -0.819275D-02     -0.121404D-02     -0.135080D-02
   yy         0.177045D+02      0.262354D+01      0.291908D+01
   zx         0.906360D-04      0.134309D-04      0.149439D-04
   zy         0.614434D+00      0.910498D-01      0.101307D+00
   zz         0.739321D+02      0.109556D+02      0.121898D+02

 First dipole hyperpolarizability, Beta (dipole orientation).
 ||, _|_  parallel and perpendicular components, (z) with respect to z axis,
 vector components x,y,z.  Values do not include the 1/n! factor of 1/2.
 (esu units = statvolt**-1 cm**4 , SI units = C**3 m**3 J**-2)
 Beta(0;0,0):
               (au)            (10**-30 esu)      (10**-50 SI)
   || (z)    -0.325402D+02     -0.281122D+00     -0.104336D+00
   _|_(z)    -0.108467D+02     -0.937073D-01     -0.347785D-01
   x         -0.131263D-03     -0.113401D-05     -0.420877D-06
   y         -0.889851D+00     -0.768762D-02     -0.285318D-02
   z         -0.162701D+03     -0.140561D+01     -0.521678D+00
   ||         0.325407D+02      0.281126D+00      0.104337D+00
   xxx        0.461173D-02      0.398417D-04      0.147869D-04
   xxy        0.104212D+02      0.900309D-01      0.334141D-01
   yxy       -0.531945D-02     -0.459559D-04     -0.170561D-04
   yyy       -0.152189D+02     -0.131480D+00     -0.487973D-01
   xxz        0.337062D+02      0.291195D+00      0.108074D+00
   yxz       -0.967453D-03     -0.835804D-05     -0.310200D-05
   yyz        0.271477D+02      0.234535D+00      0.870453D-01
   zxz        0.663964D-03      0.573614D-05      0.212891D-05
   zyz        0.450111D+01      0.388861D-01      0.144322D-01
   zzz       -0.115088D+03     -0.994267D+00     -0.369012D+00

 ----------------------------------------------------------------------
 1\1\GINC-IISERK51\Freq\RAM1\ZDO\C6H7N1\GAUSSIAN\14-Jun-2025\0\\#N Geom
 =AllCheck Guess=TCheck SCRF=Check GenChk RAM1/ZDO Freq\\meth-pyridine 
 opt freq with AM1\\0,1\C,0.0000064997,-1.4042996907,0.0088116334\C,1.2
 020763136,-0.6847206856,0.0054074935\C,1.149057553,0.7197473717,-0.002
 8616907\C,-1.1490901262,0.7197246449,-0.0025055737\C,-1.2020785434,-0.
 6847444607,0.0057800373\H,2.1689547825,-1.2042916853,0.0101852196\H,2.
 0774692753,1.3185320752,-0.0057620347\H,-2.0775145456,1.3184909858,-0.
 0051181855\H,-2.1689452088,-1.2043345836,0.0108574132\N,-0.0000239255,
 1.4231377222,-0.0070901273\C,0.0000201291,-2.8837484841,0.0023512134\H
 ,-0.9073318988,-3.2862660618,0.516510941\H,-0.0001396702,-3.2583576354
 ,-1.0527963974\H,0.9075394211,-3.2862481142,0.5162297116\\Version=EM64
 L-G16RevB.01\State=1-A'\HF=0.0383173\RMSD=3.394e-10\RMSF=2.303e-05\Zer
 oPoint=0.1180063\Thermal=0.1240512\Dipole=0.0000068,-0.9144323,-0.0142
 998\DipoleDeriv=0.0628402,0.0000015,-0.0000077,0.000001,0.3094075,0.02
 22422,-0.0000078,0.0256094,0.0142775,-0.2361866,-0.0966491,-0.0054743,
 -0.1951431,-0.3848184,-0.0033135,0.0036073,-0.0007098,-0.1828086,-0.03
 54922,-0.0545983,0.0017737,0.18128,0.1796613,0.0044316,-0.0043447,-0.0
 007556,-0.038832,-0.0354889,0.0545938,-0.0017748,-0.1812829,0.1796588,
 0.0044877,0.0043437,-0.0007724,-0.0388328,-0.2361918,0.0966518,0.00549
 09,0.195145,-0.3848127,-0.0033739,-0.0035907,-0.0007399,-0.1828092,0.1
 738025,-0.0537017,0.0007186,-0.0494347,0.0821673,0.0017901,-0.0013056,
 0.0011989,0.1504939,0.1807908,0.0882284,-0.0004487,0.1019499,0.1231758
 ,0.0007506,-0.0006182,0.0001227,0.1425231,0.1807949,-0.0882272,0.00043
 68,-0.1019485,0.1231721,0.0007822,0.0006064,0.00015,0.1425228,0.173800
 6,0.0537038,-0.0007258,0.049437,0.0821693,0.0017748,0.0012984,0.001182
 3,0.1504937,-0.2779731,0.0000005,0.0000049,0.,-0.3277748,-0.0033709,0.
 0000049,0.0001436,-0.2463734,-0.0840731,-0.0000087,0.0000007,-0.000003
 8,-0.0766946,-0.0241749,0.000001,-0.0557981,-0.0808982,0.0415079,0.018
 7719,0.0059548,0.0113359,0.0369027,-0.0018437,-0.0046656,-0.0014444,0.
 0559925,0.0503836,0.0000054,0.0000012,0.0000005,0.0208886,0.0016574,0.
 0000009,0.0332409,0.0582574,0.0415081,-0.0187723,-0.0059503,-0.0113363
 ,0.0369021,-0.0018404,0.0046701,-0.0014385,0.0559929\Polar=73.2443245,
 0.0000342,73.9375404,-0.0086098,0.264933,17.6990355\HyperPolar=0.00560
 36,-33.8650304,-0.0006986,114.8144252,9.8928808,0.0011347,7.1412602,-0
 .0053559,-26.7177292,-16.4827239\PG=CS [SG(C2H1N1),X(C4H6)]\NImag=0\\0
 .78236522,-0.00000091,0.86777567,-0.00009273,-0.00040000,0.18389325,-0
 .31600502,-0.18002910,0.00093559,0.78825787,-0.06776080,-0.17390719,0.
 00061434,-0.01033525,0.76787552,0.00004413,0.00029042,-0.07278973,0.00
 094766,-0.00360330,0.14821692,0.06032753,-0.04203424,0.00013065,-0.111
 75295,-0.06306446,0.00048954,0.83243936,-0.14068954,-0.06208854,0.0001
 6088,0.06692523,-0.35650676,0.00151648,-0.01089041,0.76241564,0.000864
 07,0.00028437,0.00638886,-0.00031518,0.00155337,-0.07578090,0.00022562
 ,-0.00342207,0.16494166,0.06032360,0.04203674,-0.00014737,-0.03428557,
 -0.05989913,0.00042805,-0.17250314,0.06191790,-0.00035788,0.83243873,0
 .14069200,-0.06208493,0.00011728,-0.04139320,-0.09119083,0.00061235,-0
 .06192385,0.11813244,-0.00065153,0.01089073,0.76241607,-0.00088079,0.0
 0027132,0.00638918,0.00027109,0.00050534,-0.00665205,0.00041358,-0.000
 67071,0.00719164,-0.00043242,-0.00342545,0.16494186,-0.31601020,0.1800
 2637,-0.00086023,-0.10705598,-0.04236025,0.00034197,-0.03428779,0.0413
 9452,-0.00026253,-0.11175292,-0.06691991,0.00032630,0.78825681,0.06775
 817,-0.17390229,0.00059333,0.04235601,0.09568299,-0.00074428,0.0599004
 1,-0.09118883,0.00048677,0.06306978,-0.35650684,0.00153383,0.01033453,
 0.76787593,0.00003124,0.00023463,-0.07278945,-0.00030671,-0.00073116,0
 .00666870,-0.00041950,0.00059951,-0.00665184,-0.00047842,0.00153721,-0
 .07578085,-0.00114594,-0.00360653,0.14821757,-0.03753443,0.00573307,-0
 .00014648,-0.25463202,0.11665823,-0.00107407,-0.00273549,0.00992677,-0
 .00005908,0.00008682,-0.00022666,0.00000177,-0.00189246,-0.00212283,0.
 00000193,0.29641775,-0.01314334,0.00813337,-0.00002642,0.11642783,-0.1
 0036593,0.00063693,0.02850895,-0.02509909,0.00017515,-0.00048373,0.000
 22142,-0.00000454,-0.00165308,-0.00139475,0.00003090,-0.12926366,0.124
 09789,0.00005986,0.00019454,0.00593649,-0.00111530,0.00063542,-0.04144
 953,-0.00015862,0.00012188,0.00402533,0.00002820,0.00003687,-0.0000490
 0,0.00004582,0.00000600,0.00617437,0.00111277,-0.00094775,0.02370445,-
 0.00045749,0.00046918,-0.00000627,-0.00024277,-0.00694932,0.00003675,-
 0.22185028,-0.12237159,0.00059493,-0.00254951,0.00405109,-0.00002877,0
 .00060246,-0.00030044,0.00000341,0.00041168,0.00008741,-0.00000035,0.2
 6694227,0.00087589,-0.00353672,0.00002287,-0.02480460,-0.02802527,0.00
 018019,-0.12387811,-0.11977313,0.00037788,0.00248997,-0.00233851,0.000
 05932,0.00016999,0.00009189,0.00000183,0.00000840,-0.00059905,-0.00000
 114,0.13527130,0.14179858,0.00000449,0.00006887,0.00577492,0.00012645,
 0.00018354,0.00621829,0.00058029,0.00039436,-0.04337772,-0.00002901,0.
 00004702,0.00813981,-0.00000634,0.00002977,0.00015979,0.00000209,-0.00
 000177,-0.00082938,-0.00064406,-0.00060158,0.02425772,-0.00045746,-0.0
 0046910,0.00000820,0.00060245,0.00030046,-0.00000355,-0.00254936,-0.00
 405108,0.00003208,-0.22185549,0.12236969,-0.00053962,-0.00024345,0.006
 94993,-0.00003475,-0.00008824,0.00003220,-0.00000218,-0.00069965,0.000
 52129,-0.00000498,0.26694799,-0.00087582,-0.00353675,0.00002314,-0.000
 16998,0.00009189,0.00000188,-0.00248996,-0.00233864,0.00006010,0.12387
 620,-0.11976826,0.00033948,0.02480521,-0.02802465,0.00017251,0.0000836
 8,-0.00004690,-0.00000508,-0.00052131,0.00055441,-0.00000652,-0.135269
 00,0.14179323,-0.00000256,0.00006902,0.00577492,0.00000620,0.00002968,
 0.00015979,0.00003232,0.00004828,0.00813979,-0.00052498,0.00035643,-0.
 04337738,-0.00012445,0.00018139,0.00621834,0.00000163,-0.00000498,-0.0
 0118955,0.00000509,-0.00000668,-0.00035466,0.00056886,-0.00055965,0.02
 425734,-0.03753455,-0.00573391,0.00015995,-0.00189255,0.00212283,0.000
 00057,0.00008679,0.00022667,-0.00000181,-0.00273466,-0.00992629,0.0000
 6117,-0.25462671,-0.11666107,0.00114012,-0.00038296,-0.00032698,0.0000
 0027,-0.00008824,-0.00008368,-0.00000197,0.00041168,-0.00000838,-0.000
 00248,0.29641192,0.01314243,0.00813352,-0.00003049,0.00165308,-0.00139
 467,0.00003039,0.00048373,0.00022143,-0.00000469,-0.02850845,-0.025099
 85,0.00018399,-0.11643068,-0.10037054,0.00067304,0.00032696,0.00030484
 ,-0.00001358,-0.00003220,-0.00004690,-0.00000497,-0.00008739,-0.000599
 05,-0.00000175,0.12926676,0.12410300,-0.00004639,0.00019632,0.00593646
 ,-0.00004332,0.00000534,0.00617439,-0.00002824,0.00003680,-0.00004899,
 0.00016071,0.00012496,0.00402526,0.00118136,0.00067160,-0.04145023,-0.
 00000021,-0.00001348,-0.00019869,0.00000183,-0.00000506,-0.00118955,-0
 .00000003,-0.00000114,-0.00082938,-0.00119727,-0.00098784,0.02370517,-
 0.13032608,-0.00000119,0.00001956,0.04254504,0.16688454,-0.00112308,-0
 .34332374,0.09832445,-0.00059988,-0.34331687,-0.09832652,0.00068403,0.
 04254976,-0.16688224,0.00111683,0.00074268,0.00047100,-0.00005631,-0.0
 4221023,0.01009134,-0.00004440,-0.04221022,-0.01009243,0.00005802,0.00
 074270,-0.00047086,0.00005781,0.81348282,-0.00000117,-0.00916152,0.000
 19801,0.04949026,-0.06482111,0.00050179,0.21774597,-0.22451363,0.00090
 121,-0.21774803,-0.22451988,0.00096870,-0.04948798,-0.06482539,0.00051
 715,-0.00051218,-0.00475316,0.00006557,-0.00977352,0.01218109,-0.00006
 679,0.00977243,0.01218109,-0.00006981,0.00051231,-0.00475316,0.0000654
 2,0.00000192,0.57342805,0.00001956,0.00003377,-0.00411625,-0.00030756,
 0.00052847,0.02241751,-0.00132557,0.00090006,-0.07171495,0.00140973,0.
 00093056,-0.07171557,0.00030131,0.00058020,0.02241707,-0.00001233,0.00
 007746,0.00556790,0.00003839,-0.00005386,0.00174281,-0.00002477,-0.000
 05073,0.00174281,0.00001383,0.00007760,0.00556788,-0.00011193,-0.00292
 693,0.09096106,-0.06686904,0.00000309,-0.00000077,-0.00575700,-0.03457
 014,-0.00061692,-0.00366381,-0.00101372,-0.00026304,-0.00366377,0.0010
 1385,0.00026635,-0.00575760,0.03457066,0.00062078,-0.00023726,-0.00065
 597,0.00016131,0.00012973,-0.00066704,0.00005271,0.00012970,0.00066706
 ,-0.00005292,-0.00023735,0.00065591,-0.00016178,0.00100319,-0.00000004
 ,-0.00000060,0.53229181,0.00000233,-0.31711623,-0.00094971,-0.02085003
 ,-0.04174159,0.00012839,-0.00173822,0.00072050,0.00010433,0.00173817,0
 .00072055,0.00010380,0.02085078,-0.04174049,0.00012194,-0.00025943,0.0
 0003343,-0.00013817,0.00005327,-0.00018202,-0.00001139,-0.00005327,-0.
 00018201,-0.00001137,0.00025939,0.00003345,-0.00013825,0.,-0.00051033,
 -0.00004135,-0.00000189,0.60323098,-0.00000082,0.00395700,-0.07191776,
 -0.00097055,-0.00059860,0.00669156,-0.00003126,0.00070201,0.00701566,0
 .00003456,0.00070169,0.00701557,0.00097442,-0.00060929,0.00669107,0.00
 005897,-0.00016861,-0.00176722,0.00000761,0.00004419,-0.00056255,-0.00
 000783,0.00004398,-0.00056253,-0.00005944,-0.00016881,-0.00176715,-0.0
 0000060,-0.00033261,-0.00290095,-0.00000586,-0.00766735,0.49395600,-0.
 00122834,-0.01104588,0.00268133,0.00030685,0.00043459,0.00024109,0.000
 09491,-0.00014417,-0.00000482,-0.00011787,-0.00017201,-0.00012776,0.00
 015435,0.00092670,-0.00004043,-0.00000698,0.00005654,0.00002957,-0.000
 01166,0.00000853,-0.00000378,0.00002026,0.00001331,0.00000776,-0.00016
 572,0.00004091,0.00006847,0.00004385,0.00009238,0.00004215,-0.20375711
 ,-0.07039063,0.09193563,0.23844711,-0.02757078,-0.02638042,0.01519042,
 0.00074554,-0.00305147,0.00001961,-0.00064115,-0.00037191,-0.00068000,
 -0.00014507,0.00021343,-0.00037686,0.00015304,-0.00153372,0.00025459,0
 .00011183,-0.00000494,0.00012714,0.00002863,-0.00014930,0.00003753,0.0
 0001363,0.00004422,0.00003498,0.00055653,-0.00051917,0.00021053,-0.000
 04422,0.00006870,0.00022302,-0.06830745,-0.06962373,0.03998886,0.08624
 804,0.09026239,0.00298002,0.00472120,0.00252612,0.00010532,-0.00007180
 ,0.00018865,0.00003793,-0.00019323,-0.00006488,0.00007401,0.00008071,-
 0.00003070,-0.00018292,0.00024757,0.00003816,-0.00001097,-0.00000302,0
 .00003003,0.00000550,-0.00001109,-0.00000951,-0.00001049,-0.00001023,0
 .00001195,-0.00014283,0.00022645,0.00002558,-0.00016913,-0.00000111,0.
 00002071,0.09191148,0.04137418,-0.09290472,-0.11181008,-0.05008564,0.1
 0461594,0.00463762,-0.00000197,-0.00000096,-0.00024332,-0.00053559,0.0
 0024744,-0.00016439,0.00027441,0.00001966,-0.00016443,-0.00027450,-0.0
 0001964,-0.00024355,0.00053582,-0.00024740,0.00001669,-0.00001636,-0.0
 0003655,0.00000339,0.00000996,-0.00002374,0.00000341,-0.00000996,0.000
 02374,0.00001671,0.00001636,0.00003656,0.00023371,0.00000003,-0.000000
 03,-0.03979429,-0.00001126,-0.00003277,-0.00238541,0.00377650,0.025082
 35,0.04047980,-0.00000445,-0.02594812,-0.03069545,0.00013685,-0.001111
 97,0.00017457,-0.00012355,0.00017774,0.00119199,0.00012391,0.00017773,
 0.00119195,-0.00013678,-0.00111196,0.00017461,0.00009228,-0.00000791,-
 0.00029242,0.00000113,-0.00001913,-0.00010308,-0.00000116,-0.00001913,
 -0.00010308,-0.00009237,-0.00000791,-0.00029239,-0.00000007,-0.0000711
 9,-0.00050140,-0.00001152,-0.06402133,-0.07585820,-0.00099193,0.005561
 60,0.00574801,0.00001411,0.08084007,-0.00000112,-0.01463925,-0.0035350
 3,0.00048346,0.00070153,-0.00010175,0.00012712,-0.00027464,-0.00003243
 ,-0.00012708,-0.00027456,-0.00003238,-0.00048343,0.00070136,-0.0001015
 3,-0.00001889,0.00002363,0.00001950,-0.00002453,0.00000331,0.00001797,
 0.00002453,0.00000331,0.00001796,0.00001889,0.00002363,0.00001948,-0.0
 0000004,0.00018015,-0.00001204,-0.00003279,-0.07422561,-0.25613898,0.0
 0909852,-0.00292069,-0.02198192,0.00003988,0.09361761,0.30383250,-0.00
 123086,0.01104784,-0.00268047,0.00015445,-0.00092659,0.00004039,-0.000
 11786,0.00017203,0.00012779,0.00009489,0.00014412,0.00000479,0.0003067
 7,-0.00043455,-0.00024113,-0.00016568,-0.00004083,-0.00006842,0.000020
 26,-0.00001331,-0.00000776,-0.00001166,-0.00000853,0.00000378,-0.00000
 698,-0.00005654,-0.00002956,0.00004389,-0.00009238,-0.00004216,-0.2038
 1682,0.07040080,-0.09190204,-0.03139428,0.00507497,-0.00787025,-0.0023
 9595,0.00099355,-0.00910453,0.23851981,0.02757598,-0.02637965,0.015181
 82,-0.00015293,-0.00153374,0.00025464,0.00014494,0.00021343,-0.0003769
 0,0.00064095,-0.00037189,-0.00068020,-0.00074547,-0.00305149,0.0000198
 3,-0.00055646,-0.00051918,0.00021070,-0.00001362,0.00004422,0.00003498
 ,-0.00002862,-0.00014930,0.00003754,-0.00011179,-0.00000495,0.00012718
 ,0.00004429,0.00006870,0.00022301,0.06831719,-0.06962099,0.03996587,-0
 .00507632,0.00548431,-0.00202203,-0.00377756,0.00556154,-0.00291970,-0
 .08626063,0.09025898,-0.00297895,0.00471771,0.00252788,0.00018288,0.00
 024786,0.00003809,-0.00007399,0.00008065,-0.00003072,-0.00003798,-0.00
 019328,-0.00006487,-0.00010535,-0.00007167,0.00018875,0.00014288,0.000
 22647,0.00002555,0.00001048,-0.00001022,0.00001195,-0.00000550,-0.0000
 1109,-0.00000950,0.00001098,-0.00000300,0.00003003,0.00016912,-0.00000
 108,0.00002067,-0.09187793,0.04135054,-0.09284775,0.00788235,-0.002023
 45,0.00753460,-0.02508853,0.00574720,-0.02197133,0.11176957,-0.0500567
 0,0.10454664\\0.,0.00002965,0.00001188,-0.00002197,-0.00002871,-0.0000
 0171,-0.00007215,0.00004312,-0.00000080,0.00007215,0.00004313,-0.00000
 083,0.00002197,-0.00002871,-0.00000172,-0.00000657,0.00001344,-0.00000
 325,-0.00000921,-0.00001113,0.00000104,0.00000921,-0.00001113,0.000001
 03,0.00000657,0.00001344,-0.00000326,0.,-0.00005726,0.00000076,0.,-0.0
 0000132,-0.00001283,0.00000799,-0.00000122,0.00000229,0.,-0.00000208,0
 .00000510,-0.00000799,-0.00000122,0.00000230\\\@


 MUD THROWN IS GROUND LOST -- FROM A TEA BAG
 Job cpu time:       0 days  0 hours  0 minutes  0.5 seconds.
 Elapsed time:       0 days  0 hours  0 minutes  0.5 seconds.
 File lengths (MBytes):  RWF=      8 Int=      0 D2E=      0 Chk=      2 Scr=      1
 Normal termination of Gaussian 16 at Sat Jun 14 14:20:49 2025.
