 Entering Gaussian System, Link 0=g16
 Input=/home/gaussian/Documents/Summer_Internship/Aromaticity/hetrocyclic/pyridine/meth_pyridine_isomer_sp.com
 Output=/home/gaussian/Documents/Summer_Internship/Aromaticity/hetrocyclic/pyridine/meth_pyridine_isomer_sp.log
 Initial command:
 /usr/local/g16/l1.exe "/home/gaussian/tmp/Gau-46886.inp" -scrdir="/home/gaussian/tmp/"
 Entering Link 1 = /usr/local/g16/l1.exe PID=     46889.
  
 Copyright (c) 1988-2017, Gaussian, Inc.  All Rights Reserved.
  
 This is part of the Gaussian(R) 16 program.  It is based on
 the Gaussian(R) 09 system (copyright 2009, Gaussian, Inc.),
 the Gaussian(R) 03 system (copyright 2003, Gaussian, Inc.),
 the Gaussian(R) 98 system (copyright 1998, Gaussian, Inc.),
 the Gaussian(R) 94 system (copyright 1995, Gaussian, Inc.),
 the Gaussian 92(TM) system (copyright 1992, Gaussian, Inc.),
 the Gaussian 90(TM) system (copyright 1990, Gaussian, Inc.),
 the Gaussian 88(TM) system (copyright 1988, Gaussian, Inc.),
 the Gaussian 86(TM) system (copyright 1986, Carnegie Mellon
 University), and the Gaussian 82(TM) system (copyright 1983,
 Carnegie Mellon University). Gaussian is a federally registered
 trademark of Gaussian, Inc.
  
 This software contains proprietary and confidential information,
 including trade secrets, belonging to Gaussian, Inc.
  
 This software is provided under written license and may be
 used, copied, transmitted, or stored only in accord with that
 written license.
  
 The following legend is applicable only to US Government
 contracts under FAR:
  
                    RESTRICTED RIGHTS LEGEND
  
 Use, reproduction and disclosure by the US Government is
 subject to restrictions as set forth in subparagraphs (a)
 and (c) of the Commercial Computer Software - Restricted
 Rights clause in FAR 52.227-19.
  
 Gaussian, Inc.
 340 Quinnipiac St., Bldg. 40, Wallingford CT 06492
  
  
 ---------------------------------------------------------------
 Warning -- This program may not be used in any manner that
 competes with the business of Gaussian, Inc. or will provide
 assistance to any competitor of Gaussian, Inc.  The licensee
 of this program is prohibited from giving any competitor of
 Gaussian, Inc. access to this program.  By using this program,
 the user acknowledges that Gaussian, Inc. is engaged in the
 business of creating and licensing software in the field of
 computational chemistry and represents and warrants to the
 licensee that it is not a competitor of Gaussian, Inc. and that
 it will not use this program in any manner prohibited above.
 ---------------------------------------------------------------
  

 Cite this work as:
 Gaussian 16, Revision B.01,
 M. J. Frisch, G. W. Trucks, H. B. Schlegel, G. E. Scuseria, 
 M. A. Robb, J. R. Cheeseman, G. Scalmani, V. Barone, 
 G. A. Petersson, H. Nakatsuji, X. Li, M. Caricato, A. V. Marenich, 
 J. Bloino, B. G. Janesko, R. Gomperts, B. Mennucci, H. P. Hratchian, 
 J. V. Ortiz, A. F. Izmaylov, J. L. Sonnenberg, D. Williams-Young, 
 F. Ding, F. Lipparini, F. Egidi, J. Goings, B. Peng, A. Petrone, 
 T. Henderson, D. Ranasinghe, V. G. Zakrzewski, J. Gao, N. Rega, 
 G. Zheng, W. Liang, M. Hada, M. Ehara, K. Toyota, R. Fukuda, 
 J. Hasegawa, M. Ishida, T. Nakajima, Y. Honda, O. Kitao, H. Nakai, 
 T. Vreven, K. Throssell, J. A. Montgomery, Jr., J. E. Peralta, 
 F. Ogliaro, M. J. Bearpark, J. J. Heyd, E. N. Brothers, K. N. Kudin, 
 V. N. Staroverov, T. A. Keith, R. Kobayashi, J. Normand, 
 K. Raghavachari, A. P. Rendell, J. C. Burant, S. S. Iyengar, 
 J. Tomasi, M. Cossi, J. M. Millam, M. Klene, C. Adamo, R. Cammi, 
 J. W. Ochterski, R. L. Martin, K. Morokuma, O. Farkas, 
 J. B. Foresman, and D. J. Fox, Gaussian, Inc., Wallingford CT, 2016.
 
 ******************************************
 Gaussian 16:  EM64L-G16RevB.01 20-Dec-2017
                14-Jun-2025 
 ******************************************
 %chk=meth_pyridine_isomer_sp.chk
 --------------------------------------
 # hf/3-21g* pop=full geom=connectivity
 --------------------------------------
 1/38=1,57=2,172=1/1;
 2/12=2,17=6,18=5,40=1/2;
 3/5=5,7=1,11=9,25=1,30=1/1,2,3;
 4//1;
 5/5=2,38=5/2;
 6/7=3,28=1/1;
 99/5=1,9=1/99;
 -------------------------------------
 meth-pyridine_isomer sp with HF3-21G*
 -------------------------------------
 Symbolic Z-matrix:
 Charge =  0 Multiplicity = 1
 C                    -1.01194   0.0294   -0.00022 
 C                    -0.22625   1.25434  -0.00049 
 C                     1.12846   1.21453   0.00003 
 C                     1.22824  -1.09332   0.0001 
 C                    -0.2599   -1.26372  -0.00042 
 H                    -0.77266   2.20839  -0.00101 
 H                     1.75364   2.12396   0.00035 
 H                     1.82355  -2.0266    0.00005 
 N                     1.87633   0.02637   0.0005 
 C                    -2.35283   0.0476    0.0005 
 H                    -0.54922  -1.86694   0.90426 
 H                    -0.5485   -1.86648  -0.90568 
 H                    -2.92611   0.98299   0.0008 
 H                    -2.94965  -0.87285   0.0008 
 
                          Input orientation:                          
 ---------------------------------------------------------------------
 Center     Atomic      Atomic             Coordinates (Angstroms)
 Number     Number       Type             X           Y           Z
 ---------------------------------------------------------------------
      1          6           0       -1.011938    0.029396   -0.000218
      2          6           0       -0.226251    1.254344   -0.000493
      3          6           0        1.128458    1.214527    0.000031
      4          6           0        1.228241   -1.093321    0.000098
      5          6           0       -0.259902   -1.263722   -0.000424
      6          1           0       -0.772655    2.208393   -0.001013
      7          1           0        1.753635    2.123959    0.000348
      8          1           0        1.823546   -2.026603    0.000047
      9          7           0        1.876328    0.026371    0.000499
     10          6           0       -2.352833    0.047599    0.000498
     11          1           0       -0.549224   -1.866943    0.904262
     12          1           0       -0.548495   -1.866476   -0.905681
     13          1           0       -2.926109    0.982987    0.000800
     14          1           0       -2.949645   -0.872845    0.000802
 ---------------------------------------------------------------------
                    Distance matrix (angstroms):
                    1          2          3          4          5
     1  C    0.000000
     2  C    1.455267   0.000000
     3  C    2.446596   1.355294   0.000000
     4  C    2.505772   2.761717   2.310004   0.000000
     5  C    1.495899   2.518291   2.840645   1.497867   0.000000
     6  H    2.192096   1.099439   2.145228   3.860687   3.509772
     7  H    3.469235   2.162448   1.103591   3.259897   3.940903
     8  H    3.502442   3.868628   3.314826   1.106979   2.218726
     9  N    2.888268   2.434904   1.403932   1.293726   2.495560
    10  C    1.341019   2.445115   3.671663   3.758429   2.469802
    11  H    2.151346   3.265781   3.623218   2.139015   1.125184
    12  H    2.151505   3.265383   3.622853   2.138924   1.125206
    13  H    2.138548   2.713461   4.061173   4.644317   3.486598
    14  H    2.137463   3.455692   4.581271   4.183700   2.717996
                    6          7          8          9         10
     6  H    0.000000
     7  H    2.527701   0.000000
     8  H    4.967439   4.151151   0.000000
     9  N    3.431958   2.101173   2.053652   0.000000
    10  C    2.676938   4.601560   4.663095   4.229214   0.000000
    11  H    4.180647   4.695479   2.544235   3.206981   2.781235
    12  H    4.180099   4.695132   2.544123   3.206836   2.782172
    13  H    2.477698   4.816827   5.622887   4.896786   1.097085
    14  H    3.772707   5.576888   4.910653   4.909033   1.096997
                   11         12         13         14
    11  H    0.000000
    12  H    1.809943   0.000000
    13  H    3.819414   3.820235   0.000000
    14  H    2.750726   2.752187   1.855981   0.000000
 Stoichiometry    C6H7N
 Framework group  C1[X(C6H7N)]
 Deg. of freedom    36
 Full point group                 C1      NOp   1
 Largest Abelian subgroup         C1      NOp   1
 Largest concise Abelian subgroup C1      NOp   1
                         Standard orientation:                         
 ---------------------------------------------------------------------
 Center     Atomic      Atomic             Coordinates (Angstroms)
 Number     Number       Type             X           Y           Z
 ---------------------------------------------------------------------
      1          6           0        1.011938    0.029396    0.000218
      2          6           0        0.226251    1.254344    0.000493
      3          6           0       -1.128458    1.214527   -0.000031
      4          6           0       -1.228241   -1.093321   -0.000098
      5          6           0        0.259902   -1.263722    0.000424
      6          1           0        0.772655    2.208393    0.001013
      7          1           0       -1.753635    2.123959   -0.000348
      8          1           0       -1.823546   -2.026603   -0.000047
      9          7           0       -1.876328    0.026371   -0.000499
     10          6           0        2.352833    0.047599   -0.000498
     11          1           0        0.549224   -1.866943   -0.904262
     12          1           0        0.548495   -1.866476    0.905681
     13          1           0        2.926109    0.982987   -0.000800
     14          1           0        2.949645   -0.872845   -0.000802
 ---------------------------------------------------------------------
 Rotational constants (GHZ):           5.3686374           2.6690218           1.8037412
 Standard basis: 3-21G* (6D, 7F)
 There are    77 symmetry adapted cartesian basis functions of A   symmetry.
 There are    77 symmetry adapted basis functions of A   symmetry.
    77 basis functions,   126 primitive gaussians,    77 cartesian basis functions
    25 alpha electrons       25 beta electrons
       nuclear repulsion energy       270.6849087886 Hartrees.
 NAtoms=   14 NActive=   14 NUniq=   14 SFac= 1.00D+00 NAtFMM=   60 NAOKFM=F Big=F
 Integral buffers will be    131072 words long.
 Raffenetti 1 integral format.
 Two-electron integral symmetry is turned on.
 One-electron integrals computed using PRISM.
 NBasis=    77 RedAO= T EigKep=  4.55D-03  NBF=    77
 NBsUse=    77 1.00D-06 EigRej= -1.00D+00 NBFU=    77
 ExpMin= 1.83D-01 ExpMax= 2.43D+02 ExpMxC= 2.43D+02 IAcc=3 IRadAn=         5 AccDes= 0.00D+00
 Harris functional with IExCor=  205 and IRadAn=       5 diagonalized for initial guess.
 HarFok:  IExCor=  205 AccDes= 0.00D+00 IRadAn=         5 IDoV= 1 UseB2=F ITyADJ=14
 ICtDFT=  3500011 ScaDFX=  1.000000  1.000000  1.000000  1.000000
 FoFCou: FMM=F IPFlag=           0 FMFlag=      100000 FMFlg1=           0
         NFxFlg=           0 DoJE=T BraDBF=F KetDBF=T FulRan=T
         wScrn=  0.000000 ICntrl=       500 IOpCl=  0 I1Cent=   200000004 NGrid=           0
         NMat0=    1 NMatS0=      1 NMatT0=    0 NMatD0=    1 NMtDS0=    0 NMtDT0=    0
 Petite list used in FoFCou.
 Keep R1 ints in memory in canonical form, NReq=5343674.
 Requested convergence on RMS density matrix=1.00D-08 within 128 cycles.
 Requested convergence on MAX density matrix=1.00D-06.
 Requested convergence on             energy=1.00D-06.
 No special actions if energy rises.
 SCF Done:  E(RHF) =  -284.068642809     A.U. after   14 cycles
            NFock= 14  Conv=0.57D-08     -V/T= 2.0033

 **********************************************************************

            Population analysis using the SCF Density.

 **********************************************************************

 Orbital symmetries:
       Occupied  (A) (A) (A) (A) (A) (A) (A) (A) (A) (A) (A) (A)
                 (A) (A) (A) (A) (A) (A) (A) (A) (A) (A) (A) (A)
                 (A)
       Virtual   (A) (A) (A) (A) (A) (A) (A) (A) (A) (A) (A) (A)
                 (A) (A) (A) (A) (A) (A) (A) (A) (A) (A) (A) (A)
                 (A) (A) (A) (A) (A) (A) (A) (A) (A) (A) (A) (A)
                 (A) (A) (A) (A) (A) (A) (A) (A) (A) (A) (A) (A)
                 (A) (A) (A) (A)
 The electronic state is 1-A.
 Alpha  occ. eigenvalues --  -15.49474 -11.23981 -11.21534 -11.20120 -11.19878
 Alpha  occ. eigenvalues --  -11.18862 -11.17188  -1.26148  -1.10799  -1.03693
 Alpha  occ. eigenvalues --   -0.95930  -0.85637  -0.79387  -0.68653  -0.66752
 Alpha  occ. eigenvalues --   -0.65551  -0.61527  -0.58502  -0.57038  -0.55714
 Alpha  occ. eigenvalues --   -0.48345  -0.47994  -0.42256  -0.39946  -0.29309
 Alpha virt. eigenvalues --    0.08134   0.19429   0.26709   0.26794   0.28496
 Alpha virt. eigenvalues --    0.29965   0.32650   0.34934   0.35597   0.37855
 Alpha virt. eigenvalues --    0.39665   0.46466   0.50854   0.55071   0.56985
 Alpha virt. eigenvalues --    0.66750   0.74662   0.88861   0.91870   0.93351
 Alpha virt. eigenvalues --    0.97020   0.99272   1.03709   1.04210   1.07152
 Alpha virt. eigenvalues --    1.09498   1.10333   1.10374   1.11195   1.13461
 Alpha virt. eigenvalues --    1.16295   1.24986   1.28597   1.29317   1.30693
 Alpha virt. eigenvalues --    1.34156   1.37375   1.40370   1.52279   1.55281
 Alpha virt. eigenvalues --    1.56767   1.61332   1.65484   1.68088   1.75146
 Alpha virt. eigenvalues --    1.76582   1.84458   1.96602   2.06439   2.27894
 Alpha virt. eigenvalues --    2.49806   3.14319
     Molecular Orbital Coefficients:
                           1         2         3         4         5
                           O         O         O         O         O
     Eigenvalues --   -15.49474 -11.23981 -11.21534 -11.20120 -11.19878
   1 1   C  1S         -0.00032  -0.00193  -0.00730   0.98524   0.06154
   2        2S         -0.00144  -0.00074  -0.00149   0.10000   0.00377
   3        2PX        -0.00066   0.00078   0.00073  -0.00021   0.00076
   4        2PY         0.00048   0.00053  -0.00032  -0.00013   0.00084
   5        2PZ        -0.00000   0.00000   0.00000  -0.00000  -0.00000
   6        3S          0.02078   0.00136   0.00205  -0.09012   0.01786
   7        3PX        -0.00706  -0.00683  -0.00439   0.00372  -0.02028
   8        3PY        -0.00264   0.00010  -0.00202  -0.00022  -0.02207
   9        3PZ         0.00000   0.00000   0.00000   0.00000   0.00000
  10 2   C  1S          0.00041   0.00014  -0.00250  -0.01947  -0.00722
  11        2S          0.00203   0.00072  -0.00397  -0.00505  -0.00088
  12        2PX         0.00052   0.00042   0.00219  -0.00009  -0.00046
  13        2PY        -0.00098   0.00002  -0.00009   0.00089   0.00066
  14        2PZ         0.00000   0.00000   0.00000   0.00000  -0.00000
  15        3S         -0.01597  -0.01299   0.02808   0.02559  -0.00325
  16        3PX         0.00682   0.00645  -0.01599   0.00410   0.01074
  17        3PY         0.01732   0.00640   0.00071  -0.01441   0.00277
  18        3PZ         0.00001   0.00000  -0.00001  -0.00000   0.00000
  19 3   C  1S         -0.00039  -0.01002   0.98679   0.00725  -0.00094
  20        2S         -0.00131  -0.00348   0.09646   0.00026  -0.00018
  21        2PX        -0.00094  -0.00047   0.00063  -0.00072  -0.00019
  22        2PY        -0.00107   0.00158  -0.00128   0.00028  -0.00022
  23        2PZ        -0.00000  -0.00000  -0.00000   0.00000  -0.00000
  24        3S          0.02748   0.01078  -0.06510  -0.00434   0.00936
  25        3PX         0.00271   0.01072  -0.01459  -0.00066   0.00451
  26        3PY        -0.02230  -0.01008   0.00062   0.00308  -0.00145
  27        3PZ        -0.00000   0.00001  -0.00000  -0.00000   0.00000
  28 4   C  1S         -0.00003   0.98680   0.00934   0.00181   0.00291
  29        2S         -0.00091   0.09624  -0.00154   0.00011  -0.00233
  30        2PX        -0.00089   0.00057  -0.00054  -0.00066  -0.00011
  31        2PY         0.00111   0.00128  -0.00141  -0.00032  -0.00005
  32        2PZ        -0.00000   0.00000  -0.00000   0.00000   0.00000
  33        3S          0.02880  -0.05673   0.00609  -0.00518   0.02883
  34        3PX        -0.00111  -0.01202   0.00754  -0.00177   0.01775
  35        3PY         0.02200   0.00173   0.00850  -0.00129   0.00471
  36        3PZ        -0.00000  -0.00001   0.00000  -0.00000   0.00000
  37 5   C  1S          0.00049  -0.00340   0.00150  -0.06236   0.98627
  38        2S          0.00237  -0.00205   0.00117  -0.00884   0.10611
  39        2PX         0.00072   0.00070   0.00047   0.00032  -0.00044
  40        2PY         0.00019  -0.00025  -0.00020  -0.00061   0.00004
  41        2PZ         0.00000   0.00000   0.00000   0.00000  -0.00000
  42        3S         -0.01510   0.01629  -0.00971   0.02535  -0.10739
  43        3PX         0.00036  -0.01302   0.00245   0.00262   0.00467
  44        3PY        -0.01215   0.00057  -0.00438   0.01343  -0.01377
  45        3PZ         0.00000  -0.00001   0.00000  -0.00001   0.00001
  46 6   H  1S         -0.00154  -0.00046  -0.00109  -0.00048  -0.00086
  47        2S         -0.00534  -0.00208   0.00061   0.00172  -0.00215
  48 7   H  1S          0.00046   0.00114  -0.00177  -0.00028  -0.00010
  49        2S          0.00507   0.00547   0.00936   0.00021   0.00070
  50 8   H  1S          0.00015  -0.00164   0.00088  -0.00005  -0.00046
  51        2S          0.00370   0.00981   0.00473   0.00054   0.00287
  52 9   N  1S          0.98651   0.00015   0.00011  -0.00007   0.00018
  53        2S          0.10440   0.00034   0.00075  -0.00052   0.00107
  54        2PX         0.00538  -0.00038   0.00022  -0.00006   0.00017
  55        2PY        -0.00045   0.00043   0.00046  -0.00005   0.00040
  56        2PZ         0.00000  -0.00000   0.00000   0.00000  -0.00000
  57        3S         -0.08123   0.00060   0.00162   0.00348  -0.00626
  58        3PX        -0.02222  -0.00180  -0.00105   0.00121  -0.00519
  59        3PY         0.00263   0.00213  -0.00097   0.00042  -0.00018
  60        3PZ        -0.00001  -0.00000  -0.00000   0.00000  -0.00000
  61 10  C  1S          0.00006  -0.00054  -0.00119  -0.00037  -0.00362
  62        2S          0.00032  -0.00052  -0.00067  -0.00380  -0.00141
  63        2PX         0.00016  -0.00002   0.00012   0.00188   0.00042
  64        2PY         0.00013   0.00033  -0.00030  -0.00000   0.00038
  65        2PZ         0.00000  -0.00000  -0.00000  -0.00000  -0.00000
  66        3S         -0.00112   0.00497   0.00351   0.02355   0.01035
  67        3PX         0.00077  -0.00308  -0.00271  -0.01219  -0.00572
  68        3PY         0.00022  -0.00223   0.00271  -0.00009   0.00456
  69        3PZ        -0.00000   0.00000   0.00000   0.00001   0.00000
  70 11  H  1S          0.00040  -0.00116   0.00027  -0.00127   0.00167
  71        2S         -0.00109   0.00211  -0.00030   0.00183   0.01318
  72 12  H  1S          0.00040  -0.00116   0.00027  -0.00127   0.00167
  73        2S         -0.00109   0.00211  -0.00030   0.00184   0.01318
  74 13  H  1S          0.00004   0.00017  -0.00056  -0.00095  -0.00072
  75        2S          0.00015   0.00115  -0.00017   0.00004  -0.00060
  76 14  H  1S          0.00011  -0.00049   0.00026  -0.00092   0.00023
  77        2S          0.00011  -0.00016   0.00137   0.00008   0.00180
                           6         7         8         9        10
                           O         O         O         O         O
     Eigenvalues --   -11.18862 -11.17188  -1.26148  -1.10799  -1.03693
   1 1   C  1S          0.01923   0.00025  -0.03239  -0.15757  -0.00278
   2        2S         -0.00115  -0.00372   0.04070   0.17081   0.00350
   3        2PX         0.00110  -0.00274  -0.01926   0.01885   0.01084
   4        2PY        -0.00077   0.00004  -0.00110   0.00098  -0.08944
   5        2PZ        -0.00000   0.00000   0.00000  -0.00003  -0.00000
   6        3S          0.02428   0.02535  -0.00090   0.34150   0.00544
   7        3PX        -0.02162   0.01599   0.02959   0.01526   0.01338
   8        3PY         0.01397  -0.00048   0.01152   0.00869   0.01107
   9        3PZ         0.00000  -0.00001  -0.00001  -0.00001  -0.00000
  10 2   C  1S          0.98712   0.00557  -0.04461  -0.08919   0.12051
  11        2S          0.09966   0.00011   0.04462   0.09937  -0.13076
  12        2PX        -0.00086  -0.00092  -0.03188   0.02460   0.07503
  13        2PY        -0.00143   0.00014  -0.01986  -0.05159  -0.00096
  14        2PZ        -0.00000   0.00000  -0.00002  -0.00002   0.00004
  15        3S         -0.09186  -0.00244   0.11513   0.17967  -0.25614
  16        3PX         0.01179   0.00396  -0.02819  -0.01288  -0.01415
  17        3PY         0.02192   0.00005  -0.06078  -0.00364   0.01737
  18        3PZ         0.00001   0.00000  -0.00002  -0.00001   0.00001
  19 3   C  1S          0.00202   0.00100  -0.08788  -0.00880   0.12832
  20        2S         -0.00409  -0.00059   0.10234   0.01241  -0.14104
  21        2PX        -0.00194  -0.00020  -0.00859   0.06470  -0.06449
  22        2PY         0.00024   0.00005  -0.07475   0.02606   0.00250
  23        2PZ        -0.00000  -0.00000  -0.00001   0.00003  -0.00002
  24        3S          0.03647   0.00500   0.08366   0.00902  -0.29430
  25        3PX         0.01883   0.00345  -0.01337   0.00328  -0.04994
  26        3PY        -0.01112  -0.00164   0.04913  -0.00746  -0.00403
  27        3PZ         0.00001   0.00000  -0.00000   0.00000  -0.00002
  28 4   C  1S          0.00007   0.00040  -0.11349   0.01786  -0.10334
  29        2S         -0.00008  -0.00046   0.12863  -0.01552   0.11459
  30        2PX        -0.00040  -0.00024  -0.02924   0.07046   0.03076
  31        2PY         0.00023   0.00001   0.10440  -0.04893  -0.00466
  32        2PZ        -0.00000  -0.00000  -0.00002   0.00003   0.00001
  33        3S          0.00528   0.00308   0.12827  -0.04581   0.21430
  34        3PX         0.00409   0.00234   0.00146  -0.00871   0.03107
  35        3PY         0.00065   0.00134  -0.05001   0.00502  -0.01249
  36        3PZ         0.00000   0.00000   0.00001  -0.00000   0.00002
  37 5   C  1S          0.00619   0.00355  -0.04523  -0.09552  -0.11630
  38        2S          0.00089  -0.00004   0.03785   0.09095   0.10748
  39        2PX        -0.00026  -0.00079  -0.02709   0.03158  -0.03531
  40        2PY        -0.00097  -0.00032   0.02066   0.04647  -0.00433
  41        2PZ        -0.00000   0.00000  -0.00001  -0.00001  -0.00002
  42        3S         -0.00767  -0.00179   0.13417   0.26214   0.33306
  43        3PX         0.00506   0.00186  -0.00111  -0.00900   0.00589
  44        3PY        -0.00280   0.00042   0.04270   0.00267   0.00873
  45        3PZ         0.00001   0.00000  -0.00001  -0.00001  -0.00000
  46 6   H  1S         -0.00220  -0.00029   0.01489   0.03856  -0.05700
  47        2S          0.00540  -0.00068   0.01684   0.00343  -0.00854
  48 7   H  1S         -0.00010   0.00005   0.02205   0.00227  -0.06104
  49        2S          0.00452   0.00107  -0.02129  -0.00067  -0.01407
  50 8   H  1S         -0.00002   0.00005   0.02908  -0.00565   0.05615
  51        2S          0.00066   0.00085  -0.02001  -0.00245   0.01362
  52 9   N  1S          0.00023   0.00004  -0.17811   0.07503   0.00150
  53        2S          0.00133   0.00026   0.15513  -0.06853  -0.00062
  54        2PX         0.00006   0.00003   0.10006  -0.02271  -0.00445
  55        2PY        -0.00022  -0.00002  -0.03007   0.02158  -0.10547
  56        2PZ        -0.00000   0.00000   0.00006  -0.00002  -0.00000
  57        3S         -0.00817  -0.00174   0.57075  -0.24576  -0.00146
  58        3PX        -0.00518  -0.00134   0.13179  -0.03311  -0.00348
  59        3PY        -0.00182   0.00009  -0.01765   0.01321  -0.07679
  60        3PZ        -0.00000  -0.00000   0.00007  -0.00002  -0.00000
  61 10  C  1S         -0.00568   0.98682  -0.00921  -0.09721  -0.00618
  62        2S         -0.00142   0.09646   0.01124   0.10975   0.00686
  63        2PX         0.00026  -0.00032  -0.01094  -0.08271  -0.00356
  64        2PY        -0.00015  -0.00001  -0.00052  -0.00192  -0.01673
  65        2PZ         0.00000   0.00000   0.00000   0.00004   0.00000
  66        3S          0.00956  -0.07015   0.00466   0.17560   0.00783
  67        3PX        -0.00437   0.00933   0.00561   0.00171   0.00264
  68        3PY        -0.00328   0.00020  -0.00161  -0.00324  -0.00790
  69        3PZ         0.00000  -0.00001  -0.00000  -0.00000  -0.00000
  70 11  H  1S          0.00018  -0.00018   0.01333   0.04068   0.05773
  71        2S         -0.00017   0.00019  -0.00467  -0.00713  -0.00062
  72 12  H  1S          0.00018  -0.00018   0.01333   0.04068   0.05773
  73        2S         -0.00018   0.00019  -0.00467  -0.00714  -0.00063
  74 13  H  1S          0.00020  -0.00116   0.00326   0.03873  -0.00195
  75        2S          0.00082   0.01162  -0.00165  -0.00035  -0.00264
  76 14  H  1S         -0.00053  -0.00115   0.00304   0.03893   0.00795
  77        2S         -0.00051   0.01165  -0.00232  -0.00231   0.00258
                          11        12        13        14        15
                           O         O         O         O         O
     Eigenvalues --    -0.95930  -0.85637  -0.79387  -0.68653  -0.66752
   1 1   C  1S         -0.05263  -0.01449  -0.09389   0.04751   0.00585
   2        2S          0.05376   0.01461   0.09526  -0.04823  -0.00435
   3        2PX         0.17454  -0.04506  -0.11324  -0.11126  -0.05118
   4        2PY         0.02582   0.14171   0.00083  -0.04581   0.19543
   5        2PZ        -0.00008   0.00002   0.00006   0.00001   0.00005
   6        3S          0.15398   0.05417   0.31229  -0.18152  -0.02347
   7        3PX         0.01895  -0.02730  -0.09086  -0.07408  -0.03645
   8        3PY        -0.00227   0.06421  -0.00296  -0.03112   0.14275
   9        3PZ        -0.00002   0.00002   0.00003   0.00001   0.00003
  10 2   C  1S          0.06360  -0.10095   0.01103  -0.00251   0.01133
  11        2S         -0.06816   0.10356  -0.00975   0.00664  -0.00943
  12        2PX         0.08387   0.07604   0.11010  -0.16353   0.15202
  13        2PY        -0.00629  -0.01089  -0.13238  -0.07559  -0.11858
  14        2PZ         0.00001   0.00002   0.00001  -0.00006   0.00001
  15        3S         -0.16337   0.32725  -0.05463  -0.01552  -0.06936
  16        3PX         0.02161  -0.00184   0.04166  -0.08402   0.08433
  17        3PY         0.01133  -0.00107  -0.04547  -0.06829  -0.06702
  18        3PZ         0.00001  -0.00001   0.00001  -0.00005   0.00001
  19 3   C  1S          0.05205   0.08858   0.06402   0.00786   0.00399
  20        2S         -0.05773  -0.09101  -0.06990  -0.00191  -0.00624
  21        2PX        -0.08616   0.14322  -0.05088   0.18911  -0.15682
  22        2PY        -0.03643   0.03988  -0.11599  -0.10467  -0.13574
  23        2PZ        -0.00004   0.00007  -0.00003   0.00008  -0.00009
  24        3S         -0.13153  -0.27584  -0.19584  -0.05407  -0.00721
  25        3PX        -0.03507   0.00244  -0.01131   0.13099  -0.05165
  26        3PY        -0.00268   0.00622  -0.06387  -0.08096  -0.07435
  27        3PZ        -0.00002   0.00001  -0.00001   0.00006  -0.00003
  28 4   C  1S          0.01945  -0.09693   0.07326   0.00352  -0.01408
  29        2S         -0.02423   0.10442  -0.07753   0.00164   0.00929
  30        2PX        -0.11052  -0.09388  -0.01100   0.09481   0.19826
  31        2PY         0.07051   0.01826   0.13073   0.14550  -0.12752
  32        2PZ        -0.00005  -0.00003  -0.00003   0.00000   0.00014
  33        3S         -0.03971   0.29941  -0.23838  -0.03727   0.07059
  34        3PX        -0.02150   0.03066  -0.01151   0.09676   0.09910
  35        3PY         0.01504  -0.00757   0.08260   0.10316  -0.05845
  36        3PZ        -0.00001   0.00002  -0.00002   0.00001   0.00007
  37 5   C  1S          0.10418   0.07328   0.00116  -0.00074   0.00409
  38        2S         -0.09327  -0.06029   0.00131   0.00548  -0.00557
  39        2PX         0.04913  -0.07452   0.09526  -0.05581  -0.20230
  40        2PY         0.01269   0.01887   0.11405   0.07718  -0.03303
  41        2PZ        -0.00001  -0.00000   0.00002  -0.00003   0.00010
  42        3S         -0.35237  -0.30302  -0.02059  -0.01949  -0.00258
  43        3PX         0.02446   0.00099   0.03849  -0.02203  -0.12973
  44        3PY        -0.00947   0.00160   0.04685   0.05646  -0.00813
  45        3PZ         0.00000   0.00001   0.00001  -0.00003   0.00009
  46 6   H  1S         -0.02522   0.08374  -0.03965  -0.08103  -0.02246
  47        2S         -0.00415   0.03702  -0.02961  -0.05110  -0.01240
  48 7   H  1S         -0.02695  -0.08250  -0.08237  -0.11335  -0.01841
  49        2S         -0.00925  -0.04333  -0.03564  -0.06922  -0.00683
  50 8   H  1S         -0.01477   0.08547  -0.10912  -0.10001   0.01429
  51        2S         -0.00272   0.04543  -0.05209  -0.05748   0.00803
  52 9   N  1S         -0.06759   0.02606  -0.04426   0.03105   0.00823
  53        2S          0.06276  -0.02039   0.04121  -0.02956  -0.01174
  54        2PX         0.00137  -0.00180   0.02617   0.13518   0.03062
  55        2PY        -0.03309  -0.21054   0.01787  -0.05548   0.21504
  56        2PZ         0.00000   0.00000   0.00001   0.00005   0.00003
  57        3S          0.23713  -0.10159   0.16979  -0.11588  -0.02035
  58        3PX         0.01901  -0.01651   0.03127   0.10433   0.02895
  59        3PY        -0.02104  -0.16228   0.01782  -0.04493   0.17634
  60        3PZ         0.00001  -0.00001   0.00001   0.00004   0.00003
  61 10  C  1S         -0.14706   0.02767   0.09571  -0.04592  -0.01166
  62        2S          0.15591  -0.02924  -0.09776   0.03972   0.00929
  63        2PX        -0.05794  -0.00682  -0.09484   0.18889   0.05488
  64        2PY         0.00440   0.04434  -0.00201  -0.03284   0.15618
  65        2PZ         0.00003   0.00000   0.00005  -0.00012  -0.00002
  66        3S          0.37851  -0.07608  -0.28756   0.20255   0.05564
  67        3PX        -0.02141  -0.00560  -0.04992   0.09388   0.02736
  68        3PY         0.00540   0.02338   0.00043  -0.02094   0.09219
  69        3PZ         0.00002   0.00000   0.00003  -0.00007  -0.00000
  70 11  H  1S         -0.05370  -0.05658  -0.02019  -0.03238  -0.02655
  71        2S         -0.00766  -0.02390  -0.01584  -0.02315  -0.01949
  72 12  H  1S         -0.05372  -0.05655  -0.02018  -0.03238  -0.02638
  73        2S         -0.00767  -0.02389  -0.01583  -0.02314  -0.01937
  74 13  H  1S          0.08063  -0.00362  -0.09880   0.07784   0.10667
  75        2S          0.01804   0.00397  -0.05142   0.05323   0.08350
  76 14  H  1S          0.07755  -0.03884  -0.09805   0.11420  -0.05267
  77        2S          0.01870  -0.01950  -0.05023   0.08200  -0.04417
                          16        17        18        19        20
                           O         O         O         O         O
     Eigenvalues --    -0.65551  -0.61527  -0.58502  -0.57038  -0.55714
   1 1   C  1S          0.06573  -0.00004  -0.00579   0.00905  -0.00770
   2        2S         -0.06774   0.00003   0.00734  -0.00254   0.00685
   3        2PX        -0.01552  -0.00006   0.02867   0.30752  -0.07617
   4        2PY         0.04763  -0.00010  -0.06578   0.03107   0.03020
   5        2PZ         0.00011   0.11708   0.00000  -0.00013  -0.00002
   6        3S         -0.23611   0.00015   0.01817  -0.02861   0.02022
   7        3PX        -0.00449  -0.00004   0.01627   0.27227  -0.03588
   8        3PY         0.04207  -0.00009  -0.05641   0.02176  -0.01103
   9        3PZ         0.00007   0.07986  -0.00000  -0.00012  -0.00002
  10 2   C  1S         -0.05557   0.00002   0.03046   0.01405   0.02186
  11        2S          0.05260  -0.00002  -0.03353  -0.01225  -0.02163
  12        2PX         0.13764  -0.00012   0.08768  -0.14084  -0.08792
  13        2PY         0.15588  -0.00010   0.14324   0.05671  -0.11796
  14        2PZ         0.00014   0.06113   0.00008  -0.00006  -0.00015
  15        3S          0.22976  -0.00009  -0.08402  -0.05752  -0.06201
  16        3PX         0.09527  -0.00007   0.07372  -0.10275  -0.08014
  17        3PY         0.13007  -0.00009   0.10356   0.00947  -0.13603
  18        3PZ         0.00010   0.05401   0.00007  -0.00004  -0.00014
  19 3   C  1S          0.05673  -0.00003  -0.00001  -0.02135  -0.01703
  20        2S         -0.06213   0.00003  -0.00172   0.02831   0.01948
  21        2PX        -0.01563   0.00001  -0.12364   0.14124   0.04878
  22        2PY        -0.05386   0.00009   0.19204  -0.08868   0.13405
  23        2PZ         0.00003   0.06095  -0.00003   0.00007  -0.00004
  24        3S         -0.19696   0.00011   0.04434   0.03096   0.05527
  25        3PX        -0.01248  -0.00002  -0.08258   0.12037  -0.01326
  26        3PY        -0.04807   0.00006   0.16561  -0.07418   0.12571
  27        3PZ         0.00002   0.05541  -0.00002   0.00005  -0.00006
  28 4   C  1S          0.05770   0.00000  -0.03291  -0.01082   0.01751
  29        2S         -0.05972  -0.00000   0.03939   0.01407  -0.01428
  30        2PX         0.00987  -0.00024   0.16425   0.07626  -0.12778
  31        2PY         0.12593  -0.00002   0.19862   0.06837   0.08003
  32        2PZ         0.00001   0.12698   0.00002   0.00009  -0.00012
  33        3S         -0.23581   0.00002   0.07910   0.00472  -0.08416
  34        3PX        -0.00867  -0.00017   0.16127   0.08569  -0.08568
  35        3PY         0.09313  -0.00004   0.17103   0.05194   0.05324
  36        3PZ         0.00000   0.09858   0.00003   0.00008  -0.00010
  37 5   C  1S         -0.05245   0.00001  -0.01159   0.00745  -0.01944
  38        2S          0.03897  -0.00001   0.01541  -0.00864   0.01461
  39        2PX         0.06193   0.00005  -0.13289  -0.06706   0.11674
  40        2PY        -0.15403   0.00017   0.15781  -0.14670  -0.03374
  41        2PZ         0.00018   0.32503   0.00000   0.00016   0.00002
  42        3S          0.26014  -0.00008  -0.00111  -0.01167   0.08934
  43        3PX         0.04154  -0.00000  -0.09570  -0.05340   0.07928
  44        3PY        -0.11084   0.00013   0.12470  -0.10217  -0.04188
  45        3PZ         0.00014   0.29745   0.00003   0.00017   0.00000
  46 6   H  1S          0.17731  -0.00010   0.08295  -0.02778  -0.12177
  47        2S          0.11871  -0.00008   0.07298  -0.01550  -0.08354
  48 7   H  1S         -0.07711   0.00006   0.15279  -0.07982   0.07914
  49        2S         -0.04557   0.00004   0.11497  -0.06162   0.04981
  50 8   H  1S         -0.12381   0.00009  -0.13802  -0.05320  -0.01972
  51        2S         -0.08480   0.00006  -0.10191  -0.03846  -0.01469
  52 9   N  1S         -0.05648   0.00001   0.02674   0.02130  -0.00012
  53        2S          0.05174  -0.00001  -0.02285  -0.02332   0.00337
  54        2PX        -0.00636  -0.00012   0.07468   0.14691  -0.05110
  55        2PY        -0.01177  -0.00008  -0.10223  -0.01105  -0.14562
  56        2PZ         0.00002   0.09607   0.00003   0.00012  -0.00009
  57        3S          0.22761  -0.00005  -0.11778  -0.07608  -0.00548
  58        3PX        -0.00040  -0.00011   0.05916   0.13727  -0.04653
  59        3PY        -0.00827  -0.00007  -0.09581  -0.00938  -0.12832
  60        3PZ         0.00002   0.09707   0.00003   0.00012  -0.00009
  61 10  C  1S         -0.00344  -0.00001  -0.00156  -0.01268   0.00194
  62        2S          0.00009   0.00001   0.00273   0.02560  -0.00361
  63        2PX         0.11022   0.00009  -0.03602  -0.28046   0.05793
  64        2PY         0.05215  -0.00008   0.04150   0.08351   0.28214
  65        2PZ        -0.00002   0.05369   0.00003   0.00016  -0.00006
  66        3S          0.03729   0.00006   0.00001  -0.06075  -0.00080
  67        3PX         0.04993   0.00008  -0.02182  -0.14780   0.04345
  68        3PY         0.03353  -0.00005   0.04635   0.07096   0.26033
  69        3PZ         0.00001   0.05072   0.00003   0.00009  -0.00005
  70 11  H  1S          0.09972  -0.17370  -0.07209   0.03450   0.04994
  71        2S          0.07389  -0.13670  -0.07339   0.03201   0.04124
  72 12  H  1S          0.09982   0.17368  -0.07197   0.03467   0.04991
  73        2S          0.07397   0.13670  -0.07330   0.03215   0.04122
  74 13  H  1S          0.06926  -0.00001   0.01666  -0.03712   0.18847
  75        2S          0.06287  -0.00002   0.01177  -0.04607   0.15345
  76 14  H  1S          0.01533   0.00007  -0.03954  -0.13943  -0.14873
  77        2S          0.01832   0.00006  -0.03526  -0.13123  -0.12134
                          21        22        23        24        25
                           O         O         O         O         O
     Eigenvalues --    -0.48345  -0.47994  -0.42256  -0.39946  -0.29309
   1 1   C  1S         -0.00001   0.00052  -0.00001  -0.00340   0.00000
   2        2S          0.00000   0.00194   0.00001   0.00024   0.00000
   3        2PX        -0.00001  -0.00082   0.00012  -0.05014   0.00005
   4        2PY        -0.00151   0.26463   0.00004  -0.01838  -0.00003
   5        2PZ         0.02758   0.00013   0.26088  -0.00011   0.15209
   6        3S         -0.00000  -0.00615   0.00002  -0.00326  -0.00009
   7        3PX        -0.00019   0.02993   0.00007  -0.15043   0.00011
   8        3PY        -0.00158   0.27816   0.00005  -0.03917  -0.00005
   9        3PZ         0.04536   0.00023   0.28748  -0.00013   0.22468
  10 2   C  1S          0.00008  -0.01200   0.00002   0.02104  -0.00001
  11        2S         -0.00008   0.01117  -0.00001  -0.01845   0.00001
  12        2PX        -0.00052   0.08698  -0.00001   0.13505   0.00002
  13        2PY         0.00111  -0.20678  -0.00012   0.01388   0.00007
  14        2PZ         0.15822   0.00082   0.18789  -0.00015  -0.21215
  15        3S         -0.00024   0.03660  -0.00018  -0.19411   0.00003
  16        3PX         0.00004  -0.01278   0.00002   0.20178   0.00008
  17        3PY         0.00112  -0.21124  -0.00015   0.02737   0.00004
  18        3PZ         0.15874   0.00082   0.20171  -0.00016  -0.28840
  19 3   C  1S         -0.00001  -0.00167  -0.00004  -0.02612   0.00001
  20        2S         -0.00000   0.00359   0.00004   0.02461  -0.00001
  21        2PX         0.00019  -0.05648  -0.00009  -0.15432   0.00017
  22        2PY        -0.00074   0.12472  -0.00004  -0.07474   0.00003
  23        2PZ         0.22481   0.00127   0.06628  -0.00023  -0.22185
  24        3S          0.00015  -0.01802   0.00021   0.16086  -0.00003
  25        3PX         0.00041  -0.09014   0.00003   0.03729   0.00017
  26        3PY        -0.00089   0.15352   0.00000  -0.02671   0.00005
  27        3PZ         0.23973   0.00135   0.06225  -0.00016  -0.27375
  28 4   C  1S          0.00003  -0.00607  -0.00003  -0.01888  -0.00001
  29        2S         -0.00004   0.00834   0.00003   0.02552   0.00001
  30        2PX        -0.00015   0.01250  -0.00001  -0.17461   0.00002
  31        2PY        -0.00068   0.12899  -0.00001   0.02864   0.00003
  32        2PZ         0.14730   0.00087  -0.17469   0.00006   0.16525
  33        3S          0.00000   0.00181   0.00013   0.06832   0.00006
  34        3PX        -0.00043   0.06211   0.00013  -0.02034  -0.00003
  35        3PY        -0.00062   0.11356  -0.00006  -0.05383   0.00006
  36        3PZ         0.18196   0.00110  -0.20007   0.00014   0.22355
  37 5   C  1S         -0.00009   0.01525   0.00003   0.02384  -0.00002
  38        2S          0.00010  -0.01771  -0.00002  -0.01202   0.00002
  39        2PX         0.00048  -0.07034   0.00010   0.18393  -0.00002
  40        2PY         0.00121  -0.21654  -0.00009  -0.01849   0.00003
  41        2PZ        -0.15898  -0.00088  -0.04877   0.00009  -0.07030
  42        3S          0.00013  -0.02179  -0.00020  -0.21064   0.00013
  43        3PX         0.00018  -0.01570   0.00016   0.23115   0.00002
  44        3PY         0.00106  -0.18841  -0.00009  -0.03493   0.00000
  45        3PZ        -0.16784  -0.00094  -0.05639   0.00010  -0.11896
  46 6   H  1S          0.00059  -0.10546  -0.00005   0.04989  -0.00002
  47        2S          0.00050  -0.09043  -0.00003   0.05565   0.00001
  48 7   H  1S         -0.00063   0.11505   0.00006   0.06199  -0.00003
  49        2S         -0.00048   0.09114   0.00007   0.08330  -0.00005
  50 8   H  1S          0.00051  -0.08790   0.00006   0.11222  -0.00003
  51        2S          0.00043  -0.07611   0.00009   0.13956  -0.00006
  52 9   N  1S         -0.00004   0.01176   0.00006   0.07445  -0.00001
  53        2S          0.00003  -0.00951  -0.00006  -0.07332   0.00001
  54        2PX        -0.00024   0.03421   0.00037   0.39319  -0.00014
  55        2PY         0.00070  -0.12575  -0.00002   0.00531   0.00001
  56        2PZ         0.26771   0.00161  -0.16788   0.00024   0.12925
  57        3S          0.00015  -0.04614  -0.00024  -0.29352   0.00007
  58        3PX        -0.00026   0.03731   0.00043   0.47928  -0.00019
  59        3PY         0.00073  -0.12874  -0.00003   0.00991   0.00002
  60        3PZ         0.29050   0.00176  -0.19908   0.00030   0.18000
  61 10  C  1S          0.00001  -0.00076   0.00000   0.01500   0.00002
  62        2S         -0.00002   0.00141  -0.00000  -0.01846  -0.00002
  63        2PX         0.00003  -0.00115   0.00011   0.05233   0.00017
  64        2PY         0.00097  -0.14761   0.00002   0.01054   0.00000
  65        2PZ         0.01797   0.00008   0.21339  -0.00015   0.24902
  66        3S          0.00011  -0.01624   0.00005   0.01960  -0.00006
  67        3PX        -0.00007   0.01035   0.00011   0.00404   0.00018
  68        3PY         0.00119  -0.18913   0.00001   0.01927   0.00001
  69        3PZ         0.01064   0.00002   0.23523  -0.00012   0.31941
  70 11  H  1S          0.10397   0.06608   0.03617   0.03136   0.06767
  71        2S          0.11142   0.07989   0.03444   0.04668   0.08299
  72 12  H  1S         -0.10472   0.06485  -0.03614   0.03139  -0.06773
  73        2S         -0.11232   0.07855  -0.03439   0.04670  -0.08316
  74 13  H  1S          0.00071  -0.11056   0.00001   0.01799   0.00001
  75        2S          0.00068  -0.10555   0.00001   0.02562   0.00003
  76 14  H  1S         -0.00070   0.10959  -0.00001   0.00177   0.00000
  77        2S         -0.00064   0.10178  -0.00002   0.01263   0.00003
                          26        27        28        29        30
                           V         V         V         V         V
     Eigenvalues --     0.08134   0.19429   0.26709   0.26794   0.28496
   1 1   C  1S          0.00000  -0.00000   0.00005  -0.00684   0.00404
   2        2S         -0.00000   0.00001  -0.00024   0.01878   0.02071
   3        2PX         0.00008   0.00013  -0.00014   0.00578   0.00920
   4        2PY        -0.00003  -0.00001   0.00002  -0.01719  -0.07090
   5        2PZ         0.12065   0.26299  -0.11629  -0.00123   0.00001
   6        3S         -0.00005  -0.00011  -0.00032   0.13049  -0.32573
   7        3PX         0.00011   0.00039  -0.00152   0.13165   0.03981
   8        3PY        -0.00008  -0.00005  -0.00013  -0.00852  -0.06323
   9        3PZ         0.20716   0.60843  -0.19175  -0.00226   0.00004
  10 2   C  1S         -0.00001  -0.00002   0.00047  -0.04822   0.03058
  11        2S         -0.00000  -0.00000  -0.00025   0.02870  -0.00718
  12        2PX        -0.00008   0.00003  -0.00082   0.07298  -0.05493
  13        2PY        -0.00006   0.00009  -0.00054   0.03547  -0.18261
  14        2PZ         0.19100  -0.07893   0.22936   0.00232  -0.00009
  15        3S          0.00008   0.00037  -0.00550   0.53916  -0.50969
  16        3PX        -0.00008   0.00021  -0.00294   0.24062  -0.23076
  17        3PY        -0.00013   0.00015  -0.00222   0.19371  -0.70534
  18        3PZ         0.38508  -0.23532   0.56387   0.00579  -0.00046
  19 3   C  1S          0.00001  -0.00004   0.00034  -0.02739   0.01889
  20        2S         -0.00001   0.00005  -0.00022   0.01822  -0.00142
  21        2PX         0.00013   0.00006   0.00053  -0.04601   0.05128
  22        2PY         0.00004   0.00001  -0.00043   0.02986  -0.11813
  23        2PZ        -0.21157  -0.08492  -0.23288  -0.00224   0.00004
  24        3S         -0.00004   0.00026  -0.00406   0.32340  -0.36903
  25        3PX         0.00025   0.00001   0.00148  -0.12019   0.14444
  26        3PY         0.00007   0.00018  -0.00193   0.13983  -0.30511
  27        3PZ        -0.40769  -0.11291  -0.58181  -0.00569   0.00021
  28 4   C  1S         -0.00001  -0.00005   0.00045  -0.04049  -0.03323
  29        2S          0.00001   0.00006  -0.00048   0.04675   0.01824
  30        2PX        -0.00004   0.00012   0.00039  -0.04837  -0.00284
  31        2PY         0.00005  -0.00008   0.00081  -0.08294  -0.08576
  32        2PZ         0.23572  -0.22675  -0.09113  -0.00077  -0.00001
  33        3S          0.00001   0.00036  -0.00443   0.38488   0.45459
  34        3PX        -0.00013   0.00015   0.00144  -0.17425  -0.05404
  35        3PY         0.00005  -0.00045   0.00378  -0.38169  -0.31073
  36        3PZ         0.41528  -0.48620  -0.09691  -0.00060  -0.00005
  37 5   C  1S          0.00002  -0.00002   0.00104  -0.10263  -0.00672
  38        2S         -0.00001   0.00000  -0.00032   0.02977  -0.01794
  39        2PX        -0.00002   0.00000  -0.00096   0.09234   0.00914
  40        2PY        -0.00003  -0.00001   0.00115  -0.13680  -0.12351
  41        2PZ        -0.00623   0.04037  -0.14088  -0.00141   0.00013
  42        3S         -0.00014   0.00030  -0.01353   1.35487   0.31941
  43        3PX        -0.00014   0.00007  -0.00379   0.34210   0.20025
  44        3PY         0.00004   0.00011   0.00440  -0.51987  -0.32872
  45        3PZ         0.08638   0.13365  -0.75103  -0.00745   0.00052
  46 6   H  1S         -0.00001  -0.00005   0.00036  -0.02533   0.02304
  47        2S         -0.00008  -0.00045   0.00696  -0.63804   1.11037
  48 7   H  1S          0.00002  -0.00004   0.00023  -0.01441   0.03326
  49        2S          0.00006  -0.00038   0.00488  -0.39270   0.66582
  50 8   H  1S         -0.00001  -0.00005   0.00007  -0.00998  -0.02561
  51        2S         -0.00005  -0.00050   0.00697  -0.70658  -0.59009
  52 9   N  1S         -0.00001  -0.00000   0.00007  -0.00687   0.00977
  53        2S          0.00001  -0.00001  -0.00001   0.00195  -0.01173
  54        2PX         0.00004  -0.00008  -0.00056   0.04859  -0.03795
  55        2PY        -0.00001   0.00002   0.00006  -0.01168  -0.03922
  56        2PZ        -0.12720   0.23025   0.19964   0.00185  -0.00002
  57        3S          0.00009   0.00016  -0.00110   0.09849  -0.03228
  58        3PX         0.00007  -0.00009  -0.00168   0.15263  -0.06285
  59        3PY        -0.00000   0.00001   0.00033  -0.04615  -0.06883
  60        3PZ        -0.21220   0.45818   0.37714   0.00349  -0.00005
  61 10  C  1S         -0.00002   0.00001  -0.00002  -0.01391   0.05010
  62        2S          0.00002  -0.00001  -0.00001   0.01107  -0.01834
  63        2PX        -0.00014  -0.00008  -0.00062   0.07511  -0.08157
  64        2PY         0.00003   0.00000   0.00001  -0.01827  -0.11728
  65        2PZ        -0.18425  -0.20487   0.01434   0.00012   0.00000
  66        3S          0.00013  -0.00008   0.00003   0.17539  -0.63572
  67        3PX        -0.00025  -0.00022  -0.00267   0.37726  -0.41496
  68        3PY        -0.00002   0.00006  -0.00019  -0.05718  -0.49068
  69        3PZ        -0.37275  -0.53838   0.13041   0.00122   0.00014
  70 11  H  1S          0.07495   0.00002  -0.08144  -0.02185  -0.02505
  71        2S          0.26211   0.15237  -0.80732  -1.01406  -0.40100
  72 12  H  1S         -0.07496  -0.00009   0.08193  -0.02024  -0.02507
  73        2S         -0.26202  -0.15281   0.82721  -0.99727  -0.40162
  74 13  H  1S          0.00003   0.00000  -0.00004   0.00425   0.02529
  75        2S          0.00002  -0.00004   0.00163  -0.22308   1.04764
  76 14  H  1S         -0.00004   0.00001  -0.00012   0.00530   0.00027
  77        2S         -0.00009   0.00004   0.00155  -0.37862   0.02101
                          31        32        33        34        35
                           V         V         V         V         V
     Eigenvalues --     0.29965   0.32650   0.34934   0.35597   0.37855
   1 1   C  1S         -0.00585   0.01468  -0.00781   0.03929   0.00012
   2        2S         -0.02046   0.01030  -0.00671  -0.02892  -0.00005
   3        2PX        -0.04091   0.05666   0.03441   0.06693   0.00005
   4        2PY        -0.03488   0.07261  -0.08288  -0.01431  -0.00011
   5        2PZ         0.00023  -0.00011   0.00018  -0.00005  -0.19185
   6        3S          0.49636  -0.24046   0.22231  -0.36892  -0.00145
   7        3PX        -0.23749  -0.02277  -0.03898   0.02050  -0.00031
   8        3PY        -0.05970   0.12488  -0.22512   0.03560  -0.00044
   9        3PZ         0.00049  -0.00023   0.00063  -0.00008  -0.69542
  10 2   C  1S          0.00449   0.02163  -0.08495  -0.06741  -0.00019
  11        2S          0.01122  -0.00180   0.04726   0.04473   0.00008
  12        2PX        -0.02451  -0.02056   0.07797   0.00838   0.00014
  13        2PY        -0.04524   0.00561   0.04886   0.06217   0.00007
  14        2PZ        -0.00035   0.00023  -0.00010   0.00005   0.13237
  15        3S         -0.22548  -0.35508   1.00313   0.70646   0.00264
  16        3PX        -0.24782   0.14949   0.31232   0.23310   0.00072
  17        3PY         0.08612   0.02508   0.38054   0.63820   0.00048
  18        3PZ        -0.00093   0.00062  -0.00033   0.00027   0.45388
  19 3   C  1S          0.06592   0.01125   0.04153   0.09209   0.00000
  20        2S         -0.03508  -0.00544  -0.03725  -0.05129  -0.00005
  21        2PX         0.04186   0.07911  -0.00482   0.11389  -0.00016
  22        2PY        -0.08189   0.01710   0.08070  -0.14119   0.00004
  23        2PZ         0.00029  -0.00015   0.00017   0.00004  -0.12208
  24        3S         -0.82655   0.01192  -0.24636  -1.10019   0.00044
  25        3PX         0.21392   0.30290  -0.06118   0.47989  -0.00059
  26        3PY        -0.40794   0.04735   0.06094  -0.91187  -0.00038
  27        3PZ         0.00082  -0.00038   0.00041   0.00018  -0.35258
  28 4   C  1S          0.07194   0.07802   0.01357  -0.05075  -0.00002
  29        2S         -0.02988  -0.02614  -0.00331   0.00834   0.00001
  30        2PX         0.00439   0.09348   0.14443   0.03615   0.00005
  31        2PY         0.05626   0.11537   0.08753  -0.08179   0.00013
  32        2PZ         0.00003  -0.00009   0.00012   0.00002  -0.08371
  33        3S         -0.88650  -0.94023  -0.22916   0.88550   0.00012
  34        3PX         0.05443   0.33029   0.68547   0.12648   0.00030
  35        3PY         0.31469   0.66064   0.27659  -0.31497   0.00059
  36        3PZ        -0.00017  -0.00021   0.00065   0.00014  -0.47012
  37 5   C  1S         -0.02566  -0.09538   0.05171   0.01622  -0.00000
  38        2S          0.01180   0.04468  -0.00358   0.00354   0.00000
  39        2PX        -0.02744   0.01821  -0.01407   0.08975  -0.00010
  40        2PY        -0.07669  -0.01691  -0.02650   0.05951   0.00009
  41        2PZ         0.00025  -0.00003  -0.00033  -0.00005   0.31586
  42        3S          0.30737   1.13271  -0.80637  -0.31292  -0.00006
  43        3PX        -0.28773   0.23364   0.15189   0.51177  -0.00029
  44        3PY        -0.47238  -0.39911  -0.27929   0.30266   0.00028
  45        3PZ         0.00127  -0.00015  -0.00127  -0.00015   1.31356
  46 6   H  1S          0.04336  -0.03272  -0.04082  -0.01611   0.00004
  47        2S          0.29051  -0.00074  -1.04004  -0.99996  -0.00215
  48 7   H  1S          0.03417   0.00525   0.01432   0.01401   0.00006
  49        2S          0.92694   0.18858   0.03393   1.62328  -0.00036
  50 8   H  1S          0.02187   0.04779  -0.00561   0.01645  -0.00000
  51        2S          0.72055   1.29518   0.79039  -0.55317   0.00063
  52 9   N  1S         -0.02150  -0.02309  -0.03215  -0.00295   0.00008
  53        2S          0.01738   0.01944   0.02088   0.01196   0.00000
  54        2PX         0.03013   0.01605   0.03274   0.00206  -0.00011
  55        2PY        -0.01942  -0.01069   0.02459   0.07606  -0.00001
  56        2PZ        -0.00015   0.00018  -0.00012   0.00001   0.12930
  57        3S          0.13336   0.13952   0.28614  -0.06203  -0.00110
  58        3PX         0.00500  -0.05840   0.00091  -0.11256  -0.00047
  59        3PY        -0.03953   0.00356  -0.04182   0.15920  -0.00014
  60        3PZ        -0.00028   0.00036  -0.00031  -0.00006   0.32249
  61 10  C  1S         -0.10486   0.05689   0.04580   0.00859  -0.00001
  62        2S          0.05264  -0.01267  -0.02151  -0.00815   0.00003
  63        2PX         0.08735  -0.09399  -0.02133  -0.00611  -0.00010
  64        2PY        -0.06226   0.09749  -0.19025   0.12663  -0.00022
  65        2PZ        -0.00008   0.00001  -0.00008   0.00002   0.10100
  66        3S          1.30449  -0.70351  -0.53802  -0.03614   0.00013
  67        3PX         0.50970  -0.40163  -0.09265  -0.09073  -0.00041
  68        3PY        -0.22652   0.50580  -0.92116   0.42865  -0.00119
  69        3PZ        -0.00052   0.00028  -0.00030   0.00009   0.36808
  70 11  H  1S          0.01344  -0.01962  -0.02861  -0.00708  -0.03178
  71        2S         -0.27723  -0.70879   0.06536   0.11389   1.15520
  72 12  H  1S          0.01320  -0.01948  -0.02863  -0.00705   0.03180
  73        2S         -0.27993  -0.70795   0.06796   0.11442  -1.15526
  74 13  H  1S         -0.02349  -0.01700   0.06446   0.02724   0.00012
  75        2S         -0.65328   0.03115   1.33165  -0.37117   0.00159
  76 14  H  1S         -0.02234   0.05646  -0.04272  -0.02160  -0.00010
  77        2S         -1.15451   1.12171  -0.65291   0.51643  -0.00102
                          36        37        38        39        40
                           V         V         V         V         V
     Eigenvalues --     0.39665   0.46466   0.50854   0.55071   0.56985
   1 1   C  1S         -0.14547   0.02152   0.00755  -0.08674  -0.05970
   2        2S          0.04615   0.00355   0.00413   0.01004   0.00237
   3        2PX        -0.11198  -0.07162   0.04409   0.10090   0.23926
   4        2PY        -0.03359   0.08727   0.28076   0.06836  -0.02987
   5        2PZ        -0.00014  -0.00010  -0.00007   0.00007  -0.00019
   6        3S          2.20366  -0.62212  -0.02672   2.29371   1.82799
   7        3PX        -0.44208  -0.41732   0.81063   0.78835   3.00121
   8        3PY        -0.19354   0.48947   2.02506   0.71630  -0.36586
   9        3PZ        -0.00053  -0.00018  -0.00039  -0.00004  -0.00175
  10 2   C  1S          0.04389   0.01142   0.05571  -0.02847   0.01548
  11        2S         -0.00611   0.01140   0.01862  -0.01337  -0.02341
  12        2PX        -0.07823  -0.04867   0.00865  -0.11488   0.08296
  13        2PY         0.07827  -0.12740   0.02252   0.07153  -0.07488
  14        2PZ         0.00013   0.00004   0.00004  -0.00008  -0.00005
  15        3S         -0.71734  -0.37584  -1.54694   1.05625   0.17165
  16        3PX        -0.47040  -0.56249  -0.41630  -2.13925   0.27847
  17        3PY         0.53321  -0.39600   0.30503   0.44903  -1.06621
  18        3PZ         0.00045  -0.00001   0.00042  -0.00052   0.00029
  19 3   C  1S          0.05499   0.04507   0.02172   0.05499  -0.05251
  20        2S         -0.01060  -0.02632   0.01549  -0.01131   0.04419
  21        2PX         0.04273   0.03529   0.10178  -0.13863   0.12800
  22        2PY         0.07580   0.18601   0.02874  -0.02614  -0.04684
  23        2PZ        -0.00005  -0.00004   0.00001  -0.00004   0.00007
  24        3S         -0.79403  -0.55936  -0.60337  -1.81518   0.54108
  25        3PX         0.32123  -0.15340   0.89111  -1.61104   0.23236
  26        3PY         0.38348   0.79132   0.43815  -0.36440  -0.05452
  27        3PZ        -0.00013  -0.00018   0.00025  -0.00073  -0.00011
  28 4   C  1S          0.02259  -0.09837   0.01236  -0.06149  -0.00747
  29        2S          0.00073   0.02149  -0.00455   0.02127   0.02439
  30        2PX        -0.03016   0.24494  -0.06078  -0.02989   0.15738
  31        2PY        -0.09697   0.02106  -0.05190   0.14812   0.00817
  32        2PZ        -0.00002   0.00005  -0.00001  -0.00000   0.00010
  33        3S         -0.36666   1.64414   0.01554   0.79418  -0.34696
  34        3PX         0.20912   1.38172  -0.89616  -0.47344   0.41546
  35        3PY        -0.68039   0.15075  -0.10096   1.12998  -0.20700
  36        3PZ        -0.00020   0.00030  -0.00035  -0.00033  -0.00010
  37 5   C  1S          0.05767   0.07055  -0.09049   0.01172   0.01563
  38        2S          0.00208  -0.01782  -0.02376  -0.04496  -0.01090
  39        2PX        -0.04532   0.21405   0.00346   0.02186   0.12286
  40        2PY        -0.07320  -0.02191   0.06827  -0.15240   0.01661
  41        2PZ         0.00027   0.00016   0.00006  -0.00002   0.00019
  42        3S         -0.99731  -1.05710   2.06470   0.42835  -0.08543
  43        3PX        -0.41314   1.73525   0.14276  -0.05812  -0.13073
  44        3PY        -0.64030  -0.17286   1.33942  -0.30689   0.65326
  45        3PZ         0.00113   0.00069  -0.00024  -0.00001   0.00081
  46 6   H  1S         -0.02807  -0.04694  -0.10147   0.04009  -0.00016
  47        2S          0.04330   0.74047   0.21911   0.23643   0.64658
  48 7   H  1S         -0.02360  -0.00657  -0.05648  -0.07329   0.00884
  49        2S          0.16694  -0.51096   0.33424  -0.09764   0.07749
  50 8   H  1S         -0.01235   0.03072   0.08989  -0.01653  -0.05378
  51        2S         -0.36806   0.30694  -0.40873   0.25980   0.25831
  52 9   N  1S         -0.10490  -0.03508  -0.03841   0.10071  -0.00706
  53        2S          0.02729  -0.00125   0.00857  -0.01845  -0.01223
  54        2PX         0.13066  -0.04002   0.05309  -0.00939  -0.05081
  55        2PY         0.03725   0.12744   0.16082   0.09962  -0.08273
  56        2PZ         0.00018   0.00006   0.00006  -0.00003  -0.00000
  57        3S          1.31252   0.50755   0.46825  -1.56886   0.24627
  58        3PX         0.48726  -0.05148   0.26379  -0.28002  -0.07985
  59        3PY         0.05465   0.33076   0.72108   0.39765  -0.31837
  60        3PZ         0.00055   0.00019   0.00020  -0.00023   0.00009
  61 10  C  1S          0.05216  -0.03911   0.01621   0.04989   0.09004
  62        2S         -0.01697  -0.02086   0.01262   0.04997   0.01551
  63        2PX         0.00580   0.09899   0.00241  -0.09895   0.11104
  64        2PY         0.06410   0.07735  -0.14089   0.05090   0.00394
  65        2PZ         0.00010  -0.00009   0.00004   0.00006  -0.00005
  66        3S         -0.66974   0.90494  -0.62581  -1.44051  -2.62754
  67        3PX         0.27137  -0.20568   0.47756   1.07766   2.61777
  68        3PY         0.33757  -0.01682  -1.19901  -0.16402   0.26515
  69        3PZ         0.00023   0.00030  -0.00024  -0.00076  -0.00132
  70 11  H  1S         -0.02745  -0.03579   0.08320   0.03350   0.00143
  71        2S          0.04979  -0.14688   0.08879  -0.16831   0.25136
  72 12  H  1S         -0.02735  -0.03578   0.08321   0.03339   0.00151
  73        2S          0.04783  -0.14706   0.08850  -0.16816   0.24992
  74 13  H  1S          0.01044   0.03061  -0.08535   0.00735  -0.08390
  75        2S         -0.07916  -0.39679   0.84465   0.13764  -0.58431
  76 14  H  1S         -0.00243  -0.04411   0.07559  -0.05661  -0.06278
  77        2S          0.53353  -0.24692  -0.91227   0.03243  -0.27456
                          41        42        43        44        45
                           V         V         V         V         V
     Eigenvalues --     0.66750   0.74662   0.88861   0.91870   0.93351
   1 1   C  1S          0.09299  -0.02713   0.03538  -0.03704   0.00005
   2        2S         -0.00783   0.00708  -0.01903   0.02500  -0.00013
   3        2PX         0.09172  -0.05880   0.19855  -0.28699   0.00039
   4        2PY         0.00249   0.30975   0.14065   0.06369   0.00003
   5        2PZ        -0.00008   0.00001  -0.00003   0.00016   0.42980
   6        3S         -1.56038   0.58370   0.13537  -0.16694   0.00017
   7        3PX         1.88223  -0.74859  -0.23948   0.80100  -0.00063
   8        3PY         0.05975   2.42917   0.24434   0.19564  -0.00001
   9        3PZ        -0.00023   0.00029   0.00012  -0.00035  -0.19434
  10 2   C  1S         -0.14231   0.06545  -0.00849  -0.00503  -0.00001
  11        2S          0.05951  -0.02361  -0.01864   0.01625   0.00004
  12        2PX        -0.15835  -0.05026   0.55864  -0.03594   0.00005
  13        2PY        -0.18707   0.17791  -0.18461  -0.13128  -0.00026
  14        2PZ        -0.00018   0.00010  -0.00014   0.00022   0.41949
  15        3S          3.06042  -0.84179  -0.64451   0.40418  -0.00030
  16        3PX        -1.78439  -1.53636  -0.53377  -0.32993  -0.00010
  17        3PY        -1.59466   1.74847   0.20928  -0.03493   0.00035
  18        3PZ        -0.00108   0.00025  -0.00000  -0.00008  -0.25261
  19 3   C  1S          0.09861  -0.05015  -0.02839  -0.02335   0.00001
  20        2S          0.04905   0.00634  -0.06815   0.13944  -0.00012
  21        2PX        -0.09854  -0.00723  -0.41110   0.01166  -0.00037
  22        2PY         0.06413  -0.15874  -0.14819  -0.38605   0.00022
  23        2PZ        -0.00010  -0.00003  -0.00029   0.00024   0.50747
  24        3S         -2.39778   0.16893   0.04976  -0.36505   0.00012
  25        3PX        -2.00151  -1.35581   0.79019  -0.33571   0.00038
  26        3PY         0.80164  -1.49164   0.14790   0.37708  -0.00032
  27        3PZ        -0.00064  -0.00095   0.00041  -0.00040  -0.40409
  28 4   C  1S          0.05255   0.02221   0.03233   0.00077   0.00001
  29        2S          0.08543   0.04533  -0.09486   0.09973  -0.00008
  30        2PX        -0.12885  -0.00353   0.09079   0.21444  -0.00039
  31        2PY         0.05457  -0.04622  -0.27970   0.18953  -0.00009
  32        2PZ        -0.00011   0.00000  -0.00013   0.00049   0.61888
  33        3S         -1.36824  -0.42248  -0.00785  -0.02406  -0.00004
  34        3PX         0.02748   1.70384   0.08229  -0.65777   0.00080
  35        3PY        -1.16271  -1.36904   0.06960  -0.07521  -0.00003
  36        3PZ         0.00026   0.00092   0.00017  -0.00043  -0.46433
  37 5   C  1S         -0.07596  -0.01615  -0.01183  -0.01884   0.00000
  38        2S          0.04436   0.01880   0.00182   0.01761   0.00002
  39        2PX        -0.06543   0.06221  -0.23990  -0.52614   0.00022
  40        2PY         0.08088   0.11511  -0.06778   0.00788   0.00005
  41        2PZ        -0.00013  -0.00003  -0.00023   0.00017   0.19163
  42        3S          1.16447   0.02755   0.07453   0.70043  -0.00051
  43        3PX        -0.22219   1.56892   0.44166   0.25792   0.00012
  44        3PY         1.43066   0.71928   0.15375   0.25058  -0.00010
  45        3PZ        -0.00039   0.00000   0.00018  -0.00042  -0.30175
  46 6   H  1S         -0.06669   0.07790   0.10979  -0.19996   0.00015
  47        2S          0.94758  -0.37117   0.04484   0.20516  -0.00007
  48 7   H  1S          0.07293  -0.11162   0.03544  -0.25122   0.00016
  49        2S         -0.66119   0.21426   0.05184   0.02977  -0.00005
  50 8   H  1S          0.08155   0.05431   0.08873  -0.19722   0.00025
  51        2S         -0.22268   0.04282   0.00743   0.03212  -0.00001
  52 9   N  1S         -0.08088   0.00414  -0.01922   0.02667  -0.00002
  53        2S          0.03119  -0.01226  -0.00549  -0.02123   0.00001
  54        2PX         0.13243  -0.05179  -0.09196   0.09789  -0.00013
  55        2PY        -0.03755  -0.30473  -0.09040  -0.03948  -0.00003
  56        2PZ         0.00003   0.00000  -0.00004   0.00002   0.04537
  57        3S          1.33710   0.21540   0.34219  -0.13865   0.00015
  58        3PX         0.75678  -0.12292   0.02189   0.05948  -0.00008
  59        3PY        -0.38104  -1.57990  -0.12419   0.09488  -0.00018
  60        3PZ         0.00033  -0.00003   0.00002   0.00004   0.10241
  61 10  C  1S         -0.01038  -0.00276  -0.00551   0.01036  -0.00001
  62        2S          0.06352  -0.00967   0.07842  -0.13008   0.00009
  63        2PX        -0.10780   0.01112  -0.25488   0.44583  -0.00020
  64        2PY         0.05486   0.01540   0.27151   0.16480  -0.00001
  65        2PZ         0.00019  -0.00003   0.00010  -0.00021   0.21289
  66        3S         -0.86333   0.33156   0.07116  -0.37842   0.00026
  67        3PX         0.42067  -0.26748   0.29834  -0.29239   0.00009
  68        3PY         0.13754  -0.95875  -0.50786  -0.33237   0.00008
  69        3PZ        -0.00049   0.00020  -0.00016   0.00013  -0.16171
  70 11  H  1S          0.05712  -0.00861  -0.01517  -0.15004  -0.21333
  71        2S          0.20991  -0.03109  -0.02307   0.06425  -0.01581
  72 12  H  1S          0.05709  -0.00876  -0.01535  -0.14938   0.21361
  73        2S          0.21001  -0.03074  -0.02284   0.06416   0.01573
  74 13  H  1S          0.02227  -0.03719   0.22547   0.17681  -0.00005
  75        2S         -0.13144   0.63980  -0.01583   0.03780  -0.00005
  76 14  H  1S         -0.04327   0.06655  -0.29057  -0.11764  -0.00001
  77        2S          0.16312  -0.54195  -0.03196  -0.00294   0.00002
                          46        47        48        49        50
                           V         V         V         V         V
     Eigenvalues --     0.97020   0.99272   1.03709   1.04210   1.07152
   1 1   C  1S         -0.05051  -0.00006   0.00003  -0.01739  -0.00326
   2        2S          0.01842   0.00008   0.00007  -0.07653  -0.06479
   3        2PX        -0.07170  -0.00012   0.00017  -0.06998   0.14235
   4        2PY         0.12603  -0.00005   0.00030  -0.26776  -0.13841
   5        2PZ        -0.00012   0.29921  -0.14413  -0.00088   0.00041
   6        3S         -0.41911  -0.00084   0.00155  -0.64742  -0.03485
   7        3PX         0.48007   0.00134  -0.00177   0.88849  -0.09097
   8        3PY         0.05452   0.00002  -0.00034   0.30696  -0.00491
   9        3PZ        -0.00017  -0.06154   0.12937   0.00050  -0.00055
  10 2   C  1S          0.03647   0.00002   0.00005  -0.04243   0.01928
  11        2S          0.00707  -0.00021   0.00031  -0.18768  -0.14417
  12        2PX        -0.17584  -0.00003  -0.00020  -0.05018   0.30449
  13        2PY         0.31579   0.00010  -0.00041   0.16519  -0.08181
  14        2PZ        -0.00029   0.28348   0.46587   0.00069  -0.00059
  15        3S          0.16013   0.00083  -0.00117   0.58265  -0.15716
  16        3PX         0.10644  -0.00037   0.00084  -0.39006   0.13732
  17        3PY        -0.48615  -0.00059   0.00095  -0.44162   0.09688
  18        3PZ         0.00022  -0.29874  -0.35411  -0.00066   0.00099
  19 3   C  1S          0.02099  -0.00000   0.00000   0.00778  -0.03991
  20        2S          0.02783  -0.00001   0.00008  -0.05251  -0.12202
  21        2PX         0.28591   0.00005   0.00044  -0.49679   0.17992
  22        2PY         0.32996  -0.00000   0.00037  -0.23231   0.07586
  23        2PZ         0.00042  -0.22903   0.69297   0.00141   0.00042
  24        3S         -0.03754  -0.00043   0.00072  -0.40857   0.39880
  25        3PX        -0.31557  -0.00035   0.00002   0.18419   0.11651
  26        3PY        -0.29771   0.00007  -0.00038   0.27184  -0.00133
  27        3PZ        -0.00045   0.27794  -0.64277  -0.00153  -0.00052
  28 4   C  1S          0.04385   0.00001   0.00001  -0.00110  -0.00658
  29        2S         -0.04046   0.00004  -0.00000   0.04500   0.10674
  30        2PX         0.04917   0.00057  -0.00027   0.27072  -0.71762
  31        2PY        -0.22976  -0.00015  -0.00031   0.04559   0.46972
  32        2PZ         0.00029  -0.54161  -0.58057  -0.00039  -0.00085
  33        3S         -0.17138  -0.00081   0.00145  -0.64472   0.34281
  34        3PX         0.01847  -0.00068   0.00029  -0.21608   1.16951
  35        3PY        -0.01459  -0.00052   0.00169  -0.67955  -0.31073
  36        3PZ        -0.00027   0.59352   0.54090   0.00027   0.00120
  37 5   C  1S          0.00785   0.00004  -0.00006   0.03511  -0.00711
  38        2S         -0.06743  -0.00015   0.00032  -0.14307   0.02798
  39        2PX        -0.44437   0.00015  -0.00083   0.24223  -0.18468
  40        2PY        -0.51640  -0.00088   0.00145  -0.67017  -0.24561
  41        2PZ         0.00004   0.03016  -0.01115  -0.00000   0.00040
  42        3S          0.22083   0.00065  -0.00089   0.43632  -0.69195
  43        3PX         0.39193  -0.00045   0.00125  -0.39063   0.42163
  44        3PY         0.78656   0.00172  -0.00313   1.49107   0.23914
  45        3PZ        -0.00006  -0.20607   0.07720   0.00026  -0.00071
  46 6   H  1S          0.33192   0.00004   0.00041  -0.30247  -0.13618
  47        2S         -0.00554   0.00029  -0.00045   0.29701   0.02357
  48 7   H  1S          0.28487   0.00005   0.00001   0.00121  -0.44034
  49        2S         -0.13095  -0.00006  -0.00009   0.00498   0.26657
  50 8   H  1S          0.32513   0.00009   0.00002   0.04203   0.35047
  51        2S         -0.14301  -0.00024   0.00039  -0.18672  -0.05934
  52 9   N  1S         -0.03797  -0.00002   0.00001  -0.00999   0.03015
  53        2S          0.06148  -0.00002   0.00011  -0.04126  -0.03931
  54        2PX         0.07592  -0.00006   0.00036  -0.16544  -0.19929
  55        2PY         0.01564  -0.00007   0.00020  -0.11282   0.01575
  56        2PZ         0.00007  -0.03589   0.02939   0.00005  -0.00007
  57        3S          0.01881   0.00050  -0.00135   0.65311   0.16556
  58        3PX         0.08580   0.00033  -0.00053   0.23953  -0.17522
  59        3PY        -0.15802  -0.00026   0.00038  -0.19463   0.15288
  60        3PZ         0.00014  -0.12508   0.01832   0.00033  -0.00012
  61 10  C  1S          0.01721   0.00002  -0.00003   0.01435   0.01505
  62        2S         -0.09728  -0.00013  -0.00003  -0.03579  -0.02392
  63        2PX         0.18565   0.00087  -0.00057   0.21335   0.11766
  64        2PY         0.13247   0.00005   0.00006  -0.07062   0.00475
  65        2PZ        -0.00044   0.82225  -0.27243  -0.00098  -0.00028
  66        3S         -0.19910  -0.00073   0.00118  -0.51150   0.00139
  67        3PX         0.06529  -0.00065   0.00090  -0.18765  -0.07125
  68        3PY        -0.26642   0.00006  -0.00031   0.23708   0.04006
  69        3PZ         0.00026  -0.71990   0.23274   0.00072   0.00035
  70 11  H  1S          0.07717  -0.03201   0.21740   0.20493   0.02968
  71        2S          0.06090  -0.05241  -0.06508   0.26193  -0.01040
  72 12  H  1S          0.07720   0.03246  -0.21816   0.20375   0.03028
  73        2S          0.06094   0.05290   0.06395   0.26194  -0.01038
  74 13  H  1S          0.10240   0.00008  -0.00033  -0.01175   0.12155
  75        2S          0.00061   0.00000  -0.00003  -0.00856  -0.12748
  76 14  H  1S         -0.14022   0.00012  -0.00061   0.24798  -0.02628
  77        2S         -0.04554   0.00015  -0.00026   0.10701   0.07792
                          51        52        53        54        55
                           V         V         V         V         V
     Eigenvalues --     1.09498   1.10333   1.10374   1.11195   1.13461
   1 1   C  1S          0.01952   0.00049   0.03821   0.00003  -0.01102
   2        2S         -0.25151  -0.00122  -0.01326   0.00035  -0.12372
   3        2PX        -0.11289  -0.00698  -0.61466  -0.00107   0.23447
   4        2PY        -0.33002   0.00073   0.18640   0.00064   0.27860
   5        2PZ        -0.00112   0.50605  -0.00630   0.54856   0.00021
   6        3S          0.53472  -0.00328  -0.54734  -0.00195  -0.14114
   7        3PX        -0.28473   0.00838   0.87201   0.00268  -0.27186
   8        3PY         0.67643  -0.00103  -0.43533  -0.00179  -0.45777
   9        3PZ         0.00161  -0.63850   0.00779  -0.56523  -0.00036
  10 2   C  1S         -0.02205   0.00012   0.02331   0.00004  -0.01028
  11        2S         -0.16158   0.00044   0.09225   0.00045   0.01515
  12        2PX        -0.11644   0.00026   0.08649   0.00016  -0.37715
  13        2PY         0.11980   0.00094   0.02312  -0.00026   0.32135
  14        2PZ         0.00298  -0.70042   0.00636   0.47145  -0.00004
  15        3S         -0.22905   0.00189   0.25663   0.00141  -0.40012
  16        3PX        -0.05813   0.00129   0.21339   0.00032   0.68793
  17        3PY         0.35229  -0.00339  -0.48447  -0.00151  -0.65094
  18        3PZ        -0.00394   0.99002  -0.00937  -0.53004   0.00005
  19 3   C  1S          0.01555  -0.00020  -0.03096  -0.00006   0.02991
  20        2S         -0.19008   0.00120   0.19679   0.00053   0.18529
  21        2PX        -0.20702   0.00027   0.15064   0.00054  -0.38232
  22        2PY         0.08238  -0.00127  -0.15381  -0.00047  -0.35280
  23        2PZ        -0.00241   0.35924  -0.00242  -0.51863  -0.00026
  24        3S          0.21022  -0.00019  -0.07424  -0.00078  -0.02456
  25        3PX         0.00730   0.00149   0.14928  -0.00015   0.93865
  26        3PY        -0.30049   0.00215   0.36014   0.00117   0.65914
  27        3PZ         0.00330  -0.60045   0.00478   0.68668   0.00062
  28 4   C  1S          0.01956  -0.00019  -0.02669  -0.00006  -0.02538
  29        2S         -0.02539   0.00063   0.09192   0.00021  -0.04014
  30        2PX        -0.06283   0.00086   0.02795   0.00036  -0.45628
  31        2PY        -0.26924   0.00202   0.36108   0.00093   0.20117
  32        2PZ         0.00150  -0.37557   0.00412  -0.14804  -0.00026
  33        3S          0.40028  -0.00254  -0.31914  -0.00151   0.45630
  34        3PX         0.53272  -0.00256  -0.31590  -0.00146   0.53813
  35        3PY         0.55144  -0.00465  -0.68375  -0.00221   0.07118
  36        3PZ        -0.00209   0.58695  -0.00651   0.25719   0.00025
  37 5   C  1S          0.00604   0.00002  -0.00104   0.00003  -0.03574
  38        2S          0.00315  -0.00020  -0.01081  -0.00010   0.03231
  39        2PX        -0.35148   0.00182   0.24780   0.00087  -0.04877
  40        2PY         0.11488  -0.00284  -0.33843  -0.00101   0.04950
  41        2PZ        -0.00124   0.32410  -0.00357   0.18755  -0.00002
  42        3S         -0.09267   0.00296   0.19695   0.00058  -0.45122
  43        3PX         0.88251  -0.00336  -0.58168  -0.00236   0.27023
  44        3PY        -0.52030   0.00720   0.88142   0.00310  -0.37365
  45        3PZ         0.00263  -0.65926   0.00684  -0.25322   0.00024
  46 6   H  1S         -0.40910   0.00087   0.26380   0.00102   0.08036
  47        2S          0.08942  -0.00058  -0.09114  -0.00022   0.09025
  48 7   H  1S         -0.11160  -0.00050  -0.04239   0.00017   0.51822
  49        2S          0.12973   0.00046   0.01090  -0.00026  -0.28534
  50 8   H  1S          0.18769  -0.00140  -0.15667  -0.00027  -0.18619
  51        2S          0.20422  -0.00095  -0.18194  -0.00083   0.24283
  52 9   N  1S          0.00052   0.00004   0.00663  -0.00001   0.01156
  53        2S          0.02644  -0.00022  -0.03339  -0.00009  -0.01092
  54        2PX         0.07910  -0.00050  -0.10270  -0.00037  -0.27980
  55        2PY        -0.09828   0.00020   0.06414   0.00016   0.14415
  56        2PZ         0.00000  -0.00342   0.00008  -0.07294  -0.00016
  57        3S         -0.34190   0.00290   0.43589   0.00161   0.42277
  58        3PX        -0.21539   0.00102   0.16802   0.00085   0.01419
  59        3PY        -0.11917   0.00037   0.12308   0.00023   0.30482
  60        3PZ        -0.00022  -0.00894   0.00044  -0.12342   0.00000
  61 10  C  1S         -0.04536  -0.00093  -0.07026  -0.00009   0.01244
  62        2S         -0.22084  -0.00153  -0.06641   0.00001  -0.10951
  63        2PX        -0.10222  -0.00501  -0.44178  -0.00097   0.18781
  64        2PY        -0.10207   0.00039   0.05756   0.00014   0.02348
  65        2PZ         0.00027  -0.14065   0.00284  -0.62677  -0.00001
  66        3S          0.54644   0.00166   0.00986  -0.00101   0.23427
  67        3PX         0.43005   0.00642   0.47081   0.00102  -0.03757
  68        3PY         0.10191  -0.00074  -0.04530   0.00017  -0.03865
  69        3PZ        -0.00072   0.26876  -0.00451   0.74449   0.00005
  70 11  H  1S         -0.08772  -0.25822   0.06135  -0.08263  -0.24781
  71        2S         -0.14410  -0.03336   0.18205  -0.01671  -0.01594
  72 12  H  1S         -0.08936   0.25877   0.05585   0.08374  -0.24785
  73        2S         -0.14432   0.03616   0.18125   0.01799  -0.01587
  74 13  H  1S         -0.71231  -0.00623  -0.33923  -0.00006  -0.09070
  75        2S          0.15444   0.00214   0.10086  -0.00007   0.04566
  76 14  H  1S         -0.45893  -0.00704  -0.50897  -0.00052  -0.13053
  77        2S          0.04992   0.00209   0.19497   0.00050  -0.03064
                          56        57        58        59        60
                           V         V         V         V         V
     Eigenvalues --     1.16295   1.24986   1.28597   1.29317   1.30693
   1 1   C  1S         -0.01976  -0.00002  -0.00326  -0.00273  -0.00001
   2        2S          0.29875   0.00010  -0.06806   0.02727   0.00010
   3        2PX        -0.01530   0.00003   0.14995  -0.09244  -0.00005
   4        2PY        -0.27861   0.00014   0.28391   0.28185  -0.00024
   5        2PZ         0.00033   0.45630  -0.00049  -0.00031  -0.42110
   6        3S         -0.16648  -0.00030   0.30302  -0.19899   0.00025
   7        3PX        -0.75145   0.00133  -0.87001   0.55875  -0.00001
   8        3PY         0.34194  -0.00066  -1.08887  -1.52417   0.00164
   9        3PZ        -0.00043  -1.18948   0.00104   0.00061   0.87902
  10 2   C  1S          0.00341   0.00001   0.02056  -0.01079  -0.00002
  11        2S          0.16206  -0.00018  -0.10447  -0.08468   0.00015
  12        2PX        -0.13451   0.00024  -0.45868   0.16079   0.00014
  13        2PY        -0.02899   0.00022  -0.42724   0.27899   0.00029
  14        2PZ        -0.00055  -0.08180  -0.00021   0.00023   0.16853
  15        3S         -0.69404   0.00105  -0.31349   1.33637  -0.00071
  16        3PX         0.34822  -0.00026   1.40177  -0.24453  -0.00102
  17        3PY         0.04421  -0.00111   1.09114  -1.13076   0.00008
  18        3PZ         0.00088   0.42211   0.00034  -0.00073  -0.43751
  19 3   C  1S         -0.01034  -0.00001  -0.01681   0.01453   0.00002
  20        2S          0.25959  -0.00006   0.06543  -0.10554  -0.00011
  21        2PX        -0.02843   0.00015  -0.45628   0.22975   0.00010
  22        2PY        -0.37039   0.00010   0.29752  -0.28860  -0.00007
  23        2PZ         0.00009   0.09239  -0.00018   0.00013   0.01958
  24        3S          0.04595  -0.00021   0.66294  -0.24075  -0.00040
  25        3PX         0.34027  -0.00016   1.22550  -0.77600  -0.00060
  26        3PY         0.53233   0.00027  -0.86850   0.93693  -0.00006
  27        3PZ        -0.00010  -0.22841   0.00053  -0.00027   0.04246
  28 4   C  1S         -0.02303  -0.00000   0.02876  -0.01320  -0.00003
  29        2S          0.37352  -0.00003  -0.07735   0.09824   0.00012
  30        2PX         0.16842   0.00007   0.24149  -0.09154  -0.00024
  31        2PY         0.26174   0.00019   0.24805  -0.29580  -0.00038
  32        2PZ        -0.00005   0.00579  -0.00018  -0.00004  -0.16082
  33        3S          0.33087  -0.00018   0.21346  -0.28829  -0.00054
  34        3PX         0.21597  -0.00030  -0.51113   0.27745   0.00042
  35        3PY         0.09435  -0.00076  -0.29622   0.70850   0.00092
  36        3PZ         0.00012  -0.45235   0.00034   0.00022   0.37394
  37 5   C  1S          0.05663  -0.00001  -0.01152   0.01738   0.00004
  38        2S         -0.04424  -0.00002   0.10124  -0.00856  -0.00030
  39        2PX        -0.37980   0.00034   0.05924   0.03587   0.00030
[...]
  70 11  H  1S         -0.00000  -0.00000   0.00000   0.00000  -0.00000
  71        2S         -0.00000  -0.00003   0.00000   0.00000  -0.00006
  72 12  H  1S         -0.00000  -0.00000   0.00000   0.00000  -0.00000
  73        2S         -0.00000  -0.00003   0.00000   0.00000  -0.00006
  74 13  H  1S         -0.00000   0.00012  -0.00000  -0.00000   0.00000
  75        2S          0.00014   0.00135  -0.00000  -0.00000   0.00000
  76 14  H  1S          0.00000  -0.00000   0.00000   0.00000  -0.00000
  77        2S          0.00000   0.00000   0.00000   0.00000  -0.00000
                          51        52        53        54        55
  51        2S          0.10685
  52 9   N  1S          0.00036   2.05767
  53        2S         -0.00175   0.02066   0.11190
  54        2PX         0.00008   0.00000   0.00000   0.43211
  55        2PY        -0.00194   0.00000   0.00000   0.00000   0.31063
  56        2PZ        -0.00000   0.00000   0.00000   0.00000   0.00000
  57        3S         -0.02187  -0.09956   0.24473   0.00000   0.00000
  58        3PX         0.00064   0.00000   0.00000   0.25427   0.00000
  59        3PY        -0.01111   0.00000   0.00000   0.00000   0.13357
  60        3PZ        -0.00000   0.00000   0.00000   0.00000   0.00000
  61 10  C  1S          0.00000   0.00000   0.00000   0.00000   0.00000
  62        2S         -0.00000   0.00000   0.00000  -0.00000   0.00000
  63        2PX        -0.00000  -0.00000   0.00000   0.00000   0.00000
  64        2PY        -0.00000  -0.00000   0.00000   0.00000  -0.00000
  65        2PZ        -0.00000   0.00000  -0.00000   0.00000  -0.00000
  66        3S          0.00000   0.00000  -0.00000   0.00000   0.00000
  67        3PX         0.00000  -0.00000  -0.00000   0.00000   0.00000
  68        3PY        -0.00001  -0.00000   0.00000  -0.00000  -0.00000
  69        3PZ        -0.00000   0.00000  -0.00000   0.00000  -0.00000
  70 11  H  1S         -0.00012  -0.00000   0.00000   0.00000   0.00000
  71        2S          0.00023  -0.00000   0.00000   0.00005   0.00002
  72 12  H  1S         -0.00012  -0.00000   0.00000   0.00000   0.00000
  73        2S          0.00023  -0.00000   0.00000   0.00005   0.00002
  74 13  H  1S          0.00000   0.00000  -0.00000  -0.00000   0.00000
  75        2S          0.00000   0.00000  -0.00000   0.00000   0.00000
  76 14  H  1S         -0.00000   0.00000  -0.00000  -0.00000   0.00000
  77        2S         -0.00000   0.00000  -0.00000   0.00000   0.00000
                          56        57        58        59        60
  56        2PZ         0.25158
  57        3S          0.00000   1.32374
  58        3PX         0.00000   0.00000   0.57596
  59        3PY         0.00000   0.00000   0.00000   0.21817
  60        3PZ         0.14839   0.00000   0.00000   0.00000   0.33170
  61 10  C  1S          0.00000  -0.00000   0.00000   0.00000   0.00000
  62        2S         -0.00000   0.00000  -0.00000  -0.00000  -0.00000
  63        2PX        -0.00000   0.00000  -0.00000   0.00000  -0.00000
  64        2PY        -0.00000   0.00000  -0.00000   0.00000  -0.00000
  65        2PZ         0.00000  -0.00000   0.00000  -0.00000   0.00000
  66        3S         -0.00000  -0.00001   0.00007   0.00000  -0.00000
  67        3PX         0.00000  -0.00001   0.00019   0.00000  -0.00000
  68        3PY        -0.00000   0.00000  -0.00000  -0.00000  -0.00000
  69        3PZ         0.00000  -0.00000   0.00000  -0.00000   0.00002
  70 11  H  1S         -0.00000   0.00000   0.00003   0.00001  -0.00002
  71        2S         -0.00003   0.00018   0.00123   0.00036  -0.00063
  72 12  H  1S         -0.00000   0.00000   0.00003   0.00001  -0.00002
  73        2S         -0.00003   0.00018   0.00123   0.00036  -0.00064
  74 13  H  1S         -0.00000  -0.00000   0.00000   0.00000  -0.00000
  75        2S         -0.00000  -0.00000   0.00000   0.00000  -0.00000
  76 14  H  1S          0.00000  -0.00000  -0.00000   0.00000   0.00000
  77        2S         -0.00000  -0.00000   0.00000   0.00000  -0.00000
                          61        62        63        64        65
  61 10  C  1S          2.03528
  62        2S          0.01867   0.11789
  63        2PX         0.00000   0.00000   0.31254
  64        2PY         0.00000   0.00000   0.00000   0.28133
  65        2PZ         0.00000   0.00000   0.00000   0.00000   0.22151
  66        3S         -0.06520   0.16516   0.00000   0.00000   0.00000
  67        3PX         0.00000   0.00000   0.07983   0.00000   0.00000
  68        3PY         0.00000   0.00000   0.00000   0.13484   0.00000
  69        3PZ         0.00000   0.00000   0.00000   0.00000   0.14033
  70 11  H  1S          0.00000  -0.00000  -0.00000  -0.00000  -0.00000
  71        2S          0.00000  -0.00003  -0.00009  -0.00002  -0.00027
  72 12  H  1S          0.00000  -0.00000  -0.00000  -0.00000  -0.00000
  73        2S          0.00000  -0.00003  -0.00009  -0.00002  -0.00027
  74 13  H  1S         -0.00110   0.01086   0.01553   0.04200   0.00000
  75        2S          0.00028   0.00744   0.01183   0.02829   0.00000
  76 14  H  1S         -0.00109   0.01070   0.01697   0.04068   0.00000
  77        2S          0.00030   0.00716   0.01293   0.02790   0.00000
                          66        67        68        69        70
  66        3S          0.63646
  67        3PX         0.00000   0.07943
  68        3PY         0.00000   0.00000   0.24371
  69        3PZ         0.00000   0.00000   0.00000   0.32009
  70 11  H  1S         -0.00015  -0.00014   0.00001  -0.00045   0.16892
  71        2S         -0.00044  -0.00034   0.00086  -0.00308   0.08750
  72 12  H  1S         -0.00015  -0.00014   0.00001  -0.00045  -0.00012
  73        2S         -0.00044  -0.00034   0.00086  -0.00309  -0.00371
  74 13  H  1S          0.06351   0.01534   0.06780   0.00000   0.00000
  75        2S          0.05731   0.01535   0.06695   0.00000   0.00000
  76 14  H  1S          0.06385   0.01626   0.06623   0.00000  -0.00000
  77        2S          0.05762   0.01650   0.06641   0.00000   0.00001
                          71        72        73        74        75
  71        2S          0.12672
  72 12  H  1S         -0.00371   0.16892
  73        2S         -0.01042   0.08751   0.12675
  74 13  H  1S         -0.00000   0.00000  -0.00000   0.17950
  75        2S         -0.00001   0.00000  -0.00001   0.08636   0.10899
  76 14  H  1S          0.00005  -0.00000   0.00005  -0.00014  -0.00393
  77        2S          0.00059   0.00001   0.00059  -0.00408  -0.01206
                          76        77
  76 14  H  1S          0.17983
  77        2S          0.08775   0.11225
     Gross orbital populations:
                           1
   1 1   C  1S          1.98839
   2        2S          0.39502
   3        2PX         0.63238
   4        2PY         0.56919
   5        2PZ         0.40279
   6        3S          0.84743
   7        3PX         0.30142
   8        3PY         0.33646
   9        3PZ         0.56992
  10 2   C  1S          1.98827
  11        2S          0.39264
  12        2PX         0.62029
  13        2PY         0.56417
  14        2PZ         0.41379
  15        3S          0.91719
  16        3PX         0.29476
  17        3PY         0.46348
  18        3PZ         0.60751
  19 3   C  1S          1.98713
  20        2S          0.40051
  21        2PX         0.61965
  22        2PY         0.54201
  23        2PZ         0.40668
  24        3S          0.79975
  25        3PX         0.27159
  26        3PY         0.33665
  27        3PZ         0.58960
  28 4   C  1S          1.98738
  29        2S          0.40484
  30        2PX         0.58465
  31        2PY         0.60064
  32        2PZ         0.36471
  33        3S          0.77300
  34        3PX         0.29631
  35        3PY         0.30643
  36        3PZ         0.50698
  37 5   C  1S          1.98994
  38        2S          0.34313
  39        2PX         0.54743
  40        2PY         0.54679
  41        2PZ         0.53663
  42        3S          1.18735
  43        3PX         0.34289
  44        3PY         0.42948
  45        3PZ         0.62215
  46 6   H  1S          0.46111
  47        2S          0.29656
  48 7   H  1S          0.46565
  49        2S          0.28421
  50 8   H  1S          0.46780
  51        2S          0.29297
  52 9   N  1S          1.99008
  53        2S          0.38598
  54        2PX         0.73476
  55        2PY         0.56769
  56        2PZ         0.44889
  57        3S          1.43844
  58        3PX         0.88083
  59        3PY         0.51505
  60        3PZ         0.66749
  61 10  C  1S          1.98710
  62        2S          0.39004
  63        2PX         0.60650
  64        2PY         0.54832
  65        2PZ         0.41967
  66        3S          0.95576
  67        3PX         0.28462
  68        3PY         0.57469
  69        3PZ         0.63041
  70 11  H  1S          0.44274
  71        2S          0.30230
  72 12  H  1S          0.44272
  73        2S          0.30232
  74 13  H  1S          0.46431
  75        2S          0.32641
  76 14  H  1S          0.46511
  77        2S          0.33005
          Condensed to atoms (all electrons):
               1          2          3          4          5          6
     1  C    5.412731   0.290913  -0.092771  -0.071895   0.204958  -0.037340
     2  C    0.290913   5.391730   0.435352  -0.006114  -0.041288   0.390266
     3  C   -0.092771   0.435352   5.028651  -0.126707  -0.008674  -0.019321
     4  C   -0.071895  -0.006114  -0.126707   4.990323   0.189851   0.000103
     5  C    0.204958  -0.041288  -0.008674   0.189851   5.655210   0.001544
     6  H   -0.037340   0.390266  -0.019321   0.000103   0.001544   0.418532
     7  H    0.002538  -0.053313   0.404381   0.002800  -0.000483  -0.000574
     8  H    0.003704  -0.001059   0.004237   0.402986  -0.065790   0.000003
     9  N    0.001247  -0.084359   0.326594   0.518472  -0.078226   0.001509
    10  C    0.538179  -0.068823   0.001677   0.003027  -0.069575   0.001383
    11  H   -0.047813   0.003016   0.000035  -0.038948   0.378354  -0.000028
    12  H   -0.047787   0.003014   0.000036  -0.038977   0.378314  -0.000028
    13  H   -0.056197   0.000670   0.000144  -0.000062   0.002182   0.001610
    14  H   -0.057467   0.002110  -0.000062   0.000068  -0.000582   0.000006
               7          8          9         10         11         12
     1  C    0.002538   0.003704   0.001247   0.538179  -0.047813  -0.047787
     2  C   -0.053313  -0.001059  -0.084359  -0.068823   0.003016   0.003014
     3  C    0.404381   0.004237   0.326594   0.001677   0.000035   0.000036
     4  C    0.002800   0.402986   0.518472   0.003027  -0.038948  -0.038977
     5  C   -0.000483  -0.065790  -0.078226  -0.069575   0.378354   0.378314
     6  H   -0.000574   0.000003   0.001509   0.001383  -0.000028  -0.000028
     7  H    0.429701   0.000019  -0.035192  -0.000029   0.000004   0.000004
     8  H    0.000019   0.457722  -0.041127  -0.000010   0.000041   0.000044
     9  N   -0.035192  -0.041127   7.017592   0.000275   0.001214   0.001214
    10  C   -0.000029  -0.000010   0.000275   5.195498  -0.004140  -0.004137
    11  H    0.000004   0.000041   0.001214  -0.004140   0.470635  -0.017970
    12  H    0.000004   0.000044   0.001214  -0.004137  -0.017970   0.470689
    13  H   -0.000001   0.000000   0.000001   0.401383  -0.000013  -0.000013
    14  H    0.000000  -0.000000   0.000001   0.402414   0.000649   0.000646
              13         14
     1  C   -0.056197  -0.057467
     2  C    0.000670   0.002110
     3  C    0.000144  -0.000062
     4  C   -0.000062   0.000068
     5  C    0.002182  -0.000582
     6  H    0.001610   0.000006
     7  H   -0.000001   0.000000
     8  H    0.000000  -0.000000
     9  N    0.000001   0.000001
    10  C    0.401383   0.402414
    11  H   -0.000013   0.000649
    12  H   -0.000013   0.000646
    13  H    0.461225  -0.020208
    14  H   -0.020208   0.467585
 Mulliken charges:
               1
     1  C   -0.042998
     2  C   -0.262114
     3  C    0.046427
     4  C    0.175073
     5  C   -0.545794
     6  H    0.242335
     7  H    0.250144
     8  H    0.239230
     9  N   -0.629215
    10  C   -0.397121
    11  H    0.254964
    12  H    0.254952
    13  H    0.209279
    14  H    0.204839
 Sum of Mulliken charges =  -0.00000
 Mulliken charges with hydrogens summed into heavy atoms:
               1
     1  C   -0.042998
     2  C   -0.019779
     3  C    0.296571
     4  C    0.414303
     5  C   -0.035879
     9  N   -0.629215
    10  C    0.016997
 Electronic spatial extent (au):  <R**2>=            684.7298
 Charge=             -0.0000 electrons
 Dipole moment (field-independent basis, Debye):
    X=              1.9408    Y=             -0.9546    Z=              0.0010  Tot=              2.1629
 Quadrupole moment (field-independent basis, Debye-Ang):
   XX=            -46.8625   YY=            -35.2353   ZZ=            -45.5453
   XY=              0.3860   XZ=             -0.0031   YZ=             -0.0002
 Traceless Quadrupole moment (field-independent basis, Debye-Ang):
   XX=             -4.3148   YY=              7.3124   ZZ=             -2.9976
   XY=              0.3860   XZ=             -0.0031   YZ=             -0.0002
 Octapole moment (field-independent basis, Debye-Ang**2):
  XXX=             20.8056  YYY=              0.3137  ZZZ=              0.0014  XYY=             -3.8917
  XXY=              0.7247  XXZ=             -0.0018  XZZ=             -2.6230  YZZ=             -3.7433
  YYZ=              0.0010  XYZ=              0.0038
 Hexadecapole moment (field-independent basis, Debye-Ang**3):
 XXXX=           -591.7052 YYYY=           -286.2095 ZZZZ=            -52.7855 XXXY=              0.6642
 XXXZ=             -0.0339 YYYX=              3.2397 YYYZ=              0.0049 ZZZX=              0.0040
 ZZZY=             -0.0062 XXYY=           -122.3633 XXZZ=           -113.3964 YYZZ=            -63.2042
 XXYZ=             -0.0016 YYXZ=              0.0025 ZZXY=             -1.3583
 N-N= 2.706849087886D+02 E-N=-1.202369852550D+03  KE= 2.831471251821D+02
 Orbital energies and kinetic energies (alpha):
                                 1                 2
   1         O               -15.494737         21.927619
   2         O               -11.239810         15.872962
   3         O               -11.215344         15.872401
   4         O               -11.201200         15.876745
   5         O               -11.198783         15.883040
   6         O               -11.188619         15.876604
   7         O               -11.171883         15.871812
   8         O                -1.261482          1.843748
   9         O                -1.107991          1.583473
  10         O                -1.036933          1.566584
  11         O                -0.959303          1.573123
  12         O                -0.856373          1.507346
  13         O                -0.793867          1.359399
  14         O                -0.686528          1.138330
  15         O                -0.667520          1.338489
  16         O                -0.655514          1.281680
  17         O                -0.615266          0.888222
  18         O                -0.585017          1.226894
  19         O                -0.570376          1.410861
  20         O                -0.557145          1.193485
  21         O                -0.483454          1.114498
  22         O                -0.479945          1.337258
  23         O                -0.422556          1.059952
  24         O                -0.399455          1.806798
  25         O                -0.293088          1.162239
  26         V                 0.081343          1.167996
  27         V                 0.194294          1.385665
  28         V                 0.267085          1.262358
  29         V                 0.267940          0.986340
  30         V                 0.284962          0.954788
  31         V                 0.299646          1.091912
  32         V                 0.326500          1.126363
  33         V                 0.349337          1.199300
  34         V                 0.355973          1.183927
  35         V                 0.378554          1.265402
  36         V                 0.396648          1.900926
  37         V                 0.464655          1.771226
  38         V                 0.508535          1.597460
  39         V                 0.550713          1.745467
  40         V                 0.569853          1.587640
  41         V                 0.667504          2.389967
  42         V                 0.746621          2.051001
  43         V                 0.888610          2.311819
  44         V                 0.918698          2.362157
  45         V                 0.933507          2.535590
  46         V                 0.970199          2.713182
  47         V                 0.992715          2.643616
  48         V                 1.037092          2.626090
  49         V                 1.042100          2.873985
  50         V                 1.071520          2.992602
  51         V                 1.094983          2.379948
  52         V                 1.103329          2.676186
  53         V                 1.103737          3.001396
  54         V                 1.111947          2.788570
  55         V                 1.134615          3.132534
  56         V                 1.162946          2.884258
  57         V                 1.249860          2.973026
  58         V                 1.285967          3.275476
  59         V                 1.293172          3.152280
  60         V                 1.306934          2.623067
  61         V                 1.341557          3.069089
  62         V                 1.373745          3.053053
  63         V                 1.403697          3.201082
  64         V                 1.522787          2.973210
  65         V                 1.552812          2.975396
  66         V                 1.567666          3.787164
  67         V                 1.613323          3.107754
  68         V                 1.654843          3.413059
  69         V                 1.680881          2.879616
  70         V                 1.751456          3.468953
  71         V                 1.765818          3.228275
  72         V                 1.844578          3.197845
  73         V                 1.966022          3.498926
  74         V                 2.064386          3.555868
  75         V                 2.278943          3.592400
  76         V                 2.498063          3.603391
  77         V                 3.143185          4.985201
 Total kinetic energy from orbitals= 2.831471251821D+02
 1\1\GINC-IISERK51\SP\RHF\3-21G*\C6H7N1\GAUSSIAN\14-Jun-2025\0\\# hf/3-
 21g* pop=full geom=connectivity\\meth-pyridine_isomer sp with HF3-21G*
 \\0,1\C,0,-1.011938,0.029396,-0.000218\C,0,-0.226251,1.254344,-0.00049
 3\C,0,1.128458,1.214527,0.000031\C,0,1.228241,-1.093321,0.000098\C,0,-
 0.259902,-1.263722,-0.000424\H,0,-0.772655,2.208393,-0.001013\H,0,1.75
 3635,2.123959,0.000348\H,0,1.823546,-2.026603,0.000047\N,0,1.876328,0.
 026371,0.000499\C,0,-2.352833,0.047599,0.000498\H,0,-0.549224,-1.86694
 3,0.904262\H,0,-0.548495,-1.866476,-0.905681\H,0,-2.926109,0.982987,0.
 0008\H,0,-2.949645,-0.872845,0.000802\\Version=EM64L-G16RevB.01\State=
 1-A\HF=-284.0686428\RMSD=5.661e-09\Dipole=-0.7635844,-0.375552,-0.0004
 11\Quadrupole=-3.2079316,5.4365742,-2.2286426,-0.2870027,-0.0022791,0.
 0001287\PG=C01 [X(C6H7N1)]\\@


 THERE'S NOTHING SO GREAT AS THE GREAT OUTDOORS.

                                       -- ZIGGY
 Job cpu time:       0 days  0 hours  0 minutes  1.0 seconds.
 Elapsed time:       0 days  0 hours  0 minutes  1.0 seconds.
 File lengths (MBytes):  RWF=      6 Int=      0 D2E=      0 Chk=      1 Scr=      1
 Normal termination of Gaussian 16 at Sat Jun 14 14:29:52 2025.
