 Entering Gaussian System, Link 0=g16
 Input=/home/gaussian/Documents/Summer_Internship/Aromaticity/hetrocyclic/pyridine/pyridine_opt.com
 Output=/home/gaussian/Documents/Summer_Internship/Aromaticity/hetrocyclic/pyridine/pyridine_opt.log
 Initial command:
 /usr/local/g16/l1.exe "/home/gaussian/tmp/Gau-46492.inp" -scrdir="/home/gaussian/tmp/"
 Entering Link 1 = /usr/local/g16/l1.exe PID=     46495.
  
 Copyright (c) 1988-2017, Gaussian, Inc.  All Rights Reserved.
  
 This is part of the Gaussian(R) 16 program.  It is based on
 the Gaussian(R) 09 system (copyright 2009, Gaussian, Inc.),
 the Gaussian(R) 03 system (copyright 2003, Gaussian, Inc.),
 the Gaussian(R) 98 system (copyright 1998, Gaussian, Inc.),
 the Gaussian(R) 94 system (copyright 1995, Gaussian, Inc.),
 the Gaussian 92(TM) system (copyright 1992, Gaussian, Inc.),
 the Gaussian 90(TM) system (copyright 1990, Gaussian, Inc.),
 the Gaussian 88(TM) system (copyright 1988, Gaussian, Inc.),
 the Gaussian 86(TM) system (copyright 1986, Carnegie Mellon
 University), and the Gaussian 82(TM) system (copyright 1983,
 Carnegie Mellon University). Gaussian is a federally registered
 trademark of Gaussian, Inc.
  
 This software contains proprietary and confidential information,
 including trade secrets, belonging to Gaussian, Inc.
  
 This software is provided under written license and may be
 used, copied, transmitted, or stored only in accord with that
 written license.
  
 The following legend is applicable only to US Government
 contracts under FAR:
  
                    RESTRICTED RIGHTS LEGEND
  
 Use, reproduction and disclosure by the US Government is
 subject to restrictions as set forth in subparagraphs (a)
 and (c) of the Commercial Computer Software - Restricted
 Rights clause in FAR 52.227-19.
  
 Gaussian, Inc.
 340 Quinnipiac St., Bldg. 40, Wallingford CT 06492
  
  
 ---------------------------------------------------------------
 Warning -- This program may not be used in any manner that
 competes with the business of Gaussian, Inc. or will provide
 assistance to any competitor of Gaussian, Inc.  The licensee
 of this program is prohibited from giving any competitor of
 Gaussian, Inc. access to this program.  By using this program,
 the user acknowledges that Gaussian, Inc. is engaged in the
 business of creating and licensing software in the field of
 computational chemistry and represents and warrants to the
 licensee that it is not a competitor of Gaussian, Inc. and that
 it will not use this program in any manner prohibited above.
 ---------------------------------------------------------------
  

 Cite this work as:
 Gaussian 16, Revision B.01,
 M. J. Frisch, G. W. Trucks, H. B. Schlegel, G. E. Scuseria, 
 M. A. Robb, J. R. Cheeseman, G. Scalmani, V. Barone, 
 G. A. Petersson, H. Nakatsuji, X. Li, M. Caricato, A. V. Marenich, 
 J. Bloino, B. G. Janesko, R. Gomperts, B. Mennucci, H. P. Hratchian, 
 J. V. Ortiz, A. F. Izmaylov, J. L. Sonnenberg, D. Williams-Young, 
 F. Ding, F. Lipparini, F. Egidi, J. Goings, B. Peng, A. Petrone, 
 T. Henderson, D. Ranasinghe, V. G. Zakrzewski, J. Gao, N. Rega, 
 G. Zheng, W. Liang, M. Hada, M. Ehara, K. Toyota, R. Fukuda, 
 J. Hasegawa, M. Ishida, T. Nakajima, Y. Honda, O. Kitao, H. Nakai, 
 T. Vreven, K. Throssell, J. A. Montgomery, Jr., J. E. Peralta, 
 F. Ogliaro, M. J. Bearpark, J. J. Heyd, E. N. Brothers, K. N. Kudin, 
 V. N. Staroverov, T. A. Keith, R. Kobayashi, J. Normand, 
 K. Raghavachari, A. P. Rendell, J. C. Burant, S. S. Iyengar, 
 J. Tomasi, M. Cossi, J. M. Millam, M. Klene, C. Adamo, R. Cammi, 
 J. W. Ochterski, R. L. Martin, K. Morokuma, O. Farkas, 
 J. B. Foresman, and D. J. Fox, Gaussian, Inc., Wallingford CT, 2016.
 
 ******************************************
 Gaussian 16:  EM64L-G16RevB.01 20-Dec-2017
                14-Jun-2025 
 ******************************************
 %chk=pyridine_opt.chk
 -----------------------------------------
 # opt freq am1 pop=full geom=connectivity
 -----------------------------------------
 1/18=20,19=15,26=1,38=1,57=2/1,3;
 2/9=110,12=2,17=6,18=5,40=1/2;
 3/5=2,25=1,41=700000,71=1/1,2,3;
 4/35=1/1;
 5/5=2,35=1,38=5/2;
 6/7=3,28=1/1;
 7//1,2,3,16;
 1/18=20,19=15,26=1/3(2);
 2/9=110/2;
 99//99;
 2/9=110/2;
 3/5=2,25=1,41=700000,71=1,135=20/1,2,3;
 4/5=5,16=3,35=1/1;
 5/5=2,35=1,38=5/2;
 7//1,2,3,16;
 1/18=20,19=15,26=1/3(-5);
 2/9=110/2;
 6/7=3,19=2,28=1/1;
 99/9=1/99;
 --------------------------
 pyridine opt+freq with AM1
 --------------------------
 Symbolic Z-matrix:
 Charge =  0 Multiplicity = 1
 C                    -2.41242  -1.0688    0.18843 
 C                    -1.02267  -1.06329   0.06887 
 C                    -0.35887   0.14428  -0.18705 
 C                    -2.38848   1.313    -0.20662 
 C                    -3.1034    0.13487   0.04881 
 H                    -2.93882  -1.97967   0.38366 
 H                    -0.46839  -1.97276   0.17161 
 H                     0.70707   0.15389  -0.27964 
 H                    -2.91378   2.23891  -0.31455 
 H                    -4.16958   0.15853   0.13594 
 N                    -1.04895   1.29055  -0.31728 
 

 GradGradGradGradGradGradGradGradGradGradGradGradGradGradGradGradGradGrad
 Berny optimization.
 Initialization pass.
                           ----------------------------
                           !    Initial Parameters    !
                           ! (Angstroms and Degrees)  !
 --------------------------                            --------------------------
 ! Name  Definition              Value          Derivative Info.                !
 --------------------------------------------------------------------------------
 ! R1    R(1,2)                  1.3949         estimate D2E/DX2                !
 ! R2    R(1,5)                  1.3949         estimate D2E/DX2                !
 ! R3    R(1,6)                  1.07           estimate D2E/DX2                !
 ! R4    R(2,3)                  1.4016         estimate D2E/DX2                !
 ! R5    R(2,7)                  1.07           estimate D2E/DX2                !
 ! R6    R(3,8)                  1.07           estimate D2E/DX2                !
 ! R7    R(3,11)                 1.3443         estimate D2E/DX2                !
 ! R8    R(4,5)                  1.4016         estimate D2E/DX2                !
 ! R9    R(4,9)                  1.07           estimate D2E/DX2                !
 ! R10   R(4,11)                 1.3443         estimate D2E/DX2                !
 ! R11   R(5,10)                 1.07           estimate D2E/DX2                !
 ! A1    A(2,1,5)              118.7863         estimate D2E/DX2                !
 ! A2    A(2,1,6)              120.6069         estimate D2E/DX2                !
 ! A3    A(5,1,6)              120.6069         estimate D2E/DX2                !
 ! A4    A(1,2,3)              119.4009         estimate D2E/DX2                !
 ! A5    A(1,2,7)              120.2995         estimate D2E/DX2                !
 ! A6    A(3,2,7)              120.2995         estimate D2E/DX2                !
 ! A7    A(2,3,8)              119.6932         estimate D2E/DX2                !
 ! A8    A(2,3,11)             120.6136         estimate D2E/DX2                !
 ! A9    A(8,3,11)             119.6932         estimate D2E/DX2                !
 ! A10   A(5,4,9)              119.6932         estimate D2E/DX2                !
 ! A11   A(5,4,11)             120.6136         estimate D2E/DX2                !
 ! A12   A(9,4,11)             119.6932         estimate D2E/DX2                !
 ! A13   A(1,5,4)              119.4009         estimate D2E/DX2                !
 ! A14   A(1,5,10)             120.2995         estimate D2E/DX2                !
 ! A15   A(4,5,10)             120.2995         estimate D2E/DX2                !
 ! A16   A(3,11,4)             121.1848         estimate D2E/DX2                !
 ! D1    D(5,1,2,3)              0.0001         estimate D2E/DX2                !
 ! D2    D(5,1,2,7)            180.0            estimate D2E/DX2                !
 ! D3    D(6,1,2,3)            179.9999         estimate D2E/DX2                !
 ! D4    D(6,1,2,7)             -0.0003         estimate D2E/DX2                !
 ! D5    D(2,1,5,4)              0.0            estimate D2E/DX2                !
 ! D6    D(2,1,5,10)          -180.0            estimate D2E/DX2                !
 ! D7    D(6,1,5,4)           -179.9997         estimate D2E/DX2                !
 ! D8    D(6,1,5,10)             0.0003         estimate D2E/DX2                !
 ! D9    D(1,2,3,8)            179.9998         estimate D2E/DX2                !
 ! D10   D(1,2,3,11)            -0.0002         estimate D2E/DX2                !
 ! D11   D(7,2,3,8)              0.0            estimate D2E/DX2                !
 ! D12   D(7,2,3,11)           179.9999         estimate D2E/DX2                !
 ! D13   D(2,3,11,4)             0.0001         estimate D2E/DX2                !
 ! D14   D(8,3,11,4)          -179.9999         estimate D2E/DX2                !
 ! D15   D(9,4,5,1)            179.9999         estimate D2E/DX2                !
 ! D16   D(9,4,5,10)            -0.0001         estimate D2E/DX2                !
 ! D17   D(11,4,5,1)            -0.0001         estimate D2E/DX2                !
 ! D18   D(11,4,5,10)          179.9999         estimate D2E/DX2                !
 ! D19   D(5,4,11,3)             0.0            estimate D2E/DX2                !
 ! D20   D(9,4,11,3)          -180.0            estimate D2E/DX2                !
 --------------------------------------------------------------------------------
 Trust Radius=3.00D-01 FncErr=1.00D-07 GrdErr=1.00D-07 EigMax=2.50D+02 EigMin=1.00D-04
 Number of steps in this run=     57 maximum allowed number of steps=    100.
 GradGradGradGradGradGradGradGradGradGradGradGradGradGradGradGradGradGrad

                          Input orientation:                          
 ---------------------------------------------------------------------
 Center     Atomic      Atomic             Coordinates (Angstroms)
 Number     Number       Type             X           Y           Z
 ---------------------------------------------------------------------
      1          6           0       -2.412424   -1.068801    0.188431
      2          6           0       -1.022668   -1.063295    0.068871
      3          6           0       -0.358872    0.144284   -0.187053
      4          6           0       -2.388477    1.313005   -0.206619
      5          6           0       -3.103396    0.134865    0.048814
      6          1           0       -2.938821   -1.979674    0.383665
      7          1           0       -0.468391   -1.972757    0.171613
      8          1           0        0.707071    0.153894   -0.279641
      9          1           0       -2.913781    2.238913   -0.314551
     10          1           0       -4.169580    0.158526    0.135936
     11          7           0       -1.048949    1.290548   -0.317275
 ---------------------------------------------------------------------
                    Distance matrix (angstroms):
                    1          2          3          4          5
     1  C    0.000000
     2  C    1.394900   0.000000
     3  C    2.414464   1.401559   0.000000
     4  C    2.414464   2.754656   2.342134   0.000000
     5  C    1.394900   2.401128   2.754656   1.401559   0.000000
     6  H    1.070000   2.147204   3.390140   3.390140   2.147204
     7  H    2.143988   1.070000   2.149999   3.824398   3.376448
     8  H    3.383093   2.143597   1.070000   3.306250   3.824644
     9  H    3.383093   3.824644   3.306250   1.070000   2.143597
    10  H    2.143988   3.376448   3.824398   2.149999   1.070000
    11  N    2.771521   2.385451   1.344279   1.344279   2.385451
                    6          7          8          9         10
     6  H    0.000000
     7  H    2.479523   0.000000
     8  H    4.276051   2.471433   0.000000
     9  H    4.276051   4.894329   4.178408   0.000000
    10  H    2.479523   4.271117   4.894329   2.471433   0.000000
    11  N    3.841521   3.350406   2.092129   2.092129   3.350406
                   11
    11  N    0.000000
 Stoichiometry    C5H5N
 Framework group  C1[X(C5H5N)]
 Deg. of freedom    27
 Full point group                 C1      NOp   1
 Largest Abelian subgroup         C1      NOp   1
 Largest concise Abelian subgroup C1      NOp   1
                         Standard orientation:                         
 ---------------------------------------------------------------------
 Center     Atomic      Atomic             Coordinates (Angstroms)
 Number     Number       Type             X           Y           Z
 ---------------------------------------------------------------------
      1          6           0       -0.000000   -1.378388    0.000001
      2          6           0        1.200564   -0.668182   -0.000001
      3          6           0        1.171067    0.733066    0.000001
      4          6           0       -1.171067    0.733066   -0.000001
      5          6           0       -1.200564   -0.668182    0.000001
      6          1           0       -0.000000   -2.448388   -0.000003
      7          1           0        2.135559   -1.188457   -0.000001
      8          1           0        2.089204    1.282542    0.000002
      9          1           0       -2.089204    1.282542   -0.000002
     10          1           0       -2.135559   -1.188457    0.000002
     11          7           0        0.000000    1.393133   -0.000000
 ---------------------------------------------------------------------
 Rotational constants (GHZ):           5.9111081           5.8950383           2.9515311
 Standard basis: VSTO-6G (5D, 7F)
 There are    29 symmetry adapted cartesian basis functions of A   symmetry.
 There are    29 symmetry adapted basis functions of A   symmetry.
    29 basis functions,   174 primitive gaussians,    29 cartesian basis functions
    15 alpha electrons       15 beta electrons
       nuclear repulsion energy       123.2441878034 Hartrees.
 Integral buffers will be    131072 words long.
 Regular integral format.
 Two-electron integral symmetry is turned off.
 Do NDO integrals.
 One-electron integrals computed using PRISM.
 NBasis=    29 RedAO= F EigKep=  0.00D+00  NBF=    29
 NBsUse=    29 1.00D-04 EigRej=  0.00D+00 NBFU=    29
 Simple Huckel Guess.
 Keep J ints in memory in canonical form, NReq=861446.
 Overlap will be assumed to be unity.
 Requested convergence on RMS density matrix=1.00D-08 within 128 cycles.
 Requested convergence on MAX density matrix=1.00D-06.
 Requested convergence on             energy=1.00D-06.
 No special actions if energy rises.
 SCF Done:  E(RAM1) =  0.565307996549E-01 A.U. after   13 cycles
            NFock= 12  Conv=0.67D-08     -V/T= 1.0011

 **********************************************************************

            Population analysis using the SCF Density.

 **********************************************************************

 Orbital symmetries:
       Occupied  (A) (A) (A) (A) (A) (A) (A) (A) (A) (A) (A) (A)
                 (A) (A) (A)
       Virtual   (A) (A) (A) (A) (A) (A) (A) (A) (A) (A) (A) (A)
                 (A) (A)
 The electronic state is 1-A.
 Alpha  occ. eigenvalues --   -1.47587  -1.21736  -1.17187  -0.89366  -0.88862
 Alpha  occ. eigenvalues --   -0.66926  -0.61748  -0.61599  -0.53780  -0.52995
 Alpha  occ. eigenvalues --   -0.51491  -0.46784  -0.39442  -0.38389  -0.36757
 Alpha virt. eigenvalues --    0.00420   0.01016   0.10281   0.12701   0.14260
 Alpha virt. eigenvalues --    0.14452   0.14984   0.15060   0.17014   0.17697
 Alpha virt. eigenvalues --    0.18685   0.19186   0.20956   0.25382
     Molecular Orbital Coefficients:
                           1         2         3         4         5
                           O         O         O         O         O
     Eigenvalues --    -1.47587  -1.21736  -1.17187  -0.89366  -0.88862
   1 1   C  1S          0.34127  -0.50471   0.00000   0.41292   0.00000
   2        1PX         0.00000   0.00000   0.20430   0.00000  -0.31679
   3        1PY         0.11329  -0.04607  -0.00000  -0.11422  -0.00000
   4        1PZ        -0.00000   0.00000  -0.00000  -0.00000   0.00000
   5 2   C  1S          0.34616  -0.30085   0.42738  -0.17356  -0.34591
   6        1PX        -0.09989   0.09655   0.03234  -0.18954  -0.01776
   7        1PY         0.06172   0.11903   0.10264  -0.24456   0.16829
   8        1PZ         0.00000  -0.00000   0.00000  -0.00000   0.00000
   9 3   C  1S          0.38256   0.17501   0.44479  -0.25953   0.31809
  10        1PX        -0.13364  -0.13346   0.02739  -0.21681  -0.04389
  11        1PY        -0.04500   0.16244  -0.08673   0.18345   0.22290
  12        1PZ        -0.00000  -0.00000  -0.00000  -0.00000   0.00000
  13 4   C  1S          0.38256   0.17501  -0.44479  -0.25953  -0.31809
  14        1PX         0.13364   0.13346   0.02739   0.21681  -0.04389
  15        1PY        -0.04500   0.16244   0.08673   0.18345  -0.22290
  16        1PZ         0.00000  -0.00000  -0.00000  -0.00000   0.00000
  17 5   C  1S          0.34616  -0.30085  -0.42738  -0.17356   0.34591
  18        1PX         0.09989  -0.09655   0.03234   0.18954  -0.01776
  19        1PY         0.06172   0.11903  -0.10264  -0.24456  -0.16829
  20        1PZ        -0.00000   0.00000   0.00000   0.00000   0.00000
  21 6   H  1S          0.08844  -0.17910   0.00000   0.23438   0.00000
  22 7   H  1S          0.08900  -0.10694   0.16019  -0.09807  -0.19705
  23 8   H  1S          0.09401   0.05403   0.16591  -0.15878   0.17554
  24 9   H  1S          0.09401   0.05403  -0.16591  -0.15878  -0.17554
  25 10  H  1S          0.08900  -0.10694  -0.16019  -0.09807   0.19705
  26 11  N  1S          0.45110   0.54488  -0.00000   0.37921   0.00000
  27        1PX         0.00000   0.00000   0.22623  -0.00000   0.39774
  28        1PY        -0.16182  -0.08837   0.00000   0.01757  -0.00000
  29        1PZ         0.00000   0.00000   0.00000   0.00000   0.00000
                           6         7         8         9        10
                           O         O         O         O         O
     Eigenvalues --    -0.66926  -0.61748  -0.61599  -0.53780  -0.52995
   1 1   C  1S         -0.12330  -0.00000  -0.22544  -0.00000   0.00000
   2        1PX         0.00000   0.38532  -0.00000  -0.05300   0.00000
   3        1PY         0.39639  -0.00000  -0.00441   0.00000   0.00000
   4        1PZ         0.00000  -0.00000   0.00000   0.00000   0.32225
   5 2   C  1S          0.04692   0.03943   0.23110  -0.05347   0.00000
   6        1PX        -0.22623  -0.17260   0.32495   0.27671  -0.00000
   7        1PY         0.15457  -0.33283  -0.16429  -0.28743   0.00000
   8        1PZ         0.00000  -0.00000  -0.00000   0.00000   0.34734
   9 3   C  1S         -0.11496  -0.05286  -0.20970  -0.03672   0.00000
  10        1PX        -0.27696  -0.29572  -0.13553   0.29553  -0.00000
  11        1PY        -0.23952   0.28725  -0.04587   0.29844  -0.00000
  12        1PZ        -0.00000  -0.00000  -0.00000   0.00000   0.43425
  13 4   C  1S         -0.11496   0.05286  -0.20970   0.03672  -0.00000
  14        1PX         0.27696  -0.29572   0.13553   0.29553  -0.00000
  15        1PY        -0.23952  -0.28725  -0.04587  -0.29844   0.00000
  16        1PZ         0.00000   0.00000   0.00000   0.00000   0.43425
  17 5   C  1S          0.04692  -0.03943   0.23110   0.05347  -0.00000
  18        1PX         0.22623  -0.17260  -0.32495   0.27671  -0.00000
  19        1PY         0.15457   0.33283  -0.16429   0.28743  -0.00000
  20        1PZ         0.00000  -0.00000   0.00000   0.00000   0.34734
  21 6   H  1S         -0.31844  -0.00000  -0.11641  -0.00000  -0.00000
  22 7   H  1S         -0.15357   0.02892   0.37227   0.26603  -0.00000
  23 8   H  1S         -0.28582  -0.09342  -0.20850   0.29226  -0.00000
  24 9   H  1S         -0.28582   0.09342  -0.20850  -0.29226   0.00000
  25 10  H  1S         -0.15357  -0.02892   0.37227  -0.26603   0.00000
  26 11  N  1S         -0.08313   0.00000   0.25790   0.00000   0.00000
  27        1PX        -0.00000   0.45015  -0.00000  -0.07219  -0.00000
  28        1PY        -0.24430   0.00000   0.06412   0.00000   0.00000
  29        1PZ         0.00000   0.00000  -0.00000   0.00001   0.52698
                          11        12        13        14        15
                           O         O         O         O         O
     Eigenvalues --    -0.51491  -0.46784  -0.39442  -0.38389  -0.36757
   1 1   C  1S          0.00113  -0.00000   0.00000   0.00397  -0.00000
   2        1PX         0.00000   0.41005   0.00000  -0.00000  -0.00000
   3        1PY         0.54491  -0.00000  -0.00000  -0.12697  -0.00000
   4        1PZ        -0.00000  -0.00000   0.61227   0.00000   0.00000
   5 2   C  1S          0.07220  -0.02337  -0.00000   0.05778   0.00000
   6        1PX        -0.15610  -0.38330   0.00000  -0.02365   0.00000
   7        1PY        -0.17443  -0.05676  -0.00000   0.28926   0.00000
   8        1PZ        -0.00000  -0.00000   0.36622  -0.00000   0.50693
   9 3   C  1S         -0.06970   0.03877   0.00000  -0.08208  -0.00000
  10        1PX         0.18083   0.27827  -0.00000   0.12250  -0.00000
  11        1PY         0.20454   0.04375   0.00000  -0.24809  -0.00000
  12        1PZ        -0.00000  -0.00000  -0.20153  -0.00000   0.49297
  13 4   C  1S         -0.06970  -0.03877   0.00000  -0.08208  -0.00000
  14        1PX        -0.18083   0.27827   0.00000  -0.12250  -0.00000
  15        1PY         0.20454  -0.04375   0.00000  -0.24809  -0.00000
  16        1PZ        -0.00000  -0.00000  -0.20153   0.00000  -0.49297
  17 5   C  1S          0.07220   0.02337  -0.00000   0.05778   0.00000
  18        1PX         0.15610  -0.38330  -0.00000   0.02365  -0.00000
  19        1PY        -0.17443   0.05676  -0.00000   0.28926   0.00000
  20        1PZ        -0.00000  -0.00000   0.36622   0.00000  -0.50693
  21 6   H  1S         -0.44683   0.00000  -0.00000   0.15094   0.00000
  22 7   H  1S          0.00254  -0.29289   0.00000  -0.13667  -0.00000
  23 8   H  1S          0.15990   0.25288   0.00000  -0.12492  -0.00000
  24 9   H  1S          0.15990  -0.25288   0.00000  -0.12492  -0.00000
  25 10  H  1S          0.00254   0.29289   0.00000  -0.13667  -0.00000
  26 11  N  1S          0.15490  -0.00000  -0.00000   0.32810   0.00000
  27        1PX         0.00000  -0.26330   0.00000   0.00000   0.00000
  28        1PY         0.38662  -0.00000  -0.00000   0.66570   0.00000
  29        1PZ        -0.00000  -0.00000  -0.52504  -0.00000  -0.00000
                          16        17        18        19        20
                           V         V         V         V         V
     Eigenvalues --     0.00420   0.01016   0.10281   0.12701   0.14260
   1 1   C  1S         -0.00000   0.00000  -0.00000   0.03943  -0.31292
   2        1PX        -0.00000   0.00000   0.00000  -0.00000   0.00000
   3        1PY        -0.00000  -0.00000   0.00000   0.06571   0.33353
   4        1PZ         0.00000   0.62944  -0.35368   0.00000   0.00000
   5 2   C  1S          0.00000   0.00000  -0.00000  -0.10126   0.10068
   6        1PX        -0.00000   0.00000   0.00000  -0.04526  -0.12167
   7        1PY         0.00000   0.00000   0.00000   0.05732   0.23344
   8        1PZ        -0.49297  -0.32326   0.37514  -0.00000  -0.00000
   9 3   C  1S         -0.00000  -0.00000  -0.00000   0.32875  -0.19544
  10        1PX        -0.00000   0.00000   0.00000  -0.13953  -0.11418
  11        1PY        -0.00000   0.00000   0.00000   0.26398   0.20965
  12        1PZ         0.50693  -0.27466  -0.44201   0.00000   0.00000
  13 4   C  1S         -0.00000   0.00000  -0.00000   0.32875  -0.19544
  14        1PX         0.00000   0.00000   0.00000   0.13953   0.11418
  15        1PY        -0.00000  -0.00000   0.00000   0.26398   0.20965
  16        1PZ        -0.50693  -0.27466  -0.44201   0.00000   0.00000
  17 5   C  1S          0.00000  -0.00000   0.00000  -0.10126   0.10068
  18        1PX         0.00000  -0.00000   0.00000   0.04526   0.12167
  19        1PY         0.00000  -0.00000   0.00000   0.05732   0.23344
  20        1PZ         0.49297  -0.32326   0.37514  -0.00000  -0.00000
  21 6   H  1S          0.00000  -0.00000   0.00000   0.03005   0.59379
  22 7   H  1S         -0.00000  -0.00000   0.00000   0.17879   0.13024
  23 8   H  1S          0.00000  -0.00000  -0.00000  -0.36424   0.16175
  24 9   H  1S          0.00000  -0.00000   0.00000  -0.36424   0.16175
  25 10  H  1S          0.00000   0.00000   0.00000   0.17879   0.13024
  26 11  N  1S          0.00000  -0.00000  -0.00000  -0.30104  -0.05186
  27        1PX        -0.00000  -0.00000   0.00000   0.00000   0.00000
  28        1PY         0.00000   0.00000   0.00000   0.38430  -0.00832
  29        1PZ         0.00000   0.49390   0.45021  -0.00000  -0.00000
                          21        22        23        24        25
                           V         V         V         V         V
     Eigenvalues --     0.14452   0.14984   0.15060   0.17014   0.17697
   1 1   C  1S         -0.00000   0.40935  -0.00000   0.18232  -0.00000
   2        1PX         0.42430   0.00000   0.04526   0.00000   0.05498
   3        1PY        -0.00000   0.27747  -0.00000   0.29768  -0.00000
   4        1PZ         0.00000  -0.00000  -0.00000   0.00000  -0.00000
   5 2   C  1S         -0.14077  -0.35928  -0.33890   0.11488   0.01790
   6        1PX         0.33925   0.08101  -0.16344   0.34630   0.28665
   7        1PY        -0.09080   0.25753  -0.23925   0.11575  -0.21357
   8        1PZ        -0.00000  -0.00000  -0.00000  -0.00000  -0.00000
   9 3   C  1S          0.21665  -0.07451   0.29302  -0.02426  -0.05070
  10        1PX         0.21297   0.11212  -0.12644   0.22810  -0.28972
  11        1PY        -0.02918  -0.11496  -0.27148   0.23384  -0.25980
  12        1PZ         0.00000   0.00000  -0.00000   0.00000  -0.00000
  13 4   C  1S         -0.21665  -0.07451  -0.29302  -0.02426   0.05070
  14        1PX         0.21297  -0.11212  -0.12644  -0.22810  -0.28972
  15        1PY         0.02918  -0.11496   0.27148   0.23384   0.25980
  16        1PZ         0.00000   0.00000  -0.00000  -0.00000  -0.00000
  17 5   C  1S          0.14077  -0.35928   0.33890   0.11488  -0.01790
  18        1PX         0.33925  -0.08102  -0.16344  -0.34630   0.28665
  19        1PY         0.09080   0.25753   0.23925   0.11575   0.21357
  20        1PZ        -0.00000  -0.00000   0.00000   0.00000  -0.00000
  21 6   H  1S         -0.00000  -0.07532   0.00000   0.11586   0.00000
  22 7   H  1S         -0.21482   0.35202   0.30520  -0.29402  -0.30346
  23 8   H  1S         -0.35626   0.03160  -0.00533  -0.25060   0.35222
  24 9   H  1S          0.35626   0.03160   0.00533  -0.25061  -0.35222
  25 10  H  1S          0.21482   0.35202  -0.30520  -0.29402   0.30346
  26 11  N  1S         -0.00000   0.12098  -0.00000   0.07033   0.00000
  27        1PX         0.03503  -0.00000  -0.25075  -0.00000  -0.02199
  28        1PY         0.00000  -0.13667   0.00000  -0.23159   0.00000
  29        1PZ        -0.00000  -0.00000   0.00000  -0.00000   0.00000
                          26        27        28        29
                           V         V         V         V
     Eigenvalues --     0.18685   0.19186   0.20956   0.25382
   1 1   C  1S         -0.25173   0.00000  -0.16913  -0.00000
   2        1PX         0.00000   0.59304  -0.00000  -0.04115
   3        1PY         0.34530  -0.00000  -0.31844  -0.00000
   4        1PZ         0.00000  -0.00000  -0.00000   0.00000
   5 2   C  1S         -0.15045  -0.22684   0.10040  -0.07928
   6        1PX        -0.06628   0.11850  -0.33963  -0.08570
   7        1PY        -0.32983   0.38110   0.10461  -0.09056
   8        1PZ        -0.00000  -0.00000   0.00000  -0.00000
   9 3   C  1S          0.17726  -0.16432  -0.05513  -0.18156
  10        1PX         0.21459  -0.10184   0.36248   0.29907
  11        1PY        -0.26720  -0.00034   0.14883  -0.35671
  12        1PZ        -0.00000   0.00000   0.00000   0.00000
  13 4   C  1S          0.17726   0.16432  -0.05513   0.18156
  14        1PX        -0.21459  -0.10184  -0.36248   0.29907
  15        1PY        -0.26720   0.00034   0.14883   0.35671
  16        1PZ         0.00000  -0.00000  -0.00000  -0.00000
  17 5   C  1S         -0.15045   0.22684   0.10040   0.07928
  18        1PX         0.06628   0.11850   0.33963  -0.08570
  19        1PY        -0.32983  -0.38110   0.10461   0.09056
  20        1PZ        -0.00000   0.00000  -0.00000  -0.00000
  21 6   H  1S          0.42735  -0.00000  -0.11208  -0.00000
  22 7   H  1S          0.02239   0.20933   0.17429   0.05397
  23 8   H  1S         -0.15287   0.17443  -0.22514   0.04615
  24 9   H  1S         -0.15287  -0.17443  -0.22514  -0.04615
  25 10  H  1S          0.02239  -0.20933   0.17429  -0.05397
  26 11  N  1S          0.11756   0.00000   0.15501   0.00000
  27        1PX         0.00000   0.06007  -0.00000   0.66728
  28        1PY        -0.06203  -0.00000  -0.29218  -0.00000
  29        1PZ         0.00000  -0.00000   0.00000   0.00000
     Density Matrix:
                           1         2         3         4         5
   1 1   C  1S          1.21549
   2        1PX        -0.00000   0.92304
   3        1PY        -0.06604   0.00000   0.99640
   4        1PZ         0.00000   0.00000   0.00000   0.95743
   5 2   C  1S          0.28147   0.41068   0.24497  -0.00000   1.22377
   6        1PX        -0.41343  -0.45222  -0.33456   0.00000   0.05688
   7        1PY        -0.24214  -0.33726  -0.08068  -0.00000  -0.01874
   8        1PZ         0.00000   0.00000  -0.00000   0.67231  -0.00000
   9 3   C  1S         -0.00780  -0.02484  -0.01457   0.00000   0.28045
  10        1PX        -0.00477   0.00798  -0.02086  -0.00000   0.00052
  11        1PY         0.03506   0.04894   0.02935  -0.00000  -0.47502
  12        1PZ         0.00000   0.00000   0.00000   0.03310  -0.00000
  13 4   C  1S         -0.00780   0.02484  -0.01457  -0.00000  -0.03571
  14        1PX         0.00477   0.00798   0.02086  -0.00000  -0.02883
  15        1PY         0.03506  -0.04894   0.02935   0.00000   0.00427
  16        1PZ        -0.00000   0.00000  -0.00000   0.03310   0.00000
  17 5   C  1S          0.28147  -0.41068   0.24497   0.00000  -0.00531
  18        1PX         0.41343  -0.45222   0.33456   0.00000  -0.02759
  19        1PY        -0.24214   0.33726  -0.08068   0.00000   0.02436
  20        1PZ         0.00000   0.00000  -0.00000   0.67231  -0.00000
  21 6   H  1S          0.56590  -0.00000  -0.79373  -0.00000  -0.04313
  22 7   H  1S         -0.04335  -0.05580  -0.03513   0.00000   0.56300
  23 8   H  1S          0.04235   0.06099   0.03382  -0.00000  -0.05691
  24 9   H  1S          0.04235  -0.06099   0.03382   0.00000   0.00322
  25 10  H  1S         -0.04335   0.05580  -0.03513  -0.00000   0.04145
  26 11  N  1S         -0.02179  -0.00000  -0.01731   0.00000   0.02450
  27        1PX         0.00000  -0.02094   0.00000   0.00000  -0.02625
  28        1PY         0.03076  -0.00000   0.02552  -0.00000   0.07451
  29        1PZ        -0.00000  -0.00000   0.00000  -0.30329   0.00000
                           6         7         8         9        10
   6        1PX         0.98312
   7        1PY        -0.03257   0.95647
   8        1PZ         0.00000   0.00000   1.02349
   9 3   C  1S         -0.01720   0.47628   0.00000   1.23558
  10        1PX         0.11375   0.01069  -0.00000   0.06635   0.96071
  11        1PY         0.01619  -0.64099  -0.00000   0.02950   0.05396
  12        1PZ         0.00000  -0.00000   0.65387   0.00000  -0.00000
  13 4   C  1S          0.01145  -0.02423  -0.00000   0.01692   0.01120
  14        1PX        -0.00244  -0.03826   0.00000  -0.01120   0.05890
  15        1PY        -0.02169  -0.01994  -0.00000  -0.00202   0.04089
  16        1PZ        -0.00000   0.00000  -0.34574  -0.00000   0.00000
  17 5   C  1S          0.02759   0.02436  -0.00000  -0.03571   0.02883
  18        1PX         0.03544   0.03257  -0.00000  -0.01145  -0.00244
  19        1PY        -0.03257   0.01460   0.00000  -0.02423   0.03826
  20        1PZ         0.00000   0.00000  -0.00443   0.00000   0.00000
  21 6   H  1S          0.05969   0.03665  -0.00000   0.04287   0.00586
  22 7   H  1S          0.69497  -0.38862  -0.00000  -0.04533   0.00208
  23 8   H  1S          0.00628  -0.08716  -0.00000   0.59193   0.63377
  24 9   H  1S         -0.00298  -0.00437  -0.00000   0.05735  -0.09105
  25 10  H  1S         -0.06330  -0.04388  -0.00000   0.01098  -0.00434
  26 11  N  1S          0.01270   0.02525   0.00000   0.17452  -0.31790
  27        1PX         0.00700  -0.04794  -0.00000   0.39158  -0.47797
  28        1PY         0.00862   0.10404   0.00000  -0.29776   0.48008
  29        1PZ        -0.00000  -0.00000  -0.01847   0.00000  -0.00000
                          11        12        13        14        15
  11        1PY         0.91125
  12        1PZ        -0.00000   0.94442
  13 4   C  1S         -0.00202   0.00000   1.23558
  14        1PX        -0.04089   0.00000  -0.06635   0.96071
  15        1PY        -0.01157   0.00000   0.02950  -0.05396   0.91125
  16        1PZ         0.00000  -0.02766  -0.00000   0.00000  -0.00000
  17 5   C  1S          0.00427   0.00000   0.28045  -0.00052  -0.47502
  18        1PX         0.02169  -0.00000   0.01720   0.11375  -0.01619
  19        1PY        -0.01994  -0.00000   0.47628  -0.01069  -0.64099
  20        1PZ         0.00000  -0.34574  -0.00000  -0.00000   0.00000
  21 6   H  1S         -0.07460  -0.00000   0.04287  -0.00586  -0.07460
  22 7   H  1S          0.06368   0.00000   0.01098   0.00434  -0.00462
  23 8   H  1S          0.42665   0.00000   0.05735   0.09105   0.04190
  24 9   H  1S          0.04190  -0.00000   0.59193  -0.63377   0.42665
  25 10  H  1S         -0.00462   0.00000  -0.04533  -0.00208   0.06368
  26 11  N  1S          0.19229  -0.00000   0.17452   0.31790   0.19229
  27        1PX         0.33056  -0.00000  -0.39158  -0.47797  -0.33056
  28        1PY        -0.06870   0.00000  -0.29776  -0.48008  -0.06870
  29        1PZ        -0.00000   0.66931  -0.00000  -0.00000   0.00000
                          16        17        18        19        20
  16        1PZ         0.94442
  17 5   C  1S          0.00000   1.22377
  18        1PX         0.00000  -0.05688   0.98312
  19        1PY         0.00000  -0.01874   0.03257   0.95647
  20        1PZ         0.65387  -0.00000  -0.00000   0.00000   1.02349
  21 6   H  1S          0.00000  -0.04313  -0.05969   0.03665  -0.00000
  22 7   H  1S         -0.00000   0.04145   0.06330  -0.04388  -0.00000
  23 8   H  1S         -0.00000   0.00322   0.00298  -0.00437   0.00000
  24 9   H  1S         -0.00000  -0.05691  -0.00628  -0.08716  -0.00000
  25 10  H  1S         -0.00000   0.56300  -0.69497  -0.38862   0.00000
  26 11  N  1S          0.00000   0.02450  -0.01270   0.02525  -0.00000
  27        1PX        -0.00000   0.02625   0.00700   0.04794  -0.00000
  28        1PY         0.00000   0.07451  -0.00862   0.10404  -0.00000
  29        1PZ         0.66931   0.00000   0.00000  -0.00000  -0.01847
                          21        22        23        24        25
  21 6   H  1S          0.86445
  22 7   H  1S         -0.02432   0.86342
  23 8   H  1S         -0.02718  -0.01023   0.83947
  24 9   H  1S         -0.02718   0.01789  -0.02626   0.83947
  25 10  H  1S         -0.02432  -0.02412   0.01789  -0.01023   0.86342
  26 11  N  1S          0.01588   0.01803  -0.06918  -0.06918   0.01803
  27        1PX        -0.00000   0.05759  -0.04477   0.04477  -0.05759
  28        1PY         0.00738  -0.07058   0.02469   0.02469  -0.07058
  29        1PZ         0.00000   0.00000  -0.00000   0.00000  -0.00000
                          26        27        28        29
  26 11  N  1S          1.69850
  27        1PX         0.00000   0.97310
  28        1PY         0.40133   0.00000   1.38144
  29        1PZ        -0.00000  -0.00000   0.00000   1.10675
    Full Mulliken population analysis:
                           1         2         3         4         5
   1 1   C  1S          1.21549
   2        1PX         0.00000   0.92304
   3        1PY         0.00000   0.00000   0.99640
   4        1PZ         0.00000   0.00000   0.00000   0.95743
   5 2   C  1S          0.00000   0.00000   0.00000   0.00000   1.22377
   6        1PX         0.00000   0.00000   0.00000   0.00000   0.00000
   7        1PY         0.00000   0.00000   0.00000   0.00000   0.00000
   8        1PZ         0.00000   0.00000   0.00000   0.00000   0.00000
   9 3   C  1S          0.00000   0.00000   0.00000   0.00000   0.00000
  10        1PX         0.00000   0.00000   0.00000   0.00000   0.00000
  11        1PY         0.00000   0.00000   0.00000   0.00000   0.00000
  12        1PZ         0.00000   0.00000   0.00000   0.00000   0.00000
  13 4   C  1S          0.00000   0.00000   0.00000   0.00000   0.00000
  14        1PX         0.00000   0.00000   0.00000   0.00000   0.00000
  15        1PY         0.00000   0.00000   0.00000   0.00000   0.00000
  16        1PZ         0.00000   0.00000   0.00000   0.00000   0.00000
  17 5   C  1S          0.00000   0.00000   0.00000   0.00000   0.00000
  18        1PX         0.00000   0.00000   0.00000   0.00000   0.00000
  19        1PY         0.00000   0.00000   0.00000   0.00000   0.00000
  20        1PZ         0.00000   0.00000   0.00000   0.00000   0.00000
  21 6   H  1S          0.00000   0.00000   0.00000   0.00000   0.00000
  22 7   H  1S          0.00000   0.00000   0.00000   0.00000   0.00000
  23 8   H  1S          0.00000   0.00000   0.00000   0.00000   0.00000
  24 9   H  1S          0.00000   0.00000   0.00000   0.00000   0.00000
  25 10  H  1S          0.00000   0.00000   0.00000   0.00000   0.00000
  26 11  N  1S          0.00000   0.00000   0.00000   0.00000   0.00000
  27        1PX         0.00000   0.00000   0.00000   0.00000   0.00000
  28        1PY         0.00000   0.00000   0.00000   0.00000   0.00000
  29        1PZ         0.00000   0.00000   0.00000   0.00000   0.00000
                           6         7         8         9        10
   6        1PX         0.98312
   7        1PY         0.00000   0.95647
   8        1PZ         0.00000   0.00000   1.02349
   9 3   C  1S          0.00000   0.00000   0.00000   1.23558
  10        1PX         0.00000   0.00000   0.00000   0.00000   0.96071
  11        1PY         0.00000   0.00000   0.00000   0.00000   0.00000
  12        1PZ         0.00000   0.00000   0.00000   0.00000   0.00000
  13 4   C  1S          0.00000   0.00000   0.00000   0.00000   0.00000
  14        1PX         0.00000   0.00000   0.00000   0.00000   0.00000
  15        1PY         0.00000   0.00000   0.00000   0.00000   0.00000
  16        1PZ         0.00000   0.00000   0.00000   0.00000   0.00000
  17 5   C  1S          0.00000   0.00000   0.00000   0.00000   0.00000
  18        1PX         0.00000   0.00000   0.00000   0.00000   0.00000
  19        1PY         0.00000   0.00000   0.00000   0.00000   0.00000
  20        1PZ         0.00000   0.00000   0.00000   0.00000   0.00000
  21 6   H  1S          0.00000   0.00000   0.00000   0.00000   0.00000
  22 7   H  1S          0.00000   0.00000   0.00000   0.00000   0.00000
  23 8   H  1S          0.00000   0.00000   0.00000   0.00000   0.00000
  24 9   H  1S          0.00000   0.00000   0.00000   0.00000   0.00000
  25 10  H  1S          0.00000   0.00000   0.00000   0.00000   0.00000
  26 11  N  1S          0.00000   0.00000   0.00000   0.00000   0.00000
  27        1PX         0.00000   0.00000   0.00000   0.00000   0.00000
  28        1PY         0.00000   0.00000   0.00000   0.00000   0.00000
  29        1PZ         0.00000   0.00000   0.00000   0.00000   0.00000
                          11        12        13        14        15
  11        1PY         0.91125
  12        1PZ         0.00000   0.94442
  13 4   C  1S          0.00000   0.00000   1.23558
  14        1PX         0.00000   0.00000   0.00000   0.96071
  15        1PY         0.00000   0.00000   0.00000   0.00000   0.91125
  16        1PZ         0.00000   0.00000   0.00000   0.00000   0.00000
  17 5   C  1S          0.00000   0.00000   0.00000   0.00000   0.00000
  18        1PX         0.00000   0.00000   0.00000   0.00000   0.00000
  19        1PY         0.00000   0.00000   0.00000   0.00000   0.00000
  20        1PZ         0.00000   0.00000   0.00000   0.00000   0.00000
  21 6   H  1S          0.00000   0.00000   0.00000   0.00000   0.00000
  22 7   H  1S          0.00000   0.00000   0.00000   0.00000   0.00000
  23 8   H  1S          0.00000   0.00000   0.00000   0.00000   0.00000
  24 9   H  1S          0.00000   0.00000   0.00000   0.00000   0.00000
  25 10  H  1S          0.00000   0.00000   0.00000   0.00000   0.00000
  26 11  N  1S          0.00000   0.00000   0.00000   0.00000   0.00000
  27        1PX         0.00000   0.00000   0.00000   0.00000   0.00000
  28        1PY         0.00000   0.00000   0.00000   0.00000   0.00000
  29        1PZ         0.00000   0.00000   0.00000   0.00000   0.00000
                          16        17        18        19        20
  16        1PZ         0.94442
  17 5   C  1S          0.00000   1.22377
  18        1PX         0.00000   0.00000   0.98312
  19        1PY         0.00000   0.00000   0.00000   0.95647
  20        1PZ         0.00000   0.00000   0.00000   0.00000   1.02349
  21 6   H  1S          0.00000   0.00000   0.00000   0.00000   0.00000
  22 7   H  1S          0.00000   0.00000   0.00000   0.00000   0.00000
  23 8   H  1S          0.00000   0.00000   0.00000   0.00000   0.00000
  24 9   H  1S          0.00000   0.00000   0.00000   0.00000   0.00000
  25 10  H  1S          0.00000   0.00000   0.00000   0.00000   0.00000
  26 11  N  1S          0.00000   0.00000   0.00000   0.00000   0.00000
  27        1PX         0.00000   0.00000   0.00000   0.00000   0.00000
  28        1PY         0.00000   0.00000   0.00000   0.00000   0.00000
  29        1PZ         0.00000   0.00000   0.00000   0.00000   0.00000
                          21        22        23        24        25
  21 6   H  1S          0.86445
  22 7   H  1S          0.00000   0.86342
  23 8   H  1S          0.00000   0.00000   0.83947
  24 9   H  1S          0.00000   0.00000   0.00000   0.83947
  25 10  H  1S          0.00000   0.00000   0.00000   0.00000   0.86342
  26 11  N  1S          0.00000   0.00000   0.00000   0.00000   0.00000
  27        1PX         0.00000   0.00000   0.00000   0.00000   0.00000
  28        1PY         0.00000   0.00000   0.00000   0.00000   0.00000
  29        1PZ         0.00000   0.00000   0.00000   0.00000   0.00000
                          26        27        28        29
  26 11  N  1S          1.69850
  27        1PX         0.00000   0.97310
  28        1PY         0.00000   0.00000   1.38144
  29        1PZ         0.00000   0.00000   0.00000   1.10675
     Gross orbital populations:
                           1
   1 1   C  1S          1.21549
   2        1PX         0.92304
   3        1PY         0.99640
   4        1PZ         0.95743
   5 2   C  1S          1.22377
   6        1PX         0.98312
   7        1PY         0.95647
   8        1PZ         1.02349
   9 3   C  1S          1.23558
  10        1PX         0.96071
  11        1PY         0.91125
  12        1PZ         0.94442
  13 4   C  1S          1.23558
  14        1PX         0.96071
  15        1PY         0.91125
  16        1PZ         0.94442
  17 5   C  1S          1.22377
  18        1PX         0.98312
  19        1PY         0.95647
  20        1PZ         1.02349
  21 6   H  1S          0.86445
  22 7   H  1S          0.86342
  23 8   H  1S          0.83947
  24 9   H  1S          0.83947
  25 10  H  1S          0.86342
  26 11  N  1S          1.69850
  27        1PX         0.97310
  28        1PY         1.38144
  29        1PZ         1.10675
          Condensed to atoms (all electrons):
               1          2          3          4          5          6
     1  C    4.092360   0.000000   0.000000   0.000000   0.000000   0.000000
     2  C    0.000000   4.186852   0.000000   0.000000   0.000000   0.000000
     3  C    0.000000   0.000000   4.051958   0.000000   0.000000   0.000000
     4  C    0.000000   0.000000   0.000000   4.051958   0.000000   0.000000
     5  C    0.000000   0.000000   0.000000   0.000000   4.186852   0.000000
     6  H    0.000000   0.000000   0.000000   0.000000   0.000000   0.864448
     7  H    0.000000   0.000000   0.000000   0.000000   0.000000   0.000000
     8  H    0.000000   0.000000   0.000000   0.000000   0.000000   0.000000
     9  H    0.000000   0.000000   0.000000   0.000000   0.000000   0.000000
    10  H    0.000000   0.000000   0.000000   0.000000   0.000000   0.000000
    11  N    0.000000   0.000000   0.000000   0.000000   0.000000   0.000000
               7          8          9         10         11
     1  C    0.000000   0.000000   0.000000   0.000000   0.000000
     2  C    0.000000   0.000000   0.000000   0.000000   0.000000
     3  C    0.000000   0.000000   0.000000   0.000000   0.000000
     4  C    0.000000   0.000000   0.000000   0.000000   0.000000
     5  C    0.000000   0.000000   0.000000   0.000000   0.000000
     6  H    0.000000   0.000000   0.000000   0.000000   0.000000
     7  H    0.863419   0.000000   0.000000   0.000000   0.000000
     8  H    0.000000   0.839472   0.000000   0.000000   0.000000
     9  H    0.000000   0.000000   0.839472   0.000000   0.000000
    10  H    0.000000   0.000000   0.000000   0.863419   0.000000
    11  N    0.000000   0.000000   0.000000   0.000000   5.159790
 Mulliken charges:
               1
     1  C   -0.092360
     2  C   -0.186852
     3  C   -0.051958
     4  C   -0.051958
     5  C   -0.186852
     6  H    0.135552
     7  H    0.136581
     8  H    0.160528
     9  H    0.160528
    10  H    0.136581
    11  N   -0.159790
 Sum of Mulliken charges =   0.00000
 Mulliken charges with hydrogens summed into heavy atoms:
               1
     1  C    0.043192
     2  C   -0.050271
     3  C    0.108570
     4  C    0.108570
     5  C   -0.050271
    11  N   -0.159790
 Charge=              0.0000 electrons
 Dipole moment (field-independent basis, Debye):
    X=             -0.0000    Y=             -1.9259    Z=             -0.0000  Tot=              1.9259
 N-N= 1.232441878034D+02 E-N=-1.725182556124D+02  KE=-5.236406232714D+01
 Orbital energies and kinetic energies (alpha):
                                 1                 2
   1         O                -1.475873         -2.605046
   2         O                -1.217359         -2.387349
   3         O                -1.171874         -2.157164
   4         O                -0.893656         -1.915730
   5         O                -0.888616         -1.903521
   6         O                -0.669264         -1.435070
   7         O                -0.617480         -1.748174
   8         O                -0.615992         -1.352753
   9         O                -0.537799         -1.257450
  10         O                -0.529950         -1.796696
  11         O                -0.514912         -1.421226
  12         O                -0.467839         -1.251940
  13         O                -0.394425         -1.698273
  14         O                -0.383889         -1.745282
  15         O                -0.367570         -1.506358
  16         V                 0.004196         -1.387306
  17         V                 0.010158         -1.534222
  18         V                 0.102811         -1.456998
  19         V                 0.127008         -1.149585
  20         V                 0.142599         -0.865610
  21         V                 0.144523         -0.949357
  22         V                 0.149840         -1.109462
  23         V                 0.150601         -1.188182
  24         V                 0.170141         -0.991589
  25         V                 0.176965         -0.825844
  26         V                 0.186847         -1.055730
  27         V                 0.191858         -1.125122
  28         V                 0.209557         -1.141303
  29         V                 0.253819         -1.472168
 Total kinetic energy from orbitals=-5.236406232714D+01
 Calling FoFJK, ICntrl=      2127 FMM=F ISym2X=0 I1Cent= 0 IOpClX= 0 NMat=1 NMatS=1 NMatT=0.
 ***** Axes restored to original set *****
 -------------------------------------------------------------------
 Center     Atomic                   Forces (Hartrees/Bohr)
 Number     Number              X              Y              Z
 -------------------------------------------------------------------
      1        6           0.009557782    0.016538719   -0.003545298
      2        6          -0.008876779    0.001148589    0.000568649
      3        6          -0.036647772    0.000317979    0.003076205
      4        6           0.018622571   -0.031508661    0.003609206
      5        6           0.005439993   -0.007095598    0.000706374
      6        1          -0.010595735   -0.018334790    0.003930015
      7        1           0.011136935   -0.018102547    0.002036097
      8        1           0.023005856    0.006414419   -0.003022521
      9        1          -0.005954613    0.023090914   -0.003301705
     10        1          -0.021274251    0.000561018    0.001723715
     11        7           0.015586013    0.026969959   -0.005780738
 -------------------------------------------------------------------
 Cartesian Forces:  Max     0.036647772 RMS     0.014335833

 GradGradGradGradGradGradGradGradGradGradGradGradGradGradGradGradGradGrad
 Berny optimization.
 FormGI is forming the generalized inverse of G from B-inverse, IUseBI=4.
 Internal  Forces:  Max     0.023237787 RMS     0.009232394
 Search for a local minimum.
 Step number   1 out of a maximum of   57
 All quantities printed in internal units (Hartrees-Bohrs-Radians)
 Mixed Optimization -- RFO/linear search
 Second derivative matrix not updated -- first step.
 ITU=  0
     Eigenvalues ---    0.02104   0.02107   0.02129   0.02134   0.02156
     Eigenvalues ---    0.02182   0.02209   0.02363   0.16000   0.16000
     Eigenvalues ---    0.16000   0.16000   0.16000   0.22000   0.22000
     Eigenvalues ---    0.23221   0.37230   0.37230   0.37230   0.37230
     Eigenvalues ---    0.37230   0.41663   0.44128   0.45364   0.46283
     Eigenvalues ---    0.54109   0.55519
 RFO step:  Lambda=-1.21084979D-02 EMin= 2.10388833D-02
 Linear search not attempted -- first point.
 Iteration  1 RMS(Cart)=  0.03205079 RMS(Int)=  0.00046661
 Iteration  2 RMS(Cart)=  0.00076452 RMS(Int)=  0.00006536
 Iteration  3 RMS(Cart)=  0.00000026 RMS(Int)=  0.00006536
 Variable       Old X    -DE/DX   Delta X   Delta X   Delta X     New X
                                 (Linear)    (Quad)   (Total)
    R1        2.63598   0.00319   0.00000   0.00741   0.00732   2.64330
    R2        2.63598   0.00319   0.00000   0.00741   0.00732   2.64330
    R3        2.02201   0.02154   0.00000   0.05603   0.05603   2.07804
    R4        2.64856   0.01500   0.00000   0.03219   0.03220   2.68076
    R5        2.02201   0.02135   0.00000   0.05554   0.05554   2.07755
    R6        2.02201   0.02324   0.00000   0.06045   0.06045   2.08246
    R7        2.54032   0.00096   0.00000   0.00107   0.00116   2.54148
    R8        2.64856   0.01500   0.00000   0.03219   0.03220   2.68076
    R9        2.02201   0.02324   0.00000   0.06045   0.06045   2.08246
   R10        2.54032   0.00096   0.00000   0.00107   0.00116   2.54148
   R11        2.02201   0.02135   0.00000   0.05554   0.05554   2.07755
    A1        2.07321  -0.00217   0.00000  -0.00755  -0.00774   2.06547
    A2        2.10499   0.00108   0.00000   0.00377   0.00387   2.10886
    A3        2.10499   0.00108   0.00000   0.00377   0.00387   2.10886
    A4        2.08394  -0.00327   0.00000  -0.01384  -0.01394   2.07000
    A5        2.09962   0.00172   0.00000   0.00745   0.00750   2.10712
    A6        2.09962   0.00154   0.00000   0.00639   0.00644   2.10606
    A7        2.08904  -0.00038   0.00000   0.00933   0.00929   2.09833
    A8        2.10510   0.01347   0.00000   0.05523   0.05531   2.16041
    A9        2.08904  -0.01309   0.00000  -0.06456  -0.06460   2.02444
   A10        2.08904  -0.00038   0.00000   0.00933   0.00929   2.09833
   A11        2.10510   0.01347   0.00000   0.05523   0.05531   2.16041
   A12        2.08904  -0.01309   0.00000  -0.06456  -0.06460   2.02444
   A13        2.08394  -0.00327   0.00000  -0.01384  -0.01394   2.07000
   A14        2.09962   0.00172   0.00000   0.00745   0.00750   2.10712
   A15        2.09962   0.00154   0.00000   0.00639   0.00644   2.10606
   A16        2.11507  -0.01825   0.00000  -0.07525  -0.07500   2.04008
    D1        0.00000  -0.00000   0.00000  -0.00000  -0.00000  -0.00000
    D2        3.14159  -0.00000   0.00000  -0.00000  -0.00000   3.14159
    D3        3.14159   0.00000   0.00000   0.00000   0.00000   3.14159
    D4       -0.00000   0.00000   0.00000   0.00000   0.00000  -0.00000
    D5        0.00000   0.00000   0.00000   0.00000   0.00000   0.00000
    D6       -3.14159   0.00000   0.00000   0.00000   0.00000  -3.14159
    D7       -3.14159  -0.00000   0.00000  -0.00000  -0.00000  -3.14159
    D8        0.00000  -0.00000   0.00000  -0.00000  -0.00000   0.00000
    D9        3.14159   0.00000   0.00000   0.00000   0.00000   3.14159
   D10       -0.00000   0.00000   0.00000   0.00000   0.00000  -0.00000
   D11       -0.00000  -0.00000   0.00000  -0.00000  -0.00000  -0.00000
   D12        3.14159  -0.00000   0.00000   0.00000   0.00000   3.14159
   D13        0.00000  -0.00000   0.00000  -0.00000  -0.00000   0.00000
   D14       -3.14159  -0.00000   0.00000  -0.00000  -0.00000  -3.14159
   D15        3.14159   0.00000   0.00000   0.00000   0.00000   3.14159
   D16       -0.00000  -0.00000   0.00000  -0.00000  -0.00000  -0.00000
   D17       -0.00000   0.00000   0.00000   0.00000   0.00000  -0.00000
   D18        3.14159   0.00000   0.00000   0.00000   0.00000   3.14159
   D19        0.00000  -0.00000   0.00000  -0.00000  -0.00000  -0.00000
   D20       -3.14159  -0.00000   0.00000  -0.00000  -0.00000  -3.14159
         Item               Value     Threshold  Converged?
 Maximum Force            0.023238     0.000450     NO 
 RMS     Force            0.009232     0.000300     NO 
 Maximum Displacement     0.082731     0.001800     NO 
 RMS     Displacement     0.032213     0.001200     NO 
 Predicted change in Energy=-6.295576D-03
 GradGradGradGradGradGradGradGradGradGradGradGradGradGradGradGradGradGrad

                          Input orientation:                          
 ---------------------------------------------------------------------
 Center     Atomic      Atomic             Coordinates (Angstroms)
 Number     Number       Type             X           Y           Z
 ---------------------------------------------------------------------
      1          6           0       -2.422808   -1.086770    0.192281
      2          6           0       -1.029298   -1.075904    0.071518
      3          6           0       -0.379692    0.158314   -0.187591
      4          6           0       -2.365887    1.302039   -0.206738
      5          6           0       -3.111011    0.122824    0.051450
      6          1           0       -2.963791   -2.022883    0.392927
      7          1           0       -0.449190   -2.004021    0.175133
      8          1           0        0.717033    0.197673   -0.287716
      9          1           0       -2.880802    2.269439   -0.322402
     10          1           0       -4.206306    0.159465    0.138916
     11          7           0       -1.026536    1.329331   -0.325588
 ---------------------------------------------------------------------
                    Distance matrix (angstroms):
                    1          2          3          4          5
     1  C    0.000000
     2  C    1.398776   0.000000
     3  C    2.422573   1.418597   0.000000
     4  C    2.422573   2.741990   2.292040   0.000000
     5  C    1.398776   2.402266   2.741990   1.418597   0.000000
     6  H    1.099649   2.177690   3.431062   3.431062   2.177690
     7  H    2.176422   1.099392   2.193647   3.840518   3.409407
     8  H    3.426193   2.191055   1.101989   3.275756   3.843769
     9  H    3.426193   3.843769   3.275756   1.101989   2.191055
    10  H    2.176422   3.409407   3.840518   2.193647   1.099392
    11  N    2.838188   2.437797   1.344891   1.344891   2.437797
                    6          7          8          9         10
     6  H    0.000000
     7  H    2.524085   0.000000
     8  H    4.352311   2.534120   0.000000
     9  H    4.352311   4.941937   4.151848   0.000000
    10  H    2.524085   4.335655   4.941937   2.534120   0.000000
    11  N    3.937837   3.419837   2.078970   2.078970   3.419837
                   11
    11  N    0.000000
 Stoichiometry    C5H5N
 Framework group  C1[X(C5H5N)]
 Deg. of freedom    27
 Full point group                 C1      NOp   1
 Largest Abelian subgroup         C1      NOp   1
 Largest concise Abelian subgroup C1      NOp   1
                         Standard orientation:                         
 ---------------------------------------------------------------------
 Center     Atomic      Atomic             Coordinates (Angstroms)
 Number     Number       Type             X           Y           Z
 ---------------------------------------------------------------------
      1          6           0        0.000000   -1.400473   -0.000000
      2          6           0        1.201133   -0.683637   -0.000000
      3          6           0        1.146020    0.733889    0.000000
      4          6           0       -1.146020    0.733889   -0.000000
      5          6           0       -1.201133   -0.683637    0.000000
      6          1           0        0.000000   -2.500122   -0.000001
      7          1           0        2.167827   -1.207244   -0.000000
      8          1           0        2.075924    1.325209    0.000001
      9          1           0       -2.075924    1.325208   -0.000001
     10          1           0       -2.167827   -1.207244    0.000002
     11          7           0       -0.000000    1.437715   -0.000000
 ---------------------------------------------------------------------
 Rotational constants (GHZ):           5.9946632           5.6570329           2.9104782
 Standard basis: VSTO-6G (5D, 7F)
 There are    29 symmetry adapted cartesian basis functions of A   symmetry.
 There are    29 symmetry adapted basis functions of A   symmetry.
    29 basis functions,   174 primitive gaussians,    29 cartesian basis functions
    15 alpha electrons       15 beta electrons
       nuclear repulsion energy       122.6329750059 Hartrees.
 Integral buffers will be    131072 words long.
 Regular integral format.
 Two-electron integral symmetry is turned off.
 Do NDO integrals.
 One-electron integrals computed using PRISM.
 NBasis=    29 RedAO= F EigKep=  0.00D+00  NBF=    29
 NBsUse=    29 1.00D-04 EigRej=  0.00D+00 NBFU=    29
 Initial guess from the checkpoint file:  "pyridine_opt.chk"
 B after Tr=     0.000000   -0.000000   -0.000000
         Rot=    1.000000   -0.000000    0.000000   -0.000000 Ang=  -0.00 deg.
 Keep J ints in memory in canonical form, NReq=861446.
 Overlap will be assumed to be unity.
 Requested convergence on RMS density matrix=1.00D-08 within 128 cycles.
 Requested convergence on MAX density matrix=1.00D-06.
 Requested convergence on             energy=1.00D-06.
 No special actions if energy rises.
 SCF Done:  E(RAM1) =  0.513299216873E-01 A.U. after   11 cycles
            NFock= 10  Conv=0.83D-08     -V/T= 1.0010
 Calling FoFJK, ICntrl=      2127 FMM=F ISym2X=0 I1Cent= 0 IOpClX= 0 NMat=1 NMatS=1 NMatT=0.
 ***** Axes restored to original set *****
 -------------------------------------------------------------------
 Center     Atomic                   Forces (Hartrees/Bohr)
 Number     Number              X              Y              Z
 -------------------------------------------------------------------
      1        6           0.004005099    0.006930399   -0.001485518
      2        6           0.001471043    0.007891467   -0.001427710
      3        6          -0.004085184   -0.013670198    0.002604416
      4        6          -0.009809874   -0.010373719    0.002549180
      5        6           0.006107169    0.005221820   -0.001382979
      6        1           0.000344812    0.000596662   -0.000127836
      7        1          -0.000014105    0.002142308   -0.000352285
      8        1           0.001586660    0.000161962   -0.000162212
      9        1          -0.000653862    0.001452147   -0.000183765
     10        1           0.001864901    0.001060298   -0.000334213
     11        7          -0.000816659   -0.001413145    0.000302922
 -------------------------------------------------------------------
 Cartesian Forces:  Max     0.013670198 RMS     0.004396072

 GradGradGradGradGradGradGradGradGradGradGradGradGradGradGradGradGradGrad
 Berny optimization.
 Using GEDIIS/GDIIS optimizer.
 FormGI is forming the generalized inverse of G from B-inverse, IUseBI=4.
 Internal  Forces:  Max     0.014068819 RMS     0.003230248
 Search for a local minimum.
 Step number   2 out of a maximum of   57
 All quantities printed in internal units (Hartrees-Bohrs-Radians)
 Mixed Optimization -- RFO/linear search
 Update second derivatives using D2CorX and points    1    2
 DE= -5.20D-03 DEPred=-6.30D-03 R= 8.26D-01
 TightC=F SS=  1.41D+00  RLast= 1.99D-01 DXNew= 5.0454D-01 5.9802D-01
 Trust test= 8.26D-01 RLast= 1.99D-01 DXMaxT set to 5.05D-01
 ITU=  1  0
 Use linear search instead of GDIIS.
     Eigenvalues ---    0.02104   0.02107   0.02128   0.02134   0.02156
     Eigenvalues ---    0.02177   0.02202   0.02356   0.15663   0.16000
     Eigenvalues ---    0.16000   0.16000   0.16114   0.21511   0.22000
     Eigenvalues ---    0.24371   0.33499   0.37230   0.37230   0.37230
     Eigenvalues ---    0.37425   0.41569   0.44278   0.46279   0.54166
     Eigenvalues ---    0.55414   0.58178
 RFO step:  Lambda=-7.68947361D-04 EMin= 2.10382615D-02
 Quartic linear search produced a step of -0.11637.
 Iteration  1 RMS(Cart)=  0.00805542 RMS(Int)=  0.00001787
 Iteration  2 RMS(Cart)=  0.00001863 RMS(Int)=  0.00001374
 Iteration  3 RMS(Cart)=  0.00000000 RMS(Int)=  0.00001374
 Variable       Old X    -DE/DX   Delta X   Delta X   Delta X     New X
                                 (Linear)    (Quad)   (Total)
    R1        2.64330  -0.00383  -0.00085  -0.00648  -0.00731   2.63599
    R2        2.64330  -0.00383  -0.00085  -0.00648  -0.00731   2.63599
    R3        2.07804  -0.00070  -0.00652   0.00839   0.00187   2.07991
    R4        2.68076  -0.01407  -0.00375  -0.02155  -0.02530   2.65546
    R5        2.07755  -0.00185  -0.00646   0.00559  -0.00088   2.07667
    R6        2.08246   0.00160  -0.00703   0.01463   0.00760   2.09006
    R7        2.54148   0.00183  -0.00013   0.00351   0.00335   2.54483
    R8        2.68076  -0.01407  -0.00375  -0.02155  -0.02530   2.65546
    R9        2.08246   0.00160  -0.00703   0.01463   0.00760   2.09006
   R10        2.54148   0.00183  -0.00013   0.00351   0.00335   2.54483
   R11        2.07755  -0.00185  -0.00646   0.00559  -0.00088   2.07667
    A1        2.06547   0.00364   0.00090   0.01090   0.01184   2.07731
    A2        2.10886  -0.00182  -0.00045  -0.00545  -0.00592   2.10294
    A3        2.10886  -0.00182  -0.00045  -0.00545  -0.00592   2.10294
    A4        2.07000  -0.00062   0.00162  -0.00608  -0.00443   2.06557
    A5        2.10712   0.00149  -0.00087   0.00963   0.00874   2.11587
    A6        2.10606  -0.00087  -0.00075  -0.00355  -0.00431   2.10175
    A7        2.09833   0.00123  -0.00108   0.00616   0.00508   2.10341
    A8        2.16041  -0.00224  -0.00644   0.00215  -0.00431   2.15611
    A9        2.02444   0.00101   0.00752  -0.00830  -0.00078   2.02366
   A10        2.09833   0.00123  -0.00108   0.00616   0.00508   2.10341
   A11        2.16041  -0.00224  -0.00644   0.00215  -0.00431   2.15611
   A12        2.02444   0.00101   0.00752  -0.00830  -0.00078   2.02366
   A13        2.07000  -0.00062   0.00162  -0.00608  -0.00443   2.06557
   A14        2.10712   0.00149  -0.00087   0.00963   0.00874   2.11587
   A15        2.10606  -0.00087  -0.00075  -0.00355  -0.00431   2.10175
   A16        2.04008   0.00208   0.00873  -0.00303   0.00564   2.04572
    D1       -0.00000   0.00000   0.00000  -0.00000   0.00000  -0.00000
    D2        3.14159   0.00000   0.00000   0.00000   0.00000   3.14159
    D3        3.14159   0.00000  -0.00000   0.00000   0.00000   3.14159
    D4       -0.00000   0.00000  -0.00000   0.00000   0.00000  -0.00000
    D5        0.00000  -0.00000  -0.00000  -0.00000  -0.00000   0.00000
    D6       -3.14159  -0.00000  -0.00000  -0.00000  -0.00000  -3.14159
    D7       -3.14159  -0.00000   0.00000  -0.00000  -0.00000  -3.14159
    D8        0.00000  -0.00000   0.00000  -0.00000  -0.00000   0.00000
    D9        3.14159   0.00000  -0.00000   0.00000   0.00000   3.14159
   D10       -0.00000   0.00000  -0.00000   0.00000   0.00000  -0.00000
   D11       -0.00000   0.00000   0.00000   0.00000   0.00000  -0.00000
   D12        3.14159   0.00000  -0.00000   0.00000   0.00000   3.14159
   D13        0.00000  -0.00000   0.00000  -0.00000  -0.00000   0.00000
   D14       -3.14159  -0.00000   0.00000  -0.00000  -0.00000  -3.14159
   D15        3.14159   0.00000  -0.00000   0.00000   0.00000   3.14159
   D16       -0.00000   0.00000   0.00000   0.00000   0.00000  -0.00000
   D17       -0.00000   0.00000  -0.00000   0.00000   0.00000  -0.00000
   D18        3.14159   0.00000  -0.00000   0.00000   0.00000   3.14159
   D19       -0.00000   0.00000   0.00000   0.00000   0.00000   0.00000
   D20       -3.14159  -0.00000   0.00000  -0.00000  -0.00000  -3.14159
         Item               Value     Threshold  Converged?
 Maximum Force            0.014069     0.000450     NO 
 RMS     Force            0.003230     0.000300     NO 
 Maximum Displacement     0.020036     0.001800     NO 
 RMS     Displacement     0.008053     0.001200     NO 
 Predicted change in Energy=-4.759120D-04
 GradGradGradGradGradGradGradGradGradGradGradGradGradGradGradGradGradGrad

                          Input orientation:                          
 ---------------------------------------------------------------------
 Center     Atomic      Atomic             Coordinates (Angstroms)
 Number     Number       Type             X           Y           Z
 ---------------------------------------------------------------------
      1          6           0       -2.416787   -1.076350    0.190048
      2          6           0       -1.026976   -1.073662    0.070950
      3          6           0       -0.381653    0.147934   -0.185710
      4          6           0       -2.373907    1.295147   -0.204916
      5          6           0       -3.110230    0.125952    0.050867
      6          1           0       -2.958257   -2.013306    0.390875
      7          1           0       -0.444492   -1.999798    0.174036
      8          1           0        0.718868    0.191360   -0.286832
      9          1           0       -2.887196    2.267864   -0.321596
     10          1           0       -4.204995    0.165639    0.137785
     11          7           0       -1.032663    1.318729   -0.323315
 ---------------------------------------------------------------------
                    Distance matrix (angstroms):
                    1          2          3          4          5
     1  C    0.000000
     2  C    1.394907   0.000000
     3  C    2.404545   1.405209   0.000000
     4  C    2.404545   2.738902   2.299032   0.000000
     5  C    1.394907   2.404043   2.738902   1.405209   0.000000
     6  H    1.100640   2.171434   3.412081   3.412081   2.171434
     7  H    2.177833   1.098927   2.178559   3.837045   3.411765
     8  H    3.415675   2.185466   1.106010   3.284862   3.844517
     9  H    3.415675   3.844517   3.284862   1.106010   2.185466
    10  H    2.177833   3.411765   3.837045   2.178559   1.098927
    11  N    2.813493   2.424668   1.346667   1.346667   2.424668
                    6          7          8          9         10
     6  H    0.000000
     7  H    2.523135   0.000000
     8  H    4.340632   2.523287   0.000000
     9  H    4.340632   4.942205   4.161344   0.000000
    10  H    2.523135   4.339564   4.942205   2.523287   0.000000
    11  N    3.914133   3.406747   2.083304   2.083304   3.406747
                   11
    11  N    0.000000
 Stoichiometry    C5H5N
 Framework group  C1[X(C5H5N)]
 Deg. of freedom    27
 Full point group                 C1      NOp   1
 Largest Abelian subgroup         C1      NOp   1
 Largest concise Abelian subgroup C1      NOp   1
                         Standard orientation:                         
 ---------------------------------------------------------------------
 Center     Atomic      Atomic             Coordinates (Angstroms)
 Number     Number       Type             X           Y           Z
 ---------------------------------------------------------------------
      1          6           0       -0.000000   -1.386246   -0.000000
      2          6           0        1.202022   -0.678497   -0.000000
      3          6           0        1.149516    0.725731    0.000000
      4          6           0       -1.149516    0.725731   -0.000000
      5          6           0       -1.202022   -0.678497    0.000000
      6          1           0       -0.000000   -2.486886   -0.000001
      7          1           0        2.169782   -1.199152   -0.000000
      8          1           0        2.080672    1.322561    0.000000
      9          1           0       -2.080672    1.322562   -0.000000
     10          1           0       -2.169782   -1.199152    0.000001
     11          7           0        0.000000    1.427247   -0.000000
 ---------------------------------------------------------------------
 Rotational constants (GHZ):           5.9733556           5.7515491           2.9301772
 Standard basis: VSTO-6G (5D, 7F)
 There are    29 symmetry adapted cartesian basis functions of A   symmetry.
 There are    29 symmetry adapted basis functions of A   symmetry.
    29 basis functions,   174 primitive gaussians,    29 cartesian basis functions
    15 alpha electrons       15 beta electrons
       nuclear repulsion energy       122.8278028458 Hartrees.
 Integral buffers will be    131072 words long.
 Regular integral format.
 Two-electron integral symmetry is turned off.
 Do NDO integrals.
 One-electron integrals computed using PRISM.
 NBasis=    29 RedAO= F EigKep=  0.00D+00  NBF=    29
 NBsUse=    29 1.00D-04 EigRej=  0.00D+00 NBFU=    29
 Initial guess from the checkpoint file:  "pyridine_opt.chk"
 B after Tr=    -0.000000    0.000000   -0.000000
         Rot=    1.000000    0.000000   -0.000000    0.000000 Ang=   0.00 deg.
 Keep J ints in memory in canonical form, NReq=861446.
 Overlap will be assumed to be unity.
 Requested convergence on RMS density matrix=1.00D-08 within 128 cycles.
 Requested convergence on MAX density matrix=1.00D-06.
 Requested convergence on             energy=1.00D-06.
 No special actions if energy rises.
 SCF Done:  E(RAM1) =  0.509360595326E-01 A.U. after   11 cycles
            NFock= 10  Conv=0.20D-08     -V/T= 1.0010
 Calling FoFJK, ICntrl=      2127 FMM=F ISym2X=0 I1Cent= 0 IOpClX= 0 NMat=1 NMatS=1 NMatT=0.
 ***** Axes restored to original set *****
 -------------------------------------------------------------------
 Center     Atomic                   Forces (Hartrees/Bohr)
 Number     Number              X              Y              Z
 -------------------------------------------------------------------
      1        6          -0.001591376   -0.002753706    0.000590232
      2        6           0.000608879   -0.002344577    0.000334867
      3        6           0.002710336    0.000508096   -0.000315235
      4        6          -0.000916230    0.002596411   -0.000350183
      5        6          -0.002338073   -0.000647610    0.000306482
      6        1           0.000292158    0.000505549   -0.000108345
      7        1          -0.000601473    0.000762292   -0.000074427
      8        1          -0.000784819    0.000541777   -0.000022394
      9        1           0.000862739   -0.000406945   -0.000006501
     10        1           0.000962182   -0.000138125   -0.000059383
     11        7           0.000795678    0.001376838   -0.000295113
 -------------------------------------------------------------------
 Cartesian Forces:  Max     0.002753706 RMS     0.001161449

 GradGradGradGradGradGradGradGradGradGradGradGradGradGradGradGradGradGrad
 Berny optimization.
 Using GEDIIS/GDIIS optimizer.
 FormGI is forming the generalized inverse of G from B-inverse, IUseBI=4.
 Internal  Forces:  Max     0.002698686 RMS     0.000774369
 Search for a local minimum.
 Step number   3 out of a maximum of   57
 All quantities printed in internal units (Hartrees-Bohrs-Radians)
 Mixed Optimization -- En-DIIS/RFO-DIIS
 Update second derivatives using D2CorX and points    1    2    3
 DE= -3.94D-04 DEPred=-4.76D-04 R= 8.28D-01
 TightC=F SS=  1.41D+00  RLast= 4.57D-02 DXNew= 8.4853D-01 1.3720D-01
 Trust test= 8.28D-01 RLast= 4.57D-02 DXMaxT set to 5.05D-01
 ITU=  1  1  0
 Use linear search instead of GDIIS.
     Eigenvalues ---    0.02104   0.02107   0.02129   0.02135   0.02156
     Eigenvalues ---    0.02177   0.02202   0.02356   0.15082   0.16000
     Eigenvalues ---    0.16000   0.16000   0.16174   0.22000   0.22099
     Eigenvalues ---    0.24364   0.35902   0.37230   0.37230   0.37238
     Eigenvalues ---    0.37941   0.41593   0.44305   0.46283   0.52933
     Eigenvalues ---    0.55422   0.67364
 RFO step:  Lambda=-2.56291545D-05 EMin= 2.10411736D-02
 Quartic linear search produced a step of -0.15143.
 Iteration  1 RMS(Cart)=  0.00184551 RMS(Int)=  0.00000228
 Iteration  2 RMS(Cart)=  0.00000210 RMS(Int)=  0.00000092
 Iteration  3 RMS(Cart)=  0.00000000 RMS(Int)=  0.00000092
 Variable       Old X    -DE/DX   Delta X   Delta X   Delta X     New X
                                 (Linear)    (Quad)   (Total)
    R1        2.63599   0.00161   0.00111   0.00145   0.00255   2.63854
    R2        2.63599   0.00161   0.00111   0.00145   0.00255   2.63854
    R3        2.07991  -0.00059  -0.00028  -0.00146  -0.00175   2.07816
    R4        2.65546   0.00270   0.00383  -0.00009   0.00374   2.65920
    R5        2.07667  -0.00097   0.00013  -0.00281  -0.00268   2.07399
    R6        2.09006  -0.00076  -0.00115  -0.00078  -0.00194   2.08812
    R7        2.54483   0.00115  -0.00051   0.00231   0.00180   2.54663
    R8        2.65546   0.00270   0.00383  -0.00009   0.00374   2.65920
    R9        2.09006  -0.00076  -0.00115  -0.00078  -0.00194   2.08812
   R10        2.54483   0.00115  -0.00051   0.00231   0.00180   2.54663
   R11        2.07667  -0.00097   0.00013  -0.00281  -0.00268   2.07399
    A1        2.07731  -0.00062  -0.00179   0.00008  -0.00172   2.07559
    A2        2.10294   0.00031   0.00090  -0.00004   0.00086   2.10380
    A3        2.10294   0.00031   0.00090  -0.00004   0.00086   2.10380
    A4        2.06557   0.00034   0.00067   0.00059   0.00126   2.06682
    A5        2.11587  -0.00028  -0.00132   0.00042  -0.00091   2.11496
    A6        2.10175  -0.00006   0.00065  -0.00101  -0.00035   2.10140
    A7        2.10341   0.00061  -0.00077   0.00412   0.00335   2.10676
    A8        2.15611  -0.00001   0.00065  -0.00138  -0.00073   2.15538
    A9        2.02366  -0.00060   0.00012  -0.00274  -0.00262   2.02104
   A10        2.10341   0.00061  -0.00077   0.00412   0.00335   2.10676
   A11        2.15611  -0.00001   0.00065  -0.00138  -0.00073   2.15538
   A12        2.02366  -0.00060   0.00012  -0.00274  -0.00262   2.02104
   A13        2.06557   0.00034   0.00067   0.00059   0.00126   2.06682
   A14        2.11587  -0.00028  -0.00132   0.00042  -0.00091   2.11496
   A15        2.10175  -0.00006   0.00065  -0.00101  -0.00035   2.10140
   A16        2.04572  -0.00004  -0.00085   0.00150   0.00065   2.04637
    D1       -0.00000   0.00000  -0.00000   0.00000   0.00000   0.00000
    D2        3.14159   0.00000  -0.00000   0.00000   0.00000  -3.14159
    D3        3.14159   0.00000  -0.00000   0.00000   0.00000   3.14159
    D4       -0.00000   0.00000  -0.00000   0.00000   0.00000  -0.00000
    D5        0.00000  -0.00000   0.00000  -0.00000  -0.00000   0.00000
    D6       -3.14159  -0.00000   0.00000  -0.00000  -0.00000  -3.14159
    D7       -3.14159  -0.00000   0.00000  -0.00000  -0.00000  -3.14159
    D8        0.00000  -0.00000   0.00000  -0.00000  -0.00000   0.00000
    D9        3.14159   0.00000  -0.00000   0.00000   0.00000   3.14159
   D10       -0.00000   0.00000  -0.00000   0.00000   0.00000  -0.00000
   D11       -0.00000   0.00000  -0.00000   0.00000   0.00000  -0.00000
   D12        3.14159   0.00000  -0.00000   0.00000   0.00000   3.14159
   D13        0.00000  -0.00000   0.00000  -0.00000  -0.00000   0.00000
   D14       -3.14159  -0.00000   0.00000  -0.00000  -0.00000  -3.14159
   D15        3.14159   0.00000  -0.00000   0.00000   0.00000   3.14159
   D16       -0.00000   0.00000  -0.00000   0.00000   0.00000  -0.00000
   D17       -0.00000   0.00000  -0.00000   0.00000   0.00000  -0.00000
   D18        3.14159   0.00000  -0.00000   0.00000   0.00000   3.14159
   D19        0.00000  -0.00000  -0.00000  -0.00000  -0.00000   0.00000
   D20       -3.14159   0.00000   0.00000   0.00000   0.00000  -3.14159
         Item               Value     Threshold  Converged?
 Maximum Force            0.002699     0.000450     NO 
 RMS     Force            0.000774     0.000300     NO 
 Maximum Displacement     0.006287     0.001800     NO 
 RMS     Displacement     0.001845     0.001200     NO 
 Predicted change in Energy=-2.619620D-05
 GradGradGradGradGradGradGradGradGradGradGradGradGradGradGradGradGradGrad

                          Input orientation:                          
 ---------------------------------------------------------------------
 Center     Atomic      Atomic             Coordinates (Angstroms)
 Number     Number       Type             X           Y           Z
 ---------------------------------------------------------------------
      1          6           0       -2.418224   -1.078836    0.190581
      2          6           0       -1.027086   -1.074963    0.071174
      3          6           0       -0.380357    0.148091   -0.185847
      4          6           0       -2.374420    1.296346   -0.205070
      5          6           0       -3.111302    0.125206    0.051082
      6          1           0       -2.959239   -2.015006    0.391240
      7          1           0       -0.445399   -1.999929    0.174135
      8          1           0        0.718966    0.194686   -0.287389
      9          1           0       -2.884360    2.269614   -0.322126
     10          1           0       -4.204656    0.164789    0.137895
     11          7           0       -1.032211    1.319510   -0.323483
 ---------------------------------------------------------------------
                    Distance matrix (angstroms):
                    1          2          3          4          5
     1  C    0.000000
     2  C    1.396258   0.000000
     3  C    2.408308   1.407188   0.000000
     4  C    2.408308   2.741299   2.301118   0.000000
     5  C    1.396258   2.405154   2.741299   1.407188   0.000000
     6  H    1.099716   2.172403   3.415062   3.415062   2.172403
[...]
 Optimization completed.
    -- Stationary point found.
                           ----------------------------
                           !   Optimized Parameters   !
                           ! (Angstroms and Degrees)  !
 --------------------------                            --------------------------
 ! Name  Definition              Value          Derivative Info.                !
 --------------------------------------------------------------------------------
 ! R1    R(1,2)                  1.3959         -DE/DX =    0.0002              !
 ! R2    R(1,5)                  1.3959         -DE/DX =    0.0002              !
 ! R3    R(1,6)                  1.0994         -DE/DX =    0.0                 !
 ! R4    R(2,3)                  1.4072         -DE/DX =   -0.0001              !
 ! R5    R(2,7)                  1.0973         -DE/DX =    0.0001              !
 ! R6    R(3,8)                  1.1046         -DE/DX =    0.0001              !
 ! R7    R(3,11)                 1.3472         -DE/DX =    0.0003              !
 ! R8    R(4,5)                  1.4072         -DE/DX =   -0.0001              !
 ! R9    R(4,9)                  1.1046         -DE/DX =    0.0001              !
 ! R10   R(4,11)                 1.3472         -DE/DX =    0.0003              !
 ! R11   R(5,10)                 1.0973         -DE/DX =    0.0001              !
 ! A1    A(2,1,5)              118.8859         -DE/DX =    0.0001              !
 ! A2    A(2,1,6)              120.557          -DE/DX =    0.0                 !
 ! A3    A(5,1,6)              120.557          -DE/DX =    0.0                 !
 ! A4    A(1,2,3)              118.4353         -DE/DX =    0.0                 !
 ! A5    A(1,2,7)              121.1574         -DE/DX =    0.0                 !
 ! A6    A(3,2,7)              120.4072         -DE/DX =    0.0                 !
 ! A7    A(2,3,8)              120.7808         -DE/DX =    0.0                 !
 ! A8    A(2,3,11)             123.5155         -DE/DX =   -0.0001              !
 ! A9    A(8,3,11)             115.7036         -DE/DX =    0.0001              !
 ! A10   A(5,4,9)              120.7808         -DE/DX =    0.0                 !
 ! A11   A(5,4,11)             123.5155         -DE/DX =   -0.0001              !
 ! A12   A(9,4,11)             115.7036         -DE/DX =    0.0001              !
 ! A13   A(1,5,4)              118.4353         -DE/DX =    0.0                 !
 ! A14   A(1,5,10)             121.1574         -DE/DX =    0.0                 !
 ! A15   A(4,5,10)             120.4072         -DE/DX =    0.0                 !
 ! A16   A(3,11,4)             117.2124         -DE/DX =    0.0001              !
 ! D1    D(5,1,2,3)              0.0            -DE/DX =    0.0                 !
 ! D2    D(5,1,2,7)            180.0            -DE/DX =    0.0                 !
 ! D3    D(6,1,2,3)            180.0            -DE/DX =    0.0                 !
 ! D4    D(6,1,2,7)              0.0            -DE/DX =    0.0                 !
 ! D5    D(2,1,5,4)              0.0            -DE/DX =    0.0                 !
 ! D6    D(2,1,5,10)           180.0            -DE/DX =    0.0                 !
 ! D7    D(6,1,5,4)           -180.0            -DE/DX =    0.0                 !
 ! D8    D(6,1,5,10)             0.0            -DE/DX =    0.0                 !
 ! D9    D(1,2,3,8)           -180.0            -DE/DX =    0.0                 !
 ! D10   D(1,2,3,11)             0.0            -DE/DX =    0.0                 !
 ! D11   D(7,2,3,8)              0.0            -DE/DX =    0.0                 !
 ! D12   D(7,2,3,11)           180.0            -DE/DX =    0.0                 !
 ! D13   D(2,3,11,4)             0.0            -DE/DX =    0.0                 !
 ! D14   D(8,3,11,4)          -180.0            -DE/DX =    0.0                 !
 ! D15   D(9,4,5,1)            180.0            -DE/DX =    0.0                 !
 ! D16   D(9,4,5,10)             0.0            -DE/DX =    0.0                 !
 ! D17   D(11,4,5,1)             0.0            -DE/DX =    0.0                 !
 ! D18   D(11,4,5,10)          180.0            -DE/DX =    0.0                 !
 ! D19   D(5,4,11,3)             0.0            -DE/DX =    0.0                 !
 ! D20   D(9,4,11,3)           180.0            -DE/DX =    0.0                 !
 --------------------------------------------------------------------------------
 GradGradGradGradGradGradGradGradGradGradGradGradGradGradGradGradGradGrad


 ----------------------------------------------------------------------

 Electric dipole moment (input orientation):
 (Debye = 10**-18 statcoulomb cm , SI units = C m)
                  (au)            (Debye)         (10**-30 SI)
   Tot        0.776646D+00      0.197404D+01      0.658468D+01
   x         -0.382078D+00     -0.971146D+00     -0.323939D+01
   y         -0.661146D+00     -0.168046D+01     -0.560543D+01
   z          0.141710D+00      0.360192D+00      0.120147D+01

 Dipole polarizability, Alpha (input orientation).
 (esu units = cm**3 , SI units = C**2 m**2 J**-1)
 Alpha(0;0):
               (au)            (10**-24 esu)      (10**-40 SI)
   iso        0.456182D+02      0.675992D+01      0.752142D+01
   aniso      0.546921D+02      0.810453D+01      0.901750D+01
   xx         0.651201D+02      0.964980D+01      0.107368D+02
   yx        -0.369148D+01     -0.547020D+00     -0.608642D+00
   yy         0.606587D+02      0.898870D+01      0.100013D+02
   zx        -0.414990D+01     -0.614952D+00     -0.684227D+00
   zy        -0.814642D+01     -0.120717D+01     -0.134316D+01
   zz         0.110757D+02      0.164125D+01      0.182614D+01

 First dipole hyperpolarizability, Beta (input orientation).
 ||, _|_  parallel and perpendicular components, (z) with respect to z axis,
 vector components x,y,z.  Values do not include the 1/n! factor of 1/2.
 (esu units = statvolt**-1 cm**4 , SI units = C**3 m**3 J**-2)
 Beta(0;0,0):
               (au)            (10**-30 esu)      (10**-50 SI)
   || (z)     0.522442D+01      0.451349D-01      0.167514D-01
   _|_(z)     0.174147D+01      0.150450D-01      0.558379D-02
   x         -0.704301D+02     -0.608461D+00     -0.225824D+00
   y         -0.121872D+03     -0.105288D+01     -0.390765D+00
   z          0.261221D+02      0.225674D+00      0.837568D-01
   ||         0.286325D+02      0.247362D+00      0.918061D-01
   xxx       -0.234964D+02     -0.202990D+00     -0.753378D-01
   xxy       -0.798837D+01     -0.690133D-01     -0.256136D-01
   yxy        0.501764D+01      0.433485D-01      0.160884D-01
   yyy       -0.239353D+02     -0.206782D+00     -0.767452D-01
   xxz        0.242729D+01      0.209699D-01      0.778278D-02
   yxz       -0.178845D+01     -0.154508D-01     -0.573441D-02
   yyz        0.521819D+00      0.450811D-02      0.167314D-02
   zxz       -0.499798D+01     -0.431786D-01     -0.160253D-01
   zyz       -0.870028D+01     -0.751637D-01     -0.278963D-01
   zzz        0.575825D+01      0.497468D-01      0.184630D-01

 ----------------------------------------------------------------------

 Dipole orientation:
     6         -2.73521911          1.13580795          4.05013833
     6         -0.75885216          0.01595072          2.70902396
     6         -0.84450609          0.06448438          0.05168167
     6         -4.62593214          2.20713148          0.05168167
     6         -4.71158607          2.25566517          2.70902395
     1         -2.73521915          1.13580791          6.12776770
     1          0.82980885         -0.88422299          3.69161126
     1          0.68028598         -0.79949950         -1.08220939
     1         -6.15072424          3.07111532         -1.08220939
     1         -6.30024704          3.15583895          3.69161126
     7         -2.73521912          1.13580792         -1.27448509

 Electric dipole moment (dipole orientation):
 (Debye = 10**-18 statcoulomb cm , SI units = C m)
                  (au)            (Debye)         (10**-30 SI)
   Tot        0.776646D+00      0.197404D+01      0.658468D+01
   x          0.000000D+00      0.000000D+00      0.000000D+00
   y          0.000000D+00      0.000000D+00      0.000000D+00
   z          0.776646D+00      0.197404D+01      0.658468D+01

 Dipole polarizability, Alpha (dipole orientation).
 (esu units = cm**3 , SI units = C**2 m**2 J**-1)
 Alpha(0;0):
               (au)            (10**-24 esu)      (10**-40 SI)
   iso        0.456182D+02      0.675992D+01      0.752142D+01
   aniso      0.546921D+02      0.810453D+01      0.901750D+01
   xx         0.531515D+02      0.787623D+01      0.876349D+01
   yx        -0.248035D+02     -0.367550D+01     -0.408955D+01
   yy         0.234315D+02      0.347219D+01      0.386334D+01
   zx         0.000000D+00      0.000000D+00      0.000000D+00
   zy         0.000000D+00      0.000000D+00      0.000000D+00
   zz         0.602715D+02      0.893132D+01      0.993743D+01

 First dipole hyperpolarizability, Beta (dipole orientation).
 ||, _|_  parallel and perpendicular components, (z) with respect to z axis,
 vector components x,y,z.  Values do not include the 1/n! factor of 1/2.
 (esu units = statvolt**-1 cm**4 , SI units = C**3 m**3 J**-2)
 Beta(0;0,0):
               (au)            (10**-30 esu)      (10**-50 SI)
   || (z)     0.286325D+02      0.247362D+00      0.918061D-01
   _|_(z)     0.954417D+01      0.824542D-01      0.306020D-01
   x          0.000000D+00      0.000000D+00      0.000000D+00
   y          0.000000D+00      0.000000D+00      0.000000D+00
   z          0.143162D+03      0.123681D+01      0.459031D+00
   ||         0.286325D+02      0.247362D+00      0.918061D-01
   xxx        0.000000D+00      0.000000D+00      0.000000D+00
   xxy        0.000000D+00      0.000000D+00      0.000000D+00
   yxy        0.000000D+00      0.000000D+00      0.000000D+00
   yyy        0.000000D+00      0.000000D+00      0.000000D+00
   xxz        0.171143D+02      0.147854D+00      0.548747D-01
   yxz       -0.364811D+01     -0.315169D-01     -0.116972D-01
   yyz        0.127431D+02      0.110091D+00      0.408590D-01
   zxz        0.000000D+00      0.000000D+00      0.000000D+00
   zyz        0.000000D+00      0.000000D+00      0.000000D+00
   zzz        0.178634D+02      0.154326D+00      0.572765D-01

 ----------------------------------------------------------------------
 1\1\GINC-IISERK51\Freq\RAM1\ZDO\C5H5N1\GAUSSIAN\14-Jun-2025\0\\#N Geom
 =AllCheck Guess=TCheck SCRF=Check GenChk RAM1/ZDO Freq\\pyridine opt+f
 req with AM1\\0,1\C,-2.4184225069,-1.0791804892,0.1906544554\C,-1.0276
 149138,-1.0748681268,0.0712035537\C,-0.380964523,0.1482065432,-0.18581
 42216\C,-2.3740153537,1.2958787304,-0.2050276382\C,-3.1109558671,0.124
 7964646,0.0511198098\H,-2.9592992225,-2.0151101258,0.391262213\H,-0.44
 6090483,-1.9996662352,0.1741502814\H,0.7178873162,0.1962231526,-0.2875
 508362\H,-2.8824873399,2.2694516811,-0.3222592432\H,-4.2040812486,0.16
 43235222,0.1379227145\N,-1.0322441877,1.3194536964,-0.3234704216\\Vers
 ion=EM64L-G16RevB.01\State=1-A\HF=0.0509094\RMSD=2.076e-10\RMSF=9.034e
 -05\ZeroPoint=0.0902872\Thermal=0.0945561\Dipole=-0.3820781,-0.6611456
 ,0.1417104\DipoleDeriv=0.0764335,-0.0396029,-0.0057435,-0.0396029,0.03
 01954,-0.0127194,-0.0057435,-0.0127194,-0.0647926,-0.3877224,-0.004088
 7,0.0195567,-0.1712359,-0.1609602,0.013696,0.0471364,-0.0005741,-0.170
 4843,0.061393,-0.0026057,-0.0086624,0.2545233,-0.000793,-0.0290417,-0.
 0510894,-0.0070895,-0.0395755,-0.0944584,0.1645536,-0.0229384,-0.09257
 54,0.1545012,-0.0250323,0.0194885,-0.0469845,-0.0390182,-0.1416603,-0.
 0291896,0.002691,0.1379576,-0.4061424,0.0277545,-0.0248887,0.0420246,-
 0.1713641,0.0827084,0.0618059,-0.0057206,0.0618059,0.1542543,-0.008428
 3,-0.0057206,-0.0084283,0.1370327,0.1031346,-0.0719953,0.0161929,-0.06
 25918,0.1664038,0.0032408,0.0146413,0.0040437,0.151742,0.2486998,0.010
 968,-0.0107458,0.0296705,0.0582402,0.0116225,-0.0138318,0.0132193,0.14
 30303,0.0881004,-0.0630401,0.0151768,-0.0817426,0.2182655,-0.0052702,0
 .0182628,-0.0068669,0.1436045,0.2090122,-0.001471,-0.004483,-0.0108744
 ,0.0609048,0.0162331,-0.0029314,0.0154303,0.1513634,-0.2456586,-0.0253
 358,0.0046781,-0.0253358,-0.2748894,0.007948,0.0046781,0.007948,-0.241
 5404\Polar=65.1200519,-3.6914753,60.6587264,-4.1499036,-8.1464163,11.0
 757303\HyperPolar=-23.4963624,-7.9883722,5.0176388,-23.9352778,2.42729
 26,-1.7884466,0.5218187,-4.997976,-8.7002841,5.7582506\PG=C01 [X(C5H5N
 1)]\NImag=0\\0.77782624,0.00458344,0.78088735,-0.05402139,-0.10384154,
 0.17567202,-0.39966272,-0.05959393,0.03785533,0.77306058,0.05723137,-0
 .10539127,0.00071665,-0.03586525,0.75533307,0.01857885,0.01069054,-0.0
 7478590,-0.04736597,-0.09699425,0.16898911,-0.04910669,-0.04825746,0.0
 1283495,-0.16876468,-0.16408072,0.03490062,0.80268314,-0.14657784,0.05
 010762,0.00556013,-0.03495199,-0.28735315,0.03767838,-0.04433749,0.771
 21462,0.02905806,-0.00283391,0.00595043,0.01359405,0.04870266,-0.08628
 406,-0.04709502,-0.09618183,0.18525364,0.10994307,-0.05476185,0.000329
 42,-0.09246813,-0.05737531,0.01673382,-0.10045331,0.18442759,-0.021249
 82,0.81922880,0.04355853,-0.10837346,0.01547714,-0.04066545,-0.0316492
 7,0.00748091,0.06333360,0.04295837,-0.01132590,-0.03478603,0.75472810,
 -0.01589370,0.02387118,0.00538175,0.01397665,0.00890750,-0.01001493,-0
 .00126900,-0.02166422,0.01077022,-0.05008362,-0.09427699,0.18519450,-0
 .17820878,0.18507194,-0.02142166,-0.05891305,0.04575460,-0.00198465,-0
 .00439296,-0.00653141,0.00082508,-0.17178720,-0.16582556,0.03544658,0.
 79254841,0.06824665,-0.32605340,0.03618604,0.13195583,0.04390840,-0.01
 747605,0.01017845,-0.11940953,0.01762081,-0.03669683,-0.28434142,0.037
 33042,-0.02461535,0.73591491,-0.00214519,0.02621215,-0.07557771,-0.016
 20807,-0.01011667,0.00932322,-0.00193209,0.01904741,-0.01032984,0.0141
 4001,0.04835471,-0.08627326,-0.05088602,-0.09475068,0.16891944,-0.1052
 5193,-0.11583278,0.02432403,-0.02700502,-0.02736724,0.00735721,-0.0036
 7253,0.00094682,0.00075366,-0.00148251,0.00180962,0.00042432,0.0081822
 2,0.01168629,-0.00209081,0.12899991,-0.11583278,-0.23876920,0.04199174
 ,-0.00862655,-0.00087686,0.00191712,0.00054537,0.00013900,0.00108306,0
 .00221107,-0.00204319,0.00130092,-0.00705440,-0.03593829,0.00756812,0.
 12877602,0.27730611,0.02432403,0.04199173,-0.05321645,0.00426495,0.003
 51709,0.00533392,0.00081990,0.00104879,0.00674204,0.00035808,0.0013351
 9,0.00673421,0.00100145,0.00596815,0.00520811,-0.03015536,-0.05267955,
 0.03593805,-0.02874728,0.02738682,-0.00160463,-0.11648664,0.12500834,-
 0.01422240,0.00835218,-0.00916525,0.00114886,-0.00007454,0.00006210,-0
 .00000706,-0.00347923,-0.00095883,0.00101313,-0.00041983,0.00004697,-0
 .00010616,0.14160610,0.00865897,-0.00064170,0.00025564,0.12494850,-0.2
 3727632,0.02164072,0.00921948,-0.03492082,0.00565065,-0.00040177,0.000
 39401,-0.00003685,-0.00042873,0.00059604,0.00101648,-0.00011610,0.0004
 1839,-0.00031860,-0.13987878,0.27502394,0.00148552,-0.00134324,0.00548
 268,-0.01421253,0.02163562,-0.04382903,-0.00188467,0.00722023,0.003064
 83,0.00006948,-0.00007646,-0.00003053,0.00092567,0.00106174,0.00628038
 ,-0.00007926,-0.00033252,-0.00151092,0.01302112,-0.02951363,0.02753931
 ,-0.00059604,-0.00099135,0.00069220,-0.02029828,-0.01054055,0.00401203
 ,-0.30110680,-0.01510767,0.02449633,0.00040573,0.00261992,0.00023844,0
 .00041476,-0.00051602,0.00006534,-0.00022925,-0.00002518,-0.00001824,0
 .00020414,-0.00037944,-0.00002280,0.35043177,-0.00075083,-0.00307871,0
 .00149541,-0.02813337,-0.00676384,0.00456131,-0.01656007,-0.03855617,0
 .00061839,0.00106801,-0.00488575,0.00207825,0.00001080,0.00028013,-0.0
 0001698,-0.00062855,0.00007541,-0.00003990,-0.00044813,-0.00038297,-0.
 00002993,0.01121197,0.05489623,0.00065251,0.00151594,0.00528991,0.0069
 1489,0.00305933,0.00522831,0.02473598,0.00049439,-0.04557019,0.0004945
 1,0.00194576,0.00789885,-0.00002159,0.00002799,0.00018001,0.00008131,-
 0.00009141,-0.00048347,-0.00001146,-0.00003580,-0.00078935,-0.02970053
 ,-0.00601966,0.02774416,-0.00172344,-0.00140166,0.00085615,0.00053347,
 0.00007933,-0.00004303,-0.00519603,-0.00216577,0.00150634,-0.09059652,
 0.10496296,-0.01328781,0.00659918,-0.01260604,0.00205649,0.00028439,-0
 .00033203,-0.00001146,-0.00004106,0.00001069,-0.00010342,-0.00038969,0
 .00104146,-0.00016808,0.11931210,-0.00164218,-0.00195533,0.00138615,-0
 .00044748,0.00016184,0.00004166,-0.00061386,0.00069599,0.00130084,0.10
 641536,-0.24831376,0.02472999,0.00498677,-0.03356513,0.00615598,0.0002
 7133,-0.00043640,-0.00003228,0.00005903,-0.00013768,-0.00018557,0.0000
 1844,0.00022232,-0.00009528,-0.12220842,0.28518953,0.00089584,0.001365
 61,0.00529394,0.00004390,-0.00000332,0.00017959,0.00125027,0.00143333,
 0.00791888,-0.01352746,0.02485399,-0.04632287,-0.00084637,0.00765795,0
 .00513214,-0.00011102,0.00001924,-0.00048531,-0.00011140,-0.00018144,-
 0.00119233,0.00000072,-0.00018262,-0.00031550,0.01204587,-0.03262797,0
 .02857053,-0.02335117,0.01177403,0.00051083,0.00016111,0.00167276,0.00
 026812,0.00042521,-0.00011328,-0.00002079,-0.02420397,-0.00957448,0.00
 399585,-0.31604864,0.00974568,0.02183372,0.00024368,0.00026692,-0.0001
 9910,-0.00022829,-0.00002457,0.00000634,-0.00014079,-0.00004688,-0.000
 08541,0.00012457,-0.00042536,-0.00000843,0.36371837,0.03050188,-0.0060
 1852,-0.00072200,0.00114266,-0.00303129,0.00148084,0.00035059,-0.00010
 395,-0.00001892,-0.02795920,-0.00248108,0.00347212,0.00980551,-0.03842
 785,-0.00133951,0.00043000,-0.00024275,-0.00025613,0.00063055,0.000121
 63,-0.00010716,0.00000146,-0.00003831,-0.00019705,-0.00049406,-0.00030
 369,-0.00003909,-0.01165816,0.05370582,-0.00257931,0.00087688,0.005463
 38,0.00035559,0.00143559,0.00626737,-0.00009733,0.00002068,-0.00003232
 ,0.00702937,0.00190253,0.00318123,0.02182385,-0.00133440,-0.04311551,-
 0.00022601,-0.00024221,-0.00151329,-0.00010176,-0.00005122,-0.00018440
 ,-0.00009338,-0.00019292,-0.00119198,0.00000291,-0.00004496,-0.0007890
 7,-0.02709832,-0.00394234,0.02674516,-0.10112133,0.05202308,-0.0003552
 4,0.10984342,0.06548270,-0.01823460,-0.17876728,0.07357636,-0.00301673
 ,-0.44851098,0.03450469,0.02645939,-0.07491492,-0.15641991,0.03415353,
 0.00035110,0.00002445,-0.00027811,-0.00068575,-0.00160837,0.00079459,-
 0.02869556,0.03323561,-0.00289216,-0.02890698,0.01358646,0.00036805,-0
 .00070005,-0.00275108,0.00098436,0.75210786,0.05202308,-0.04071312,0.0
 0149462,-0.04976291,-0.12706157,0.02897890,0.19022190,-0.38477158,0.03
 538422,-0.08214086,-0.11599233,0.01428775,-0.04117430,0.05703617,-0.00
 213094,0.00002445,0.00036785,-0.00053455,-0.00274283,-0.00319446,0.001
 67090,0.01370851,-0.00176832,-0.00060427,0.03311356,-0.00155765,-0.002
 29572,-0.00161663,-0.00318020,0.00157240,-0.11165409,0.62083457,-0.000
 35524,0.00149462,-0.00495384,0.00078122,0.01913988,0.01959266,-0.02226
 354,0.04534276,-0.07748287,0.04570621,0.00432921,-0.07651841,0.0151377
 1,0.00770808,0.02025326,-0.00027811,-0.00053455,-0.00274721,0.00098178
 ,0.00157405,0.00516933,0.00032986,-0.00227138,0.00200909,-0.00285398,-
 0.00062861,0.00200984,0.00079717,0.00166925,0.00516938,-0.03798316,-0.
 07782345,0.10749727\\0.00000567,0.00000981,-0.00000210,-0.00013052,-0.
 00010285,0.00002811,-0.00013006,0.00025987,-0.00003177,0.00029047,0.00
 001771,-0.00002772,-0.00002385,-0.00016427,0.00002914,0.00002221,0.000
 03843,-0.00000824,-0.00006383,0.00007865,-0.00000753,-0.00007132,0.000
 01185,0.00000413,0.00004597,-0.00005570,0.00000526,0.00010016,-0.00001
 578,-0.00000594,-0.00004491,-0.00007771,0.00001666\\\@


 Boundary, n.  In political geography, an imaginary
 line between two nations, separating the imaginary
 rights of one from the imaginary rights of another.
                               -- Ambrose Bierce
 Job cpu time:       0 days  0 hours  0 minutes  0.5 seconds.
 Elapsed time:       0 days  0 hours  0 minutes  0.5 seconds.
 File lengths (MBytes):  RWF=      7 Int=      0 D2E=      0 Chk=      2 Scr=      1
 Normal termination of Gaussian 16 at Sat Jun 14 14:07:44 2025.
