 Entering Gaussian System, Link 0=g16
 Input=/home/gaussian/Documents/Summer_Internship/Aromaticity/hetrocyclic/pyridine/pyridine_sp.com
 Output=/home/gaussian/Documents/Summer_Internship/Aromaticity/hetrocyclic/pyridine/pyridine_sp.log
 Initial command:
 /usr/local/g16/l1.exe "/home/gaussian/tmp/Gau-46695.inp" -scrdir="/home/gaussian/tmp/"
 Entering Link 1 = /usr/local/g16/l1.exe PID=     46698.
  
 Copyright (c) 1988-2017, Gaussian, Inc.  All Rights Reserved.
  
 This is part of the Gaussian(R) 16 program.  It is based on
 the Gaussian(R) 09 system (copyright 2009, Gaussian, Inc.),
 the Gaussian(R) 03 system (copyright 2003, Gaussian, Inc.),
 the Gaussian(R) 98 system (copyright 1998, Gaussian, Inc.),
 the Gaussian(R) 94 system (copyright 1995, Gaussian, Inc.),
 the Gaussian 92(TM) system (copyright 1992, Gaussian, Inc.),
 the Gaussian 90(TM) system (copyright 1990, Gaussian, Inc.),
 the Gaussian 88(TM) system (copyright 1988, Gaussian, Inc.),
 the Gaussian 86(TM) system (copyright 1986, Carnegie Mellon
 University), and the Gaussian 82(TM) system (copyright 1983,
 Carnegie Mellon University). Gaussian is a federally registered
 trademark of Gaussian, Inc.
  
 This software contains proprietary and confidential information,
 including trade secrets, belonging to Gaussian, Inc.
  
 This software is provided under written license and may be
 used, copied, transmitted, or stored only in accord with that
 written license.
  
 The following legend is applicable only to US Government
 contracts under FAR:
  
                    RESTRICTED RIGHTS LEGEND
  
 Use, reproduction and disclosure by the US Government is
 subject to restrictions as set forth in subparagraphs (a)
 and (c) of the Commercial Computer Software - Restricted
 Rights clause in FAR 52.227-19.
  
 Gaussian, Inc.
 340 Quinnipiac St., Bldg. 40, Wallingford CT 06492
  
  
 ---------------------------------------------------------------
 Warning -- This program may not be used in any manner that
 competes with the business of Gaussian, Inc. or will provide
 assistance to any competitor of Gaussian, Inc.  The licensee
 of this program is prohibited from giving any competitor of
 Gaussian, Inc. access to this program.  By using this program,
 the user acknowledges that Gaussian, Inc. is engaged in the
 business of creating and licensing software in the field of
 computational chemistry and represents and warrants to the
 licensee that it is not a competitor of Gaussian, Inc. and that
 it will not use this program in any manner prohibited above.
 ---------------------------------------------------------------
  

 Cite this work as:
 Gaussian 16, Revision B.01,
 M. J. Frisch, G. W. Trucks, H. B. Schlegel, G. E. Scuseria, 
 M. A. Robb, J. R. Cheeseman, G. Scalmani, V. Barone, 
 G. A. Petersson, H. Nakatsuji, X. Li, M. Caricato, A. V. Marenich, 
 J. Bloino, B. G. Janesko, R. Gomperts, B. Mennucci, H. P. Hratchian, 
 J. V. Ortiz, A. F. Izmaylov, J. L. Sonnenberg, D. Williams-Young, 
 F. Ding, F. Lipparini, F. Egidi, J. Goings, B. Peng, A. Petrone, 
 T. Henderson, D. Ranasinghe, V. G. Zakrzewski, J. Gao, N. Rega, 
 G. Zheng, W. Liang, M. Hada, M. Ehara, K. Toyota, R. Fukuda, 
 J. Hasegawa, M. Ishida, T. Nakajima, Y. Honda, O. Kitao, H. Nakai, 
 T. Vreven, K. Throssell, J. A. Montgomery, Jr., J. E. Peralta, 
 F. Ogliaro, M. J. Bearpark, J. J. Heyd, E. N. Brothers, K. N. Kudin, 
 V. N. Staroverov, T. A. Keith, R. Kobayashi, J. Normand, 
 K. Raghavachari, A. P. Rendell, J. C. Burant, S. S. Iyengar, 
 J. Tomasi, M. Cossi, J. M. Millam, M. Klene, C. Adamo, R. Cammi, 
 J. W. Ochterski, R. L. Martin, K. Morokuma, O. Farkas, 
 J. B. Foresman, and D. J. Fox, Gaussian, Inc., Wallingford CT, 2016.
 
 ******************************************
 Gaussian 16:  EM64L-G16RevB.01 20-Dec-2017
                14-Jun-2025 
 ******************************************
 %chk=pyridine_sp.chk
 --------------------------------------
 # hf/3-21g* pop=full geom=connectivity
 --------------------------------------
 1/38=1,57=2,172=1/1;
 2/12=2,17=6,18=5,40=1/2;
 3/5=5,7=1,11=9,25=1,30=1/1,2,3;
 4//1;
 5/5=2,38=5/2;
 6/7=3,28=1/1;
 99/5=1,9=1/99;
 ------------------------
 pyridine sp with HF3-21G
 ------------------------
 Symbolic Z-matrix:
 Charge =  0 Multiplicity = 1
 C                     0.       -1.38911   0. 
 C                     1.20207  -0.67942   0. 
 C                     1.14997   0.72679   0. 
 C                    -1.14997   0.72679   0. 
 C                    -1.20207  -0.67942   0. 
 H                     0.       -2.48854   0. 
 H                     2.16833  -1.19938   0. 
 H                     2.07739   1.32681   0. 
 H                    -2.07739   1.32682   0. 
 H                    -2.16833  -1.19938   0. 
 N                     0.        1.42856   0. 
 
                          Input orientation:                          
 ---------------------------------------------------------------------
 Center     Atomic      Atomic             Coordinates (Angstroms)
 Number     Number       Type             X           Y           Z
 ---------------------------------------------------------------------
      1          6           0        0.000000   -1.389107    0.000000
      2          6           0        1.202072   -0.679420    0.000000
      3          6           0        1.149975    0.726785    0.000000
      4          6           0       -1.149975    0.726785    0.000000
      5          6           0       -1.202072   -0.679420    0.000000
      6          1           0        0.000000   -2.488541    0.000000
      7          1           0        2.168332   -1.199383    0.000000
      8          1           0        2.077389    1.326814    0.000000
      9          1           0       -2.077389    1.326815    0.000000
     10          1           0       -2.168332   -1.199382    0.000000
     11          7           0        0.000000    1.428562    0.000000
 ---------------------------------------------------------------------
                    Distance matrix (angstroms):
                    1          2          3          4          5
     1  C    0.000000
     2  C    1.395934   0.000000
     3  C    2.408203   1.407170   0.000000
     4  C    2.408203   2.740354   2.299950   0.000000
     5  C    1.395934   2.404144   2.740354   1.407170   0.000000
     6  H    1.099434   2.172072   3.414786   3.414786   2.172072
     7  H    2.176616   1.097278   2.178801   3.836833   3.410276
     8  H    3.419323   2.188871   1.104596   3.282669   3.844456
     9  H    3.419324   3.844456   3.282669   1.104596   2.188872
    10  H    2.176616   3.410276   3.836832   2.178800   1.097278
    11  N    2.817669   2.426637   1.347195   1.347195   2.426637
                    6          7          8          9         10
     6  H    0.000000
     7  H    2.522616   0.000000
     8  H    4.344247   2.527833   0.000000
     9  H    4.344248   4.940427   4.154778   0.000000
    10  H    2.522617   4.336664   4.940426   2.527833   0.000000
    11  N    3.917103   3.407016   2.079879   2.079879   3.407015
                   11
    11  N    0.000000
 Stoichiometry    C5H5N
 Framework group  CS[SG(C5H5N)]
 Deg. of freedom    19
 Full point group                 CS      NOp   2
 Largest Abelian subgroup         CS      NOp   2
 Largest concise Abelian subgroup C1      NOp   1
                         Standard orientation:                         
 ---------------------------------------------------------------------
 Center     Atomic      Atomic             Coordinates (Angstroms)
 Number     Number       Type             X           Y           Z
 ---------------------------------------------------------------------
      1          6           0        1.389107    0.000000    0.000000
      2          6           0        0.679420    1.202072    0.000000
      3          6           0       -0.726785    1.149975    0.000000
      4          6           0       -0.726785   -1.149975    0.000000
      5          6           0        0.679420   -1.202072    0.000000
      6          1           0        2.488541    0.000000    0.000000
      7          1           0        1.199383    2.168332    0.000000
      8          1           0       -1.326814    2.077389    0.000000
      9          1           0       -1.326815   -2.077389    0.000000
     10          1           0        1.199382   -2.168332    0.000000
     11          7           0       -1.428562    0.000000    0.000000
 ---------------------------------------------------------------------
 Rotational constants (GHZ):           5.9741986           5.7354155           2.9261862
 Standard basis: 3-21G* (6D, 7F)
 There are    52 symmetry adapted cartesian basis functions of A'  symmetry.
 There are    12 symmetry adapted cartesian basis functions of A"  symmetry.
 There are    52 symmetry adapted basis functions of A'  symmetry.
 There are    12 symmetry adapted basis functions of A"  symmetry.
    64 basis functions,   105 primitive gaussians,    64 cartesian basis functions
    21 alpha electrons       21 beta electrons
       nuclear repulsion energy       204.6310115252 Hartrees.
 NAtoms=   11 NActive=   11 NUniq=   11 SFac= 1.00D+00 NAtFMM=   60 NAOKFM=F Big=F
 Integral buffers will be    131072 words long.
 Raffenetti 1 integral format.
 Two-electron integral symmetry is turned on.
 One-electron integrals computed using PRISM.
 NBasis=    64 RedAO= T EigKep=  3.36D-03  NBF=    52    12
 NBsUse=    64 1.00D-06 EigRej= -1.00D+00 NBFU=    52    12
 ExpMin= 1.83D-01 ExpMax= 2.43D+02 ExpMxC= 2.43D+02 IAcc=3 IRadAn=         5 AccDes= 0.00D+00
 Harris functional with IExCor=  205 and IRadAn=       5 diagonalized for initial guess.
 HarFok:  IExCor=  205 AccDes= 0.00D+00 IRadAn=         5 IDoV= 1 UseB2=F ITyADJ=14
 ICtDFT=  3500011 ScaDFX=  1.000000  1.000000  1.000000  1.000000
 FoFCou: FMM=F IPFlag=           0 FMFlag=      100000 FMFlg1=           0
         NFxFlg=           0 DoJE=T BraDBF=F KetDBF=T FulRan=T
         wScrn=  0.000000 ICntrl=       500 IOpCl=  0 I1Cent=   200000004 NGrid=           0
         NMat0=    1 NMatS0=      1 NMatT0=    0 NMatD0=    1 NMtDS0=    0 NMtDT0=    0
 Petite list used in FoFCou.
 Initial guess orbital symmetries:
       Occupied  (A') (A') (A') (A') (A') (A') (A') (A') (A') (A')
                 (A') (A') (A') (A') (A') (A') (A") (A') (A") (A")
                 (A')
       Virtual   (A") (A") (A") (A') (A') (A') (A') (A') (A') (A')
                 (A') (A') (A') (A') (A') (A") (A') (A') (A') (A")
                 (A") (A') (A") (A') (A") (A') (A') (A') (A') (A')
                 (A") (A') (A') (A') (A') (A') (A') (A') (A') (A')
                 (A') (A') (A')
 The electronic state of the initial guess is 1-A'.
 Keep R1 ints in memory in symmetry-blocked form, NReq=3425764.
 Requested convergence on RMS density matrix=1.00D-08 within 128 cycles.
 Requested convergence on MAX density matrix=1.00D-06.
 Requested convergence on             energy=1.00D-06.
 No special actions if energy rises.
 SCF Done:  E(RHF) =  -245.306553797     A.U. after   13 cycles
            NFock= 13  Conv=0.12D-08     -V/T= 2.0039

 **********************************************************************

            Population analysis using the SCF Density.

 **********************************************************************

 Orbital symmetries:
       Occupied  (A') (A') (A') (A') (A') (A') (A') (A') (A') (A')
                 (A') (A') (A') (A') (A') (A') (A") (A') (A') (A")
                 (A")
       Virtual   (A") (A") (A') (A') (A') (A') (A") (A') (A') (A')
                 (A') (A') (A') (A') (A') (A") (A') (A') (A') (A")
                 (A") (A') (A") (A') (A") (A') (A') (A') (A') (A')
                 (A') (A') (A") (A') (A') (A') (A') (A') (A') (A')
                 (A') (A') (A')
 The electronic state is 1-A'.
 Alpha  occ. eigenvalues --  -15.49931 -11.22738 -11.22692 -11.20987 -11.19707
 Alpha  occ. eigenvalues --  -11.19696  -1.26513  -1.09025  -1.02998  -0.85414
 Alpha  occ. eigenvalues --   -0.85264  -0.72066  -0.65949  -0.64764  -0.59881
 Alpha  occ. eigenvalues --   -0.57265  -0.54137  -0.51481  -0.40466  -0.38375
 Alpha  occ. eigenvalues --   -0.35139
 Alpha virt. eigenvalues --    0.12523   0.13288   0.25178   0.30768   0.32857
 Alpha virt. eigenvalues --    0.35057   0.35141   0.35364   0.43558   0.48832
 Alpha virt. eigenvalues --    0.52360   0.52871   0.72859   0.74012   0.90891
 Alpha virt. eigenvalues --    0.93958   0.94638   0.99479   1.02060   1.03394
 Alpha virt. eigenvalues --    1.03758   1.07801   1.08729   1.10354   1.12131
 Alpha virt. eigenvalues --    1.13161   1.26132   1.26641   1.34007   1.36613
 Alpha virt. eigenvalues --    1.48471   1.48498   1.54204   1.61063   1.64482
 Alpha virt. eigenvalues --    1.67251   1.68967   1.73868   1.81682   1.95775
 Alpha virt. eigenvalues --    2.22859   2.27508   3.22646
     Molecular Orbital Coefficients:
                           1         2         3         4         5
                           O         O         O         O         O
     Eigenvalues --   -15.49931 -11.22738 -11.22692 -11.20987 -11.19707
   1 1   C  1S         -0.00039  -0.00000  -0.01111   0.98697   0.00000
   2        2S         -0.00177  -0.00000  -0.00302   0.09913  -0.00000
   3        2PX        -0.00028   0.00000   0.00095  -0.00141   0.00000
   4        2PY        -0.00000   0.00120  -0.00000   0.00000  -0.00134
   5        2PZ         0.00000   0.00000   0.00000   0.00000   0.00000
   6        3S          0.03219   0.00000   0.01240  -0.08869   0.00001
   7        3PX        -0.01776  -0.00000  -0.00771   0.02241  -0.00000
   8        3PY        -0.00000  -0.00497   0.00000   0.00000   0.01554
   9        3PZ         0.00000   0.00000   0.00000   0.00000   0.00000
  10 2   C  1S          0.00055   0.00352  -0.00363  -0.01645   0.69816
  11        2S          0.00268   0.00272  -0.00173  -0.00566   0.07023
  12        2PX         0.00034  -0.00070   0.00131  -0.00009  -0.00021
  13        2PY        -0.00080   0.00006  -0.00005   0.00142  -0.00166
  14        2PZ         0.00000   0.00000   0.00000   0.00000   0.00000
  15        3S         -0.02453  -0.02097   0.00565   0.03336  -0.05493
  16        3PX         0.00710   0.01525  -0.00645   0.00055   0.00394
  17        3PY         0.02335   0.00160   0.00734  -0.02022   0.01147
  18        3PZ         0.00000   0.00000   0.00000   0.00000   0.00000
  19 3   C  1S         -0.00026  -0.69801   0.69753   0.00759   0.00312
  20        2S         -0.00112  -0.06982   0.06623   0.00006  -0.00197
  21        2PX        -0.00090  -0.00074   0.00001  -0.00109  -0.00070
  22        2PY        -0.00110   0.00192   0.00016   0.00037   0.00003
  23        2PZ         0.00000   0.00000   0.00000   0.00000   0.00000
  24        3S          0.03282   0.04957  -0.03576  -0.00704   0.01817
  25        3PX         0.00302   0.01608  -0.00226  -0.00159   0.00883
  26        3PY        -0.02627  -0.00620  -0.00850   0.00256  -0.00472
  27        3PZ         0.00000   0.00000   0.00000   0.00000   0.00000
  28 4   C  1S         -0.00026   0.69808   0.69746   0.00759  -0.00312
  29        2S         -0.00112   0.06983   0.06622   0.00006   0.00197
  30        2PX        -0.00090   0.00074   0.00001  -0.00109   0.00070
  31        2PY         0.00110   0.00192  -0.00016  -0.00037   0.00003
  32        2PZ         0.00000   0.00000   0.00000   0.00000   0.00000
  33        3S          0.03282  -0.04957  -0.03575  -0.00704  -0.01816
  34        3PX         0.00302  -0.01608  -0.00226  -0.00159  -0.00882
  35        3PY         0.02627  -0.00620   0.00850  -0.00256  -0.00472
  36        3PZ         0.00000   0.00000   0.00000   0.00000   0.00000
  37 5   C  1S          0.00055  -0.00352  -0.00363  -0.01645  -0.69793
  38        2S          0.00268  -0.00272  -0.00173  -0.00566  -0.07020
  39        2PX         0.00034   0.00070   0.00131  -0.00009   0.00021
  40        2PY         0.00080   0.00006   0.00005  -0.00142  -0.00166
  41        2PZ         0.00000   0.00000   0.00000   0.00000   0.00000
  42        3S         -0.02453   0.02097   0.00565   0.03336   0.05491
  43        3PX         0.00710  -0.01525  -0.00645   0.00055  -0.00394
  44        3PY        -0.02335   0.00160  -0.00734   0.02022   0.01147
  45        3PZ         0.00000   0.00000   0.00000   0.00000   0.00000
  46 6   H  1S          0.00042   0.00000   0.00011  -0.00203  -0.00000
  47        2S          0.00364   0.00000   0.00302   0.00617   0.00000
  48 7   H  1S         -0.00175   0.00042  -0.00118  -0.00013  -0.00132
  49        2S         -0.00662  -0.00162  -0.00132   0.00398   0.00449
  50 8   H  1S          0.00065   0.00191  -0.00038  -0.00019  -0.00026
  51        2S          0.00581  -0.00318   0.01098   0.00066   0.00178
  52 9   H  1S          0.00065  -0.00191  -0.00038  -0.00019   0.00026
  53        2S          0.00581   0.00318   0.01098   0.00066  -0.00177
  54 10  H  1S         -0.00175  -0.00042  -0.00118  -0.00013   0.00132
  55        2S         -0.00662   0.00162  -0.00132   0.00398  -0.00449
  56 11  N  1S          0.98666   0.00000   0.00027  -0.00007   0.00000
  57        2S          0.10529   0.00000   0.00127  -0.00062   0.00000
  58        2PX         0.00548  -0.00000  -0.00006  -0.00010   0.00000
  59        2PY        -0.00000  -0.00006   0.00000  -0.00000  -0.00035
  60        2PZ         0.00000   0.00000   0.00000   0.00000   0.00000
  61        3S         -0.08653  -0.00000  -0.00060   0.00421  -0.00000
  62        3PX        -0.02468  -0.00000  -0.00306   0.00132  -0.00000
  63        3PY        -0.00000   0.00223  -0.00000  -0.00000  -0.00181
  64        3PZ         0.00000   0.00000   0.00000   0.00000   0.00000
                           6         7         8         9        10
                           O         O         O         O         O
     Eigenvalues --   -11.19696  -1.26513  -1.09025  -1.02998  -0.85414
   1 1   C  1S          0.02213  -0.03795  -0.15372  -0.00000  -0.12195
   2        2S         -0.00368   0.04898   0.16803   0.00000   0.12552
   3        2PX         0.00153  -0.03150  -0.06543  -0.00000   0.05373
   4        2PY         0.00000   0.00000  -0.00000   0.10134   0.00001
   5        2PZ         0.00000   0.00000   0.00000   0.00000   0.00000
   6        3S          0.04924  -0.02743   0.35270   0.00000   0.39438
   7        3PX        -0.02754   0.04477  -0.03190  -0.00000   0.00152
   8        3PY        -0.00000   0.00000  -0.00000  -0.00662   0.00000
   9        3PZ         0.00000   0.00000   0.00000   0.00000   0.00000
  10 2   C  1S          0.69793  -0.04961  -0.11002  -0.11471   0.04822
  11        2S          0.07042   0.04874   0.12235   0.12343  -0.05041
  12        2PX        -0.00091  -0.03101   0.02599  -0.05783   0.14639
  13        2PY        -0.00029  -0.02558  -0.07098  -0.00054  -0.09678
  14        2PZ         0.00000   0.00000   0.00000   0.00000   0.00000
  15        3S         -0.07152   0.14032   0.22222   0.25752  -0.15528
  16        3PX         0.01133  -0.02265  -0.00312   0.00959   0.04887
  17        3PY         0.01978  -0.07635   0.00291  -0.02104  -0.02233
  18        3PZ         0.00000   0.00000   0.00000   0.00000   0.00000
  19 3   C  1S          0.00355  -0.10056   0.00390  -0.12254   0.07474
  20        2S         -0.00226   0.11607  -0.00089   0.13456  -0.08356
  21        2PX        -0.00123  -0.01449   0.08840   0.04646  -0.11225
  22        2PY         0.00005  -0.08885   0.04383  -0.00253  -0.10211
  23        2PZ         0.00000   0.00000   0.00000   0.00000   0.00000
  24        3S          0.02824   0.09718  -0.00201   0.27719  -0.21919
  25        3PX         0.01531  -0.00941   0.01150   0.04864  -0.05016
  26        3PY        -0.00952   0.05938  -0.01229   0.00590  -0.04238
  27        3PZ         0.00000   0.00000   0.00000   0.00000   0.00000
  28 4   C  1S          0.00355  -0.10056   0.00390   0.12254   0.07473
  29        2S         -0.00226   0.11607  -0.00089  -0.13456  -0.08355
  30        2PX        -0.00123  -0.01449   0.08840  -0.04646  -0.11226
  31        2PY        -0.00005   0.08885  -0.04383  -0.00253   0.10211
  32        2PZ         0.00000   0.00000   0.00000   0.00000   0.00000
  33        3S          0.02825   0.09718  -0.00201  -0.27719  -0.21918
  34        3PX         0.01531  -0.00941   0.01150  -0.04864  -0.05016
  35        3PY         0.00953  -0.05938   0.01229   0.00590   0.04238
  36        3PZ         0.00000   0.00000   0.00000   0.00000   0.00000
  37 5   C  1S          0.69815  -0.04961  -0.11002   0.11471   0.04823
  38        2S          0.07044   0.04874   0.12235  -0.12343  -0.05042
  39        2PX        -0.00091  -0.03101   0.02599   0.05783   0.14638
  40        2PY         0.00029   0.02558   0.07098  -0.00054   0.09678
  41        2PZ         0.00000   0.00000   0.00000   0.00000   0.00000
  42        3S         -0.07154   0.14032   0.22222  -0.25752  -0.15530
  43        3PX         0.01133  -0.02265  -0.00312  -0.00959   0.04887
  44        3PY        -0.01978   0.07635  -0.00291  -0.02104   0.02233
  45        3PZ         0.00000   0.00000   0.00000   0.00000   0.00000
  46 6   H  1S         -0.00011   0.00903   0.06412   0.00000   0.11272
  47        2S          0.00667  -0.01506   0.00730   0.00000   0.05565
  48 7   H  1S         -0.00193   0.01644   0.04405   0.05825  -0.04262
  49        2S          0.00312   0.01858  -0.00263   0.01296  -0.02020
  50 8   H  1S          0.00004   0.02445  -0.00261   0.06232  -0.06709
  51        2S          0.00392  -0.02467   0.00080   0.01706  -0.02707
  52 9   H  1S          0.00004   0.02445  -0.00261  -0.06232  -0.06709
  53        2S          0.00392  -0.02467   0.00080  -0.01706  -0.02707
  54 10  H  1S         -0.00193   0.01644   0.04405  -0.05825  -0.04263
  55        2S          0.00312   0.01858  -0.00263  -0.01296  -0.02020
  56 11  N  1S          0.00035  -0.17487   0.09488   0.00000  -0.07726
  57        2S          0.00210   0.15035  -0.08491  -0.00000   0.07190
  58        2PX         0.00005   0.10042  -0.02528  -0.00000  -0.00194
  59        2PY         0.00000  -0.00000  -0.00000   0.11714  -0.00001
  60        2PZ         0.00000   0.00000   0.00000   0.00000   0.00000
  61        3S         -0.01386   0.57331  -0.32140  -0.00000   0.28978
  62        3PX        -0.00775   0.13722  -0.04783  -0.00000   0.02148
  63        3PY         0.00000   0.00000  -0.00000   0.08628  -0.00000
  64        3PZ         0.00000   0.00000   0.00000   0.00000   0.00000
                          11        12        13        14        15
                           O         O         O         O         O
     Eigenvalues --    -0.85264  -0.72066  -0.65949  -0.64764  -0.59881
   1 1   C  1S          0.00000  -0.02451   0.00000   0.05995   0.00000
   2        2S         -0.00000   0.02058  -0.00000  -0.06506  -0.00000
   3        2PX        -0.00000   0.20240   0.00000   0.00477  -0.00000
   4        2PY         0.17605   0.00000   0.24212  -0.00000  -0.07567
   5        2PZ         0.00000   0.00000   0.00000   0.00000   0.00000
   6        3S         -0.00001   0.11015  -0.00000  -0.18186  -0.00000
   7        3PX        -0.00000   0.13750  -0.00000  -0.03178  -0.00000
   8        3PY         0.07647   0.00000   0.12824  -0.00000  -0.04093
   9        3PZ         0.00000   0.00000   0.00000   0.00000   0.00000
  10 2   C  1S         -0.09741   0.00048  -0.00770  -0.05610   0.01652
  11        2S          0.09843  -0.00535   0.00949   0.05539  -0.02024
  12        2PX         0.08167   0.08600   0.21540   0.07844   0.14059
  13        2PY        -0.00384   0.13812  -0.09977   0.16439   0.18225
  14        2PZ         0.00000   0.00000   0.00000   0.00000   0.00000
  15        3S          0.32742   0.02440   0.01498   0.21178  -0.03009
  16        3PX        -0.00406   0.05185   0.13624   0.07017   0.10989
  17        3PY        -0.00476   0.09187  -0.05397   0.15193   0.15520
  18        3PZ         0.00000   0.00000   0.00000   0.00000   0.00000
  19 3   C  1S          0.08793  -0.02246   0.01237   0.05485   0.01647
  20        2S         -0.09321   0.01880  -0.01245  -0.05859  -0.02128
  21        2PX         0.12690  -0.11729  -0.19754   0.03790  -0.15539
  22        2PY         0.03392   0.13428  -0.14915  -0.11756   0.16408
  23        2PZ         0.00000   0.00000   0.00000   0.00000   0.00000
  24        3S         -0.27578   0.10043  -0.04882  -0.19837  -0.01372
  25        3PX        -0.00821  -0.08645  -0.07837   0.03350  -0.11181
  26        3PY         0.00417   0.09421  -0.07368  -0.10539   0.13461
  27        3PZ         0.00000   0.00000   0.00000   0.00000   0.00000
  28 4   C  1S         -0.08794  -0.02246  -0.01237   0.05485  -0.01647
  29        2S          0.09321   0.01880   0.01244  -0.05859   0.02128
  30        2PX        -0.12689  -0.11729   0.19754   0.03790   0.15539
  31        2PY         0.03391  -0.13428  -0.14915   0.11756   0.16408
  32        2PZ         0.00000   0.00000   0.00000   0.00000   0.00000
  33        3S          0.27579   0.10043   0.04882  -0.19838   0.01372
  34        3PX         0.00821  -0.08645   0.07837   0.03350   0.11181
  35        3PY         0.00417  -0.09421  -0.07368   0.10539   0.13461
  36        3PZ         0.00000   0.00000   0.00000   0.00000   0.00000
  37 5   C  1S          0.09741   0.00048   0.00770  -0.05610  -0.01652
  38        2S         -0.09843  -0.00535  -0.00949   0.05539   0.02024
  39        2PX        -0.08168   0.08600  -0.21540   0.07844  -0.14059
  40        2PY        -0.00385  -0.13812  -0.09978  -0.16439   0.18225
  41        2PZ         0.00000   0.00000   0.00000   0.00000   0.00000
  42        3S         -0.32741   0.02440  -0.01498   0.21178   0.03009
  43        3PX         0.00406   0.05185  -0.13624   0.07017  -0.10989
  44        3PY        -0.00476  -0.09187  -0.05397  -0.15193   0.15520
  45        3PZ         0.00000   0.00000   0.00000   0.00000   0.00000
  46 6   H  1S         -0.00000   0.13367  -0.00000  -0.05644  -0.00000
  47        2S         -0.00000   0.08223  -0.00000  -0.02533  -0.00000
  48 7   H  1S          0.08581   0.08901   0.01673   0.16704   0.13588
  49        2S          0.04307   0.05748   0.00881   0.10558   0.10637
  50 8   H  1S         -0.08066   0.11226  -0.02381  -0.12615   0.12831
  51        2S         -0.04289   0.06188  -0.01192  -0.07700   0.09711
  52 9   H  1S          0.08067   0.11226   0.02381  -0.12615  -0.12831
  53        2S          0.04289   0.06188   0.01192  -0.07700  -0.09711
  54 10  H  1S         -0.08581   0.08901  -0.01673   0.16704  -0.13588
  55        2S         -0.04307   0.05748  -0.00881   0.10558  -0.10637
  56 11  N  1S          0.00000  -0.02239  -0.00000  -0.04928  -0.00000
  57        2S         -0.00000   0.02164   0.00000   0.04588   0.00000
  58        2PX         0.00000  -0.11463   0.00000   0.02868   0.00000
  59        2PY        -0.21364  -0.00000   0.24227  -0.00000  -0.05516
  60        2PZ         0.00000   0.00000   0.00000   0.00000   0.00000
  61        3S         -0.00001   0.07824   0.00000   0.19222   0.00000
  62        3PX        -0.00000  -0.08830   0.00000   0.02148  -0.00000
  63        3PY        -0.16193  -0.00000   0.20364  -0.00000  -0.05361
  64        3PZ         0.00000   0.00000   0.00000   0.00000   0.00000
                          16        17        18        19        20
                           O         O         O         O         O
     Eigenvalues --    -0.57265  -0.54137  -0.51481  -0.40466  -0.38375
   1 1   C  1S          0.00463   0.00000  -0.00000  -0.00541   0.00000
   2        2S         -0.00724   0.00000   0.00000   0.00401   0.00000
   3        2PX         0.31400   0.00000  -0.00000  -0.06440   0.00000
   4        2PY        -0.00000   0.00000   0.24139  -0.00000   0.00000
   5        2PZ         0.00000   0.14915   0.00000   0.00000  -0.27579
   6        3S         -0.01549   0.00000   0.00000   0.01877   0.00000
   7        3PX         0.31430   0.00000  -0.00000  -0.14735   0.00000
   8        3PY        -0.00000   0.00000   0.16390   0.00000   0.00000
   9        3PZ         0.00000   0.14430   0.00000   0.00000  -0.31384
  10 2   C  1S          0.02487   0.00000   0.00175   0.02170   0.00000
  11        2S         -0.02642   0.00000  -0.00135  -0.01719   0.00000
  12        2PX        -0.12924   0.00000   0.04330   0.16198   0.00000
  13        2PY         0.07660   0.00000  -0.20467   0.00565   0.00000
  14        2PZ         0.00000   0.15828   0.00000   0.00000  -0.16260
  15        3S         -0.07846   0.00000  -0.00198  -0.19148   0.00000
  16        3PX        -0.08288   0.00000  -0.01899   0.20237   0.00000
  17        3PY         0.00326   0.00000  -0.21583   0.01759   0.00000
  18        3PZ         0.00000   0.14826   0.00000   0.00000  -0.19706
  19 3   C  1S         -0.02886   0.00000  -0.00174  -0.02251   0.00000
  20        2S          0.03517   0.00000   0.00153   0.02525   0.00000
  21        2PX         0.12314   0.00000  -0.02255  -0.16873   0.00000
  22        2PY        -0.08104   0.00000   0.19161  -0.04834   0.00000
  23        2PZ         0.00000   0.19106   0.00000   0.00000   0.09786
  24        3S          0.06840   0.00000   0.00858   0.10750   0.00000
  25        3PX         0.12724   0.00000  -0.07684   0.00464   0.00000
  26        3PY        -0.05942   0.00000   0.20122   0.01512   0.00000
  27        3PZ         0.00000   0.19285   0.00000   0.00000   0.13467
  28 4   C  1S         -0.02886   0.00000   0.00174  -0.02251   0.00000
  29        2S          0.03517   0.00000  -0.00153   0.02525   0.00000
  30        2PX         0.12314   0.00000   0.02255  -0.16873   0.00000
  31        2PY         0.08104   0.00000   0.19161   0.04834   0.00000
  32        2PZ         0.00000   0.19106   0.00000   0.00000   0.09786
  33        3S          0.06840   0.00000  -0.00858   0.10750   0.00000
  34        3PX         0.12724   0.00000   0.07684   0.00464   0.00000
  35        3PY         0.05942   0.00000   0.20122  -0.01512   0.00000
  36        3PZ         0.00000   0.19285   0.00000   0.00000   0.13467
  37 5   C  1S          0.02487   0.00000  -0.00175   0.02170   0.00000
  38        2S         -0.02642   0.00000   0.00135  -0.01719   0.00000
  39        2PX        -0.12924   0.00000  -0.04330   0.16198   0.00000
  40        2PY        -0.07660   0.00000  -0.20467  -0.00565   0.00000
  41        2PZ         0.00000   0.15828   0.00000   0.00000  -0.16260
  42        3S         -0.07846   0.00000   0.00198  -0.19148   0.00000
  43        3PX        -0.08288   0.00000   0.01899   0.20237   0.00000
  44        3PY        -0.00326   0.00000  -0.21583  -0.01759   0.00000
  45        3PZ         0.00000   0.14826   0.00000   0.00000  -0.19706
  46 6   H  1S          0.21944   0.00000   0.00000  -0.05855   0.00000
  47        2S          0.16621   0.00000   0.00000  -0.04035   0.00000
  48 7   H  1S         -0.02290   0.00000  -0.12894   0.05146   0.00000
  49        2S         -0.00359   0.00000  -0.09939   0.06119   0.00000
  50 8   H  1S         -0.05831   0.00000   0.13707   0.08842   0.00000
  51        2S         -0.04257   0.00000   0.10156   0.11078   0.00000
  52 9   H  1S         -0.05831   0.00000  -0.13707   0.08842   0.00000
  53        2S         -0.04257   0.00000  -0.10156   0.11078   0.00000
  54 10  H  1S         -0.02290   0.00000   0.12894   0.05146   0.00000
  55        2S         -0.00359   0.00000   0.09939   0.06119   0.00000
  56 11  N  1S          0.03895   0.00000  -0.00000   0.07568   0.00000
  57        2S         -0.04099   0.00000  -0.00000  -0.07427   0.00000
  58        2PX         0.18929   0.00000   0.00000   0.39755   0.00000
  59        2PY        -0.00000   0.00000  -0.18564   0.00000   0.00000
  60        2PZ         0.00000   0.22953   0.00000   0.00000   0.26248
  61        3S         -0.14339   0.00000   0.00000  -0.29892   0.00000
  62        3PX         0.17733   0.00000   0.00000   0.48086   0.00000
  63        3PY        -0.00000   0.00000  -0.17462   0.00000   0.00000
  64        3PZ         0.00000   0.23884   0.00000   0.00000   0.31859
                          21        22        23        24        25
                           O         V         V         V         V
     Eigenvalues --    -0.35139   0.12523   0.13288   0.25178   0.30768
   1 1   C  1S          0.00000   0.00000   0.00000   0.05535   0.00000
   2        2S          0.00000   0.00000   0.00000  -0.02464   0.00000
   3        2PX         0.00000   0.00000   0.00000  -0.14338  -0.00000
   4        2PY         0.00000   0.00000   0.00000   0.00000  -0.02703
   5        2PZ         0.00000   0.28422   0.00000   0.00000   0.00000
   6        3S          0.00000   0.00000   0.00000  -0.71278  -0.00000
   7        3PX         0.00000   0.00000   0.00000  -0.50399  -0.00000
   8        3PY         0.00000   0.00000   0.00000   0.00000   0.03083
   9        3PZ         0.00000   0.62861   0.00000   0.00000   0.00000
  10 2   C  1S          0.00000   0.00000   0.00000   0.04355   0.03886
  11        2S          0.00000   0.00000   0.00000  -0.01761  -0.00429
  12        2PX         0.00000   0.00000   0.00000  -0.07440  -0.06493
  13        2PY         0.00000   0.00000   0.00000  -0.09636  -0.15586
  14        2PZ         0.23643  -0.12730  -0.23094   0.00000   0.00000
  15        3S          0.00000   0.00000   0.00000  -0.57675  -0.70153
  16        3PX         0.00000   0.00000   0.00000  -0.21671  -0.27928
  17        3PY         0.00000   0.00000   0.00000  -0.33330  -0.52841
  18        3PZ         0.29231  -0.30721  -0.50850   0.00000   0.00000
  19 3   C  1S          0.00000   0.00000   0.00000   0.03946   0.02729
  20        2S          0.00000   0.00000   0.00000  -0.02642  -0.00082
  21        2PX         0.00000   0.00000   0.00000   0.02595   0.07532
  22        2PY         0.00000   0.00000   0.00000  -0.06115  -0.15045
  23        2PZ         0.23484  -0.14965   0.24865   0.00000   0.00000
  24        3S          0.00000   0.00000   0.00000  -0.41577  -0.54060
  25        3PX         0.00000   0.00000   0.00000   0.09818   0.29429
  26        3PY         0.00000   0.00000   0.00000  -0.24151  -0.45960
  27        3PZ         0.27237  -0.25268   0.51562   0.00000   0.00000
  28 4   C  1S          0.00000   0.00000   0.00000   0.03946  -0.02729
  29        2S          0.00000   0.00000   0.00000  -0.02642   0.00082
  30        2PX         0.00000   0.00000   0.00000   0.02595  -0.07532
  31        2PY         0.00000   0.00000   0.00000   0.06115  -0.15045
  32        2PZ        -0.23484  -0.14965  -0.24865   0.00000   0.00000
  33        3S          0.00000   0.00000   0.00000  -0.41577   0.54061
  34        3PX         0.00000   0.00000   0.00000   0.09818  -0.29430
  35        3PY         0.00000   0.00000   0.00000   0.24151  -0.45960
  36        3PZ        -0.27237  -0.25268  -0.51562   0.00000   0.00000
  37 5   C  1S          0.00000   0.00000   0.00000   0.04355  -0.03886
  38        2S          0.00000   0.00000   0.00000  -0.01761   0.00429
  39        2PX         0.00000   0.00000   0.00000  -0.07440   0.06493
  40        2PY         0.00000   0.00000   0.00000   0.09636  -0.15586
  41        2PZ        -0.23643  -0.12730   0.23094   0.00000   0.00000
  42        3S          0.00000   0.00000   0.00000  -0.57675   0.70153
  43        3PX         0.00000   0.00000   0.00000  -0.21671   0.27928
  44        3PY         0.00000   0.00000   0.00000   0.33330  -0.52841
  45        3PZ        -0.29231  -0.30721   0.50850   0.00000   0.00000
  46 6   H  1S          0.00000   0.00000   0.00000   0.05715  -0.00000
  47        2S          0.00000   0.00000   0.00000   1.05386   0.00000
  48 7   H  1S          0.00000   0.00000   0.00000   0.04587   0.02336
  49        2S          0.00000   0.00000   0.00000   0.85313   1.06435
  50 8   H  1S          0.00000   0.00000   0.00000   0.03061   0.02545
  51        2S          0.00000   0.00000   0.00000   0.55923   0.93674
  52 9   H  1S          0.00000   0.00000   0.00000   0.03061  -0.02545
  53        2S          0.00000   0.00000   0.00000   0.55923  -0.93675
  54 10  H  1S          0.00000   0.00000   0.00000   0.04587  -0.02336
  55        2S          0.00000   0.00000   0.00000   0.85313  -1.06435
  56 11  N  1S          0.00000   0.00000   0.00000   0.00924   0.00000
  57        2S          0.00000   0.00000   0.00000  -0.00619  -0.00000
  58        2PX         0.00000   0.00000   0.00000  -0.05293  -0.00000
  59        2PY         0.00000   0.00000   0.00000  -0.00000  -0.03513
  60        2PZ        -0.00000   0.26965   0.00000   0.00000   0.00000
  61        3S          0.00000   0.00000   0.00000  -0.08627  -0.00000
  62        3PX         0.00000   0.00000   0.00000  -0.13869   0.00000
  63        3PY         0.00000   0.00000   0.00000  -0.00000  -0.01484
  64        3PZ        -0.00000   0.49154   0.00000   0.00000   0.00000
                          26        27        28        29        30
                           V         V         V         V         V
     Eigenvalues --     0.32857   0.35057   0.35141   0.35364   0.43558
   1 1   C  1S         -0.05575   0.10506   0.00000   0.00000  -0.08167
   2        2S          0.00039  -0.07392   0.00000  -0.00000   0.02434
   3        2PX         0.14285  -0.08985   0.00000  -0.00000  -0.21614
   4        2PY         0.00000   0.00000   0.00000  -0.07671   0.00000
   5        2PZ         0.00000   0.00000   0.20431   0.00000   0.00000
   6        3S          1.15837  -1.00924   0.00000  -0.00000   1.51258
   7        3PX         0.41964  -1.00795   0.00000  -0.00000  -1.33810
   8        3PY         0.00000   0.00000   0.00000  -0.40245   0.00000
   9        3PZ         0.00000   0.00000   0.60595   0.00000   0.00000
  10 2   C  1S         -0.00381  -0.07960   0.00000  -0.08575   0.02753
  11        2S          0.01101   0.06213   0.00000   0.03457   0.02123
  12        2PX        -0.02020   0.06691   0.00000   0.00749  -0.03947
  13        2PY         0.03811   0.04886   0.00000   0.07535   0.04206
  14        2PZ         0.00000   0.00000  -0.21648   0.00000   0.00000
  15        3S         -0.05396   0.67848   0.00000   1.25021  -0.85442
  16        3PX        -0.14790   0.59082   0.00000   0.04206  -0.34717
  17        3PY         0.35456   0.68109   0.00000   0.51186   0.75513
  18        3PZ         0.00000   0.00000  -0.60472   0.00000   0.00000
  19 3   C  1S          0.08245   0.03146   0.00000   0.08010   0.05008
  20        2S         -0.04005  -0.03326   0.00000  -0.04215  -0.01000
  21        2PX         0.12573  -0.01209   0.00000   0.00767  -0.04261
  22        2PY        -0.07966  -0.03382   0.00000  -0.10348   0.11486
  23        2PZ         0.00000   0.00000   0.21306   0.00000   0.00000
  24        3S         -1.03151  -0.04618   0.00000  -1.03520  -0.63194
  25        3PX         0.45748   0.15000   0.00000   0.00448   0.24932
  26        3PY        -0.48384  -0.38862   0.00000  -0.65545   0.71879
  27        3PZ         0.00000   0.00000   0.55691   0.00000   0.00000
  28 4   C  1S          0.08245   0.03146   0.00000  -0.08010   0.05008
  29        2S         -0.04005  -0.03326   0.00000   0.04215  -0.01000
  30        2PX         0.12573  -0.01209   0.00000  -0.00767  -0.04261
  31        2PY         0.07966   0.03382   0.00000  -0.10348  -0.11486
  32        2PZ         0.00000   0.00000   0.21306   0.00000   0.00000
  33        3S         -1.03150  -0.04618   0.00000   1.03520  -0.63194
  34        3PX         0.45748   0.14999   0.00000  -0.00448   0.24932
  35        3PY         0.48384   0.38862   0.00000  -0.65544  -0.71879
  36        3PZ         0.00000   0.00000   0.55691   0.00000   0.00000
  37 5   C  1S         -0.00381  -0.07960   0.00000   0.08575   0.02753
  38        2S          0.01101   0.06213   0.00000  -0.03457   0.02124
  39        2PX        -0.02020   0.06691   0.00000  -0.00749  -0.03947
  40        2PY        -0.03811  -0.04886   0.00000   0.07535  -0.04206
  41        2PZ         0.00000   0.00000  -0.21648   0.00000   0.00000
  42        3S         -0.05396   0.67849   0.00000  -1.25021  -0.85441
  43        3PX        -0.14790   0.59082   0.00000  -0.04206  -0.34717
  44        3PY        -0.35456  -0.68109   0.00000   0.51186  -0.75513
  45        3PZ         0.00000   0.00000  -0.60472   0.00000   0.00000
  46 6   H  1S          0.00639   0.01516   0.00000   0.00000   0.00909
  47        2S         -0.97872   1.45460   0.00000   0.00000   0.83431
  48 7   H  1S         -0.01313  -0.02039   0.00000   0.00853  -0.02728
  49        2S         -0.24382  -1.21313   0.00000  -0.99269  -0.16740
  50 8   H  1S          0.02116   0.02560   0.00000   0.00964  -0.00127
  51        2S          1.22743   0.46383   0.00000   1.06569  -0.24942
  52 9   H  1S          0.02116   0.02560   0.00000  -0.00964  -0.00127
  53        2S          1.22743   0.46383   0.00000  -1.06569  -0.24942
  54 10  H  1S         -0.01313  -0.02039   0.00000  -0.00853  -0.02728
  55        2S         -0.24383  -1.21313   0.00000   0.99269  -0.16740
  56 11  N  1S         -0.04780   0.00361   0.00000  -0.00000  -0.12368
  57        2S          0.03248   0.02691   0.00000   0.00000   0.03436
  58        2PX         0.04629   0.03419   0.00000   0.00000   0.15036
  59        2PY        -0.00000  -0.00000   0.00000   0.06772  -0.00000
  60        2PZ         0.00000   0.00000  -0.24285   0.00000   0.00000
  61        3S          0.36785  -0.26144   0.00000   0.00000   1.58254
  62        3PX        -0.01671  -0.10053   0.00000   0.00000   0.61360
  63        3PY        -0.00000   0.00000   0.00000   0.07684   0.00000
  64        3PZ         0.00000   0.00000  -0.51766   0.00000   0.00000
                          31        32        33        34        35
                           V         V         V         V         V
     Eigenvalues --     0.48832   0.52360   0.52871   0.72859   0.74012
   1 1   C  1S          0.00000  -0.06619   0.00000  -0.11528  -0.00000
   2        2S         -0.00000  -0.01101   0.00000  -0.01716  -0.00000
   3        2PX         0.00000   0.00403  -0.00000  -0.10280  -0.00000
   4        2PY         0.12217   0.00000   0.20841  -0.00000   0.08726
   5        2PZ         0.00000   0.00000   0.00000   0.00000   0.00000
   6        3S         -0.00000   1.83821  -0.00000   2.92532   0.00001
   7        3PX         0.00000  -0.37080   0.00000  -2.31083  -0.00001
   8        3PY         1.67156   0.00000   1.23771  -0.00001   2.57136
   9        3PZ         0.00000   0.00000   0.00000   0.00000   0.00000
  10 2   C  1S          0.09369  -0.02464  -0.01450   0.13278   0.01957
  11        2S         -0.00823  -0.01236   0.01997  -0.06628  -0.01981
  12        2PX         0.01641  -0.12576  -0.13334   0.19114  -0.20981
  13        2PY         0.15460   0.11792  -0.05416   0.14764   0.14186
  14        2PZ         0.00000   0.00000   0.00000   0.00000   0.00000
  15        3S         -2.09315   0.73376  -0.11560  -2.67701  -0.23605
  16        3PX         0.39823  -1.36358  -1.51646   0.93308  -1.82482
  17        3PY         1.08042   0.78056   0.10905   1.98944   1.19026
  18        3PZ         0.00000   0.00000   0.00000   0.00000   0.00000
  19 3   C  1S         -0.03135   0.02573   0.10071  -0.08143  -0.00729
  20        2S          0.01560   0.00070  -0.02309  -0.08901  -0.03667
  21        2PX         0.13529  -0.21086  -0.04587   0.10715   0.03844
  22        2PY        -0.08535  -0.10061   0.11718   0.00894  -0.01235
  23        2PZ         0.00000   0.00000   0.00000   0.00000   0.00000
  24        3S          0.39117  -0.86590  -1.91226   1.89313  -0.11532
  25        3PX         1.27501  -1.32978  -0.45874   1.09738  -1.96427
  26        3PY        -0.31273  -0.66392   0.77271  -1.09185  -1.35664
  27        3PZ         0.00000   0.00000   0.00000   0.00000   0.00000
  28 4   C  1S          0.03135   0.02573  -0.10071  -0.08143   0.00728
  29        2S         -0.01560   0.00070   0.02309  -0.08901   0.03667
  30        2PX        -0.13529  -0.21086   0.04587   0.10715  -0.03843
  31        2PY        -0.08535   0.10061   0.11718  -0.00894  -0.01235
  32        2PZ         0.00000   0.00000   0.00000   0.00000   0.00000
  33        3S         -0.39117  -0.86589   1.91226   1.89313   0.11533
  34        3PX        -1.27501  -1.32978   0.45874   1.09736   1.96427
  35        3PY        -0.31273   0.66393   0.77271   1.09186  -1.35663
  36        3PZ         0.00000   0.00000   0.00000   0.00000   0.00000
  37 5   C  1S         -0.09369  -0.02464   0.01450   0.13278  -0.01957
  38        2S          0.00823  -0.01236  -0.01997  -0.06628   0.01981
  39        2PX        -0.01641  -0.12576   0.13334   0.19113   0.20982
  40        2PY         0.15460  -0.11792  -0.05416  -0.14764   0.14186
  41        2PZ         0.00000   0.00000   0.00000   0.00000   0.00000
  42        3S          2.09315   0.73376   0.11560  -2.67701   0.23603
  43        3PX        -0.39823  -1.36357   1.51646   0.93307   1.82483
  44        3PY         1.08042  -0.78056   0.10906  -1.98944   1.19025
  45        3PZ         0.00000   0.00000   0.00000   0.00000   0.00000
  46 6   H  1S          0.00000   0.14049  -0.00000  -0.08398  -0.00000
  47        2S         -0.00000  -0.11403   0.00000   0.87125   0.00000
  48 7   H  1S         -0.06281   0.08840  -0.09404   0.13393   0.00678
  49        2S         -0.49088  -0.21820   0.50757  -0.93098  -0.06206
  50 8   H  1S         -0.05564  -0.03666  -0.07017  -0.09900  -0.06721
  51        2S          0.71354  -0.01497  -0.19557   0.51438  -0.01817
  52 9   H  1S          0.05564  -0.03666   0.07017  -0.09900   0.06721
  53        2S         -0.71354  -0.01497   0.19557   0.51438   0.01818
  54 10  H  1S          0.06281   0.08840   0.09404   0.13393  -0.00678
  55        2S          0.49088  -0.21821  -0.50756  -0.93098   0.06205
  56 11  N  1S          0.00000   0.09194  -0.00000   0.08088   0.00000
  57        2S         -0.00000  -0.00989   0.00000  -0.03827  -0.00000
  58        2PX        -0.00000   0.03312  -0.00000  -0.14334  -0.00000
  59        2PY         0.07756   0.00000   0.25637   0.00000  -0.26352
  60        2PZ         0.00000   0.00000   0.00000   0.00000   0.00000
  61        3S         -0.00000  -1.41184   0.00000  -1.33748  -0.00000
  62        3PX        -0.00000  -0.09756   0.00000  -0.83166  -0.00000
  63        3PY         0.41086   0.00000   0.96697   0.00001  -1.53012
  64        3PZ         0.00000   0.00000   0.00000   0.00000   0.00000
                          36        37        38        39        40
                           V         V         V         V         V
     Eigenvalues --     0.90891   0.93958   0.94638   0.99479   1.02060
   1 1   C  1S          0.00000   0.00000   0.01784   0.08405  -0.00000
   2        2S          0.00000   0.00000  -0.04244  -0.03020  -0.00000
   3        2PX         0.00000   0.00000   0.26402   0.26256  -0.00000
   4        2PY        -0.59111   0.00000   0.00000  -0.00000  -0.52169
   5        2PZ         0.00000   0.44674   0.00000   0.00000   0.00000
   6        3S         -0.00000   0.00000  -0.44900   0.04843  -0.00000
   7        3PX         0.00000   0.00000  -0.16101  -0.11502   0.00000
   8        3PY         0.01172   0.00000   0.00000   0.00000   0.93261
   9        3PZ         0.00000  -0.30505   0.00000   0.00000   0.00000
  10 2   C  1S         -0.03091   0.00000  -0.00125  -0.03087  -0.05621
  11        2S          0.02636   0.00000  -0.00245   0.00450  -0.06994
  12        2PX        -0.41372   0.00000   0.06406   0.50009  -0.06077
  13        2PY         0.10582   0.00000   0.20452  -0.29945  -0.03287
  14        2PZ         0.00000   0.43797   0.00000   0.00000   0.00000
  15        3S          0.05282   0.00000  -0.07431  -0.16367  -0.30538
  16        3PX         0.87140   0.00000  -0.01951  -0.41015  -0.29084
  17        3PY        -0.52195   0.00000  -0.45493   0.16390   0.20144
  18        3PZ         0.00000  -0.23212   0.00000   0.00000   0.00000
  19 3   C  1S          0.04276   0.00000   0.04058  -0.02377   0.00853
  20        2S         -0.01797   0.00000  -0.10393  -0.07980  -0.05869
  21        2PX         0.21785   0.00000  -0.04617  -0.30657  -0.58717
  22        2PY         0.27201   0.00000   0.41994  -0.12738  -0.26562
  23        2PZ         0.00000   0.53598   0.00000   0.00000   0.00000
  24        3S          0.04401   0.00000  -0.15995  -0.03136   0.00285
  25        3PX         0.12174   0.00000   0.25356   0.47807   0.32757
  26        3PY         0.14104   0.00000  -0.18104   0.12570   0.07895
  27        3PZ         0.00000  -0.44267   0.00000   0.00000   0.00000
  28 4   C  1S         -0.04276   0.00000   0.04058  -0.02377  -0.00853
  29        2S          0.01797   0.00000  -0.10393  -0.07980   0.05869
  30        2PX        -0.21785   0.00000  -0.04617  -0.30657   0.58717
  31        2PY         0.27201   0.00000  -0.41994   0.12738  -0.26562
  32        2PZ         0.00000   0.53598   0.00000   0.00000   0.00000
  33        3S         -0.04401   0.00000  -0.15995  -0.03136  -0.00285
  34        3PX        -0.12174   0.00000   0.25356   0.47807  -0.32757
  35        3PY         0.14104   0.00000   0.18104  -0.12570   0.07895
  36        3PZ         0.00000  -0.44267   0.00000   0.00000   0.00000
  37 5   C  1S          0.03091   0.00000  -0.00125  -0.03087   0.05621
  38        2S         -0.02636   0.00000  -0.00245   0.00450   0.06994
  39        2PX         0.41372   0.00000   0.06406   0.50009   0.06077
  40        2PY         0.10582   0.00000  -0.20452   0.29945  -0.03287
  41        2PZ         0.00000   0.43797   0.00000   0.00000   0.00000
  42        3S         -0.05282   0.00000  -0.07431  -0.16367   0.30538
  43        3PX        -0.87140   0.00000  -0.01951  -0.41015   0.29084
  44        3PY        -0.52194   0.00000   0.45494  -0.16390   0.20144
  45        3PZ         0.00000  -0.23212   0.00000   0.00000   0.00000
  46 6   H  1S          0.00000   0.00000   0.35067   0.46545  -0.00000
  47        2S         -0.00000   0.00000  -0.14520  -0.21779   0.00000
  48 7   H  1S         -0.12016   0.00000   0.32110  -0.08070  -0.35173
  49        2S          0.10136   0.00000   0.00382   0.08999   0.17128
  50 8   H  1S          0.12246   0.00000   0.41179  -0.12828   0.05463
  51        2S         -0.05530   0.00000  -0.16194   0.11520  -0.02857
  52 9   H  1S         -0.12246   0.00000   0.41179  -0.12828  -0.05463
  53        2S          0.05530   0.00000  -0.16194   0.11520   0.02857
  54 10  H  1S          0.12016   0.00000   0.32110  -0.08070   0.35173
  55        2S         -0.10136   0.00000   0.00382   0.08999  -0.17128
  56 11  N  1S         -0.00000   0.00000  -0.05712   0.01883  -0.00000
  57        2S          0.00000   0.00000   0.06375  -0.05906   0.00000
  58        2PX        -0.00000   0.00000  -0.04451  -0.19845   0.00000
  59        2PY         0.19664   0.00000  -0.00000  -0.00000  -0.15533
  60        2PZ         0.00000   0.06350   0.00000   0.00000   0.00000
  61        3S          0.00000   0.00000   0.28208   0.27573  -0.00000
  62        3PX         0.00000   0.00000   0.10600  -0.06302  -0.00000
  63        3PY         0.45664   0.00000  -0.00000  -0.00000  -0.21968
  64        3PZ         0.00000   0.11187   0.00000   0.00000   0.00000
                          41        42        43        44        45
                           V         V         V         V         V
     Eigenvalues --     1.03394   1.03758   1.07801   1.08729   1.10354
   1 1   C  1S          0.00000   0.00000  -0.02477   0.00000  -0.00000
   2        2S          0.00000   0.00000  -0.32334   0.00000   0.00000
   3        2PX         0.00000   0.00000   0.27045   0.00000  -0.00000
   4        2PY         0.00000   0.00000   0.00000   0.00000  -0.44570
   5        2PZ         0.00000   0.76371   0.00000   0.00000   0.00000
   6        3S          0.00000   0.00000   0.01420   0.00000  -0.00000
   7        3PX         0.00000   0.00000  -0.34272   0.00000   0.00000
   8        3PY         0.00000   0.00000  -0.00000   0.00000   0.29317
   9        3PZ        -0.00000  -0.66805   0.00000  -0.00000   0.00000
  10 2   C  1S          0.00000   0.00000  -0.01157   0.00000  -0.01123
  11        2S          0.00000   0.00000  -0.24290   0.00000  -0.14079
  12        2PX         0.00000   0.00000  -0.20193   0.00000   0.38539
  13        2PY         0.00000   0.00000   0.31335   0.00000  -0.17176
  14        2PZ         0.53339   0.23546   0.00000  -0.57516   0.00000
  15        3S          0.00000   0.00000  -0.37782   0.00000   0.32099
  16        3PX         0.00000   0.00000   0.49507   0.00000  -0.34063
  17        3PY         0.00000   0.00000  -0.20718   0.00000   0.20723
  18        3PZ        -0.42736  -0.22522   0.00000   0.75275   0.00000
  19 3   C  1S          0.00000   0.00000   0.00961   0.00000  -0.03012
  20        2S          0.00000   0.00000  -0.10046   0.00000  -0.19375
  21        2PX         0.00000   0.00000  -0.50618   0.00000   0.24253
  22        2PY         0.00000   0.00000  -0.14363   0.00000   0.15957
  23        2PZ         0.56460  -0.50614   0.00000   0.53933   0.00000
  24        3S          0.00000   0.00000   0.33914   0.00000   0.10991
  25        3PX         0.00000   0.00000   0.84931   0.00000  -0.52390
  26        3PY         0.00000   0.00000   0.14439   0.00000  -0.10644
  27        3PZ        -0.49528   0.58581   0.00000  -0.73695   0.00000
  28 4   C  1S          0.00000   0.00000   0.00961   0.00000   0.03012
  29        2S          0.00000   0.00000  -0.10046   0.00000   0.19375
  30        2PX         0.00000   0.00000  -0.50618   0.00000  -0.24253
  31        2PY         0.00000   0.00000   0.14363   0.00000   0.15958
  32        2PZ        -0.56460  -0.50614   0.00000  -0.53933   0.00000
  33        3S          0.00000   0.00000   0.33914   0.00000  -0.10991
  34        3PX         0.00000   0.00000   0.84931   0.00000   0.52390
  35        3PY         0.00000   0.00000  -0.14440   0.00000  -0.10644
  36        3PZ         0.49528   0.58581   0.00000   0.73695   0.00000
  37 5   C  1S          0.00000   0.00000  -0.01157   0.00000   0.01123
  38        2S          0.00000   0.00000  -0.24290   0.00000   0.14079
  39        2PX         0.00000   0.00000  -0.20193   0.00000  -0.38539
  40        2PY         0.00000   0.00000  -0.31335   0.00000  -0.17176
  41        2PZ        -0.53339   0.23546   0.00000   0.57516   0.00000
  42        3S          0.00000   0.00000  -0.37782   0.00000  -0.32099
  43        3PX         0.00000   0.00000   0.49507   0.00000   0.34063
  44        3PY         0.00000   0.00000   0.20718   0.00000   0.20723
  45        3PZ         0.42736  -0.22522   0.00000  -0.75275   0.00000
  46 6   H  1S          0.00000   0.00000  -0.42291   0.00000   0.00000
  47        2S          0.00000   0.00000   0.35163   0.00000  -0.00000
  48 7   H  1S          0.00000   0.00000  -0.28254   0.00000  -0.30628
  49        2S          0.00000   0.00000   0.14161   0.00000   0.13418
  50 8   H  1S          0.00000   0.00000   0.07371   0.00000  -0.55843
  51        2S          0.00000   0.00000   0.09148   0.00000   0.21916
  52 9   H  1S          0.00000   0.00000   0.07371   0.00000   0.55843
  53        2S          0.00000   0.00000   0.09148   0.00000  -0.21916
  54 10  H  1S          0.00000   0.00000  -0.28254   0.00000   0.30628
  55        2S          0.00000   0.00000   0.14161   0.00000  -0.13418
  56 11  N  1S          0.00000   0.00000   0.01453   0.00000  -0.00000
  57        2S          0.00000   0.00000  -0.03159   0.00000  -0.00000
  58        2PX         0.00000   0.00000  -0.24283   0.00000  -0.00000
  59        2PY         0.00000   0.00000   0.00000   0.00000  -0.11789
  60        2PZ        -0.00000  -0.05677   0.00000   0.00000   0.00000
  61        3S          0.00000   0.00000   0.35766   0.00000   0.00000
  62        3PX         0.00000   0.00000  -0.09651   0.00000   0.00000
  63        3PY         0.00000   0.00000   0.00000   0.00000  -0.04901
  64        3PZ        -0.00000  -0.16729   0.00000   0.00000   0.00000
                          46        47        48        49        50
                           V         V         V         V         V
     Eigenvalues --     1.12131   1.13161   1.26132   1.26641   1.34007
   1 1   C  1S          0.00000  -0.01648   0.02480  -0.00000   0.02668
   2        2S          0.00000   0.23911  -0.08906   0.00000  -0.11022
   3        2PX         0.00000  -0.13978  -0.68688   0.00001  -0.53645
   4        2PY         0.00000   0.00000   0.00000  -0.01675  -0.00000
   5        2PZ        -0.66236   0.00000   0.00000   0.00000   0.00000
   6        3S          0.00000  -0.86121  -1.24590   0.00002  -0.13373
   7        3PX         0.00000   0.22765   2.33850  -0.00004   0.81393
   8        3PY         0.00000  -0.00000  -0.00000  -0.03410   0.00001
   9        3PZ         1.14863   0.00000   0.00000   0.00000   0.00000
  10 2   C  1S          0.00000   0.00933  -0.01802  -0.02219   0.01239
  11        2S          0.00000   0.17221  -0.04348   0.03224  -0.01455
  12        2PX         0.00000  -0.08767   0.30860   0.28642  -0.35885
  13        2PY         0.00000   0.10542   0.55885   0.39137  -0.07570
  14        2PZ         0.59828   0.00000   0.00000   0.00000   0.00000
  15        3S          0.00000  -0.13452   1.15156   0.48130  -0.33948
  16        3PX         0.00000   0.20196  -0.91825  -0.82398   0.95308
  17        3PY         0.00000  -0.65398  -1.75730  -1.02565   0.02407
  18        3PZ        -0.99644   0.00000   0.00000   0.00000   0.00000
  19 3   C  1S          0.00000  -0.02840  -0.00272   0.02860  -0.02060
  20        2S          0.00000   0.39334  -0.01627  -0.07012   0.15954
  21        2PX         0.00000  -0.03145   0.11226   0.38794  -0.42919
  22        2PY         0.00000  -0.54198  -0.02975  -0.43192   0.23397
  23        2PZ        -0.20235   0.00000   0.00000   0.00000   0.00000
  24        3S          0.00000  -0.24401  -0.77414  -0.34470   0.33700
  25        3PX         0.00000   0.27896  -0.56813  -1.06568   1.13626
  26        3PY         0.00000   0.83734   0.51734   1.12566  -0.46584
  27        3PZ         0.45842   0.00000   0.00000   0.00000   0.00000
  28 4   C  1S          0.00000  -0.02840  -0.00273  -0.02860  -0.02060
  29        2S          0.00000   0.39334  -0.01626   0.07013   0.15954
  30        2PX         0.00000  -0.03145   0.11225  -0.38795  -0.42919
  31        2PY         0.00000   0.54198   0.02974  -0.43192  -0.23397
  32        2PZ        -0.20235   0.00000   0.00000   0.00000   0.00000
  33        3S          0.00000  -0.24401  -0.77413   0.34473   0.33700
  34        3PX         0.00000   0.27895  -0.56810   1.06570   1.13626
  35        3PY         0.00000  -0.83735  -0.51730   1.12567   0.46584
  36        3PZ         0.45842   0.00000   0.00000   0.00000   0.00000
  37 5   C  1S          0.00000   0.00933  -0.01802   0.02219   0.01239
  38        2S          0.00000   0.17221  -0.04348  -0.03224  -0.01455
  39        2PX         0.00000  -0.08767   0.30859  -0.28643  -0.35885
  40        2PY         0.00000  -0.10542  -0.55884   0.39138   0.07569
  41        2PZ         0.59828   0.00000   0.00000   0.00000   0.00000
  42        3S          0.00000  -0.13452   1.15154  -0.48134  -0.33948
  43        3PX         0.00000   0.20196  -0.91822   0.82401   0.95309
  44        3PY         0.00000   0.65398   1.75727  -1.02570  -0.02405
  45        3PZ        -0.99644   0.00000   0.00000   0.00000   0.00000
  46 6   H  1S          0.00000   0.21253   0.37153  -0.00001   0.50812
  47        2S          0.00000  -0.12129  -1.35395   0.00002  -0.98445
  48 7   H  1S          0.00000   0.36783  -0.33293  -0.36623   0.24248
  49        2S          0.00000  -0.02254   1.13692   0.94028  -0.44376
  50 8   H  1S          0.00000   0.29122  -0.04571   0.36861  -0.38761
  51        2S          0.00000  -0.35096  -0.21068  -1.10405   0.88924
  52 9   H  1S          0.00000   0.29122  -0.04572  -0.36861  -0.38761
  53        2S          0.00000  -0.35096  -0.21064   1.10405   0.88924
  54 10  H  1S          0.00000   0.36783  -0.33292   0.36624   0.24248
  55        2S          0.00000  -0.02254   1.13689  -0.94032  -0.44375
  56 11  N  1S          0.00000   0.00370  -0.00945   0.00000   0.00398
  57        2S          0.00000  -0.00770  -0.03835   0.00000   0.03006
  58        2PX         0.00000  -0.37856  -0.05227   0.00000   0.06499
  59        2PY         0.00000   0.00000   0.00000   0.01654   0.00000
  60        2PZ        -0.11606   0.00000   0.00000   0.00000   0.00000
  61        3S          0.00000   0.88694   0.43019  -0.00001   0.00686
  62        3PX         0.00000   0.29492   0.29182  -0.00000  -0.37361
  63        3PY         0.00000  -0.00000   0.00000  -0.02662  -0.00000
  64        3PZ        -0.09488   0.00000   0.00000   0.00000   0.00000
                          51        52        53        54        55
                           V         V         V         V         V
     Eigenvalues --     1.36613   1.48471   1.48498   1.54204   1.61063
   1 1   C  1S         -0.00000   0.00000   0.00596   0.00000   0.01077
   2        2S          0.00000  -0.00009  -0.35257   0.00000  -0.14315
   3        2PX         0.00000  -0.00014  -0.54364   0.00000   0.33001
   4        2PY        -0.46410  -0.43415   0.00011   0.00000  -0.00000
   5        2PZ         0.00000   0.00000   0.00000   0.05754   0.00000
   6        3S         -0.00000   0.00055   2.19799   0.00000  -1.25183
   7        3PX        -0.00000   0.00006   0.25783   0.00000  -1.31579
   8        3PY         1.72669   3.09104  -0.00078   0.00000  -0.00000
   9        3PZ         0.00000   0.00000   0.00000  -0.20672   0.00000
  10 2   C  1S          0.02267  -0.00317   0.01972   0.00000   0.01673
  11        2S         -0.15300   0.23117  -0.31349   0.00000  -0.37480
  12        2PX         0.05739   0.51944  -0.08678   0.00000  -0.17924
  13        2PY        -0.58004   0.12814  -0.36003   0.00000   0.16401
  14        2PZ         0.00000   0.00000   0.00000  -0.04981   0.00000
  15        3S         -0.09053  -1.62260  -0.09315   0.00000  -0.30054
  16        3PX        -0.76869  -2.43508   0.15324   0.00000   1.23446
  17        3PY         1.38265   0.58488   1.57157   0.00000  -0.57212
  18        3PZ         0.00000   0.00000   0.00000   0.25990   0.00000
  19 3   C  1S          0.02466  -0.00266   0.01848   0.00000   0.00297
  20        2S         -0.16645   0.29428  -0.35350   0.00000  -0.51656
  21        2PX         0.22953  -0.10666  -0.02822   0.00000   0.12812
  22        2PY        -0.27565   0.42726  -0.08978   0.00000  -0.37045
  23        2PZ         0.00000   0.00000   0.00000   0.07711   0.00000
  24        3S          0.07895  -1.48855   0.83080   0.00000   1.73474
  25        3PX        -0.80189  -0.18828   0.25743   0.00000   0.31781
  26        3PY         0.10548  -1.47810  -0.97215   0.00000   1.14773
  27        3PZ         0.00000   0.00000   0.00000  -0.48090   0.00000
  28 4   C  1S         -0.02466   0.00267   0.01848   0.00000   0.00297
  29        2S          0.16645  -0.29446  -0.35336   0.00000  -0.51656
  30        2PX        -0.22953   0.10665  -0.02828   0.00000   0.12812
  31        2PY        -0.27564   0.42731   0.08957   0.00000   0.37045
  32        2PZ         0.00000   0.00000   0.00000   0.07711   0.00000
  33        3S         -0.07896   1.48897   0.83005   0.00000   1.73474
  34        3PX         0.80188   0.18841   0.25734   0.00000   0.31781
  35        3PY         0.10547  -1.47761   0.97289   0.00000  -1.14772
  36        3PZ         0.00000   0.00000   0.00000  -0.48090   0.00000
  37 5   C  1S         -0.02267   0.00318   0.01972   0.00000   0.01673
  38        2S          0.15300  -0.23133  -0.31337   0.00000  -0.37480
  39        2PX        -0.05739  -0.51949  -0.08652   0.00000  -0.17924
  40        2PY        -0.58004   0.12832   0.35997   0.00000  -0.16400
  41        2PZ         0.00000   0.00000   0.00000  -0.04981   0.00000
  42        3S          0.09053   1.62255  -0.09397   0.00000  -0.30054
  43        3PX         0.76868   2.43516   0.15201   0.00000   1.23446
  44        3PY         1.38265   0.58409  -1.57186   0.00000   0.57211
  45        3PZ         0.00000   0.00000   0.00000   0.25990   0.00000
  46 6   H  1S         -0.00000   0.00004   0.17028   0.00000   0.60992
  47        2S          0.00000  -0.00018  -0.73039   0.00000   0.35576
  48 7   H  1S          0.38574   0.16713  -0.14870   0.00000   0.13450
  49        2S         -0.87837   0.49212  -0.72761   0.00000  -0.17204
  50 8   H  1S          0.33919   0.31736   0.62605   0.00000  -0.14896
  51        2S         -0.69773   0.61990  -0.21413   0.00000  -0.67480
  52 9   H  1S         -0.33918  -0.31704   0.62621   0.00000  -0.14896
  53        2S          0.69772  -0.62001  -0.21382   0.00000  -0.67479
  54 10  H  1S         -0.38575  -0.16721  -0.14862   0.00000   0.13450
  55        2S          0.87838  -0.49249  -0.72737   0.00000  -0.17204
  56 11  N  1S         -0.00000   0.00001   0.03871   0.00000   0.00041
  57        2S         -0.00000  -0.00001  -0.05804   0.00000  -0.01970
  58        2PX        -0.00000   0.00001   0.02496   0.00000   0.47195
  59        2PY         0.06989   0.20974  -0.00005   0.00000  -0.00000
  60        2PZ         0.00000   0.00000   0.00000  -1.07628   0.00000
  61        3S          0.00000  -0.00026  -1.04443   0.00000   0.49936
  62        3PX         0.00000  -0.00013  -0.52517   0.00000  -0.40307
  63        3PY        -0.36531  -0.30808   0.00008   0.00000   0.00000
  64        3PZ         0.00000   0.00000   0.00000   1.29373   0.00000
                          56        57        58        59        60
                           V         V         V         V         V
     Eigenvalues --     1.64482   1.67251   1.68967   1.73868   1.81682
   1 1   C  1S          0.01991  -0.00000   0.01830  -0.00000   0.00029
   2        2S         -0.70525   0.00000  -0.78215   0.00000   0.75647
   3        2PX        -0.07906   0.00000  -0.21951  -0.00000  -0.27724
   4        2PY        -0.00000  -0.40490  -0.00000   0.00491  -0.00000
   5        2PZ         0.00000   0.00000   0.00000   0.00000   0.00000
   6        3S          0.09429  -0.00000   0.55866   0.00000  -1.59490
   7        3PX         1.12542  -0.00001   2.39447   0.00000   1.38385
   8        3PY         0.00000   0.86849   0.00001  -0.12606   0.00000
   9        3PZ         0.00000   0.00000   0.00000   0.00000   0.00000
  10 2   C  1S         -0.00558  -0.00528  -0.00408   0.00812  -0.00198
  11        2S         -0.39803   0.50583   0.00935  -0.40583   0.60808
  12        2PX         0.00018  -0.00076   0.33164   0.05488  -0.01049
  13        2PY        -0.06191   0.30103   0.03653   0.28505   0.04111
  14        2PZ         0.00000   0.00000   0.00000   0.00000   0.00000
  15        3S          1.74665  -1.28479   0.59650   0.11141  -0.94572
  16        3PX        -0.86310  -0.51648  -1.40785  -0.07557   0.37254
  17        3PY        -0.75351  -1.72608  -1.25939  -0.87730  -0.90063
  18        3PZ         0.00000   0.00000   0.00000   0.00000   0.00000
  19 3   C  1S          0.00747   0.00088   0.00590   0.00939   0.00170
  20        2S         -0.32223   0.01670   0.12084  -0.94830  -0.96723
  21        2PX         0.21903  -0.03368  -0.13882  -0.14874  -0.18720
  22        2PY         0.01269  -0.30040  -0.11195   0.04380  -0.07816
  23        2PZ         0.00000   0.00000   0.00000   0.00000   0.00000
  24        3S         -0.76751  -0.63286  -0.96882   1.76913   1.84749
  25        3PX        -1.33486   0.17701  -0.07624  -0.10543   0.64252
  26        3PY         0.86962   2.04986   0.40448  -0.14906   0.33269
  27        3PZ         0.00000   0.00000   0.00000   0.00000   0.00000
  28 4   C  1S          0.00747  -0.00088   0.00590  -0.00939   0.00170
  29        2S         -0.32223  -0.01670   0.12084   0.94830  -0.96723
  30        2PX         0.21903   0.03368  -0.13882   0.14874  -0.18720
  31        2PY        -0.01269  -0.30040   0.11195   0.04380   0.07816
  32        2PZ         0.00000   0.00000   0.00000   0.00000   0.00000
  33        3S         -0.76751   0.63286  -0.96881  -1.76913   1.84749
  34        3PX        -1.33486  -0.17701  -0.07624   0.10543   0.64252
  35        3PY        -0.86962   2.04986  -0.40446  -0.14906  -0.33269
  36        3PZ         0.00000   0.00000   0.00000   0.00000   0.00000
  37 5   C  1S         -0.00558   0.00528  -0.00408  -0.00812  -0.00198
  38        2S         -0.39803  -0.50583   0.00935   0.40583   0.60808
  39        2PX         0.00018   0.00075   0.33164  -0.05488  -0.01049
  40        2PY         0.06192   0.30103  -0.03653   0.28505  -0.04111
  41        2PZ         0.00000   0.00000   0.00000   0.00000   0.00000
  42        3S          1.74665   1.28478   0.59651  -0.11141  -0.94572
  43        3PX        -0.86310   0.51649  -1.40784   0.07557   0.37254
  44        3PY         0.75351  -1.72609   1.25938  -0.87730   0.90063
  45        3PZ         0.00000   0.00000   0.00000   0.00000   0.00000
  46 6   H  1S         -0.15378   0.00000  -0.66656  -0.00000  -0.26761
  47        2S         -0.55290   0.00000  -0.91443  -0.00000  -0.29243
  48 7   H  1S          0.31657   0.60226   0.48233   0.23483   0.21928
  49        2S         -0.00615   0.69569   0.49202   0.25151   0.36242
  50 8   H  1S         -0.28535  -0.36948   0.02953  -0.13481  -0.08429
  51        2S         -0.47289  -0.49057  -0.08192  -0.21939  -0.28533
  52 9   H  1S         -0.28535   0.36948   0.02953   0.13481  -0.08429
  53        2S         -0.47289   0.49057  -0.08191   0.21939  -0.28533
  54 10  H  1S          0.31657  -0.60226   0.48233  -0.23483   0.21928
  55        2S         -0.00616  -0.69569   0.49201  -0.25151   0.36242
  56 11  N  1S         -0.05871  -0.00000   0.00433   0.00000   0.00742
  57        2S          0.21358   0.00000  -0.05316  -0.00000  -0.03760
  58        2PX        -0.66900  -0.00000   0.50046   0.00000  -0.07737
  59        2PY         0.00000  -0.33509  -0.00000   0.54225  -0.00000
  60        2PZ         0.00000   0.00000   0.00000   0.00000   0.00000
  61        3S          0.33778  -0.00000   0.56701  -0.00000  -0.11770
  62        3PX         1.47888   0.00000  -0.52823  -0.00000  -0.10494
  63        3PY        -0.00000   1.19435   0.00001  -1.19302   0.00000
  64        3PZ         0.00000   0.00000   0.00000   0.00000   0.00000
                          61        62        63        64
                           V         V         V         V
     Eigenvalues --     1.95775   2.22859   2.27508   3.22646
   1 1   C  1S         -0.00000   0.00000  -0.06376   0.04203
   2        2S         -0.00000   0.00000  -1.43953   0.35945
   3        2PX         0.00000  -0.00000   0.22099  -0.00148
   4        2PY        -0.05823  -0.20671  -0.00000   0.00000
   5        2PZ         0.00000   0.00000   0.00000   0.00000
   6        3S          0.00000  -0.00001   5.79476  -3.46724
   7        3PX        -0.00000   0.00001  -3.62105   2.01932
   8        3PY        -0.72944   0.01032  -0.00000   0.00000
   9        3PZ         0.00000   0.00000   0.00000   0.00000
  10 2   C  1S         -0.00528  -0.02775   0.05079  -0.04913
  11        2S         -1.01456  -0.70027   1.08424  -0.45673
  12        2PX         0.06022  -0.03469  -0.21530   0.01247
  13        2PY         0.23524   0.13931  -0.01020   0.06523
  14        2PZ         0.00000   0.00000   0.00000   0.00000
  15        3S          1.69845   2.62927  -4.84326   2.91925
  16        3PX        -0.13839  -1.25150   1.23080  -0.82583
  17        3PY        -1.20208  -1.01081   2.38414  -2.17032
  18        3PZ         0.00000   0.00000   0.00000   0.00000
  19 3   C  1S          0.00933   0.02868  -0.01856   0.03925
  20        2S          0.09537   0.97252  -0.13898   0.09853
  21        2PX        -0.03740   0.04575   0.13718   0.09101
  22        2PY         0.12442  -0.30551  -0.01212   0.14205
  23        2PZ         0.00000   0.00000   0.00000   0.00000
  24        3S         -1.90663  -1.93279   1.99536  -2.63968
  25        3PX         0.69711  -2.05173   0.97951  -0.64312
  26        3PY         0.72461   1.03646  -0.42314   1.81046
  27        3PZ         0.00000   0.00000   0.00000   0.00000
  28 4   C  1S         -0.00933  -0.02868  -0.01856   0.03925
  29        2S         -0.09537  -0.97252  -0.13899   0.09853
  30        2PX         0.03740  -0.04575   0.13718   0.09101
  31        2PY         0.12442  -0.30551   0.01212  -0.14205
  32        2PZ         0.00000   0.00000   0.00000   0.00000
  33        3S          1.90663   1.93278   1.99537  -2.63968
  34        3PX        -0.69711   2.05173   0.97952  -0.64312
  35        3PY         0.72461   1.03646   0.42315  -1.81046
  36        3PZ         0.00000   0.00000   0.00000   0.00000
  37 5   C  1S          0.00528   0.02775   0.05079  -0.04913
  38        2S          1.01456   0.70027   1.08424  -0.45673
  39        2PX        -0.06022   0.03469  -0.21530   0.01247
  40        2PY         0.23524   0.13931   0.01020  -0.06523
  41        2PZ         0.00000   0.00000   0.00000   0.00000
  42        3S         -1.69845  -2.62925  -4.84327   2.91925
  43        3PX         0.13839   1.25150   1.23080  -0.82583
  44        3PY        -1.20208  -1.01080  -2.38415   2.17032
  45        3PZ         0.00000   0.00000   0.00000   0.00000
  46 6   H  1S         -0.00000  -0.00000   0.29558  -0.09306
  47        2S          0.00000  -0.00000   0.59262  -0.38506
  48 7   H  1S          0.16759   0.10355  -0.16861   0.20148
  49        2S          0.09850   0.25688  -0.38943   0.51881
  50 8   H  1S          0.19475  -0.32781   0.02970  -0.10287
  51        2S          0.10518  -0.44682   0.05373  -0.39411
  52 9   H  1S         -0.19475   0.32781   0.02970  -0.10287
  53        2S         -0.10518   0.44682   0.05373  -0.39411
  54 10  H  1S         -0.16759  -0.10355  -0.16861   0.20148
  55        2S         -0.09850  -0.25688  -0.38944   0.51881
  56 11  N  1S          0.00000  -0.00000   0.02957  -0.04982
  57        2S         -0.00000   0.00000  -0.38671  -2.01730
  58        2PX        -0.00000   0.00000  -0.08265  -0.23306
  59        2PY        -0.69264   0.63395   0.00000   0.00000
  60        2PZ         0.00000   0.00000   0.00000   0.00000
  61        3S         -0.00000   0.00000  -0.10965   4.81417
  62        3PX         0.00000   0.00000  -0.19953   1.70477
  63        3PY         2.23027  -1.41162  -0.00000  -0.00000
  64        3PZ         0.00000   0.00000   0.00000   0.00000
     Density Matrix:
                           1         2         3         4         5
   1 1   C  1S          2.03781
   2        2S          0.10067   0.12193
   3        2PX         0.00092  -0.00923   0.30379
   4        2PY        -0.00000   0.00000  -0.00000   0.32776
   5        2PZ         0.00000   0.00000   0.00000   0.00000   0.19661
   6        3S         -0.40328   0.22528   0.02907   0.00000   0.00000
   7        3PX         0.04320   0.00286   0.27308  -0.00000   0.00000
   8        3PY        -0.00000   0.00000  -0.00000   0.17295   0.00000
   9        3PZ         0.00000   0.00000   0.00000   0.00000   0.21615
  10 2   C  1S          0.01759  -0.03097   0.03736  -0.06479   0.00000
  11        2S         -0.03018   0.02441  -0.04029   0.06650   0.00000
  12        2PX        -0.03935   0.03893  -0.05218   0.12097   0.00000
  13        2PY         0.06375  -0.06714   0.10535  -0.17617   0.00000
  14        2PZ         0.00000   0.00000   0.00000   0.00000   0.13690
  15        3S          0.04702   0.02968  -0.06761   0.17843   0.00000
  16        3PX        -0.00460   0.00487  -0.04935   0.04071   0.00000
  17        3PY        -0.01533  -0.03228   0.04056  -0.15978   0.00000
  18        3PZ         0.00000   0.00000   0.00000   0.00000   0.15292
  19 3   C  1S         -0.00450  -0.00033  -0.00863   0.00710   0.00000
  20        2S          0.00250  -0.00218   0.00983  -0.00778   0.00000
  21        2PX         0.01236  -0.01299   0.02923  -0.02893   0.00000
  22        2PY        -0.00199   0.00208  -0.00254   0.00688   0.00000
  23        2PZ         0.00000   0.00000   0.00000   0.00000   0.00301
  24        3S          0.00559  -0.01786   0.03848  -0.05827   0.00000
  25        3PX         0.01638  -0.01980   0.03837  -0.05114   0.00000
  26        3PY        -0.00352   0.01034  -0.00886   0.04376   0.00000
  27        3PZ         0.00000   0.00000   0.00000   0.00000  -0.01676
  28 4   C  1S         -0.00450  -0.00033  -0.00863  -0.00710   0.00000
  29        2S          0.00250  -0.00218   0.00983   0.00778   0.00000
  30        2PX         0.01236  -0.01299   0.02923   0.02893   0.00000
  31        2PY         0.00199  -0.00208   0.00254   0.00688   0.00000
  32        2PZ         0.00000   0.00000   0.00000   0.00000   0.00301
  33        3S          0.00559  -0.01786   0.03848   0.05827   0.00000
  34        3PX         0.01638  -0.01980   0.03837   0.05114   0.00000
  35        3PY         0.00352  -0.01034   0.00886   0.04376   0.00000
  36        3PZ         0.00000   0.00000   0.00000   0.00000  -0.01676
  37 5   C  1S          0.01759  -0.03097   0.03736   0.06479   0.00000
  38        2S         -0.03018   0.02441  -0.04029  -0.06650   0.00000
  39        2PX        -0.03935   0.03893  -0.05218  -0.12097   0.00000
  40        2PY        -0.06375   0.06714  -0.10535  -0.17617   0.00000
  41        2PZ         0.00000   0.00000   0.00000   0.00000   0.13690
  42        3S          0.04702   0.02968  -0.06761  -0.17843   0.00000
  43        3PX        -0.00460   0.00487  -0.04935  -0.04071   0.00000
  44        3PY         0.01533   0.03228  -0.04056  -0.15978   0.00000
  45        3PZ         0.00000   0.00000   0.00000   0.00000   0.15292
  46 6   H  1S         -0.06255   0.05952   0.20208   0.00000   0.00000
  47        2S         -0.00737   0.02004   0.14860   0.00000   0.00000
  48 7   H  1S          0.01018  -0.01161   0.00523  -0.03269   0.00000
  49        2S          0.02149  -0.01417   0.01114  -0.04204   0.00000
  50 8   H  1S         -0.00718   0.00723  -0.01218   0.01946   0.00000
  51        2S         -0.00439   0.00514  -0.01812   0.01690   0.00000
  52 9   H  1S         -0.00718   0.00723  -0.01218  -0.01946   0.00000
  53        2S         -0.00439   0.00514  -0.01812  -0.01690   0.00000
  54 10  H  1S          0.01018  -0.01161   0.00523   0.03269   0.00000
  55        2S          0.02149  -0.01417   0.01114   0.04204   0.00000
  56 11  N  1S         -0.00324  -0.00261  -0.00507   0.00000   0.00000
  57        2S          0.00077  -0.00136   0.00234  -0.00000   0.00000
  58        2PX         0.00693  -0.00719   0.01832   0.00000   0.00000
  59        2PY         0.00000   0.00000   0.00000  -0.01544   0.00000
  60        2PZ         0.00000   0.00000   0.00000   0.00000  -0.07631
  61        3S          0.01352   0.00003   0.01903  -0.00000   0.00000
  62        3PX         0.00473  -0.00195   0.01380   0.00000   0.00000
  63        3PY        -0.00000   0.00000   0.00000  -0.01709   0.00000
  64        3PZ         0.00000   0.00000   0.00000   0.00000  -0.10448
                           6         7         8         9        10
   6        3S          0.67593
   7        3PX        -0.00520   0.29015
   8        3PY         0.00000  -0.00000   0.10228
   9        3PZ         0.00000   0.00000   0.00000   0.23863
  10 2   C  1S          0.05531  -0.02349   0.00553   0.00000   2.03787
  11        2S          0.03078  -0.02433   0.01922   0.00000   0.10337
  12        2PX         0.13598  -0.11429   0.07119   0.00000   0.00063
[...]
  34        3PX         0.00000   0.00000   0.00000   0.11022
  35        3PY         0.10517   0.00000   0.00000   0.00000   0.18845
  36        3PZ         0.00000   0.12059   0.00000   0.00000   0.00000
  37 5   C  1S         -0.00000   0.00000   0.00265   0.00191  -0.00005
  38        2S         -0.00000   0.00000   0.00562   0.01040  -0.00018
  39        2PX         0.00008   0.00000   0.03436   0.02834  -0.00038
  40        2PY         0.00073   0.00000  -0.00011  -0.00031  -0.00505
  41        2PZ         0.00000   0.00710   0.00000   0.00000   0.00000
  42        3S          0.00015   0.00000  -0.04286   0.01561  -0.00030
  43        3PX         0.00039   0.00000   0.00997   0.01323  -0.00014
  44        3PY        -0.00187   0.00000   0.00112  -0.00013  -0.03055
  45        3PZ         0.00000   0.02695   0.00000   0.00000   0.00000
  46 6   H  1S         -0.00000   0.00000   0.00002   0.00007   0.00000
  47        2S          0.00000   0.00000   0.00026   0.00106   0.00013
  48 7   H  1S          0.00000   0.00000   0.00000   0.00000  -0.00000
  49        2S          0.00001   0.00000   0.00011   0.00008  -0.00014
  50 8   H  1S          0.00000   0.00000   0.00005  -0.00000   0.00017
  51        2S          0.00013   0.00000   0.00091  -0.00014   0.00229
  52 9   H  1S          0.03945   0.00000   0.06593   0.02020   0.06696
  53        2S          0.02205   0.00000   0.06678   0.01781   0.05143
  54 10  H  1S         -0.00002   0.00000  -0.00185  -0.00159  -0.00160
  55        2S         -0.00056   0.00000  -0.00552  -0.00339  -0.00281
  56 11  N  1S         -0.00050   0.00000   0.00413  -0.00143   0.00498
  57        2S          0.00447   0.00000  -0.00664   0.00497  -0.00186
  58        2PX         0.01263   0.00000   0.00729   0.00370   0.00317
  59        2PY         0.02245   0.00000   0.01924  -0.00219   0.00942
  60        2PZ         0.00000   0.00511   0.00000   0.00000   0.00000
  61        3S          0.03254   0.00000  -0.07606   0.02815  -0.02015
  62        3PX         0.02891   0.00000   0.03108   0.01612   0.00319
  63        3PY         0.02684   0.00000   0.05045  -0.00544   0.00487
  64        3PZ         0.00000   0.02683   0.00000   0.00000   0.00000
                          36        37        38        39        40
  36        3PZ         0.25902
  37 5   C  1S          0.00000   2.03787
  38        2S          0.00000   0.01979   0.11868
  39        2PX         0.00000   0.00000   0.00000   0.31523
  40        2PY         0.00000   0.00000   0.00000   0.00000   0.30429
  41        2PZ         0.02533   0.00000   0.00000   0.00000   0.00000
  42        3S          0.00000  -0.07496   0.17416   0.00000   0.00000
  43        3PX         0.00000   0.00000   0.00000   0.11033   0.00000
  44        3PY         0.00000   0.00000   0.00000   0.00000   0.12666
  45        3PZ         0.08172   0.00000   0.00000   0.00000   0.00000
  46 6   H  1S          0.00000   0.00000  -0.00002  -0.00008  -0.00004
  47        2S          0.00000   0.00020  -0.00100  -0.00168  -0.00112
  48 7   H  1S          0.00000  -0.00000   0.00000   0.00000   0.00000
  49        2S          0.00000  -0.00000   0.00001   0.00000   0.00007
  50 8   H  1S          0.00000   0.00000  -0.00000  -0.00000   0.00000
  51        2S          0.00000   0.00000  -0.00000  -0.00001   0.00000
  52 9   H  1S          0.00000   0.00000  -0.00002  -0.00012  -0.00001
  53        2S          0.00000   0.00022  -0.00112  -0.00388  -0.00029
  54 10  H  1S          0.00000  -0.00116   0.01135   0.01291   0.04471
  55        2S          0.00000  -0.00083   0.00842   0.00785   0.02713
  56 11  N  1S          0.00000   0.00000   0.00000   0.00000   0.00000
  57        2S          0.00000   0.00000  -0.00000  -0.00000  -0.00000
  58        2PX         0.00000   0.00000  -0.00000  -0.00003  -0.00000
  59        2PY         0.00000   0.00000  -0.00000  -0.00001  -0.00000
  60        2PZ         0.02023   0.00000   0.00000   0.00000   0.00000
  61        3S          0.00000  -0.00002  -0.00020  -0.00029  -0.00020
  62        3PX         0.00000   0.00005  -0.00093  -0.00438  -0.00034
  63        3PY         0.00000   0.00001  -0.00009  -0.00067  -0.00012
  64        3PZ         0.08054   0.00000   0.00000   0.00000   0.00000
                          41        42        43        44        45
  41        2PZ         0.21478
  42        3S          0.00000   0.73284
  43        3PX         0.00000   0.00000   0.17984
  44        3PY         0.00000   0.00000   0.00000   0.22752
  45        3PZ         0.13183   0.00000   0.00000   0.00000   0.29251
  46 6   H  1S          0.00000  -0.00152  -0.00490  -0.00006   0.00000
  47        2S          0.00000  -0.00736  -0.00969  -0.00141   0.00000
  48 7   H  1S          0.00000   0.00002   0.00001   0.00010   0.00000
  49        2S          0.00000   0.00013   0.00011   0.00169   0.00000
  50 8   H  1S          0.00000  -0.00000  -0.00001  -0.00000   0.00000
  51        2S          0.00000  -0.00026  -0.00034  -0.00018   0.00000
  52 9   H  1S          0.00000  -0.00331  -0.00596  -0.00178   0.00000
  53        2S          0.00000  -0.01783  -0.01951  -0.00218   0.00000
  54 10  H  1S          0.00000   0.05903   0.02184   0.07119   0.00000
  55        2S          0.00000   0.04244   0.02034   0.06056   0.00000
  56 11  N  1S          0.00000  -0.00022  -0.00025  -0.00030   0.00000
  57        2S          0.00000   0.00063   0.00073   0.00022   0.00000
  58        2PX         0.00000  -0.00307  -0.00559   0.00041   0.00000
  59        2PY         0.00000  -0.00075  -0.00217  -0.00027   0.00000
  60        2PZ        -0.00000   0.00000   0.00000   0.00000  -0.00039
  61        3S          0.00000   0.01339   0.01056   0.00465   0.00000
  62        3PX         0.00000  -0.02876  -0.03477   0.00271   0.00000
  63        3PY         0.00000  -0.00435  -0.00939  -0.00057   0.00000
  64        3PZ        -0.00023   0.00000   0.00000   0.00000  -0.00460
                          46        47        48        49        50
  46 6   H  1S          0.17908
  47        2S          0.07473   0.08028
  48 7   H  1S         -0.00000  -0.00021   0.17832
  49        2S         -0.00021  -0.00060   0.07609   0.08471
  50 8   H  1S         -0.00000  -0.00000  -0.00000  -0.00009   0.18212
  51        2S         -0.00000  -0.00002  -0.00011   0.00023   0.07923
  52 9   H  1S         -0.00000  -0.00000   0.00000   0.00000  -0.00000
  53        2S         -0.00000  -0.00002   0.00000   0.00000  -0.00000
  54 10  H  1S         -0.00000  -0.00021  -0.00000  -0.00000   0.00000
  55        2S         -0.00021  -0.00060  -0.00000  -0.00002   0.00000
  56 11  N  1S          0.00000   0.00000  -0.00000  -0.00000   0.00000
  57        2S         -0.00000  -0.00000   0.00000   0.00000  -0.00001
  58        2PX         0.00000   0.00000   0.00000   0.00005   0.00000
  59        2PY         0.00000   0.00000   0.00000   0.00001  -0.00004
  60        2PZ         0.00000   0.00000   0.00000   0.00000   0.00000
  61        3S          0.00000  -0.00002   0.00000   0.00025  -0.00222
  62        3PX        -0.00000   0.00001   0.00001   0.00113   0.00019
  63        3PY         0.00000   0.00000   0.00001   0.00025  -0.00314
  64        3PZ         0.00000   0.00000   0.00000   0.00000   0.00000
                          51        52        53        54        55
  51        2S          0.09477
  52 9   H  1S         -0.00000   0.18212
  53        2S          0.00002   0.07923   0.09477
  54 10  H  1S          0.00000  -0.00000  -0.00011   0.17832
  55        2S          0.00000  -0.00009   0.00023   0.07609   0.08471
  56 11  N  1S          0.00036   0.00000   0.00036  -0.00000  -0.00000
  57        2S         -0.00152  -0.00001  -0.00152   0.00000   0.00000
  58        2PX         0.00012   0.00000   0.00012   0.00000   0.00005
  59        2PY        -0.00164  -0.00004  -0.00164   0.00000   0.00001
  60        2PZ         0.00000   0.00000   0.00000   0.00000   0.00000
  61        3S         -0.02070  -0.00222  -0.02070   0.00000   0.00025
  62        3PX         0.00096   0.00019   0.00096   0.00001   0.00113
  63        3PY        -0.00964  -0.00314  -0.00964   0.00001   0.00025
  64        3PZ         0.00000   0.00000   0.00000   0.00000   0.00000
                          56        57        58        59        60
  56 11  N  1S          2.05845
  57        2S          0.02106   0.11169
  58        2PX         0.00000   0.00000   0.43720
  59        2PY         0.00000   0.00000   0.00000   0.31113
  60        2PZ         0.00000   0.00000   0.00000   0.00000   0.24315
  61        3S         -0.10241   0.24636   0.00000   0.00000   0.00000
  62        3PX         0.00000   0.00000   0.25830   0.00000   0.00000
  63        3PY         0.00000   0.00000   0.00000   0.13355   0.00000
  64        3PZ         0.00000   0.00000   0.00000   0.00000   0.14287
                          61        62        63        64
  61        3S          1.35327
  62        3PX         0.00000   0.58638
  63        3PY         0.00000   0.00000   0.21702
  64        3PZ         0.00000   0.00000   0.00000   0.31709
     Gross orbital populations:
                           1
   1 1   C  1S          1.98813
   2        2S          0.39821
   3        2PX         0.58625
   4        2PY         0.62249
   5        2PZ         0.37862
   6        3S          0.89091
   7        3PX         0.49583
   8        3PY         0.25575
   9        3PZ         0.56068
  10 2   C  1S          1.98817
  11        2S          0.39168
  12        2PX         0.60276
  13        2PY         0.58853
  14        2PZ         0.41073
  15        3S          0.93131
  16        3PX         0.32267
  17        3PY         0.47086
  18        3PZ         0.62000
  19 3   C  1S          1.98711
  20        2S          0.40341
  21        2PX         0.60704
  22        2PY         0.57221
  23        2PZ         0.38722
  24        3S          0.77077
  25        3PX         0.28345
  26        3PY         0.31022
  27        3PZ         0.56452
  28 4   C  1S          1.98711
  29        2S          0.40341
  30        2PX         0.60704
  31        2PY         0.57221
  32        2PZ         0.38722
  33        3S          0.77077
  34        3PX         0.28345
  35        3PY         0.31022
  36        3PZ         0.56452
  37 5   C  1S          1.98817
  38        2S          0.39168
  39        2PX         0.60276
  40        2PY         0.58853
  41        2PZ         0.41073
  42        3S          0.93131
  43        3PX         0.32267
  44        3PY         0.47086
  45        3PZ         0.62000
  46 6   H  1S          0.46362
  47        2S          0.28303
  48 7   H  1S          0.46223
  49        2S          0.29070
  50 8   H  1S          0.46648
  51        2S          0.28276
  52 9   H  1S          0.46648
  53        2S          0.28276
  54 10  H  1S          0.46223
  55        2S          0.29070
  56 11  N  1S          1.99039
  57        2S          0.38524
  58        2PX         0.74175
  59        2PY         0.56762
  60        2PZ         0.43562
  61        3S          1.45977
  62        3PX         0.89079
  63        3PY         0.51548
  64        3PZ         0.66013
          Condensed to atoms (all electrons):
               1          2          3          4          5          6
     1  C    5.231584   0.412548  -0.102342  -0.102342   0.412548   0.394067
     2  C    0.412548   5.399196   0.376688  -0.006108  -0.088635  -0.028673
     3  C   -0.102342   0.376688   4.948378  -0.134890  -0.006108   0.001612
     4  C   -0.102342  -0.006108  -0.134890   4.948378   0.376688   0.001612
     5  C    0.412548  -0.088635  -0.006108   0.376688   5.399196  -0.028673
     6  H    0.394067  -0.028673   0.001612   0.001612  -0.028673   0.408814
     7  H   -0.030291   0.385782  -0.020668   0.000068   0.002131  -0.001025
     8  H    0.002954  -0.055785   0.401333   0.003448  -0.000790  -0.000024
     9  H    0.002954  -0.000790   0.003448   0.401333  -0.055785  -0.000024
    10  H   -0.030291   0.002131   0.000068  -0.020668   0.385782  -0.001025
    11  N   -0.014531  -0.069633   0.418437   0.418437  -0.069633  -0.000011
               7          8          9         10         11
     1  C   -0.030291   0.002954   0.002954  -0.030291  -0.014531
     2  C    0.385782  -0.055785  -0.000790   0.002131  -0.069633
     3  C   -0.020668   0.401333   0.003448   0.000068   0.418437
     4  C    0.000068   0.003448   0.401333  -0.020668   0.418437
     5  C    0.002131  -0.000790  -0.055785   0.385782  -0.069633
     6  H   -0.001025  -0.000024  -0.000024  -0.001025  -0.000011
     7  H    0.415209   0.000021   0.000003  -0.000019   0.001720
     8  H    0.000021   0.435332   0.000023   0.000003  -0.037277
     9  H    0.000003   0.000023   0.435332   0.000021  -0.037277
    10  H   -0.000019   0.000003   0.000021   0.415209   0.001720
    11  N    0.001720  -0.037277  -0.037277   0.001720   7.034849
 Mulliken charges:
               1
     1  C   -0.176858
     2  C   -0.326721
     3  C    0.114043
     4  C    0.114043
     5  C   -0.326721
     6  H    0.253351
     7  H    0.247070
     8  H    0.250762
     9  H    0.250762
    10  H    0.247070
    11  N   -0.646800
 Sum of Mulliken charges =  -0.00000
 Mulliken charges with hydrogens summed into heavy atoms:
               1
     1  C    0.076493
     2  C   -0.079651
     3  C    0.364805
     4  C    0.364805
     5  C   -0.079651
    11  N   -0.646800
 Electronic spatial extent (au):  <R**2>=            440.7296
 Charge=             -0.0000 electrons
 Dipole moment (field-independent basis, Debye):
    X=              2.4401    Y=              0.0000    Z=              0.0000  Tot=              2.4401
 Quadrupole moment (field-independent basis, Debye-Ang):
   XX=            -36.7258   YY=            -28.9173   ZZ=            -39.2661
   XY=              0.0000   XZ=              0.0000   YZ=              0.0000
 Traceless Quadrupole moment (field-independent basis, Debye-Ang):
   XX=             -1.7560   YY=              6.0524   ZZ=             -4.2964
   XY=              0.0000   XZ=              0.0000   YZ=              0.0000
 Octapole moment (field-independent basis, Debye-Ang**2):
  XXX=             16.7110  YYY=             -0.0000  ZZZ=              0.0000  XYY=             -2.5826
  XXY=              0.0000  XXZ=              0.0000  XZZ=             -2.0325  YZZ=              0.0000
  YYZ=              0.0000  XYZ=              0.0000
 Hexadecapole moment (field-independent basis, Debye-Ang**3):
 XXXX=           -278.9994 YYYY=           -242.6417 ZZZZ=            -40.0214 XXXY=              0.0000
 XXXZ=              0.0000 YYYX=             -0.0000 YYYZ=              0.0000 ZZZX=              0.0000
 ZZZY=              0.0000 XXYY=            -77.2281 XXZZ=            -56.8009 YYZZ=            -59.4548
 XXYZ=              0.0000 YYXZ=              0.0000 ZZXY=             -0.0000
 N-N= 2.046310115252D+02 E-N=-9.801353895314D+02  KE= 2.443499868661D+02
 Symmetry A'   KE= 2.379366498938D+02
 Symmetry A"   KE= 6.413336972345D+00
 Orbital energies and kinetic energies (alpha):
                                 1                 2
   1         O               -15.499311         21.929676
   2         O               -11.227379         15.875323
   3         O               -11.226919         15.869503
   4         O               -11.209867         15.876469
   5         O               -11.197070         15.873652
   6         O               -11.196958         15.879153
   7         O                -1.265133          1.815846
   8         O                -1.090248          1.666616
   9         O                -1.029977          1.617456
  10         O                -0.854144          1.537352
  11         O                -0.852641          1.549258
  12         O                -0.720657          0.971453
  13         O                -0.659490          1.528207
  14         O                -0.647642          1.247411
  15         O                -0.598814          1.179113
  16         O                -0.572652          1.343698
  17         O                -0.541365          0.989754
  18         O                -0.514806          1.386912
  19         O                -0.404659          1.821228
  20         O                -0.383745          1.169939
  21         O                -0.351387          1.046975
  22         V                 0.125230          1.396917
  23         V                 0.132878          1.244320
  24         V                 0.251784          0.928688
  25         V                 0.307681          0.968083
  26         V                 0.328568          1.160231
  27         V                 0.350567          1.204456
  28         V                 0.351414          1.620996
  29         V                 0.353643          1.260092
  30         V                 0.435582          1.767615
  31         V                 0.488320          1.534517
  32         V                 0.523604          1.662578
  33         V                 0.528713          1.891389
  34         V                 0.728593          2.756007
  35         V                 0.740122          1.611726
  36         V                 0.908907          2.481203
  37         V                 0.939577          2.571513
  38         V                 0.946379          2.310769
  39         V                 0.994792          2.826924
  40         V                 1.020602          3.019902
  41         V                 1.033942          2.644175
  42         V                 1.037575          2.674530
  43         V                 1.078011          2.843502
  44         V                 1.087292          2.752760
  45         V                 1.103537          2.764342
  46         V                 1.121310          2.788973
  47         V                 1.131606          3.085081
  48         V                 1.261316          3.348011
  49         V                 1.266411          3.206850
  50         V                 1.340067          3.173198
  51         V                 1.366130          3.268718
  52         V                 1.484709          2.971564
  53         V                 1.484976          2.906754
  54         V                 1.542036          3.911632
  55         V                 1.610635          3.038228
  56         V                 1.644820          3.261951
  57         V                 1.672507          2.868016
  58         V                 1.689670          2.986540
  59         V                 1.738684          3.410476
  60         V                 1.816820          3.157615
  61         V                 1.957746          3.546861
  62         V                 2.228594          3.654724
  63         V                 2.275085          3.472803
  64         V                 3.226461          5.038512
 Total kinetic energy from orbitals= 2.443499868661D+02
 1\1\GINC-IISERK51\SP\RHF\3-21G*\C5H5N1\GAUSSIAN\14-Jun-2025\0\\# hf/3-
 21g* pop=full geom=connectivity\\pyridine sp with HF3-21G\\0,1\C,0,0.,
 -1.389107,0.\C,0,1.202072,-0.67942,0.\C,0,1.149975,0.726785,0.\C,0,-1.
 149975,0.726785,0.\C,0,-1.202072,-0.67942,0.\H,0,0.,-2.488541,0.\H,0,2
 .168332,-1.199383,0.\H,0,2.077389,1.326814,0.\H,0,-2.077389,1.326815,0
 .\H,0,-2.168332,-1.199382,0.\N,0,0.,1.428562,0.\\Version=EM64L-G16RevB
 .01\State=1-A'\HF=-245.3065538\RMSD=1.218e-09\Dipole=0.,-0.9600063,0.\
 Quadrupole=4.4998201,-1.3055791,-3.194241,-0.0000015,0.,0.\PG=CS [SG(C
 5H5N1)]\\@


 You can't act like a skunk without someone's getting wind of it.
 -- Lorene Workman
 Job cpu time:       0 days  0 hours  0 minutes  0.6 seconds.
 Elapsed time:       0 days  0 hours  0 minutes  0.6 seconds.
 File lengths (MBytes):  RWF=      6 Int=      0 D2E=      0 Chk=      1 Scr=      1
 Normal termination of Gaussian 16 at Sat Jun 14 14:15:52 2025.
