 Entering Gaussian System, Link 0=g16
 Input=/home/gaussian/Documents/Summer_Internship/Acid_Base_adduct/Acid/AlH3/ideal_pyramid_MX3/AlH3_pyramid_opt.com
 Output=/home/gaussian/Documents/Summer_Internship/Acid_Base_adduct/Acid/AlH3/ideal_pyramid_MX3/AlH3_pyramid_opt.log
 Initial command:
 /usr/local/g16/l1.exe "/home/gaussian/tmp/Gau-49424.inp" -scrdir="/home/gaussian/tmp/"
 Entering Link 1 = /usr/local/g16/l1.exe PID=     49427.
  
 Copyright (c) 1988-2017, Gaussian, Inc.  All Rights Reserved.
  
 This is part of the Gaussian(R) 16 program.  It is based on
 the Gaussian(R) 09 system (copyright 2009, Gaussian, Inc.),
 the Gaussian(R) 03 system (copyright 2003, Gaussian, Inc.),
 the Gaussian(R) 98 system (copyright 1998, Gaussian, Inc.),
 the Gaussian(R) 94 system (copyright 1995, Gaussian, Inc.),
 the Gaussian 92(TM) system (copyright 1992, Gaussian, Inc.),
 the Gaussian 90(TM) system (copyright 1990, Gaussian, Inc.),
 the Gaussian 88(TM) system (copyright 1988, Gaussian, Inc.),
 the Gaussian 86(TM) system (copyright 1986, Carnegie Mellon
 University), and the Gaussian 82(TM) system (copyright 1983,
 Carnegie Mellon University). Gaussian is a federally registered
 trademark of Gaussian, Inc.
  
 This software contains proprietary and confidential information,
 including trade secrets, belonging to Gaussian, Inc.
  
 This software is provided under written license and may be
 used, copied, transmitted, or stored only in accord with that
 written license.
  
 The following legend is applicable only to US Government
 contracts under FAR:
  
                    RESTRICTED RIGHTS LEGEND
  
 Use, reproduction and disclosure by the US Government is
 subject to restrictions as set forth in subparagraphs (a)
 and (c) of the Commercial Computer Software - Restricted
 Rights clause in FAR 52.227-19.
  
 Gaussian, Inc.
 340 Quinnipiac St., Bldg. 40, Wallingford CT 06492
  
  
 ---------------------------------------------------------------
 Warning -- This program may not be used in any manner that
 competes with the business of Gaussian, Inc. or will provide
 assistance to any competitor of Gaussian, Inc.  The licensee
 of this program is prohibited from giving any competitor of
 Gaussian, Inc. access to this program.  By using this program,
 the user acknowledges that Gaussian, Inc. is engaged in the
 business of creating and licensing software in the field of
 computational chemistry and represents and warrants to the
 licensee that it is not a competitor of Gaussian, Inc. and that
 it will not use this program in any manner prohibited above.
 ---------------------------------------------------------------
  

 Cite this work as:
 Gaussian 16, Revision B.01,
 M. J. Frisch, G. W. Trucks, H. B. Schlegel, G. E. Scuseria, 
 M. A. Robb, J. R. Cheeseman, G. Scalmani, V. Barone, 
 G. A. Petersson, H. Nakatsuji, X. Li, M. Caricato, A. V. Marenich, 
 J. Bloino, B. G. Janesko, R. Gomperts, B. Mennucci, H. P. Hratchian, 
 J. V. Ortiz, A. F. Izmaylov, J. L. Sonnenberg, D. Williams-Young, 
 F. Ding, F. Lipparini, F. Egidi, J. Goings, B. Peng, A. Petrone, 
 T. Henderson, D. Ranasinghe, V. G. Zakrzewski, J. Gao, N. Rega, 
 G. Zheng, W. Liang, M. Hada, M. Ehara, K. Toyota, R. Fukuda, 
 J. Hasegawa, M. Ishida, T. Nakajima, Y. Honda, O. Kitao, H. Nakai, 
 T. Vreven, K. Throssell, J. A. Montgomery, Jr., J. E. Peralta, 
 F. Ogliaro, M. J. Bearpark, J. J. Heyd, E. N. Brothers, K. N. Kudin, 
 V. N. Staroverov, T. A. Keith, R. Kobayashi, J. Normand, 
 K. Raghavachari, A. P. Rendell, J. C. Burant, S. S. Iyengar, 
 J. Tomasi, M. Cossi, J. M. Millam, M. Klene, C. Adamo, R. Cammi, 
 J. W. Ochterski, R. L. Martin, K. Morokuma, O. Farkas, 
 J. B. Foresman, and D. J. Fox, Gaussian, Inc., Wallingford CT, 2016.
 
 ******************************************
 Gaussian 16:  EM64L-G16RevB.01 20-Dec-2017
                14-Jun-2025 
 ******************************************
 %chk=AlH3_pyramid_opt.chk
 -------------------------------------
 # hf/3-21g pop=full geom=connectivity
 -------------------------------------
 1/38=1,57=2,172=1/1;
 2/12=2,17=6,18=5,40=1/2;
 3/5=5,11=9,25=1,30=1/1,2,3;
 4//1;
 5/5=2,38=5/2;
 6/7=3,28=1/1;
 99/5=1,9=1/99;
 -------------------
 Title Card Required
 -------------------
 Symbolic Z-matrix:
 Charge =  0 Multiplicity = 1
 Al                    0.70396  -0.32048   0. 
 H                     2.16532  -0.32048  -0.51667 
 H                    -0.02672   0.94509  -0.51667 
 H                    -0.02672  -1.58605  -0.51667 
 
                          Input orientation:                          
 ---------------------------------------------------------------------
 Center     Atomic      Atomic             Coordinates (Angstroms)
 Number     Number       Type             X           Y           Z
 ---------------------------------------------------------------------
      1         13           0        0.703962   -0.320482    0.000000
      2          1           0        2.165316   -0.320482   -0.516667
      3          1           0       -0.026715    0.945088   -0.516667
      4          1           0       -0.026715   -1.586051   -0.516667
 ---------------------------------------------------------------------
                    Distance matrix (angstroms):
                    1          2          3          4
     1  Al   0.000000
     2  H    1.550000   0.000000
     3  H    1.550000   2.531139   0.000000
     4  H    1.550000   2.531139   2.531139   0.000000
 Stoichiometry    AlH3
 Framework group  C3V[C3(Al),3SGV(H)]
 Deg. of freedom     2
 Full point group                 C3V     NOp   6
 Largest Abelian subgroup         CS      NOp   2
 Largest concise Abelian subgroup CS      NOp   2
                         Standard orientation:                         
 ---------------------------------------------------------------------
 Center     Atomic      Atomic             Coordinates (Angstroms)
 Number     Number       Type             X           Y           Z
 ---------------------------------------------------------------------
      1         13           0        0.000000    0.000000    0.096875
      2          1           0        0.000000    1.461354   -0.419792
      3          1           0       -1.265570   -0.730677   -0.419792
      4          1           0        1.265570   -0.730677   -0.419792
 ---------------------------------------------------------------------
 Rotational constants (GHZ):         127.8090767         127.8090767          78.2708274
 Standard basis: 3-21G (6D, 7F)
 There are    14 symmetry adapted cartesian basis functions of A'  symmetry.
 There are     5 symmetry adapted cartesian basis functions of A"  symmetry.
 There are    14 symmetry adapted basis functions of A'  symmetry.
 There are     5 symmetry adapted basis functions of A"  symmetry.
    19 basis functions,    36 primitive gaussians,    19 cartesian basis functions
     8 alpha electrons        8 beta electrons
       nuclear repulsion energy        13.9419817745 Hartrees.
 NAtoms=    4 NActive=    4 NUniq=    2 SFac= 4.00D+00 NAtFMM=   60 NAOKFM=F Big=F
 Integral buffers will be    131072 words long.
 Raffenetti 1 integral format.
 Two-electron integral symmetry is turned on.
 One-electron integrals computed using PRISM.
 NBasis=    19 RedAO= T EigKep=  6.62D-02  NBF=    14     5
 NBsUse=    19 1.00D-06 EigRej= -1.00D+00 NBFU=    14     5
 ExpMin= 6.39D-02 ExpMax= 7.76D+02 ExpMxC= 7.76D+02 IAcc=3 IRadAn=         5 AccDes= 0.00D+00
 Harris functional with IExCor=  205 and IRadAn=       5 diagonalized for initial guess.
 HarFok:  IExCor=  205 AccDes= 0.00D+00 IRadAn=         5 IDoV= 1 UseB2=F ITyADJ=14
 ICtDFT=  3500011 ScaDFX=  1.000000  1.000000  1.000000  1.000000
 FoFCou: FMM=F IPFlag=           0 FMFlag=      100000 FMFlg1=           0
         NFxFlg=           0 DoJE=T BraDBF=F KetDBF=T FulRan=T
         wScrn=  0.000000 ICntrl=       500 IOpCl=  0 I1Cent=   200000004 NGrid=           0
         NMat0=    1 NMatS0=      1 NMatT0=    0 NMatD0=    1 NMtDS0=    0 NMtDT0=    0
 Petite list used in FoFCou.
 Initial guess orbital symmetries:
       Occupied  (A1) (A1) (E) (E) (A1) (A1) (E) (E)
       Virtual   (A1) (E) (E) (A1) (A1) (E) (E) (A1) (A1) (E) (E)
 The electronic state of the initial guess is 1-A1.
 Keep R1 ints in memory in symmetry-blocked form, NReq=823238.
 Requested convergence on RMS density matrix=1.00D-08 within 128 cycles.
 Requested convergence on MAX density matrix=1.00D-06.
 Requested convergence on             energy=1.00D-06.
 No special actions if energy rises.
 SCF Done:  E(RHF) =  -242.251146917     A.U. after    8 cycles
            NFock=  8  Conv=0.24D-08     -V/T= 2.0004

 **********************************************************************

            Population analysis using the SCF Density.

 **********************************************************************

 Orbital symmetries:
       Occupied  (A1) (A1) (A1) (E) (E) (A1) (E) (E)
       Virtual   (A1) (E) (E) (A1) (A1) (E) (E) (A1) (A1) (E) (E)
 The electronic state is 1-A1.
 Alpha  occ. eigenvalues --  -58.05265  -4.86751  -3.17011  -3.16973  -3.16973
 Alpha  occ. eigenvalues --   -0.57782  -0.41456  -0.41456
 Alpha virt. eigenvalues --   -0.00080   0.16356   0.16356   0.24856   0.30036
 Alpha virt. eigenvalues --    0.38755   0.38755   0.40526   1.37463   1.38888
 Alpha virt. eigenvalues --    1.38888
     Molecular Orbital Coefficients:
                           1         2         3         4         5
                        (A1)--O   (A1)--O   (A1)--O   (E)--O    (E)--O
     Eigenvalues --   -58.05265  -4.86751  -3.17011  -3.16973  -3.16973
   1 1   Al 1S          0.98854  -0.28417   0.00303  -0.00000   0.00000
   2        2S          0.04412   1.01084  -0.01082   0.00000   0.00000
   3        2PX         0.00000   0.00000   0.00000   0.00000   0.97846
   4        2PY         0.00000  -0.00000   0.00000   0.97846   0.00000
   5        2PZ        -0.00001   0.01066   0.97833  -0.00000   0.00000
   6        3S         -0.01111   0.08983   0.00045  -0.00000   0.00000
   7        3PX         0.00000   0.00000   0.00000   0.00000   0.08781
   8        3PY         0.00000  -0.00000   0.00000   0.08781   0.00000
   9        3PZ         0.00039   0.00003   0.08770  -0.00000   0.00000
  10        4S          0.00331  -0.02932  -0.00651   0.00000   0.00000
  11        4PX         0.00000   0.00000   0.00000   0.00000  -0.02556
  12        4PY        -0.00000  -0.00000  -0.00000  -0.02556   0.00000
  13        4PZ         0.00029  -0.00213  -0.02866   0.00000   0.00000
  14 2   H  1S          0.00093  -0.00307   0.00098  -0.00414   0.00000
  15        2S          0.00046  -0.00239   0.00320  -0.00422   0.00000
  16 3   H  1S          0.00093  -0.00307   0.00098   0.00207   0.00359
  17        2S          0.00046  -0.00239   0.00320   0.00211   0.00365
  18 4   H  1S          0.00093  -0.00307   0.00098   0.00207  -0.00359
  19        2S          0.00046  -0.00239   0.00320   0.00211  -0.00365
                           6         7         8         9        10
                        (A1)--O   (E)--O    (E)--O    (A1)--V   (E)--V
     Eigenvalues --    -0.57782  -0.41456  -0.41456  -0.00080   0.16356
   1 1   Al 1S          0.05087  -0.00000   0.00000   0.01508  -0.00000
   2        2S         -0.25334  -0.00000   0.00000  -0.08790   0.00000
   3        2PX         0.00000   0.00000   0.15646   0.00000   0.00000
   4        2PY        -0.00000  -0.15646   0.00000   0.00000  -0.02276
   5        2PZ         0.02907   0.00000   0.00000  -0.14623  -0.00000
   6        3S          0.36600  -0.00000   0.00000   0.05273   0.00000
   7        3PX         0.00000   0.00000  -0.29635   0.00000   0.00000
   8        3PY         0.00000   0.29635   0.00000  -0.00000   0.04247
   9        3PZ        -0.03680  -0.00000   0.00000   0.25341   0.00000
  10        4S          0.20406   0.00000   0.00000   0.48999  -0.00000
  11        4PX         0.00000   0.00000  -0.10517   0.00000   0.00000
  12        4PY         0.00000   0.10517   0.00000  -0.00000   1.42562
  13        4PZ         0.01569   0.00000   0.00000   0.65969   0.00000
  14 2   H  1S          0.14008   0.23633   0.00000  -0.04874  -0.08144
  15        2S          0.19433   0.42681   0.00000  -0.14407  -0.94686
  16 3   H  1S          0.14008  -0.11817   0.20467  -0.04874   0.04072
  17        2S          0.19433  -0.21341   0.36963  -0.14407   0.47343
  18 4   H  1S          0.14008  -0.11817  -0.20467  -0.04874   0.04072
  19        2S          0.19433  -0.21341  -0.36963  -0.14407   0.47343
                          11        12        13        14        15
                        (E)--V    (A1)--V   (A1)--V   (E)--V    (E)--V
     Eigenvalues --     0.16356   0.24856   0.30036   0.38755   0.38755
   1 1   Al 1S          0.00000  -0.01352   0.05838   0.00000  -0.00000
   2        2S          0.00000  -0.04150  -0.17579   0.00000   0.00000
   3        2PX        -0.02276   0.00000   0.00000  -0.31595   0.00000
   4        2PY         0.00000   0.00000   0.00000   0.00000  -0.31595
   5        2PZ         0.00000  -0.02207  -0.13682   0.00000  -0.00000
   6        3S          0.00000  -0.83587   1.42263   0.00000  -0.00000
   7        3PX         0.04247   0.00000   0.00000   1.44829   0.00000
   8        3PY         0.00000  -0.00000  -0.00000   0.00000   1.44829
   9        3PZ         0.00000   0.08846   0.56256   0.00000   0.00000
  10        4S          0.00000   2.34472  -0.50887   0.00000  -0.00000
  11        4PX         1.42562   0.00000   0.00000  -0.60461   0.00000
  12        4PY         0.00000   0.00000   0.00000   0.00000  -0.60461
  13        4PZ         0.00000  -0.80614  -0.80725   0.00000  -0.00000
  14 2   H  1S          0.00000  -0.06129  -0.05157   0.00000  -0.00300
  15        2S          0.00000  -0.76935  -0.39755   0.00000  -0.61839
  16 3   H  1S          0.07053  -0.06129  -0.05157   0.00260   0.00150
  17        2S          0.82001  -0.76935  -0.39755   0.53554   0.30920
  18 4   H  1S         -0.07053  -0.06129  -0.05157  -0.00260   0.00150
  19        2S         -0.82001  -0.76935  -0.39755  -0.53554   0.30920
                          16        17        18        19
                        (A1)--V   (A1)--V   (E)--V    (E)--V
     Eigenvalues --     0.40526   1.37463   1.38888   1.38888
   1 1   Al 1S         -0.02916  -0.01506  -0.00000   0.00000
   2        2S          0.10827   0.08754   0.00000   0.00000
   3        2PX         0.00000   0.00000   0.00000   0.09265
   4        2PY         0.00000   0.00000  -0.09265   0.00000
   5        2PZ        -0.29234  -0.03673  -0.00000   0.00000
   6        3S         -0.60925  -0.02303  -0.00000   0.00000
   7        3PX         0.00000   0.00000   0.00000  -0.12177
   8        3PY        -0.00000  -0.00000   0.12177   0.00000
   9        3PZ         1.28224  -0.00790  -0.00000   0.00000
  10        4S         -0.53132   1.30529   0.00000   0.00000
  11        4PX         0.00000   0.00000   0.00000   0.60771
  12        4PY         0.00000   0.00000  -0.60771   0.00000
  13        4PZ        -0.56220  -0.40758  -0.00000   0.00000
  14 2   H  1S          0.03152   0.80545  -1.13067   0.00000
  15        2S          0.59040  -1.17537   1.31008   0.00000
  16 3   H  1S          0.03152   0.80545   0.56533  -0.97919
  17        2S          0.59040  -1.17537  -0.65504   1.13456
  18 4   H  1S          0.03152   0.80545   0.56533   0.97919
  19        2S          0.59040  -1.17537  -0.65504  -1.13456
     Density Matrix:
                           1         2         3         4         5
   1 1   Al 1S          2.12112
   2        2S         -0.51312   2.17609
   3        2PX        -0.00000   0.00000   1.96373
   4        2PY         0.00000   0.00000   0.00000   1.96373
   5        2PZ         0.00281  -0.01435  -0.00000   0.00000   1.91617
   6        3S         -0.03578  -0.00483  -0.00000   0.00000   0.02408
   7        3PX        -0.00000   0.00000   0.07910  -0.00000   0.00000
   8        3PY         0.00000   0.00000   0.00000   0.07910  -0.00000
   9        3PZ        -0.00247   0.01684   0.00000  -0.00000   0.16946
  10        4S          0.04393  -0.16224  -0.00000   0.00000  -0.00150
  11        4PX        -0.00000   0.00000  -0.08292   0.00000  -0.00000
  12        4PY         0.00000  -0.00000   0.00000  -0.08292   0.00000
  13        4PZ         0.00321  -0.01162   0.00000  -0.00000  -0.05520
  14 2   H  1S          0.01784  -0.07712  -0.00000  -0.08205   0.01000
  15        2S          0.02205  -0.10333  -0.00000  -0.14181   0.01750
  16 3   H  1S          0.01784  -0.07712   0.07106   0.04103   0.01000
  17        2S          0.02205  -0.10333   0.12281   0.07090   0.01750
  18 4   H  1S          0.01784  -0.07712  -0.07106   0.04103   0.01000
  19        2S          0.02205  -0.10333  -0.12281   0.07090   0.01750
                           6         7         8         9        10
   6        3S          0.28429
   7        3PX         0.00000   0.19107
   8        3PY        -0.00000   0.00000   0.19107
   9        3PZ        -0.02686   0.00000  -0.00000   0.01809
  10        4S          0.14403  -0.00000   0.00000  -0.01616   0.08511
  11        4PX        -0.00000   0.05785  -0.00000   0.00000  -0.00000
  12        4PY         0.00000   0.00000   0.05785  -0.00000   0.00000
  13        4PZ         0.01107  -0.00000   0.00000  -0.00618   0.00691
  14 2   H  1S          0.10197   0.00000   0.13935  -0.01014   0.05735
  15        2S          0.14181   0.00000   0.25223  -0.01374   0.07941
  16 3   H  1S          0.10197  -0.12068  -0.06967  -0.01014   0.05735
  17        2S          0.14181  -0.21844  -0.12612  -0.01374   0.07941
  18 4   H  1S          0.10197   0.12068  -0.06967  -0.01014   0.05735
  19        2S          0.14181   0.21844  -0.12612  -0.01374   0.07941
                          11        12        13        14        15
  11        4PX         0.02343
  12        4PY        -0.00000   0.02343
  13        4PZ        -0.00000   0.00000   0.00214
  14 2   H  1S          0.00000   0.04992   0.00435   0.15101
  15        2S          0.00000   0.08999   0.00593   0.25624   0.43993
  16 3   H  1S         -0.04323  -0.02496   0.00435  -0.01660  -0.04642
  17        2S         -0.07793  -0.04500   0.00593  -0.04642  -0.10663
  18 4   H  1S          0.04323  -0.02496   0.00435  -0.01660  -0.04642
  19        2S          0.07793  -0.04500   0.00593  -0.04642  -0.10663
                          16        17        18        19
  16 3   H  1S          0.15101
  17        2S          0.25624   0.43993
  18 4   H  1S         -0.01660  -0.04642   0.15101
  19        2S         -0.04642  -0.10663   0.25624   0.43993
    Full Mulliken population analysis:
                           1         2         3         4         5
   1 1   Al 1S          2.12112
   2        2S         -0.12367   2.17609
   3        2PX         0.00000   0.00000   1.96373
   4        2PY         0.00000   0.00000   0.00000   1.96373
   5        2PZ         0.00000   0.00000   0.00000   0.00000   1.91617
   6        3S         -0.00044  -0.00123   0.00000   0.00000   0.00000
   7        3PX         0.00000   0.00000   0.01912   0.00000   0.00000
   8        3PY         0.00000   0.00000   0.00000   0.01912   0.00000
   9        3PZ         0.00000   0.00000   0.00000   0.00000   0.04095
  10        4S          0.00111  -0.03541   0.00000   0.00000   0.00000
  11        4PX         0.00000   0.00000  -0.00487   0.00000   0.00000
  12        4PY         0.00000   0.00000  -0.00000  -0.00487   0.00000
  13        4PZ         0.00000   0.00000   0.00000   0.00000  -0.00324
  14 2   H  1S          0.00000  -0.00049  -0.00000  -0.00085  -0.00004
  15        2S          0.00026  -0.01088   0.00000  -0.00756  -0.00033
  16 3   H  1S          0.00000  -0.00049  -0.00063  -0.00021  -0.00004
  17        2S          0.00026  -0.01088  -0.00567  -0.00189  -0.00033
  18 4   H  1S          0.00000  -0.00049  -0.00063  -0.00021  -0.00004
  19        2S          0.00026  -0.01088  -0.00567  -0.00189  -0.00033
                           6         7         8         9        10
   6        3S          0.28429
   7        3PX         0.00000   0.19107
   8        3PY         0.00000   0.00000   0.19107
   9        3PZ         0.00000   0.00000   0.00000   0.01809
  10        4S          0.11892   0.00000   0.00000   0.00000   0.08511
  11        4PX         0.00000   0.03842  -0.00000   0.00000   0.00000
  12        4PY         0.00000  -0.00000   0.03842   0.00000   0.00000
  13        4PZ         0.00000   0.00000   0.00000  -0.00411   0.00000
  14 2   H  1S          0.01935   0.00000   0.04558   0.00117   0.01210
  15        2S          0.06573   0.00000   0.12859   0.00248   0.04334
  16 3   H  1S          0.01935   0.03419   0.01140   0.00117   0.01210
  17        2S          0.06573   0.09645   0.03215   0.00248   0.04334
  18 4   H  1S          0.01935   0.03419   0.01140   0.00117   0.01210
  19        2S          0.06573   0.09645   0.03215   0.00248   0.04334
                          11        12        13        14        15
  11        4PX         0.02343
  12        4PY        -0.00000   0.02343
  13        4PZ         0.00000   0.00000   0.00214
  14 2   H  1S          0.00000   0.01369  -0.00042   0.15101
  15        2S          0.00000   0.05084  -0.00118   0.16550   0.43993
  16 3   H  1S          0.01027   0.00342  -0.00042  -0.00000  -0.00095
  17        2S          0.03813   0.01271  -0.00118  -0.00095  -0.01312
  18 4   H  1S          0.01027   0.00342  -0.00042  -0.00000  -0.00095
  19        2S          0.03813   0.01271  -0.00118  -0.00095  -0.01312
                          16        17        18        19
  16 3   H  1S          0.15101
  17        2S          0.16550   0.43993
  18 4   H  1S         -0.00000  -0.00095   0.15101
  19        2S         -0.00095  -0.01312   0.16550   0.43993
     Gross orbital populations:
                           1
   1 1   Al 1S          1.99890
   2        2S          1.98166
   3        2PX         1.96537
   4        2PY         1.96537
   5        2PZ         1.95278
   6        3S          0.65677
   7        3PX         0.50987
   8        3PY         0.50987
   9        3PZ         0.06588
  10        4S          0.33608
  11        4PX         0.15378
  12        4PY         0.15378
  13        4PZ        -0.01002
  14 2   H  1S          0.40471
  15        2S          0.84860
  16 3   H  1S          0.40471
  17        2S          0.84860
  18 4   H  1S          0.40471
  19        2S          0.84860
          Condensed to atoms (all electrons):
               1          2          3          4
     1  Al  11.155908   0.361389   0.361389   0.361389
     2  H    0.361389   0.921947  -0.015014  -0.015014
     3  H    0.361389  -0.015014   0.921947  -0.015014
     4  H    0.361389  -0.015014  -0.015014   0.921947
 Mulliken charges:
               1
     1  Al   0.759926
     2  H   -0.253309
     3  H   -0.253309
     4  H   -0.253309
 Sum of Mulliken charges =  -0.00000
 Mulliken charges with hydrogens summed into heavy atoms:
               1
     1  Al  -0.000000
 Electronic spatial extent (au):  <R**2>=             61.8446
 Charge=             -0.0000 electrons
 Dipole moment (field-independent basis, Debye):
    X=              0.0000    Y=              0.0000    Z=              2.9610  Tot=              2.9610
 Quadrupole moment (field-independent basis, Debye-Ang):
   XX=            -18.7415   YY=            -18.7415   ZZ=            -11.8022
   XY=              0.0000   XZ=             -0.0000   YZ=             -0.0000
 Traceless Quadrupole moment (field-independent basis, Debye-Ang):
   XX=             -2.3131   YY=             -2.3131   ZZ=              4.6262
   XY=              0.0000   XZ=             -0.0000   YZ=             -0.0000
 Octapole moment (field-independent basis, Debye-Ang**2):
  XXX=              0.0000  YYY=             -3.3158  ZZZ=              5.3114  XYY=             -0.0000
  XXY=              3.3158  XXZ=              2.9325  XZZ=              0.0000  YZZ=              0.0000
  YYZ=              2.9325  XYZ=              0.0000
 Hexadecapole moment (field-independent basis, Debye-Ang**3):
 XXXX=            -58.9957 YYYY=            -58.9957 ZZZZ=            -18.2836 XXXY=              0.0000
 XXXZ=             -0.0000 YYYX=              0.0000 YYYZ=              0.7541 ZZZX=             -0.0000
 ZZZY=             -0.0000 XXYY=            -19.6652 XXZZ=            -12.3044 YYZZ=            -12.3044
 XXYZ=             -0.7541 YYXZ=             -0.0000 ZZXY=              0.0000
 N-N= 1.394198177448D+01 E-N=-6.068775116497D+02  KE= 2.421645731285D+02
 Symmetry A'   KE= 2.213501789224D+02
 Symmetry A"   KE= 2.081439420619D+01
 Orbital energies and kinetic energies (alpha):
                                 1                 2
   1         (A1)--O         -58.052651         78.664944
   2         (A1)--O          -4.867507         11.076272
   3         (A1)--O          -3.170114          9.723141
   4         (E)--O           -3.169728          9.724821
   5         (E)--O           -3.169728          9.724821
   6         (A1)--O          -0.577818          0.803536
   7         (E)--O           -0.414557          0.682376
   8         (E)--O           -0.414557          0.682376
   9         (A1)--V          -0.000801          0.473440
  10         (E)--V            0.163563          0.325856
  11         (E)--V            0.163563          0.325856
  12         (A1)--V           0.248555          0.395103
  13         (A1)--V           0.300363          1.315650
  14         (E)--V            0.387550          1.473655
  15         (E)--V            0.387550          1.473655
  16         (A1)--V           0.405263          1.545935
  17         (A1)--V           1.374632          2.328560
  18         (E)--V            1.388881          2.364961
  19         (E)--V            1.388881          2.364961
 Total kinetic energy from orbitals= 2.421645731285D+02
 1\1\GINC-IISERK51\SP\RHF\3-21G\Al1H3\GAUSSIAN\14-Jun-2025\0\\# hf/3-21
 g pop=full geom=connectivity\\Title Card Required\\0,1\Al,0,0.70396175
 ,-0.32048151,0.\H,0,2.16531577,-0.32048151,-0.51666667\H,0,-0.02671526
 ,0.94508819,-0.51666667\H,0,-0.02671526,-1.58605121,-0.51666667\\Versi
 on=EM64L-G16RevB.01\State=1-A1\HF=-242.2511469\RMSD=2.445e-09\Dipole=0
 .,0.,1.1649351\Quadrupole=-1.7197362,-1.7197362,3.4394725,0.,0.,0.\PG=
 C03V [C3(Al1),3SGV(H1)]\\@


 WE LEARN WISDOM FROM FAILURE MUCH MORE THAN FROM SUCCESS.
 WE DISCOVER WHAT WILL DO BY FINDING OUT WHAT WILL NOT DO...
 AND HE WHO NEVER MADE A MISTAKE NEVER MADE A DISCOVERY
 Job cpu time:       0 days  0 hours  0 minutes  0.4 seconds.
 Elapsed time:       0 days  0 hours  0 minutes  0.3 seconds.
 File lengths (MBytes):  RWF=      6 Int=      0 D2E=      0 Chk=      1 Scr=      1
 Normal termination of Gaussian 16 at Sat Jun 14 16:33:14 2025.
