 Entering Gaussian System, Link 0=g16
 Input=/home/gaussian/Documents/Summer_Internship/Acid_Base_adduct/Acid/AlH3/MX4-/AlH4_ion_opt.com
 Output=/home/gaussian/Documents/Summer_Internship/Acid_Base_adduct/Acid/AlH3/MX4-/AlH4_ion_opt.log
 Initial command:
 /usr/local/g16/l1.exe "/home/gaussian/tmp/Gau-49009.inp" -scrdir="/home/gaussian/tmp/"
 Entering Link 1 = /usr/local/g16/l1.exe PID=     49012.
  
 Copyright (c) 1988-2017, Gaussian, Inc.  All Rights Reserved.
  
 This is part of the Gaussian(R) 16 program.  It is based on
 the Gaussian(R) 09 system (copyright 2009, Gaussian, Inc.),
 the Gaussian(R) 03 system (copyright 2003, Gaussian, Inc.),
 the Gaussian(R) 98 system (copyright 1998, Gaussian, Inc.),
 the Gaussian(R) 94 system (copyright 1995, Gaussian, Inc.),
 the Gaussian 92(TM) system (copyright 1992, Gaussian, Inc.),
 the Gaussian 90(TM) system (copyright 1990, Gaussian, Inc.),
 the Gaussian 88(TM) system (copyright 1988, Gaussian, Inc.),
 the Gaussian 86(TM) system (copyright 1986, Carnegie Mellon
 University), and the Gaussian 82(TM) system (copyright 1983,
 Carnegie Mellon University). Gaussian is a federally registered
 trademark of Gaussian, Inc.
  
 This software contains proprietary and confidential information,
 including trade secrets, belonging to Gaussian, Inc.
  
 This software is provided under written license and may be
 used, copied, transmitted, or stored only in accord with that
 written license.
  
 The following legend is applicable only to US Government
 contracts under FAR:
  
                    RESTRICTED RIGHTS LEGEND
  
 Use, reproduction and disclosure by the US Government is
 subject to restrictions as set forth in subparagraphs (a)
 and (c) of the Commercial Computer Software - Restricted
 Rights clause in FAR 52.227-19.
  
 Gaussian, Inc.
 340 Quinnipiac St., Bldg. 40, Wallingford CT 06492
  
  
 ---------------------------------------------------------------
 Warning -- This program may not be used in any manner that
 competes with the business of Gaussian, Inc. or will provide
 assistance to any competitor of Gaussian, Inc.  The licensee
 of this program is prohibited from giving any competitor of
 Gaussian, Inc. access to this program.  By using this program,
 the user acknowledges that Gaussian, Inc. is engaged in the
 business of creating and licensing software in the field of
 computational chemistry and represents and warrants to the
 licensee that it is not a competitor of Gaussian, Inc. and that
 it will not use this program in any manner prohibited above.
 ---------------------------------------------------------------
  

 Cite this work as:
 Gaussian 16, Revision B.01,
 M. J. Frisch, G. W. Trucks, H. B. Schlegel, G. E. Scuseria, 
 M. A. Robb, J. R. Cheeseman, G. Scalmani, V. Barone, 
 G. A. Petersson, H. Nakatsuji, X. Li, M. Caricato, A. V. Marenich, 
 J. Bloino, B. G. Janesko, R. Gomperts, B. Mennucci, H. P. Hratchian, 
 J. V. Ortiz, A. F. Izmaylov, J. L. Sonnenberg, D. Williams-Young, 
 F. Ding, F. Lipparini, F. Egidi, J. Goings, B. Peng, A. Petrone, 
 T. Henderson, D. Ranasinghe, V. G. Zakrzewski, J. Gao, N. Rega, 
 G. Zheng, W. Liang, M. Hada, M. Ehara, K. Toyota, R. Fukuda, 
 J. Hasegawa, M. Ishida, T. Nakajima, Y. Honda, O. Kitao, H. Nakai, 
 T. Vreven, K. Throssell, J. A. Montgomery, Jr., J. E. Peralta, 
 F. Ogliaro, M. J. Bearpark, J. J. Heyd, E. N. Brothers, K. N. Kudin, 
 V. N. Staroverov, T. A. Keith, R. Kobayashi, J. Normand, 
 K. Raghavachari, A. P. Rendell, J. C. Burant, S. S. Iyengar, 
 J. Tomasi, M. Cossi, J. M. Millam, M. Klene, C. Adamo, R. Cammi, 
 J. W. Ochterski, R. L. Martin, K. Morokuma, O. Farkas, 
 J. B. Foresman, and D. J. Fox, Gaussian, Inc., Wallingford CT, 2016.
 
 ******************************************
 Gaussian 16:  EM64L-G16RevB.01 20-Dec-2017
                14-Jun-2025 
 ******************************************
 %chk=AlH4_ion_opt.chk
 ----------------------------------------------
 # opt freq hf/3-21g pop=full geom=connectivity
 ----------------------------------------------
 1/18=20,19=15,38=1,57=2/1,3;
 2/9=110,12=2,17=6,18=5,40=1/2;
 3/5=5,11=9,25=1,30=1,71=1/1,2,3;
 4//1;
 5/5=2,38=5/2;
 6/7=3,28=1/1;
 7//1,2,3,16;
 1/18=20,19=15/3(2);
 2/9=110/2;
 99//99;
 2/9=110/2;
 3/5=5,11=9,25=1,30=1,71=1/1,2,3;
 4/5=5,16=3,69=1/1;
 5/5=2,38=5/2;
 7//1,2,3,16;
 1/18=20,19=15/3(-5);
 2/9=110/2;
 6/7=3,19=2,28=1/1;
 99/9=1/99;
 ------------
 optimisation
 ------------
 Symbolic Z-matrix:
 Charge = -1 Multiplicity = 1
 Al                    0.07008   2.63034   0. 
 H                     1.53144   2.63034  -0.51667 
 H                    -0.6606    3.89591  -0.51667 
 H                    -0.6606    1.36477  -0.51667 
 H                     0.07008   2.63034   1.55 
 

 GradGradGradGradGradGradGradGradGradGradGradGradGradGradGradGradGradGrad
 Berny optimization.
 Initialization pass.
                           ----------------------------
                           !    Initial Parameters    !
                           ! (Angstroms and Degrees)  !
 --------------------------                            --------------------------
 ! Name  Definition              Value          Derivative Info.                !
 --------------------------------------------------------------------------------
 ! R1    R(1,2)                  1.55           estimate D2E/DX2                !
 ! R2    R(1,3)                  1.55           estimate D2E/DX2                !
 ! R3    R(1,4)                  1.55           estimate D2E/DX2                !
 ! R4    R(1,5)                  1.55           estimate D2E/DX2                !
 ! A1    A(2,1,3)              109.4712         estimate D2E/DX2                !
 ! A2    A(2,1,4)              109.4712         estimate D2E/DX2                !
 ! A3    A(2,1,5)              109.4712         estimate D2E/DX2                !
 ! A4    A(3,1,4)              109.4712         estimate D2E/DX2                !
 ! A5    A(3,1,5)              109.4712         estimate D2E/DX2                !
 ! A6    A(4,1,5)              109.4712         estimate D2E/DX2                !
 ! D1    D(2,1,4,3)           -120.0            estimate D2E/DX2                !
 ! D2    D(2,1,5,3)            120.0            estimate D2E/DX2                !
 ! D3    D(2,1,5,4)           -120.0            estimate D2E/DX2                !
 ! D4    D(3,1,5,4)            120.0            estimate D2E/DX2                !
 --------------------------------------------------------------------------------
 Trust Radius=3.00D-01 FncErr=1.00D-07 GrdErr=1.00D-07 EigMax=2.50D+02 EigMin=1.00D-04
 Number of steps in this run=     24 maximum allowed number of steps=    100.
 GradGradGradGradGradGradGradGradGradGradGradGradGradGradGradGradGradGrad

                          Input orientation:                          
 ---------------------------------------------------------------------
 Center     Atomic      Atomic             Coordinates (Angstroms)
 Number     Number       Type             X           Y           Z
 ---------------------------------------------------------------------
      1         13           0        0.070082    2.630338    0.000000
      2          1           0        1.531436    2.630338   -0.516667
      3          1           0       -0.660595    3.895908   -0.516667
      4          1           0       -0.660595    1.364768   -0.516667
      5          1           0        0.070082    2.630338    1.550000
 ---------------------------------------------------------------------
                    Distance matrix (angstroms):
                    1          2          3          4          5
     1  Al   0.000000
     2  H    1.550000   0.000000
     3  H    1.550000   2.531139   0.000000
     4  H    1.550000   2.531139   2.531139   0.000000
     5  H    1.550000   2.531139   2.531139   2.531139   0.000000
 Stoichiometry    AlH4(1-)
 Framework group  TD[O(Al),4C3(H)]
 Deg. of freedom     1
 Full point group                 TD      NOp  24
 Largest Abelian subgroup         D2      NOp   4
 Largest concise Abelian subgroup D2      NOp   4
                         Standard orientation:                         
 ---------------------------------------------------------------------
 Center     Atomic      Atomic             Coordinates (Angstroms)
 Number     Number       Type             X           Y           Z
 ---------------------------------------------------------------------
      1         13           0        0.000000    0.000000    0.000000
      2          1           0        0.894893    0.894893    0.894893
      3          1           0       -0.894893   -0.894893    0.894893
      4          1           0       -0.894893    0.894893   -0.894893
      5          1           0        0.894893   -0.894893   -0.894893
 ---------------------------------------------------------------------
 Rotational constants (GHZ):          78.2708282          78.2708282          78.2708282
 Standard basis: 3-21G (6D, 7F)
 There are     6 symmetry adapted cartesian basis functions of A   symmetry.
 There are     5 symmetry adapted cartesian basis functions of B1  symmetry.
 There are     5 symmetry adapted cartesian basis functions of B2  symmetry.
 There are     5 symmetry adapted cartesian basis functions of B3  symmetry.
 There are     6 symmetry adapted basis functions of A   symmetry.
 There are     5 symmetry adapted basis functions of B1  symmetry.
 There are     5 symmetry adapted basis functions of B2  symmetry.
 There are     5 symmetry adapted basis functions of B3  symmetry.
    21 basis functions,    39 primitive gaussians,    21 cartesian basis functions
     9 alpha electrons        9 beta electrons
       nuclear repulsion energy        19.0074427388 Hartrees.
 NAtoms=    5 NActive=    5 NUniq=    2 SFac= 4.00D+00 NAtFMM=   60 NAOKFM=F Big=F
 Integral buffers will be    131072 words long.
 Raffenetti 1 integral format.
 Two-electron integral symmetry is turned on.
 One-electron integrals computed using PRISM.
 NBasis=    21 RedAO= T EigKep=  4.87D-02  NBF=     6     5     5     5
 NBsUse=    21 1.00D-06 EigRej= -1.00D+00 NBFU=     6     5     5     5
 ExpMin= 6.39D-02 ExpMax= 7.76D+02 ExpMxC= 7.76D+02 IAcc=3 IRadAn=         5 AccDes= 0.00D+00
 Harris functional with IExCor=  205 and IRadAn=       5 diagonalized for initial guess.
 HarFok:  IExCor=  205 AccDes= 0.00D+00 IRadAn=         5 IDoV= 1 UseB2=F ITyADJ=14
 ICtDFT=  3500011 ScaDFX=  1.000000  1.000000  1.000000  1.000000
 FoFCou: FMM=F IPFlag=           0 FMFlag=      100000 FMFlg1=           0
         NFxFlg=           0 DoJE=T BraDBF=F KetDBF=T FulRan=T
         wScrn=  0.000000 ICntrl=       500 IOpCl=  0 I1Cent=   200000004 NGrid=           0
         NMat0=    1 NMatS0=      1 NMatT0=    0 NMatD0=    1 NMtDS0=    0 NMtDT0=    0
 Petite list used in FoFCou.
 Initial guess orbital symmetries:
       Occupied  (A1) (A1) (T2) (T2) (T2) (A1) (T2) (T2) (T2)
       Virtual   (T2) (T2) (T2) (A1) (A1) (T2) (T2) (T2) (T2) (T2)
                 (T2) (A1)
 The electronic state of the initial guess is 1-A1.
 Keep R1 ints in memory in symmetry-blocked form, NReq=833805.
 Requested convergence on RMS density matrix=1.00D-08 within 128 cycles.
 Requested convergence on MAX density matrix=1.00D-06.
 Requested convergence on             energy=1.00D-06.
 No special actions if energy rises.
 SCF Done:  E(RHF) =  -242.864615352     A.U. after    8 cycles
            NFock=  8  Conv=0.26D-08     -V/T= 1.9995

 **********************************************************************

            Population analysis using the SCF Density.

 **********************************************************************

 Orbital symmetries:
       Occupied  (A1) (A1) (T2) (T2) (T2) (A1) (T2) (T2) (T2)
       Virtual   (T2) (T2) (T2) (A1) (A1) (T2) (T2) (T2) (T2) (T2)
                 (T2) (A1)
 The electronic state is 1-A1.
 Alpha  occ. eigenvalues --  -57.76579  -4.58346  -2.88718  -2.88718  -2.88718
 Alpha  occ. eigenvalues --   -0.36892  -0.18702  -0.18702  -0.18702
 Alpha virt. eigenvalues --    0.36293   0.36293   0.36293   0.46269   0.60567
 Alpha virt. eigenvalues --    0.62441   0.62441   0.62441   1.61533   1.61533
 Alpha virt. eigenvalues --    1.61533   1.62869
     Molecular Orbital Coefficients:
                           1         2         3         4         5
                        (A1)--O   (A1)--O   (T2)--O   (T2)--O   (T2)--O
     Eigenvalues --   -57.76579  -4.58346  -2.88718  -2.88718  -2.88718
   1 1   Al 1S          0.98852  -0.28410   0.00000   0.00000   0.00000
   2        2S          0.04420   1.01040   0.00000   0.00000   0.00000
   3        2PX         0.00000   0.00000   0.97803   0.00000   0.00000
   4        2PY         0.00000   0.00000   0.00000   0.00000   0.97803
   5        2PZ         0.00000   0.00000   0.00000   0.97803   0.00000
   6        3S         -0.01124   0.09117   0.00000   0.00000   0.00000
   7        3PX         0.00000   0.00000   0.08942   0.00000   0.00000
   8        3PY         0.00000   0.00000   0.00000   0.00000   0.08942
   9        3PZ         0.00000   0.00000   0.00000   0.08942   0.00000
  10        4S          0.00221  -0.02458   0.00000   0.00000   0.00000
  11        4PX         0.00000   0.00000  -0.02644   0.00000   0.00000
  12        4PY         0.00000   0.00000   0.00000   0.00000  -0.02644
  13        4PZ         0.00000   0.00000   0.00000  -0.02644   0.00000
  14 2   H  1S          0.00084  -0.00279  -0.00259  -0.00259  -0.00259
  15        2S          0.00083  -0.00401  -0.00244  -0.00244  -0.00244
  16 3   H  1S          0.00084  -0.00279   0.00259  -0.00259   0.00259
  17        2S          0.00083  -0.00401   0.00244  -0.00244   0.00244
  18 4   H  1S          0.00084  -0.00279   0.00259   0.00259  -0.00259
  19        2S          0.00083  -0.00401   0.00244   0.00244  -0.00244
  20 5   H  1S          0.00084  -0.00279  -0.00259   0.00259   0.00259
  21        2S          0.00083  -0.00401  -0.00244   0.00244   0.00244
                           6         7         8         9        10
                        (A1)--O   (T2)--O   (T2)--O   (T2)--O   (T2)--V
     Eigenvalues --    -0.36892  -0.18702  -0.18702  -0.18702   0.36293
   1 1   Al 1S          0.04860   0.00000   0.00000   0.00000   0.00000
   2        2S         -0.24910   0.00000   0.00000   0.00000   0.00000
   3        2PX         0.00000   0.00000  -0.13945   0.00000   0.00000
   4        2PY         0.00000   0.00000   0.00000  -0.13945  -0.00252
   5        2PZ         0.00000  -0.13945   0.00000   0.00000   0.00000
   6        3S          0.28196   0.00000   0.00000   0.00000   0.00000
   7        3PX         0.00000   0.00000   0.21502   0.00000   0.00000
   8        3PY         0.00000   0.00000   0.00000   0.21502  -0.04653
   9        3PZ         0.00000   0.21502   0.00000   0.00000   0.00000
  10        4S          0.24882   0.00000   0.00000   0.00000   0.00000
  11        4PX         0.00000   0.00000   0.13348   0.00000   0.00000
  12        4PY         0.00000   0.00000   0.00000   0.13348   1.46391
  13        4PZ         0.00000   0.13348   0.00000   0.00000   0.00000
  14 2   H  1S          0.12327   0.14252   0.14252   0.14252  -0.04477
  15        2S          0.16508   0.28612   0.28612   0.28612  -0.56188
  16 3   H  1S          0.12327   0.14252  -0.14252  -0.14252   0.04477
  17        2S          0.16508   0.28612  -0.28612  -0.28612   0.56188
  18 4   H  1S          0.12327  -0.14252  -0.14252   0.14252  -0.04477
  19        2S          0.16508  -0.28612  -0.28612   0.28612  -0.56188
  20 5   H  1S          0.12327  -0.14252   0.14252  -0.14252   0.04477
  21        2S          0.16508  -0.28612   0.28612  -0.28612   0.56188
                          11        12        13        14        15
                        (T2)--V   (T2)--V   (A1)--V   (A1)--V   (T2)--V
     Eigenvalues --     0.36293   0.36293   0.46269   0.60567   0.62441
   1 1   Al 1S          0.00000   0.00000  -0.03037   0.06406   0.00000
   2        2S          0.00000   0.00000   0.00769  -0.24106   0.00000
   3        2PX        -0.00252   0.00000   0.00000   0.00000   0.00000
   4        2PY         0.00000   0.00000   0.00000   0.00000  -0.32479
   5        2PZ         0.00000  -0.00252   0.00000   0.00000   0.00000
   6        3S          0.00000   0.00000  -1.23450   1.28277   0.00000
   7        3PX        -0.04653   0.00000   0.00000   0.00000   0.00000
   8        3PY         0.00000   0.00000   0.00000   0.00000   1.46084
   9        3PZ         0.00000  -0.04653   0.00000   0.00000   0.00000
  10        4S          0.00000   0.00000   2.72155   0.95643   0.00000
  11        4PX         1.46391   0.00000   0.00000   0.00000   0.00000
  12        4PY         0.00000   0.00000   0.00000   0.00000  -0.50283
  13        4PZ         0.00000   1.46391   0.00000   0.00000   0.00000
  14 2   H  1S         -0.04477  -0.04477  -0.04197  -0.06668   0.01186
  15        2S         -0.56188  -0.56188  -0.61139  -0.82519  -0.40772
  16 3   H  1S          0.04477  -0.04477  -0.04197  -0.06668  -0.01186
  17        2S          0.56188  -0.56188  -0.61139  -0.82519   0.40772
  18 4   H  1S          0.04477   0.04477  -0.04197  -0.06668   0.01186
  19        2S          0.56188   0.56188  -0.61139  -0.82519  -0.40772
  20 5   H  1S         -0.04477   0.04477  -0.04197  -0.06668  -0.01186
  21        2S         -0.56188   0.56188  -0.61139  -0.82519   0.40772
                          16        17        18        19        20
                        (T2)--V   (T2)--V   (T2)--V   (T2)--V   (T2)--V
     Eigenvalues --     0.62441   0.62441   1.61533   1.61533   1.61533
   1 1   Al 1S          0.00000   0.00000   0.00000   0.00000   0.00000
   2        2S          0.00000   0.00000   0.00000   0.00000   0.00000
   3        2PX        -0.32479   0.00000   0.00000   0.00000  -0.09651
   4        2PY         0.00000   0.00000   0.00000  -0.09651   0.00000
   5        2PZ         0.00000  -0.32479  -0.09651   0.00000   0.00000
   6        3S          0.00000   0.00000   0.00000   0.00000   0.00000
   7        3PX         1.46084   0.00000   0.00000   0.00000   0.13887
   8        3PY         0.00000   0.00000   0.00000   0.13887   0.00000
   9        3PZ         0.00000   1.46084   0.13887   0.00000   0.00000
  10        4S          0.00000   0.00000   0.00000   0.00000   0.00000
  11        4PX        -0.50283   0.00000   0.00000   0.00000  -0.60379
  12        4PY         0.00000   0.00000   0.00000  -0.60379   0.00000
  13        4PZ         0.00000  -0.50283  -0.60379   0.00000   0.00000
  14 2   H  1S          0.01186   0.01186  -0.69309  -0.69309  -0.69309
  15        2S         -0.40772  -0.40772   0.79229   0.79229   0.79229
  16 3   H  1S         -0.01186   0.01186  -0.69309   0.69309   0.69309
  17        2S          0.40772  -0.40772   0.79229  -0.79229  -0.79229
  18 4   H  1S         -0.01186  -0.01186   0.69309  -0.69309   0.69309
  19        2S          0.40772   0.40772  -0.79229   0.79229  -0.79229
  20 5   H  1S          0.01186  -0.01186   0.69309   0.69309  -0.69309
  21        2S         -0.40772   0.40772  -0.79229  -0.79229   0.79229
                          21
                        (A1)--V
     Eigenvalues --     1.62869
   1 1   Al 1S         -0.01548
   2        2S          0.09031
   3        2PX         0.00000
   4        2PY         0.00000
   5        2PZ         0.00000
   6        3S          0.00411
   7        3PX         0.00000
   8        3PY         0.00000
   9        3PZ         0.00000
  10        4S          1.79713
  11        4PX         0.00000
  12        4PY         0.00000
  13        4PZ         0.00000
  14 2   H  1S          0.70843
  15        2S         -1.16455
  16 3   H  1S          0.70843
  17        2S         -1.16455
  18 4   H  1S          0.70843
  19        2S         -1.16455
  20 5   H  1S          0.70843
  21        2S         -1.16455
     Density Matrix:
                           1         2         3         4         5
   1 1   Al 1S          2.12051
   2        2S         -0.51094   2.16981
   3        2PX         0.00000   0.00000   1.95196
   4        2PY         0.00000   0.00000   0.00000   1.95196
   5        2PZ         0.00000   0.00000   0.00000  -0.00000   1.95196
   6        3S         -0.04662   0.04277   0.00000   0.00000   0.00000
   7        3PX         0.00000   0.00000   0.11494   0.00000   0.00000
   8        3PY         0.00000   0.00000   0.00000   0.11494  -0.00000
   9        3PZ         0.00000   0.00000   0.00000  -0.00000   0.11494
  10        4S          0.04252  -0.17343   0.00000   0.00000   0.00000
  11        4PX         0.00000   0.00000  -0.08895  -0.00000  -0.00000
  12        4PY         0.00000   0.00000  -0.00000  -0.08895   0.00000
  13        4PZ         0.00000   0.00000  -0.00000   0.00000  -0.08895
  14 2   H  1S          0.01523  -0.06699  -0.04482  -0.04482  -0.04482
  15        2S          0.01997  -0.09028  -0.08457  -0.08457  -0.08457
  16 3   H  1S          0.01523  -0.06699   0.04482   0.04482  -0.04482
  17        2S          0.01997  -0.09028   0.08457   0.08457  -0.08457
  18 4   H  1S          0.01523  -0.06699   0.04482  -0.04482   0.04482
  19        2S          0.01997  -0.09028   0.08457  -0.08457   0.08457
  20 5   H  1S          0.01523  -0.06699  -0.04482   0.04482   0.04482
  21        2S          0.01997  -0.09028  -0.08457   0.08457   0.08457
                           6         7         8         9        10
   6        3S          0.17588
   7        3PX         0.00000   0.10846
   8        3PY         0.00000   0.00000   0.10846
   9        3PZ         0.00000   0.00000  -0.00000   0.10846
  10        4S          0.13578   0.00000   0.00000   0.00000   0.12504
  11        4PX         0.00000   0.05267   0.00000   0.00000   0.00000
  12        4PY         0.00000   0.00000   0.05267  -0.00000   0.00000
  13        4PZ         0.00000   0.00000  -0.00000   0.05267   0.00000
  14 2   H  1S          0.06898   0.06083   0.06083   0.06083   0.06148
  15        2S          0.09234   0.12260   0.12260   0.12260   0.08235
  16 3   H  1S          0.06898  -0.06083  -0.06083   0.06083   0.06148
  17        2S          0.09234  -0.12260  -0.12260   0.12260   0.08235
  18 4   H  1S          0.06898  -0.06083   0.06083  -0.06083   0.06148
  19        2S          0.09234  -0.12260   0.12260  -0.12260   0.08235
  20 5   H  1S          0.06898   0.06083  -0.06083  -0.06083   0.06148
  21        2S          0.09234   0.12260  -0.12260  -0.12260   0.08235
                          11        12        13        14        15
  11        4PX         0.03703
  12        4PY         0.00000   0.03703
  13        4PZ         0.00000  -0.00000   0.03703
  14 2   H  1S          0.03818   0.03818   0.03818   0.15233
  15        2S          0.07651   0.07651   0.07651   0.28543   0.54575
  16 3   H  1S         -0.03818  -0.03818   0.03818  -0.01023  -0.04085
  17        2S         -0.07651  -0.07651   0.07651  -0.04085  -0.10920
  18 4   H  1S         -0.03818   0.03818  -0.03818  -0.01023  -0.04085
  19        2S         -0.07651   0.07651  -0.07651  -0.04085  -0.10920
  20 5   H  1S          0.03818  -0.03818  -0.03818  -0.01023  -0.04085
  21        2S          0.07651  -0.07651  -0.07651  -0.04085  -0.10920
                          16        17        18        19        20
  16 3   H  1S          0.15233
  17        2S          0.28543   0.54575
  18 4   H  1S         -0.01023  -0.04085   0.15233
  19        2S         -0.04085  -0.10920   0.28543   0.54575
  20 5   H  1S         -0.01023  -0.04085  -0.01023  -0.04085   0.15233
  21        2S         -0.04085  -0.10920  -0.04085  -0.10920   0.28543
                          21
  21        2S          0.54575
    Full Mulliken population analysis:
                           1         2         3         4         5
   1 1   Al 1S          2.12051
   2        2S         -0.12315   2.16981
   3        2PX         0.00000   0.00000   1.95196
   4        2PY         0.00000   0.00000   0.00000   1.95196
   5        2PZ         0.00000   0.00000   0.00000   0.00000   1.95196
   6        3S         -0.00057   0.01094   0.00000   0.00000   0.00000
   7        3PX         0.00000   0.00000   0.02778   0.00000   0.00000
   8        3PY         0.00000   0.00000   0.00000   0.02778   0.00000
   9        3PZ         0.00000   0.00000   0.00000   0.00000   0.02778
  10        4S          0.00108  -0.03785   0.00000   0.00000   0.00000
  11        4PX         0.00000   0.00000  -0.00523  -0.00000  -0.00000
  12        4PY         0.00000   0.00000  -0.00000  -0.00523  -0.00000
  13        4PZ         0.00000   0.00000  -0.00000  -0.00000  -0.00523
  14 2   H  1S          0.00000  -0.00043  -0.00028  -0.00028  -0.00028
  15        2S          0.00023  -0.00950  -0.00276  -0.00276  -0.00276
  16 3   H  1S          0.00000  -0.00043  -0.00028  -0.00028  -0.00028
  17        2S          0.00023  -0.00950  -0.00276  -0.00276  -0.00276
  18 4   H  1S          0.00000  -0.00043  -0.00028  -0.00028  -0.00028
  19        2S          0.00023  -0.00950  -0.00276  -0.00276  -0.00276
  20 5   H  1S          0.00000  -0.00043  -0.00028  -0.00028  -0.00028
  21        2S          0.00023  -0.00950  -0.00276  -0.00276  -0.00276
                           6         7         8         9        10
   6        3S          0.17588
   7        3PX         0.00000   0.10846
   8        3PY         0.00000   0.00000   0.10846
   9        3PZ         0.00000   0.00000   0.00000   0.10846
  10        4S          0.11212   0.00000   0.00000   0.00000   0.12504
  11        4PX         0.00000   0.03498   0.00000   0.00000   0.00000
  12        4PY         0.00000   0.00000   0.03498   0.00000   0.00000
  13        4PZ         0.00000   0.00000   0.00000   0.03498   0.00000
  14 2   H  1S          0.01309   0.01218   0.01218   0.01218   0.01298
  15        2S          0.04280   0.03828   0.03828   0.03828   0.04495
  16 3   H  1S          0.01309   0.01218   0.01218   0.01218   0.01298
  17        2S          0.04280   0.03828   0.03828   0.03828   0.04495
  18 4   H  1S          0.01309   0.01218   0.01218   0.01218   0.01298
  19        2S          0.04280   0.03828   0.03828   0.03828   0.04495
  20 5   H  1S          0.01309   0.01218   0.01218   0.01218   0.01298
  21        2S          0.04280   0.03828   0.03828   0.03828   0.04495
                          11        12        13        14        15
  11        4PX         0.03703
  12        4PY         0.00000   0.03703
  13        4PZ         0.00000   0.00000   0.03703
  14 2   H  1S          0.00641   0.00641   0.00641   0.15233
  15        2S          0.02647   0.02647   0.02647   0.18436   0.54575
  16 3   H  1S          0.00641   0.00641   0.00641  -0.00000  -0.00083
  17        2S          0.02647   0.02647   0.02647  -0.00083  -0.01343
  18 4   H  1S          0.00641   0.00641   0.00641  -0.00000  -0.00083
  19        2S          0.02647   0.02647   0.02647  -0.00083  -0.01343
  20 5   H  1S          0.00641   0.00641   0.00641  -0.00000  -0.00083
  21        2S          0.02647   0.02647   0.02647  -0.00083  -0.01343
                          16        17        18        19        20
  16 3   H  1S          0.15233
  17        2S          0.18436   0.54575
  18 4   H  1S         -0.00000  -0.00083   0.15233
  19        2S         -0.00083  -0.01343   0.18436   0.54575
  20 5   H  1S         -0.00000  -0.00083  -0.00000  -0.00083   0.15233
  21        2S         -0.00083  -0.01343  -0.00083  -0.01343   0.18436
                          21
  21        2S          0.54575
     Gross orbital populations:
                           1
   1 1   Al 1S          1.99881
   2        2S          1.98003
   3        2PX         1.96233
   4        2PY         1.96233
   5        2PZ         1.96233
   6        3S          0.52193
   7        3PX         0.37306
   8        3PY         0.37306
   9        3PZ         0.37306
  10        4S          0.43208
  11        4PX         0.19832
  12        4PY         0.19832
  13        4PZ         0.19832
  14 2   H  1S          0.41475
  15        2S          0.95175
  16 3   H  1S          0.41475
  17        2S          0.95175
  18 4   H  1S          0.41475
  19        2S          0.95175
  20 5   H  1S          0.41475
  21        2S          0.95175
          Condensed to atoms (all electrons):
               1          2          3          4          5
     1  Al  11.153926   0.345017   0.345017   0.345017   0.345017
     2  H    0.345017   1.066789  -0.015101  -0.015101  -0.015101
     3  H    0.345017  -0.015101   1.066789  -0.015101  -0.015101
     4  H    0.345017  -0.015101  -0.015101   1.066789  -0.015101
     5  H    0.345017  -0.015101  -0.015101  -0.015101   1.066789
 Mulliken charges:
               1
     1  Al   0.466007
     2  H   -0.366502
     3  H   -0.366502
     4  H   -0.366502
     5  H   -0.366502
 Sum of Mulliken charges =  -1.00000
 Mulliken charges with hydrogens summed into heavy atoms:
               1
     1  Al  -1.000000
 Electronic spatial extent (au):  <R**2>=             88.5392
 Charge=             -1.0000 electrons
 Dipole moment (field-independent basis, Debye):
    X=             -0.0000    Y=              0.0000    Z=             -0.0000  Tot=              0.0000
 Quadrupole moment (field-independent basis, Debye-Ang):
   XX=            -24.3098   YY=            -24.3098   ZZ=            -24.3098
   XY=             -0.0000   XZ=             -0.0000   YZ=              0.0000
 Traceless Quadrupole moment (field-independent basis, Debye-Ang):
   XX=              0.0000   YY=             -0.0000   ZZ=              0.0000
   XY=             -0.0000   XZ=             -0.0000   YZ=              0.0000
 Octapole moment (field-independent basis, Debye-Ang**2):
  XXX=             -0.0000  YYY=              0.0000  ZZZ=             -0.0000  XYY=              0.0000
  XXY=              0.0000  XXZ=             -0.0000  XZZ=             -0.0000  YZZ=              0.0000
  YYZ=             -0.0000  XYZ=             -6.2491
 Hexadecapole moment (field-independent basis, Debye-Ang**3):
 XXXX=            -69.6676 YYYY=            -69.6676 ZZZZ=            -69.6676 XXXY=             -0.0000
 XXXZ=              0.0000 YYYX=             -0.0000 YYYZ=              0.0000 ZZZX=              0.0000
 ZZZY=              0.0000 XXYY=            -26.4030 XXZZ=            -26.4030 YYZZ=            -26.4030
 XXYZ=              0.0000 YYXZ=              0.0000 ZZXY=             -0.0000
 N-N= 1.900744273877D+01 E-N=-6.228598060610D+02  KE= 2.429972004208D+02
 Symmetry A    KE= 1.809371239676D+02
 Symmetry B1   KE= 2.068669215106D+01
 Symmetry B2   KE= 2.068669215106D+01
 Symmetry B3   KE= 2.068669215106D+01
 Orbital energies and kinetic energies (alpha):
                                 1                 2
   1         (A1)--O         -57.765786         78.662389
   2         (A1)--O          -4.583462         11.067979
   3         (T2)--O          -2.887179          9.717274
   4         (T2)--O          -2.887179          9.717274
   5         (T2)--O          -2.887179          9.717274
   6         (A1)--O          -0.368916          0.738194
   7         (T2)--O          -0.187018          0.626072
   8         (T2)--O          -0.187018          0.626072
   9         (T2)--O          -0.187018          0.626072
  10         (T2)--V           0.362930          0.309146
  11         (T2)--V           0.362930          0.309146
  12         (T2)--V           0.362930          0.309146
  13         (A1)--V           0.462687          0.519018
  14         (A1)--V           0.605669          1.458501
  15         (T2)--V           0.624413          1.539398
  16         (T2)--V           0.624413          1.539398
  17         (T2)--V           0.624413          1.539398
  18         (T2)--V           1.615327          2.379779
  19         (T2)--V           1.615327          2.379779
  20         (T2)--V           1.615327          2.379779
  21         (A1)--V           1.628691          2.348327
 Total kinetic energy from orbitals= 2.429972004208D+02
 Calling FoFJK, ICntrl=      2127 FMM=F ISym2X=1 I1Cent= 0 IOpClX= 0 NMat=1 NMatS=1 NMatT=0.
 ***** Axes restored to original set *****
 -------------------------------------------------------------------
 Center     Atomic                   Forces (Hartrees/Bohr)
 Number     Number              X              Y              Z
 -------------------------------------------------------------------
      1       13           0.000000000    0.000000000    0.000000000
      2        1           0.030149011   -0.000000001   -0.010659286
      3        1          -0.015074505    0.026109810   -0.010659286
      4        1          -0.015074507   -0.026109810   -0.010659284
      5        1           0.000000000    0.000000001    0.031977856
 -------------------------------------------------------------------
 Cartesian Forces:  Max     0.031977856 RMS     0.016513294

 GradGradGradGradGradGradGradGradGradGradGradGradGradGradGradGradGradGrad
 Berny optimization.
 FormGI is forming the generalized inverse of G from B-inverse, IUseBI=4.
 Internal  Forces:  Max     0.031977856 RMS     0.017092883
 Search for a local minimum.
 Step number   1 out of a maximum of   24
 All quantities printed in internal units (Hartrees-Bohrs-Radians)
 Mixed Optimization -- RFO/linear search
 Second derivative matrix not updated -- first step.
 The second derivative matrix:
                          R1        R2        R3        R4        A1
           R1           0.14842
           R2           0.00000   0.14842
           R3           0.00000   0.00000   0.14842
           R4           0.00000   0.00000   0.00000   0.14842
           A1           0.00000   0.00000   0.00000   0.00000   0.16000
           A2           0.00000   0.00000   0.00000   0.00000   0.00000
           A3           0.00000   0.00000   0.00000   0.00000   0.00000
           A4           0.00000   0.00000   0.00000   0.00000   0.00000
           A5           0.00000   0.00000   0.00000   0.00000   0.00000
           A6           0.00000   0.00000   0.00000   0.00000   0.00000
           D1           0.00000   0.00000   0.00000   0.00000   0.00000
           D2           0.00000   0.00000   0.00000   0.00000   0.00000
           D3           0.00000   0.00000   0.00000   0.00000   0.00000
           D4           0.00000   0.00000   0.00000   0.00000   0.00000
                          A2        A3        A4        A5        A6
           A2           0.16000
           A3           0.00000   0.16000
           A4           0.00000   0.00000   0.16000
           A5           0.00000   0.00000   0.00000   0.16000
           A6           0.00000   0.00000   0.00000   0.00000   0.16000
           D1           0.00000   0.00000   0.00000   0.00000   0.00000
           D2           0.00000   0.00000   0.00000   0.00000   0.00000
           D3           0.00000   0.00000   0.00000   0.00000   0.00000
           D4           0.00000   0.00000   0.00000   0.00000   0.00000
                          D1        D2        D3        D4
           D1           0.01163
           D2           0.00000   0.01163
           D3           0.00000   0.00000   0.01163
           D4           0.00000   0.00000   0.00000   0.01163
 ITU=  0
     Eigenvalues ---    0.05728   0.06324   0.09076   0.14842   0.14842
     Eigenvalues ---    0.14842   0.14842   0.16000   0.16000
 RFO step:  Lambda=-2.37562014D-02 EMin= 5.72833084D-02
 Linear search not attempted -- first point.
 Maximum step size (   0.300) exceeded in Quadratic search.
    -- Step size scaled by   0.808
 Iteration  1 RMS(Cart)=  0.08017837 RMS(Int)=  0.00000001
 Iteration  2 RMS(Cart)=  0.00000001 RMS(Int)=  0.00000000
 ClnCor:  largest displacement from symmetrization is 3.71D-14 for atom     4.
 Variable       Old X    -DE/DX   Delta X   Delta X   Delta X     New X
                                 (Linear)    (Quad)   (Total)
    R1        2.92908   0.03198   0.00000   0.15000   0.15000   3.07908
    R2        2.92908   0.03198   0.00000   0.15000   0.15000   3.07908
    R3        2.92908   0.03198   0.00000   0.15000   0.15000   3.07908
    R4        2.92908   0.03198   0.00000   0.15000   0.15000   3.07908
    A1        1.91063  -0.00000   0.00000  -0.00000  -0.00000   1.91063
    A2        1.91063   0.00000   0.00000   0.00000   0.00000   1.91063
    A3        1.91063   0.00000   0.00000   0.00000   0.00000   1.91063
    A4        1.91063   0.00000   0.00000   0.00000  -0.00000   1.91063
    A5        1.91063   0.00000   0.00000   0.00000   0.00000   1.91063
    A6        1.91063  -0.00000   0.00000  -0.00000  -0.00000   1.91063
    D1       -2.09440   0.00000   0.00000   0.00000   0.00000  -2.09440
    D2        2.09440  -0.00000   0.00000  -0.00000   0.00000   2.09440
    D3       -2.09440   0.00000   0.00000  -0.00000   0.00000  -2.09440
    D4        2.09440   0.00000   0.00000   0.00000   0.00000   2.09440
         Item               Value     Threshold  Converged?
 Maximum Force            0.031978     0.000450     NO 
 RMS     Force            0.017093     0.000300     NO 
 Maximum Displacement     0.150000     0.001800     NO 
 RMS     Displacement     0.080178     0.001200     NO 
 Predicted change in Energy=-1.250766D-02
 GradGradGradGradGradGradGradGradGradGradGradGradGradGradGradGradGradGrad

                          Input orientation:                          
 ---------------------------------------------------------------------
 Center     Atomic      Atomic             Coordinates (Angstroms)
 Number     Number       Type             X           Y           Z
 ---------------------------------------------------------------------
      1         13           0        0.070082    2.630338   -0.000000
      2          1           0        1.606273    2.630338   -0.543126
      3          1           0       -0.698013    3.960718   -0.543126
      4          1           0       -0.698014    1.299958   -0.543125
      5          1           0        0.070082    2.630338    1.629377
 ---------------------------------------------------------------------
                    Distance matrix (angstroms):
                    1          2          3          4          5
     1  Al   0.000000
     2  H    1.629377   0.000000
     3  H    1.629377   2.660761   0.000000
     4  H    1.629377   2.660761   2.660761   0.000000
     5  H    1.629377   2.660761   2.660761   2.660761   0.000000
 Stoichiometry    AlH4(1-)
 Framework group  TD[O(Al),4C3(H)]
 Deg. of freedom     1
 Full point group                 TD      NOp  24
 Largest Abelian subgroup         D2      NOp   4
 Largest concise Abelian subgroup D2      NOp   4
                         Standard orientation:                         
 ---------------------------------------------------------------------
 Center     Atomic      Atomic             Coordinates (Angstroms)
 Number     Number       Type             X           Y           Z
 ---------------------------------------------------------------------
      1         13           0        0.000000    0.000000    0.000000
      2          1           0        0.940721    0.940721    0.940721
      3          1           0       -0.940721    0.940721   -0.940721
      4          1           0        0.940721   -0.940721   -0.940721
      5          1           0       -0.940721   -0.940721    0.940721
 ---------------------------------------------------------------------
 Rotational constants (GHZ):          70.8305127          70.8305127          70.8305127
 Standard basis: 3-21G (6D, 7F)
 There are     6 symmetry adapted cartesian basis functions of A   symmetry.
 There are     5 symmetry adapted cartesian basis functions of B1  symmetry.
 There are     5 symmetry adapted cartesian basis functions of B2  symmetry.
 There are     5 symmetry adapted cartesian basis functions of B3  symmetry.
 There are     6 symmetry adapted basis functions of A   symmetry.
 There are     5 symmetry adapted basis functions of B1  symmetry.
 There are     5 symmetry adapted basis functions of B2  symmetry.
 There are     5 symmetry adapted basis functions of B3  symmetry.
    21 basis functions,    39 primitive gaussians,    21 cartesian basis functions
     9 alpha electrons        9 beta electrons
       nuclear repulsion energy        18.0814776489 Hartrees.
 NAtoms=    5 NActive=    5 NUniq=    2 SFac= 4.00D+00 NAtFMM=   60 NAOKFM=F Big=F
 Integral buffers will be    131072 words long.
 Raffenetti 1 integral format.
 Two-electron integral symmetry is turned on.
 One-electron integrals computed using PRISM.
 NBasis=    21 RedAO= T EigKep=  5.21D-02  NBF=     6     5     5     5
 NBsUse=    21 1.00D-06 EigRej= -1.00D+00 NBFU=     6     5     5     5
 Initial guess from the checkpoint file:  "AlH4_ion_opt.chk"
 B after Tr=     0.000000   -0.000000   -0.000000
         Rot=    0.500000    0.500000    0.500000    0.500000 Ang= 120.00 deg.
 Initial guess orbital symmetries:
       Occupied  (A1) (A1) (T2) (T2) (T2) (A1) (T2) (T2) (T2)
       Virtual   (T2) (T2) (T2) (A1) (A1) (T2) (T2) (T2) (T2) (T2)
                 (T2) (A1)
 ExpMin= 6.39D-02 ExpMax= 7.76D+02 ExpMxC= 7.76D+02 IAcc=3 IRadAn=         5 AccDes= 0.00D+00
 Harris functional with IExCor=  205 and IRadAn=       5 diagonalized for initial guess.
 HarFok:  IExCor=  205 AccDes= 0.00D+00 IRadAn=         5 IDoV= 1 UseB2=F ITyADJ=14
 ICtDFT=  3500011 ScaDFX=  1.000000  1.000000  1.000000  1.000000
 FoFCou: FMM=F IPFlag=           0 FMFlag=      100000 FMFlg1=           0
         NFxFlg=           0 DoJE=T BraDBF=F KetDBF=T FulRan=T
         wScrn=  0.000000 ICntrl=       500 IOpCl=  0 I1Cent=   200000004 NGrid=           0
         NMat0=    1 NMatS0=      1 NMatT0=    0 NMatD0=    1 NMtDS0=    0 NMtDT0=    0
 Petite list used in FoFCou.
 Keep R1 ints in memory in symmetry-blocked form, NReq=833749.
 Requested convergence on RMS density matrix=1.00D-08 within 128 cycles.
 Requested convergence on MAX density matrix=1.00D-06.
 Requested convergence on             energy=1.00D-06.
 No special actions if energy rises.
 SCF Done:  E(RHF) =  -242.876389730     A.U. after    9 cycles
            NFock=  9  Conv=0.17D-08     -V/T= 2.0005
 Calling FoFJK, ICntrl=      2127 FMM=F ISym2X=1 I1Cent= 0 IOpClX= 0 NMat=1 NMatS=1 NMatT=0.
 ***** Axes restored to original set *****
 -------------------------------------------------------------------
 Center     Atomic                   Forces (Hartrees/Bohr)
 Number     Number              X              Y              Z
 -------------------------------------------------------------------
      1       13          -0.000000000   -0.000000000    0.000000000
      2        1           0.007870992   -0.000000000   -0.002782816
      3        1          -0.003935496    0.006816479   -0.002782816
      4        1          -0.003935496   -0.006816479   -0.002782816
      5        1           0.000000000    0.000000000    0.008348448
 -------------------------------------------------------------------
 Cartesian Forces:  Max     0.008348448 RMS     0.004311120

 GradGradGradGradGradGradGradGradGradGradGradGradGradGradGradGradGradGrad
 Berny optimization.
 Using GEDIIS/GDIIS optimizer.
 FormGI is forming the generalized inverse of G from B-inverse, IUseBI=4.
 Internal  Forces:  Max     0.008348448 RMS     0.004462433
 Search for a local minimum.
 Step number   2 out of a maximum of   24
 All quantities printed in internal units (Hartrees-Bohrs-Radians)
 Mixed Optimization -- RFO/linear search
 Update second derivatives using D2CorX and points    1    2
 DE= -1.18D-02 DEPred=-1.25D-02 R= 9.41D-01
 TightC=F SS=  1.41D+00  RLast= 3.00D-01 DXNew= 5.0454D-01 9.0000D-01
 Trust test= 9.41D-01 RLast= 3.00D-01 DXMaxT set to 5.05D-01
 The second derivative matrix:
                          R1        R2        R3        R4        A1
           R1           0.15070
           R2           0.00228   0.15070
           R3           0.00228   0.00228   0.15070
           R4           0.00228   0.00228   0.00228   0.15070
           A1          -0.00000  -0.00000  -0.00000  -0.00000   0.16000
           A2           0.00000   0.00000   0.00000   0.00000  -0.00000
           A3           0.00000   0.00000   0.00000   0.00000  -0.00000
           A4           0.00000   0.00000   0.00000   0.00000  -0.00000
           A5           0.00000   0.00000   0.00000   0.00000  -0.00000
           A6          -0.00000  -0.00000  -0.00000  -0.00000   0.00000
           D1           0.00000   0.00000   0.00000   0.00000  -0.00000
           D2           0.00000   0.00000   0.00000   0.00000  -0.00000
           D3          -0.00000  -0.00000  -0.00000  -0.00000   0.00000
           D4          -0.00000  -0.00000  -0.00000  -0.00000   0.00000
                          A2        A3        A4        A5        A6
           A2           0.16000
           A3           0.00000   0.16000
           A4           0.00000   0.00000   0.16000
           A5           0.00000   0.00000   0.00000   0.16000
           A6          -0.00000  -0.00000  -0.00000  -0.00000   0.16000
           D1           0.00000   0.00000   0.00000   0.00000  -0.00000
           D2           0.00000   0.00000   0.00000   0.00000  -0.00000
           D3          -0.00000  -0.00000  -0.00000  -0.00000   0.00000
           D4          -0.00000  -0.00000  -0.00000  -0.00000   0.00000
                          D1        D2        D3        D4
           D1           0.01163
           D2           0.00000   0.01163
           D3          -0.00000  -0.00000   0.01163
           D4          -0.00000  -0.00000   0.00000   0.01163
 ITU=  1  0
 Use linear search instead of GDIIS.
     Eigenvalues ---    0.05728   0.06324   0.09076   0.14842   0.14842
     Eigenvalues ---    0.14842   0.15753   0.16000   0.16000
 RFO step:  Lambda= 0.00000000D+00 EMin= 5.72833084D-02
 Quartic linear search produced a step of  0.43516.
 Iteration  1 RMS(Cart)=  0.03489009 RMS(Int)=  0.00000000
 Iteration  2 RMS(Cart)=  0.00000000 RMS(Int)=  0.00000000
 ClnCor:  largest displacement from symmetrization is 3.72D-14 for atom     5.
 Variable       Old X    -DE/DX   Delta X   Delta X   Delta X     New X
                                 (Linear)    (Quad)   (Total)
    R1        3.07908   0.00835   0.06527   0.00000   0.06527   3.14435
    R2        3.07908   0.00835   0.06527   0.00000   0.06527   3.14435
    R3        3.07908   0.00835   0.06527  -0.00000   0.06527   3.14435
    R4        3.07908   0.00835   0.06527   0.00000   0.06527   3.14435
    A1        1.91063  -0.00000  -0.00000  -0.00000  -0.00000   1.91063
    A2        1.91063  -0.00000   0.00000  -0.00000   0.00000   1.91063
    A3        1.91063   0.00000   0.00000  -0.00000  -0.00000   1.91063
    A4        1.91063   0.00000   0.00000   0.00000   0.00000   1.91063
    A5        1.91063  -0.00000   0.00000  -0.00000  -0.00000   1.91063
    A6        1.91063   0.00000  -0.00000   0.00000   0.00000   1.91063
    D1       -2.09440   0.00000   0.00000   0.00000   0.00000  -2.09440
    D2        2.09440  -0.00000  -0.00000  -0.00000   0.00000   2.09440
    D3       -2.09440   0.00000  -0.00000   0.00000  -0.00000  -2.09440
    D4        2.09440   0.00000   0.00000   0.00000   0.00000   2.09440
         Item               Value     Threshold  Converged?
 Maximum Force            0.008348     0.000450     NO 
 RMS     Force            0.004462     0.000300     NO 
 Maximum Displacement     0.065273     0.001800     NO 
 RMS     Displacement     0.034890     0.001200     NO 
 Predicted change in Energy=-8.373819D-04
 GradGradGradGradGradGradGradGradGradGradGradGradGradGradGradGradGradGrad

                          Input orientation:                          
 ---------------------------------------------------------------------
 Center     Atomic      Atomic             Coordinates (Angstroms)
 Number     Number       Type             X           Y           Z
 ---------------------------------------------------------------------
      1         13           0        0.070082    2.630338   -0.000000
      2          1           0        1.638839    2.630338   -0.554639
      3          1           0       -0.714296    3.988921   -0.554639
      4          1           0       -0.714296    1.271755   -0.554639
      5          1           0        0.070082    2.630338    1.663918
 ---------------------------------------------------------------------
                    Distance matrix (angstroms):
                    1          2          3          4          5
     1  Al   0.000000
     2  H    1.663918   0.000000
     3  H    1.663918   2.717166   0.000000
     4  H    1.663918   2.717166   2.717166   0.000000
     5  H    1.663918   2.717166   2.717166   2.717166   0.000000
 Stoichiometry    AlH4(1-)
 Framework group  TD[O(Al),4C3(H)]
 Deg. of freedom     1
 Full point group                 TD      NOp  24
 Largest Abelian subgroup         D2      NOp   4
 Largest concise Abelian subgroup D2      NOp   4
                         Standard orientation:                         
 ---------------------------------------------------------------------
 Center     Atomic      Atomic             Coordinates (Angstroms)
 Number     Number       Type             X           Y           Z
 ---------------------------------------------------------------------
      1         13           0        0.000000    0.000000    0.000000
      2          1           0        0.960663    0.960663    0.960663
      3          1           0       -0.960663    0.960663   -0.960663
      4          1           0        0.960663   -0.960663   -0.960663
      5          1           0       -0.960663   -0.960663    0.960663
 ---------------------------------------------------------------------
 Rotational constants (GHZ):          67.9203020          67.9203020          67.9203020
 Standard basis: 3-21G (6D, 7F)
 There are     6 symmetry adapted cartesian basis functions of A   symmetry.
 There are     5 symmetry adapted cartesian basis functions of B1  symmetry.
 There are     5 symmetry adapted cartesian basis functions of B2  symmetry.
 There are     5 symmetry adapted cartesian basis functions of B3  symmetry.
 There are     6 symmetry adapted basis functions of A   symmetry.
 There are     5 symmetry adapted basis functions of B1  symmetry.
 There are     5 symmetry adapted basis functions of B2  symmetry.
 There are     5 symmetry adapted basis functions of B3  symmetry.
    21 basis functions,    39 primitive gaussians,    21 cartesian basis functions
     9 alpha electrons        9 beta electrons
       nuclear repulsion energy        17.7061251823 Hartrees.
 NAtoms=    5 NActive=    5 NUniq=    2 SFac= 4.00D+00 NAtFMM=   60 NAOKFM=F Big=F
 Integral buffers will be    131072 words long.
 Raffenetti 1 integral format.
 Two-electron integral symmetry is turned on.
 One-electron integrals computed using PRISM.
 NBasis=    21 RedAO= T EigKep=  5.36D-02  NBF=     6     5     5     5
 NBsUse=    21 1.00D-06 EigRej= -1.00D+00 NBFU=     6     5     5     5
 Initial guess from the checkpoint file:  "AlH4_ion_opt.chk"
 B after Tr=     0.000000    0.000000    0.000000
         Rot=    1.000000   -0.000000    0.000000    0.000000 Ang=   0.00 deg.
 Initial guess orbital symmetries:
       Occupied  (A1) (A1) (T2) (T2) (T2) (A1) (T2) (T2) (T2)
       Virtual   (T2) (T2) (T2) (A1) (A1) (T2) (T2) (T2) (T2) (T2)
                 (T2) (A1)
 ExpMin= 6.39D-02 ExpMax= 7.76D+02 ExpMxC= 7.76D+02 IAcc=3 IRadAn=         5 AccDes= 0.00D+00
 Harris functional with IExCor=  205 and IRadAn=       5 diagonalized for initial guess.
 HarFok:  IExCor=  205 AccDes= 0.00D+00 IRadAn=         5 IDoV= 1 UseB2=F ITyADJ=14
 ICtDFT=  3500011 ScaDFX=  1.000000  1.000000  1.000000  1.000000
 FoFCou: FMM=F IPFlag=           0 FMFlag=      100000 FMFlg1=           0
         NFxFlg=           0 DoJE=T BraDBF=F KetDBF=T FulRan=T
         wScrn=  0.000000 ICntrl=       500 IOpCl=  0 I1Cent=   200000004 NGrid=           0
         NMat0=    1 NMatS0=      1 NMatT0=    0 NMatD0=    1 NMtDS0=    0 NMtDT0=    0
 Petite list used in FoFCou.
 Keep R1 ints in memory in symmetry-blocked form, NReq=833749.
 Requested convergence on RMS density matrix=1.00D-08 within 128 cycles.
 Requested convergence on MAX density matrix=1.00D-06.
 Requested convergence on             energy=1.00D-06.
 No special actions if energy rises.
 SCF Done:  E(RHF) =  -242.877449258     A.U. after    7 cycles
            NFock=  7  Conv=0.44D-08     -V/T= 2.0009
 Calling FoFJK, ICntrl=      2127 FMM=F ISym2X=1 I1Cent= 0 IOpClX= 0 NMat=1 NMatS=1 NMatT=0.
 ***** Axes restored to original set *****
 -------------------------------------------------------------------
 Center     Atomic                   Forces (Hartrees/Bohr)
 Number     Number              X              Y              Z
 -------------------------------------------------------------------
      1       13          -0.000000000   -0.000000000    0.000000000
      2        1          -0.000058134    0.000000000    0.000020553
      3        1           0.000029067   -0.000050346    0.000020553
      4        1           0.000029067    0.000050346    0.000020553
      5        1          -0.000000000   -0.000000000   -0.000061660
 -------------------------------------------------------------------
 Cartesian Forces:  Max     0.000061660 RMS     0.000031841

 GradGradGradGradGradGradGradGradGradGradGradGradGradGradGradGradGradGrad
 Berny optimization.
 Using GEDIIS/GDIIS optimizer.
 FormGI is forming the generalized inverse of G from B-inverse, IUseBI=4.
 Internal  Forces:  Max     0.000061660 RMS     0.000032959
 Search for a local minimum.
 Step number   3 out of a maximum of   24
 All quantities printed in internal units (Hartrees-Bohrs-Radians)
 Mixed Optimization -- En-DIIS/RFO-DIIS
 Update second derivatives using D2CorX and points    1    2    3
 DE= -1.06D-03 DEPred=-8.37D-04 R= 1.27D+00
 TightC=F SS=  1.41D+00  RLast= 1.31D-01 DXNew= 8.4853D-01 3.9164D-01
 Trust test= 1.27D+00 RLast= 1.31D-01 DXMaxT set to 5.05D-01
 The second derivative matrix:
                          R1        R2        R3        R4        A1
           R1           0.14353
           R2          -0.00489   0.14353
           R3          -0.00489  -0.00489   0.14353
           R4          -0.00489  -0.00489  -0.00489   0.14353
           A1          -0.00000  -0.00000  -0.00000  -0.00000   0.16000
           A2          -0.00000  -0.00000  -0.00000  -0.00000   0.00000
           A3          -0.00000  -0.00000  -0.00000  -0.00000   0.00000
           A4           0.00000   0.00000   0.00000   0.00000  -0.00000
           A5           0.00000   0.00000   0.00000   0.00000  -0.00000
           A6           0.00000   0.00000   0.00000   0.00000   0.00000
           D1           0.00000   0.00000   0.00000   0.00000  -0.00000
           D2          -0.00000  -0.00000  -0.00000  -0.00000   0.00000
           D3           0.00000   0.00000   0.00000   0.00000  -0.00000
           D4           0.00000   0.00000   0.00000   0.00000  -0.00000
                          A2        A3        A4        A5        A6
           A2           0.16000
           A3           0.00000   0.16000
           A4          -0.00000  -0.00000   0.16000
           A5           0.00000   0.00000   0.00000   0.16000
           A6          -0.00000  -0.00000   0.00000  -0.00000   0.16000
           D1          -0.00000  -0.00000   0.00000   0.00000  -0.00000
           D2           0.00000   0.00000  -0.00000  -0.00000  -0.00000
           D3          -0.00000  -0.00000   0.00000   0.00000   0.00000
           D4          -0.00000  -0.00000   0.00000   0.00000   0.00000
                          D1        D2        D3        D4
           D1           0.01163
           D2          -0.00000   0.01163
           D3           0.00000  -0.00000   0.01163
           D4           0.00000  -0.00000   0.00000   0.01163
 ITU=  1  1  0
 Use linear search instead of GDIIS.
     Eigenvalues ---    0.05728   0.06324   0.09076   0.12884   0.14842
     Eigenvalues ---    0.14842   0.14842   0.16000   0.16000
 RFO step:  Lambda= 0.00000000D+00 EMin= 5.72833084D-02
 Quartic linear search produced a step of -0.00780.
 Iteration  1 RMS(Cart)=  0.00027208 RMS(Int)=  0.00000000
 Iteration  2 RMS(Cart)=  0.00000000 RMS(Int)=  0.00000000
 ClnCor:  largest displacement from symmetrization is 2.40D-14 for atom     4.
 Variable       Old X    -DE/DX   Delta X   Delta X   Delta X     New X
                                 (Linear)    (Quad)   (Total)
    R1        3.14435  -0.00006  -0.00051   0.00000  -0.00051   3.14384
    R2        3.14435  -0.00006  -0.00051  -0.00000  -0.00051   3.14384
    R3        3.14435  -0.00006  -0.00051  -0.00000  -0.00051   3.14384
    R4        3.14435  -0.00006  -0.00051  -0.00000  -0.00051   3.14384
    A1        1.91063   0.00000   0.00000  -0.00000  -0.00000   1.91063
    A2        1.91063  -0.00000   0.00000   0.00000   0.00000   1.91063
    A3        1.91063   0.00000  -0.00000   0.00000  -0.00000   1.91063
    A4        1.91063  -0.00000  -0.00000  -0.00000  -0.00000   1.91063
    A5        1.91063  -0.00000   0.00000  -0.00000   0.00000   1.91063
    A6        1.91063   0.00000   0.00000   0.00000   0.00000   1.91063
    D1       -2.09440   0.00000   0.00000   0.00000   0.00000  -2.09440
    D2        2.09440   0.00000   0.00000  -0.00000   0.00000   2.09440
    D3       -2.09440  -0.00000   0.00000  -0.00000   0.00000  -2.09440
    D4        2.09440  -0.00000  -0.00000  -0.00000   0.00000   2.09440
         Item               Value     Threshold  Converged?
 Maximum Force            0.000062     0.000450     YES
 RMS     Force            0.000033     0.000300     YES
 Maximum Displacement     0.000509     0.001800     YES
 RMS     Displacement     0.000272     0.001200     YES
 Predicted change in Energy=-5.877825D-08
 Optimization completed.
    -- Stationary point found.
                           ----------------------------
                           !   Optimized Parameters   !
                           ! (Angstroms and Degrees)  !
 --------------------------                            --------------------------
 ! Name  Definition              Value          Derivative Info.                !
 --------------------------------------------------------------------------------
 ! R1    R(1,2)                  1.6639         -DE/DX =   -0.0001              !
 ! R2    R(1,3)                  1.6639         -DE/DX =   -0.0001              !
 ! R3    R(1,4)                  1.6639         -DE/DX =   -0.0001              !
 ! R4    R(1,5)                  1.6639         -DE/DX =   -0.0001              !
 ! A1    A(2,1,3)              109.4712         -DE/DX =    0.0                 !
 ! A2    A(2,1,4)              109.4712         -DE/DX =    0.0                 !
 ! A3    A(2,1,5)              109.4712         -DE/DX =    0.0                 !
 ! A4    A(3,1,4)              109.4712         -DE/DX =    0.0                 !
 ! A5    A(3,1,5)              109.4712         -DE/DX =    0.0                 !
 ! A6    A(4,1,5)              109.4712         -DE/DX =    0.0                 !
 ! D1    D(2,1,4,3)           -120.0            -DE/DX =    0.0                 !
 ! D2    D(2,1,5,3)            120.0            -DE/DX =    0.0                 !
 ! D3    D(2,1,5,4)           -120.0            -DE/DX =    0.0                 !
 ! D4    D(3,1,5,4)            120.0            -DE/DX =    0.0                 !
 --------------------------------------------------------------------------------
 GradGradGradGradGradGradGradGradGradGradGradGradGradGradGradGradGradGrad

                          Input orientation:                          
 ---------------------------------------------------------------------
 Center     Atomic      Atomic             Coordinates (Angstroms)
 Number     Number       Type             X           Y           Z
 ---------------------------------------------------------------------
      1         13           0        0.070082    2.630338   -0.000000
      2          1           0        1.638839    2.630338   -0.554639
      3          1           0       -0.714296    3.988921   -0.554639
      4          1           0       -0.714296    1.271755   -0.554639
      5          1           0        0.070082    2.630338    1.663918
 ---------------------------------------------------------------------
                    Distance matrix (angstroms):
                    1          2          3          4          5
     1  Al   0.000000
     2  H    1.663918   0.000000
     3  H    1.663918   2.717166   0.000000
     4  H    1.663918   2.717166   2.717166   0.000000
     5  H    1.663918   2.717166   2.717166   2.717166   0.000000
 Stoichiometry    AlH4(1-)
 Framework group  TD[O(Al),4C3(H)]
 Deg. of freedom     1
 Full point group                 TD      NOp  24
 Largest Abelian subgroup         D2      NOp   4
 Largest concise Abelian subgroup D2      NOp   4
                         Standard orientation:                         
 ---------------------------------------------------------------------
 Center     Atomic      Atomic             Coordinates (Angstroms)
 Number     Number       Type             X           Y           Z
 ---------------------------------------------------------------------
      1         13           0        0.000000    0.000000    0.000000
      2          1           0        0.960663    0.960663    0.960663
      3          1           0       -0.960663    0.960663   -0.960663
      4          1           0        0.960663   -0.960663   -0.960663
      5          1           0       -0.960663   -0.960663    0.960663
 ---------------------------------------------------------------------
 Rotational constants (GHZ):          67.9203020          67.9203020          67.9203020

 **********************************************************************

            Population analysis using the SCF Density.

 **********************************************************************

 Orbital symmetries:
       Occupied  (A1) (A1) (T2) (T2) (T2) (A1) (T2) (T2) (T2)
       Virtual   (T2) (T2) (T2) (A1) (A1) (T2) (T2) (T2) (T2) (T2)
                 (T2) (A1)
 The electronic state is 1-A1.
 Alpha  occ. eigenvalues --  -57.80327  -4.61271  -2.91684  -2.91684  -2.91684
 Alpha  occ. eigenvalues --   -0.35555  -0.18615  -0.18615  -0.18615
 Alpha virt. eigenvalues --    0.35703   0.35703   0.35703   0.48089   0.53274
 Alpha virt. eigenvalues --    0.60454   0.60454   0.60454   1.58795   1.58795
 Alpha virt. eigenvalues --    1.58795   1.63051
     Molecular Orbital Coefficients:
                           1         2         3         4         5
                        (A1)--O   (A1)--O   (T2)--O   (T2)--O   (T2)--O
     Eigenvalues --   -57.80327  -4.61271  -2.91684  -2.91684  -2.91684
   1 1   Al 1S          0.98854  -0.28420   0.00000   0.00000   0.00000
   2        2S          0.04415   1.01084   0.00000   0.00000   0.00000
   3        2PX         0.00000   0.00000   0.00000   0.97858   0.00000
   4        2PY         0.00000   0.00000   0.00000   0.00000   0.97858
   5        2PZ         0.00000   0.00000   0.97858   0.00000   0.00000
   6        3S         -0.01074   0.08866   0.00000   0.00000   0.00000
   7        3PX         0.00000   0.00000   0.00000   0.08666   0.00000
   8        3PY         0.00000   0.00000   0.00000   0.00000   0.08666
   9        3PZ         0.00000   0.00000   0.08666   0.00000   0.00000
  10        4S          0.00188  -0.02830   0.00000   0.00000   0.00000
  11        4PX         0.00000   0.00000   0.00000  -0.02660   0.00000
  12        4PY         0.00000   0.00000   0.00000   0.00000  -0.02660
  13        4PZ         0.00000   0.00000  -0.02660   0.00000   0.00000
  14 2   H  1S          0.00048  -0.00248  -0.00306  -0.00306  -0.00306
  15        2S          0.00101  -0.00191  -0.00121  -0.00121  -0.00121
  16 3   H  1S          0.00048  -0.00248   0.00306   0.00306  -0.00306
  17        2S          0.00101  -0.00191   0.00121   0.00121  -0.00121
  18 4   H  1S          0.00048  -0.00248   0.00306  -0.00306   0.00306
  19        2S          0.00101  -0.00191   0.00121  -0.00121   0.00121
  20 5   H  1S          0.00048  -0.00248  -0.00306   0.00306   0.00306
  21        2S          0.00101  -0.00191  -0.00121   0.00121   0.00121
                           6         7         8         9        10
                        (A1)--O   (T2)--O   (T2)--O   (T2)--O   (T2)--V
     Eigenvalues --    -0.35555  -0.18615  -0.18615  -0.18615   0.35703
   1 1   Al 1S          0.04679   0.00000   0.00000   0.00000   0.00000
   2        2S         -0.23935   0.00000   0.00000   0.00000   0.00000
   3        2PX         0.00000   0.00000   0.00000  -0.12884  -0.01788
   4        2PY         0.00000  -0.12884   0.00000   0.00000   0.00000
   5        2PZ         0.00000   0.00000  -0.12884   0.00000   0.00000
   6        3S          0.28261   0.00000   0.00000   0.00000   0.00000
   7        3PX         0.00000   0.00000   0.00000   0.21188  -0.04035
   8        3PY         0.00000   0.21188   0.00000   0.00000   0.00000
   9        3PZ         0.00000   0.00000   0.21188   0.00000   0.00000
  10        4S          0.27856   0.00000   0.00000   0.00000   0.00000
  11        4PX         0.00000   0.00000   0.00000   0.14259   1.44799
  12        4PY         0.00000   0.14259   0.00000   0.00000   0.00000
  13        4PZ         0.00000   0.00000   0.14259   0.00000   0.00000
  14 2   H  1S          0.11675   0.13638   0.13638   0.13638  -0.04341
  15        2S          0.16882   0.28849   0.28849   0.28849  -0.55720
  16 3   H  1S          0.11675   0.13638  -0.13638  -0.13638   0.04341
  17        2S          0.16882   0.28849  -0.28849  -0.28849   0.55720
  18 4   H  1S          0.11675  -0.13638  -0.13638   0.13638  -0.04341
  19        2S          0.16882  -0.28849  -0.28849   0.28849  -0.55720
  20 5   H  1S          0.11675  -0.13638   0.13638  -0.13638   0.04341
  21        2S          0.16882  -0.28849   0.28849  -0.28849   0.55720
                          11        12        13        14        15
                        (T2)--V   (T2)--V   (A1)--V   (A1)--V   (T2)--V
     Eigenvalues --     0.35703   0.35703   0.48089   0.53274   0.60454
   1 1   Al 1S          0.00000   0.00000  -0.02782   0.06598   0.00000
   2        2S          0.00000   0.00000  -0.02174  -0.26536   0.00000
   3        2PX         0.00000   0.00000   0.00000   0.00000   0.00000
   4        2PY         0.00000  -0.01788   0.00000   0.00000   0.00000
   5        2PZ        -0.01788   0.00000   0.00000   0.00000  -0.32778
   6        3S          0.00000   0.00000  -1.32655   1.17250   0.00000
   7        3PX         0.00000   0.00000   0.00000   0.00000   0.00000
   8        3PY         0.00000  -0.04035   0.00000   0.00000   0.00000
   9        3PZ        -0.04035   0.00000   0.00000   0.00000   1.41957
  10        4S          0.00000   0.00000   2.73355   0.61630   0.00000
  11        4PX         0.00000   0.00000   0.00000   0.00000   0.00000
  12        4PY         0.00000   1.44799   0.00000   0.00000   0.00000
  13        4PZ         1.44799   0.00000   0.00000   0.00000  -0.60867
  14 2   H  1S         -0.04341  -0.04341  -0.05389  -0.07275   0.00838
  15        2S         -0.55720  -0.55720  -0.61929  -0.66052  -0.30819
  16 3   H  1S          0.04341  -0.04341  -0.05389  -0.07275  -0.00838
  17        2S          0.55720  -0.55720  -0.61929  -0.66052   0.30819
  18 4   H  1S          0.04341   0.04341  -0.05389  -0.07275  -0.00838
  19        2S          0.55720   0.55720  -0.61929  -0.66052   0.30819
  20 5   H  1S         -0.04341   0.04341  -0.05389  -0.07275   0.00838
  21        2S         -0.55720   0.55720  -0.61929  -0.66052  -0.30819
                          16        17        18        19        20
                        (T2)--V   (T2)--V   (T2)--V   (T2)--V   (T2)--V
     Eigenvalues --     0.60454   0.60454   1.58795   1.58795   1.58795
   1 1   Al 1S          0.00000   0.00000   0.00000   0.00000   0.00000
   2        2S          0.00000   0.00000   0.00000   0.00000   0.00000
   3        2PX         0.00000  -0.32778  -0.07853   0.00000   0.00000
   4        2PY        -0.32778   0.00000   0.00000   0.00000  -0.07853
   5        2PZ         0.00000   0.00000   0.00000  -0.07853   0.00000
   6        3S          0.00000   0.00000   0.00000   0.00000   0.00000
   7        3PX         0.00000   1.41957   0.09143   0.00000   0.00000
   8        3PY         1.41957   0.00000   0.00000   0.00000   0.09143
   9        3PZ         0.00000   0.00000   0.00000   0.09143   0.00000
  10        4S          0.00000   0.00000   0.00000   0.00000   0.00000
  11        4PX         0.00000  -0.60867  -0.55273   0.00000   0.00000
  12        4PY        -0.60867   0.00000   0.00000   0.00000  -0.55273
  13        4PZ         0.00000   0.00000   0.00000  -0.55273   0.00000
  14 2   H  1S          0.00838   0.00838  -0.68679  -0.68679  -0.68679
  15        2S         -0.30819  -0.30819   0.76420   0.76420   0.76420
  16 3   H  1S          0.00838  -0.00838   0.68679   0.68679  -0.68679
  17        2S         -0.30819   0.30819  -0.76420  -0.76420   0.76420
  18 4   H  1S         -0.00838   0.00838  -0.68679   0.68679   0.68679
  19        2S          0.30819  -0.30819   0.76420  -0.76420  -0.76420
  20 5   H  1S         -0.00838  -0.00838   0.68679  -0.68679   0.68679
  21        2S          0.30819   0.30819  -0.76420   0.76420  -0.76420
                          21
                        (A1)--V
     Eigenvalues --     1.63051
   1 1   Al 1S         -0.01051
   2        2S          0.03400
   3        2PX         0.00000
   4        2PY         0.00000
   5        2PZ         0.00000
   6        3S         -0.11078
   7        3PX         0.00000
   8        3PY         0.00000
   9        3PZ         0.00000
  10        4S          1.69904
  11        4PX         0.00000
  12        4PY         0.00000
  13        4PZ         0.00000
  14 2   H  1S          0.70754
  15        2S         -1.11028
  16 3   H  1S          0.70754
  17        2S         -1.11028
  18 4   H  1S          0.70754
  19        2S         -1.11028
  20 5   H  1S          0.70754
  21        2S         -1.11028
     Density Matrix:
                           1         2         3         4         5
   1 1   Al 1S          2.12035
   2        2S         -0.50967   2.16207
   3        2PX         0.00000   0.00000   1.94843
   4        2PY         0.00000   0.00000  -0.00000   1.94843
   5        2PZ         0.00000   0.00000  -0.00000  -0.00000   1.94843
   6        3S         -0.04518   0.04300   0.00000   0.00000   0.00000
   7        3PX         0.00000   0.00000   0.11502  -0.00000  -0.00000
   8        3PY         0.00000   0.00000  -0.00000   0.11502  -0.00000
   9        3PZ         0.00000   0.00000  -0.00000  -0.00000   0.11502
  10        4S          0.04587  -0.19039   0.00000   0.00000   0.00000
  11        4PX         0.00000   0.00000  -0.08881   0.00000   0.00000
  12        4PY         0.00000   0.00000   0.00000  -0.08881   0.00000
  13        4PZ         0.00000   0.00000   0.00000   0.00000  -0.08881
  14 2   H  1S          0.01328  -0.06086  -0.04113  -0.04113  -0.04113
  15        2S          0.01889  -0.08458  -0.07670  -0.07670  -0.07670
  16 3   H  1S          0.01328  -0.06086   0.04113  -0.04113   0.04113
  17        2S          0.01889  -0.08458   0.07670  -0.07670   0.07670
  18 4   H  1S          0.01328  -0.06086  -0.04113   0.04113   0.04113
  19        2S          0.01889  -0.08458  -0.07670   0.07670   0.07670
  20 5   H  1S          0.01328  -0.06086   0.04113   0.04113  -0.04113
  21        2S          0.01889  -0.08458   0.07670   0.07670  -0.07670
                           6         7         8         9        10
   6        3S          0.17569
   7        3PX         0.00000   0.10481
   8        3PY         0.00000  -0.00000   0.10481
   9        3PZ         0.00000  -0.00000  -0.00000   0.10481
  10        4S          0.15239   0.00000   0.00000   0.00000   0.15680
  11        4PX         0.00000   0.05581  -0.00000  -0.00000   0.00000
  12        4PY         0.00000  -0.00000   0.05581  -0.00000   0.00000
  13        4PZ         0.00000  -0.00000  -0.00000   0.05581   0.00000
  14 2   H  1S          0.06554   0.05726   0.05726   0.05726   0.06519
  15        2S          0.09506   0.12204   0.12204   0.12204   0.09417
  16 3   H  1S          0.06554  -0.05726   0.05726  -0.05726   0.06519
  17        2S          0.09506  -0.12204   0.12204  -0.12204   0.09417
  18 4   H  1S          0.06554   0.05726  -0.05726  -0.05726   0.06519
  19        2S          0.09506   0.12204  -0.12204  -0.12204   0.09417
  20 5   H  1S          0.06554  -0.05726  -0.05726   0.05726   0.06519
  21        2S          0.09506  -0.12204  -0.12204   0.12204   0.09417
                          11        12        13        14        15
  11        4PX         0.04208
  12        4PY        -0.00000   0.04208
  13        4PZ        -0.00000  -0.00000   0.04208
  14 2   H  1S          0.03905   0.03905   0.03905   0.13892
  15        2S          0.08234   0.08234   0.08234   0.27551   0.55637
  16 3   H  1S         -0.03905   0.03905  -0.03905  -0.00994  -0.03926
  17        2S         -0.08234   0.08234  -0.08234  -0.03926  -0.10944
  18 4   H  1S          0.03905  -0.03905  -0.03905  -0.00994  -0.03926
  19        2S          0.08234  -0.08234  -0.08234  -0.03926  -0.10944
  20 5   H  1S         -0.03905  -0.03905   0.03905  -0.00994  -0.03926
  21        2S         -0.08234  -0.08234   0.08234  -0.03926  -0.10944
                          16        17        18        19        20
  16 3   H  1S          0.13892
  17        2S          0.27551   0.55637
  18 4   H  1S         -0.00994  -0.03926   0.13892
  19        2S         -0.03926  -0.10944   0.27551   0.55637
  20 5   H  1S         -0.00994  -0.03926  -0.00994  -0.03926   0.13892
  21        2S         -0.03926  -0.10944  -0.03926  -0.10944   0.27551
                          21
  21        2S          0.55637
    Full Mulliken population analysis:
                           1         2         3         4         5
   1 1   Al 1S          2.12035
   2        2S         -0.12284   2.16207
   3        2PX         0.00000   0.00000   1.94843
   4        2PY         0.00000   0.00000   0.00000   1.94843
   5        2PZ         0.00000   0.00000   0.00000   0.00000   1.94843
   6        3S         -0.00055   0.01100   0.00000   0.00000   0.00000
   7        3PX         0.00000   0.00000   0.02780   0.00000   0.00000
   8        3PY         0.00000   0.00000   0.00000   0.02780   0.00000
   9        3PZ         0.00000   0.00000   0.00000   0.00000   0.02780
  10        4S          0.00116  -0.04155   0.00000   0.00000   0.00000
  11        4PX         0.00000   0.00000  -0.00522  -0.00000  -0.00000
  12        4PY         0.00000   0.00000  -0.00000  -0.00522  -0.00000
  13        4PZ         0.00000   0.00000  -0.00000  -0.00000  -0.00522
  14 2   H  1S          0.00000  -0.00019  -0.00013  -0.00013  -0.00013
  15        2S          0.00017  -0.00716  -0.00216  -0.00216  -0.00216
  16 3   H  1S          0.00000  -0.00019  -0.00013  -0.00013  -0.00013
  17        2S          0.00017  -0.00716  -0.00216  -0.00216  -0.00216
  18 4   H  1S          0.00000  -0.00019  -0.00013  -0.00013  -0.00013
  19        2S          0.00017  -0.00716  -0.00216  -0.00216  -0.00216
  20 5   H  1S          0.00000  -0.00019  -0.00013  -0.00013  -0.00013
  21        2S          0.00017  -0.00716  -0.00216  -0.00216  -0.00216
                           6         7         8         9        10
   6        3S          0.17569
   7        3PX         0.00000   0.10481
   8        3PY         0.00000   0.00000   0.10481
   9        3PZ         0.00000   0.00000   0.00000   0.10481
  10        4S          0.12583   0.00000   0.00000   0.00000   0.15680
  11        4PX         0.00000   0.03707   0.00000   0.00000   0.00000
  12        4PY         0.00000   0.00000   0.03707   0.00000   0.00000
  13        4PZ         0.00000   0.00000   0.00000   0.03707   0.00000
  14 2   H  1S          0.01014   0.00991   0.00991   0.00991   0.01273
  15        2S          0.03918   0.03603   0.03603   0.03603   0.04831
  16 3   H  1S          0.01014   0.00991   0.00991   0.00991   0.01273
  17        2S          0.03918   0.03603   0.03603   0.03603   0.04831
  18 4   H  1S          0.01014   0.00991   0.00991   0.00991   0.01273
  19        2S          0.03918   0.03603   0.03603   0.03603   0.04831
  20 5   H  1S          0.01014   0.00991   0.00991   0.00991   0.01273
  21        2S          0.03918   0.03603   0.03603   0.03603   0.04831
                          11        12        13        14        15
  11        4PX         0.04208
  12        4PY         0.00000   0.04208
  13        4PZ         0.00000   0.00000   0.04208
  14 2   H  1S          0.00651   0.00651   0.00651   0.13892
  15        2S          0.02874   0.02874   0.02874   0.17795   0.55637
  16 3   H  1S          0.00651   0.00651   0.00651  -0.00000  -0.00047
  17        2S          0.02874   0.02874   0.02874  -0.00047  -0.00978
  18 4   H  1S          0.00651   0.00651   0.00651  -0.00000  -0.00047
  19        2S          0.02874   0.02874   0.02874  -0.00047  -0.00978
  20 5   H  1S          0.00651   0.00651   0.00651  -0.00000  -0.00047
  21        2S          0.02874   0.02874   0.02874  -0.00047  -0.00978
                          16        17        18        19        20
  16 3   H  1S          0.13892
  17        2S          0.17795   0.55637
  18 4   H  1S         -0.00000  -0.00047   0.13892
  19        2S         -0.00047  -0.00978   0.17795   0.55637
  20 5   H  1S         -0.00000  -0.00047  -0.00000  -0.00047   0.13892
  21        2S         -0.00047  -0.00978  -0.00047  -0.00978   0.17795
                          21
  21        2S          0.55637
     Gross orbital populations:
                           1
   1 1   Al 1S          1.99882
   2        2S          1.97927
   3        2PX         1.96183
   4        2PY         1.96183
   5        2PZ         1.96183
   6        3S          0.50928
   7        3PX         0.35343
   8        3PY         0.35343
   9        3PZ         0.35343
  10        4S          0.48640
  11        4PX         0.21496
  12        4PY         0.21496
  13        4PZ         0.21496
  14 2   H  1S          0.38700
  15        2S          0.97189
  16 3   H  1S          0.38700
  17        2S          0.97189
  18 4   H  1S          0.38700
  19        2S          0.97189
  20 5   H  1S          0.38700
  21        2S          0.97189
          Condensed to atoms (all electrons):
               1          2          3          4          5
     1  Al  11.204837   0.339898   0.339898   0.339898   0.339898
     2  H    0.339898   1.051184  -0.010730  -0.010730  -0.010730
     3  H    0.339898  -0.010730   1.051184  -0.010730  -0.010730
     4  H    0.339898  -0.010730  -0.010730   1.051184  -0.010730
     5  H    0.339898  -0.010730  -0.010730  -0.010730   1.051184
 Mulliken charges:
               1
     1  Al   0.435570
     2  H   -0.358892
     3  H   -0.358892
     4  H   -0.358892
     5  H   -0.358892
 Sum of Mulliken charges =  -1.00000
 Mulliken charges with hydrogens summed into heavy atoms:
               1
     1  Al  -1.000000
 Electronic spatial extent (au):  <R**2>=             96.3344
 Charge=             -1.0000 electrons
 Dipole moment (field-independent basis, Debye):
    X=             -0.0000    Y=             -0.0000    Z=             -0.0000  Tot=              0.0000
 Quadrupole moment (field-independent basis, Debye-Ang):
[...]
 Calling FoFJK, ICntrl=    100127 FMM=F ISym2X=1 I1Cent= 0 IOpClX= 0 NMat=1 NMatS=1 NMatT=0.
 Full mass-weighted force constant matrix:
 Low frequencies ---   -0.0006   -0.0006   -0.0006   22.6758   22.6758   22.6758
 Low frequencies ---  813.4771  813.4771  840.4520
 Diagonal vibrational polarizability:
       28.6492069      28.6492069      28.6492069
 Diagonal vibrational hyperpolarizability:
       -0.0000001      -0.0000001      -0.0000001
 Harmonic frequencies (cm**-1), IR intensities (KM/Mole), Raman scattering
 activities (A**4/AMU), depolarization ratios for plane and unpolarized
 incident light, reduced masses (AMU), force constants (mDyne/A),
 and normal coordinates:
                      1                      2                      3
                      E                      E                     T2
 Frequencies --    813.4771               813.4771               840.4520
 Red. masses --      1.0078                 1.0078                 1.1026
 Frc consts  --      0.3929                 0.3929                 0.4589
 IR Inten    --      0.0000                 0.0000               623.5879
 Raman Activ --     64.2906                64.2906                18.0514
 Depolar (P) --      0.7500                 0.7500                 0.7500
 Depolar (U) --      0.8571                 0.8571                 0.8571
  Atom  AN      X      Y      Z        X      Y      Z        X      Y      Z
     1  13     0.00   0.00  -0.00    -0.00   0.00   0.00    -0.04   0.00   0.04
     2   1    -0.03  -0.34   0.37     0.41  -0.23  -0.18     0.43  -0.00  -0.43
     3   1     0.03  -0.34  -0.37    -0.41  -0.23   0.18     0.43  -0.00  -0.43
     4   1    -0.03   0.34  -0.37     0.41   0.23   0.18     0.14   0.29  -0.14
     5   1     0.03   0.34   0.37    -0.41   0.23  -0.18     0.14  -0.29  -0.14
                      4                      5                      6
                     T2                     T2                     T2
 Frequencies --    840.4520               840.4520              1697.3716
 Red. masses --      1.1026                 1.1026                 1.0490
 Frc consts  --      0.4589                 0.4589                 1.7806
 IR Inten    --    623.5879               623.5879               523.6732
 Raman Activ --     18.0514                18.0514                46.3010
 Depolar (P) --      0.7500                 0.7500                 0.7500
 Depolar (U) --      0.8571                 0.8571                 0.8571
  Atom  AN      X      Y      Z        X      Y      Z        X      Y      Z
     1  13     0.02  -0.05   0.02    -0.03  -0.03  -0.03    -0.02  -0.02  -0.02
     2   1    -0.25   0.50  -0.25    -0.01  -0.01  -0.01     0.50   0.50   0.50
     3   1     0.09   0.16   0.09     0.23   0.47   0.23     0.15  -0.19   0.15
     4   1    -0.08   0.33  -0.42     0.47   0.23   0.23    -0.19   0.15   0.15
     5   1    -0.42   0.33  -0.08     0.23   0.23   0.47     0.15   0.15  -0.19
                      7                      8                      9
                     T2                     T2                     A1
 Frequencies --   1697.3716              1697.3716              1782.1784
 Red. masses --      1.0490                 1.0490                 1.0078
 Frc consts  --      1.7806                 1.7806                 1.8860
 IR Inten    --    523.6732               523.6732                 0.0000
 Raman Activ --     46.3010                46.3010               168.3211
 Depolar (P) --      0.7500                 0.7500                 0.0000
 Depolar (U) --      0.8571                 0.8571                 0.0000
  Atom  AN      X      Y      Z        X      Y      Z        X      Y      Z
     1  13    -0.02   0.03  -0.02     0.03  -0.00  -0.03    -0.00  -0.00  -0.00
     2   1    -0.01   0.03  -0.01     0.02  -0.00  -0.02     0.29   0.29   0.29
     3   1     0.47  -0.46   0.47     0.02   0.00  -0.02    -0.29   0.29  -0.29
     4   1     0.23  -0.22  -0.26    -0.40   0.42   0.40     0.29  -0.29  -0.29
     5   1    -0.26  -0.22   0.23    -0.40  -0.42   0.40    -0.29  -0.29   0.29

 -------------------
 - Thermochemistry -
 -------------------
 Temperature   298.150 Kelvin.  Pressure   1.00000 Atm.
 Atom     1 has atomic number 13 and mass  26.98154
 Atom     2 has atomic number  1 and mass   1.00783
 Atom     3 has atomic number  1 and mass   1.00783
 Atom     4 has atomic number  1 and mass   1.00783
 Atom     5 has atomic number  1 and mass   1.00783
 Molecular mass:    31.01284 amu.
 Principal axes and moments of inertia in atomic units:
                           1         2         3
     Eigenvalues --    26.57145  26.57145  26.57145
           X            0.44718  -0.24263   0.86091
           Y            0.75670  -0.41058  -0.50876
           Z            0.47691   0.87895   0.00000
 This molecule is a spherical top.
 Rotational symmetry number 12.
 Rotational temperatures (Kelvin)      3.25966     3.25966     3.25966
 Rotational constants (GHZ):          67.92030    67.92030    67.92030
 Zero-point vibrational energy      65929.8 (Joules/Mol)
                                   15.75760 (Kcal/Mol)
 Vibrational temperatures:   1170.41  1170.41  1209.22  1209.22  1209.22
          (Kelvin)           2442.14  2442.14  2442.14  2564.16
 
 Zero-point correction=                           0.025111 (Hartree/Particle)
 Thermal correction to Energy=                    0.028304
 Thermal correction to Enthalpy=                  0.029248
 Thermal correction to Gibbs Free Energy=         0.005580
 Sum of electronic and zero-point Energies=           -242.852338
 Sum of electronic and thermal Energies=              -242.849146
 Sum of electronic and thermal Enthalpies=            -242.848202
 Sum of electronic and thermal Free Energies=         -242.871869
 
                     E (Thermal)             CV                S
                      KCal/Mol        Cal/Mol-Kelvin    Cal/Mol-Kelvin
 Total                   17.761              9.116             49.812
 Electronic               0.000              0.000              0.000
 Translational            0.889              2.981             36.228
 Rotational               0.889              2.981             12.641
 Vibrational             15.983              3.155              0.942
                       Q            Log10(Q)             Ln(Q)
 Total Bot       0.271124D-02         -2.566833         -5.910351
 Total V=0       0.962877D+09          8.983571         20.685436
 Vib (Bot)       0.309110D-11        -11.509886        -26.502493
 Vib (V=0)       0.109778D+01          0.040517          0.093294
 Electronic      0.100000D+01          0.000000          0.000000
 Translational   0.678838D+07          6.831766         15.730723
 Rotational      0.129207D+03          2.111287          4.861419
 ***** Axes restored to original set *****
 -------------------------------------------------------------------
 Center     Atomic                   Forces (Hartrees/Bohr)
 Number     Number              X              Y              Z
 -------------------------------------------------------------------
      1       13           0.000000000   -0.000000000   -0.000000000
      2        1          -0.000058134    0.000000000    0.000020554
      3        1           0.000029067   -0.000050346    0.000020554
      4        1           0.000029067    0.000050346    0.000020554
      5        1          -0.000000000   -0.000000000   -0.000061661
 -------------------------------------------------------------------
 Cartesian Forces:  Max     0.000061661 RMS     0.000031841
 FormGI is forming the generalized inverse of G from B-inverse, IUseBI=4.

 GradGradGradGradGradGradGradGradGradGradGradGradGradGradGradGradGradGrad
 Berny optimization.
 Internal  Forces:  Max     0.000061661 RMS     0.000032959
 Search for a local minimum.
 Step number   1 out of a maximum of    2
 All quantities printed in internal units (Hartrees-Bohrs-Radians)
 Second derivative matrix not updated -- analytic derivatives used.
 The second derivative matrix:
                          R1        R2        R3        R4        A1
           R1           0.10912
           R2           0.00401   0.10912
           R3           0.00401   0.00401   0.10912
           R4           0.00401   0.00401   0.00401   0.10912
           A1           0.00102   0.00102  -0.00064  -0.00140   0.01351
           A2           0.00160  -0.00041   0.00178  -0.00296  -0.00435
           A3           0.00312  -0.00250  -0.00277   0.00216  -0.00833
           A4          -0.00041   0.00160   0.00178  -0.00296  -0.00435
           A5          -0.00250   0.00312  -0.00277   0.00216  -0.00833
           A6          -0.00282  -0.00282   0.00263   0.00301   0.01185
           D1          -0.00197  -0.00197  -0.00139   0.00534  -0.01122
           D2           0.00162   0.00162  -0.00418   0.00093   0.00634
           D3          -0.00214   0.00376  -0.00209   0.00046   0.00317
           D4          -0.00376   0.00214   0.00209  -0.00046  -0.00317
                          A2        A3        A4        A5        A6
           A2           0.02714
           A3          -0.01553   0.05294
           A4           0.00154   0.01108   0.02714
           A5           0.01108  -0.02289  -0.01553   0.05294
           A6          -0.01987  -0.01727  -0.01987  -0.01727   0.06244
           D1          -0.01224   0.01293  -0.01224   0.01293   0.00983
           D2          -0.00805   0.00820  -0.00805   0.00820  -0.00665
           D3          -0.01156  -0.00282   0.00351   0.01103  -0.00332
           D4          -0.00351  -0.01103   0.01156   0.00282   0.00332
                          D1        D2        D3        D4
           D1           0.02873
           D2           0.00209   0.01781
           D3           0.00105   0.00891   0.01792
           D4          -0.00105  -0.00891   0.00901   0.01792
 ITU=  0
     Eigenvalues ---    0.03450   0.03957   0.06301   0.08673   0.08800
     Eigenvalues ---    0.10703   0.10717   0.10780   0.12114
 Angle between quadratic step and forces=   0.00 degrees.
 Linear search not attempted -- first point.
 Iteration  1 RMS(Cart)=  0.00027208 RMS(Int)=  0.00000000
 Iteration  2 RMS(Cart)=  0.00000000 RMS(Int)=  0.00000000
 ClnCor:  largest displacement from symmetrization is 1.10D-11 for atom     1.
 Variable       Old X    -DE/DX   Delta X   Delta X   Delta X     New X
                                 (Linear)    (Quad)   (Total)
    R1        3.14435  -0.00006   0.00000  -0.00051  -0.00051   3.14384
    R2        3.14435  -0.00006   0.00000  -0.00051  -0.00051   3.14384
    R3        3.14435  -0.00006   0.00000  -0.00051  -0.00051   3.14384
    R4        3.14435  -0.00006   0.00000  -0.00051  -0.00051   3.14384
    A1        1.91063  -0.00000   0.00000  -0.00000  -0.00000   1.91063
    A2        1.91063   0.00000   0.00000  -0.00000   0.00000   1.91063
    A3        1.91063   0.00000   0.00000  -0.00000   0.00000   1.91063
    A4        1.91063  -0.00000   0.00000   0.00000   0.00000   1.91063
    A5        1.91063   0.00000   0.00000   0.00000   0.00000   1.91063
    A6        1.91063   0.00000   0.00000   0.00000   0.00000   1.91063
    D1       -2.09440   0.00000   0.00000   0.00000   0.00000  -2.09440
    D2        2.09440  -0.00000   0.00000  -0.00000  -0.00000   2.09440
    D3       -2.09440  -0.00000   0.00000   0.00000   0.00000  -2.09440
    D4        2.09440   0.00000   0.00000   0.00000   0.00000   2.09440
         Item               Value     Threshold  Converged?
 Maximum Force            0.000062     0.000450     YES
 RMS     Force            0.000033     0.000300     YES
 Maximum Displacement     0.000509     0.001800     YES
 RMS     Displacement     0.000272     0.001200     YES
 Predicted change in Energy=-6.277196D-08
 Optimization completed.
    -- Stationary point found.
                           ----------------------------
                           !   Optimized Parameters   !
                           ! (Angstroms and Degrees)  !
 --------------------------                            --------------------------
 ! Name  Definition              Value          Derivative Info.                !
 --------------------------------------------------------------------------------
 ! R1    R(1,2)                  1.6639         -DE/DX =   -0.0001              !
 ! R2    R(1,3)                  1.6639         -DE/DX =   -0.0001              !
 ! R3    R(1,4)                  1.6639         -DE/DX =   -0.0001              !
 ! R4    R(1,5)                  1.6639         -DE/DX =   -0.0001              !
 ! A1    A(2,1,3)              109.4712         -DE/DX =    0.0                 !
 ! A2    A(2,1,4)              109.4712         -DE/DX =    0.0                 !
 ! A3    A(2,1,5)              109.4712         -DE/DX =    0.0                 !
 ! A4    A(3,1,4)              109.4712         -DE/DX =    0.0                 !
 ! A5    A(3,1,5)              109.4712         -DE/DX =    0.0                 !
 ! A6    A(4,1,5)              109.4712         -DE/DX =    0.0                 !
 ! D1    D(2,1,4,3)           -120.0            -DE/DX =    0.0                 !
 ! D2    D(2,1,5,3)            120.0            -DE/DX =    0.0                 !
 ! D3    D(2,1,5,4)           -120.0            -DE/DX =    0.0                 !
 ! D4    D(3,1,5,4)            120.0            -DE/DX =    0.0                 !
 --------------------------------------------------------------------------------
 GradGradGradGradGradGradGradGradGradGradGradGradGradGradGradGradGradGrad

 Dipole is zero, so no output in dipole orientation.

 ----------------------------------------------------------------------

 Electric dipole moment (input orientation):
 (Debye = 10**-18 statcoulomb cm , SI units = C m)
                  (au)            (Debye)         (10**-30 SI)
   Tot        0.000000D+00      0.000000D+00      0.000000D+00
   x          0.000000D+00      0.000000D+00      0.000000D+00
   y          0.000000D+00      0.000000D+00      0.000000D+00
   z          0.000000D+00      0.000000D+00      0.000000D+00

 Dipole polarizability, Alpha (input orientation).
 (esu units = cm**3 , SI units = C**2 m**2 J**-1)
 Alpha(0;0):
               (au)            (10**-24 esu)      (10**-40 SI)
   iso        0.269427D+02      0.399250D+01      0.444225D+01
   aniso      0.000000D+00      0.000000D+00      0.000000D+00
   xx         0.269427D+02      0.399250D+01      0.444225D+01
   yx         0.000000D+00      0.000000D+00      0.000000D+00
   yy         0.269427D+02      0.399250D+01      0.444225D+01
   zx         0.000000D+00      0.000000D+00      0.000000D+00
   zy         0.000000D+00      0.000000D+00      0.000000D+00
   zz         0.269427D+02      0.399250D+01      0.444225D+01

 First dipole hyperpolarizability, Beta (input orientation).
 ||, _|_  parallel and perpendicular components, (z) with respect to z axis,
 vector components x,y,z.  Values do not include the 1/n! factor of 1/2.
 (esu units = statvolt**-1 cm**4 , SI units = C**3 m**3 J**-2)
 Beta(0;0,0):
               (au)            (10**-30 esu)      (10**-50 SI)
   || (z)     0.000000D+00      0.000000D+00      0.000000D+00
   _|_(z)     0.000000D+00      0.000000D+00      0.000000D+00
   x          0.000000D+00      0.000000D+00      0.000000D+00
   y          0.000000D+00      0.000000D+00      0.000000D+00
   z          0.000000D+00      0.000000D+00      0.000000D+00
   ||         0.000000D+00      0.000000D+00      0.000000D+00
   xxx       -0.317513D+02     -0.274307D+00     -0.101806D+00
   xxy        0.000000D+00      0.000000D+00      0.000000D+00
   yxy        0.317513D+02      0.274307D+00      0.101806D+00
   yyy        0.000000D+00      0.000000D+00      0.000000D+00
   xxz        0.224516D+02      0.193964D+00      0.719879D-01
   yxz        0.000000D+00      0.000000D+00      0.000000D+00
   yyz        0.224516D+02      0.193964D+00      0.719879D-01
   zxz        0.000000D+00      0.000000D+00      0.000000D+00
   zyz        0.000000D+00      0.000000D+00      0.000000D+00
   zzz       -0.449032D+02     -0.387929D+00     -0.143976D+00

 ----------------------------------------------------------------------
 1\1\GINC-IISERK51\Freq\RHF\3-21G\Al1H4(1-)\GAUSSIAN\14-Jun-2025\0\\#N 
 Geom=AllCheck Guess=TCheck SCRF=Check GenChk RHF/3-21G Freq\\optimisat
 ion\\-1,1\Al,0.0700819794,2.63033798,-0.0000000006\H,1.638838682,2.630
 3379119,-0.5546392779\H,-0.7142963372,3.9889211572,-0.554639277\H,-0.7
 142964312,1.2717548294,-0.5546392092\H,0.070082004,2.6303380215,1.6639
 177618\\Version=EM64L-G16RevB.01\State=1-A1\HF=-242.8774493\RMSD=5.819
 e-10\RMSF=3.184e-05\ZeroPoint=0.0251113\Thermal=0.0283035\Dipole=0.,0.
 ,0.\DipoleDeriv=1.1394855,0.,0.,0.,1.1394855,0.,0.,0.,1.1394855,-0.629
 2985,0.,0.0534161,0.,-0.4782151,0.,0.0534161,0.,-0.4971005,-0.5159859,
 0.0654211,-0.026708,0.0654211,-0.5915277,0.0462597,-0.026708,0.0462597
 ,-0.4971005,-0.5159859,-0.0654211,-0.026708,-0.0654211,-0.5915277,-0.0
 462597,-0.026708,-0.0462597,-0.4971005,-0.4782151,0.,0.,0.,-0.4782151,
 0.,0.,0.,-0.648184\Polar=26.9427105,0.,26.9427105,0.,0.,26.9427105\Pol
 arDeriv=-0.343583,0.,0.3435829,0.2429498,0.,-0.0000002,0.,0.343583,0.,
 0.,0.24295,0.,0.2429498,0.,0.24295,0.,0.,-0.4858998,8.1824093,-0.00000
 02,0.7685314,-1.3407928,0.,0.8545274,0.,3.5353472,-0.0000003,0.,-1.341
 3588,0.,-0.3625757,0.,-0.3631416,3.6213432,-0.0000002,-2.7410394,-3.96
 25107,3.1360019,-0.5129595,-1.3412173,-0.0002451,-0.4272637,0.7398691,
 -1.8963673,7.0118731,-0.0002451,-1.3409343,0.7400424,-0.3630001,-0.000
 2451,-0.3627172,-1.8106715,3.1361752,-2.7410394,-3.9625112,-3.1360019,
 -0.5129595,-1.3412171,0.0002451,-0.4272637,-0.7398691,-1.8963676,-7.01
 18729,0.0002451,-1.3409342,-0.7400424,-0.3630001,0.0002451,-0.3627171,
 -1.8106717,-3.1361752,-2.741039,0.0861962,0.,-0.086196,3.7802769,0.,0.
 ,0.,-0.086196,0.0000002,0.,3.7802769,0.,0.8456256,0.,0.8456256,0.,0.00
 00001,8.7090184\HyperPolar=-31.751346,0.0000039,31.7513473,-0.0000016,
 22.4515932,-0.0000008,22.4515923,-0.0000013,-0.0000022,-44.9031856\Qua
 drupole=0.,0.,0.,0.,0.,0.\PG=TD [O(Al1),4C3(H1)]\NImag=0\\0.18420043,0
 .,0.18420043,0.,0.,0.18420043,-0.08834201,0.,0.02392391,0.09873072,0.,
 -0.02067497,0.,0.,0.01562860,0.02392391,0.,-0.02913335,-0.02938104,0.,
 0.02601636,-0.03759172,0.02930069,-0.01196196,-0.00537677,0.00842095,-
 0.00219533,0.03640413,0.02930069,-0.07142525,0.02071872,0.00266458,0.0
 0102347,0.00026795,-0.03598428,0.07795519,-0.01196196,0.02071872,-0.02
 913335,0.00132972,-0.00176723,0.00361151,0.01469052,-0.02544473,0.0260
 1636,-0.03759173,-0.02930069,-0.01196196,-0.00537677,-0.00842095,-0.00
 219533,0.00422359,0.00287818,0.00086561,0.03640413,-0.02930069,-0.0714
 2525,-0.02071872,-0.00266458,0.00102347,-0.00026795,-0.00287819,-0.008
 57688,-0.00203518,0.03598428,0.07795519,-0.01196196,-0.02071872,-0.029
 13334,0.00132972,0.00176723,0.00361151,0.00086561,0.00203518,0.0036115
 1,0.01469052,0.02544472,0.02601636,-0.02067497,0.,0.,0.00036482,0.,0.0
 0984778,0.00234078,0.00114082,-0.00492389,0.00234078,-0.00114082,-0.00
 492389,0.01562860,0.,-0.02067497,0.,0.,0.00299943,0.,0.00114082,0.0010
 2347,0.00852843,-0.00114082,0.00102347,-0.00852843,0.,0.01562860,0.,0.
 ,-0.09680039,0.00279769,0.,-0.00410603,-0.00139885,0.00242287,-0.00410
 603,-0.00139885,-0.00242287,-0.00410603,0.,0.,0.10911849\\0.,0.,0.,0.0
 0005813,0.,-0.00002055,-0.00002907,0.00005035,-0.00002055,-0.00002907,
 -0.00005035,-0.00002055,0.,0.,0.00006166\\\@


 THE DIFFICULTY IN SCIENCE IS OFTEN NOT SO MUCH HOW
 TO MAKE A DISCOVERY BUT RATHER TO KNOW ONE HAS MADE IT.

                                                   -- J. D. BERNAL
 Job cpu time:       0 days  0 hours  0 minutes  0.7 seconds.
 Elapsed time:       0 days  0 hours  0 minutes  0.7 seconds.
 File lengths (MBytes):  RWF=      6 Int=      0 D2E=      0 Chk=      1 Scr=      1
 Normal termination of Gaussian 16 at Sat Jun 14 16:11:41 2025.
