 Entering Gaussian System, Link 0=g16
 Input=/home/gaussian/Documents/Summer_Internship/Acid_Base_adduct/Acid/AlH3/MX4-/AlH4_ion_sp.com
 Output=/home/gaussian/Documents/Summer_Internship/Acid_Base_adduct/Acid/AlH3/MX4-/AlH4_ion_sp.log
 Initial command:
 /usr/local/g16/l1.exe "/home/gaussian/tmp/Gau-49025.inp" -scrdir="/home/gaussian/tmp/"
 Entering Link 1 = /usr/local/g16/l1.exe PID=     49028.
  
 Copyright (c) 1988-2017, Gaussian, Inc.  All Rights Reserved.
  
 This is part of the Gaussian(R) 16 program.  It is based on
 the Gaussian(R) 09 system (copyright 2009, Gaussian, Inc.),
 the Gaussian(R) 03 system (copyright 2003, Gaussian, Inc.),
 the Gaussian(R) 98 system (copyright 1998, Gaussian, Inc.),
 the Gaussian(R) 94 system (copyright 1995, Gaussian, Inc.),
 the Gaussian 92(TM) system (copyright 1992, Gaussian, Inc.),
 the Gaussian 90(TM) system (copyright 1990, Gaussian, Inc.),
 the Gaussian 88(TM) system (copyright 1988, Gaussian, Inc.),
 the Gaussian 86(TM) system (copyright 1986, Carnegie Mellon
 University), and the Gaussian 82(TM) system (copyright 1983,
 Carnegie Mellon University). Gaussian is a federally registered
 trademark of Gaussian, Inc.
  
 This software contains proprietary and confidential information,
 including trade secrets, belonging to Gaussian, Inc.
  
 This software is provided under written license and may be
 used, copied, transmitted, or stored only in accord with that
 written license.
  
 The following legend is applicable only to US Government
 contracts under FAR:
  
                    RESTRICTED RIGHTS LEGEND
  
 Use, reproduction and disclosure by the US Government is
 subject to restrictions as set forth in subparagraphs (a)
 and (c) of the Commercial Computer Software - Restricted
 Rights clause in FAR 52.227-19.
  
 Gaussian, Inc.
 340 Quinnipiac St., Bldg. 40, Wallingford CT 06492
  
  
 ---------------------------------------------------------------
 Warning -- This program may not be used in any manner that
 competes with the business of Gaussian, Inc. or will provide
 assistance to any competitor of Gaussian, Inc.  The licensee
 of this program is prohibited from giving any competitor of
 Gaussian, Inc. access to this program.  By using this program,
 the user acknowledges that Gaussian, Inc. is engaged in the
 business of creating and licensing software in the field of
 computational chemistry and represents and warrants to the
 licensee that it is not a competitor of Gaussian, Inc. and that
 it will not use this program in any manner prohibited above.
 ---------------------------------------------------------------
  

 Cite this work as:
 Gaussian 16, Revision B.01,
 M. J. Frisch, G. W. Trucks, H. B. Schlegel, G. E. Scuseria, 
 M. A. Robb, J. R. Cheeseman, G. Scalmani, V. Barone, 
 G. A. Petersson, H. Nakatsuji, X. Li, M. Caricato, A. V. Marenich, 
 J. Bloino, B. G. Janesko, R. Gomperts, B. Mennucci, H. P. Hratchian, 
 J. V. Ortiz, A. F. Izmaylov, J. L. Sonnenberg, D. Williams-Young, 
 F. Ding, F. Lipparini, F. Egidi, J. Goings, B. Peng, A. Petrone, 
 T. Henderson, D. Ranasinghe, V. G. Zakrzewski, J. Gao, N. Rega, 
 G. Zheng, W. Liang, M. Hada, M. Ehara, K. Toyota, R. Fukuda, 
 J. Hasegawa, M. Ishida, T. Nakajima, Y. Honda, O. Kitao, H. Nakai, 
 T. Vreven, K. Throssell, J. A. Montgomery, Jr., J. E. Peralta, 
 F. Ogliaro, M. J. Bearpark, J. J. Heyd, E. N. Brothers, K. N. Kudin, 
 V. N. Staroverov, T. A. Keith, R. Kobayashi, J. Normand, 
 K. Raghavachari, A. P. Rendell, J. C. Burant, S. S. Iyengar, 
 J. Tomasi, M. Cossi, J. M. Millam, M. Klene, C. Adamo, R. Cammi, 
 J. W. Ochterski, R. L. Martin, K. Morokuma, O. Farkas, 
 J. B. Foresman, and D. J. Fox, Gaussian, Inc., Wallingford CT, 2016.
 
 ******************************************
 Gaussian 16:  EM64L-G16RevB.01 20-Dec-2017
                14-Jun-2025 
 ******************************************
 %chk=AlH4_ion_sp.chk
 -------------------------------------
 # hf/3-21g pop=full geom=connectivity
 -------------------------------------
 1/38=1,57=2,172=1/1;
 2/12=2,17=6,18=5,40=1/2;
 3/5=5,11=9,25=1,30=1/1,2,3;
 4//1;
 5/5=2,38=5/2;
 6/7=3,28=1/1;
 99/5=1,9=1/99;
 --
 sp
 --
 Symbolic Z-matrix:
 Charge = -1 Multiplicity = 1
 Al                    0.        0.        0. 
 H                     0.96066   0.96066   0.96066 
 H                    -0.96066   0.96066  -0.96066 
 H                     0.96066  -0.96066  -0.96066 
 H                    -0.96066  -0.96066   0.96066 
 
                          Input orientation:                          
 ---------------------------------------------------------------------
 Center     Atomic      Atomic             Coordinates (Angstroms)
 Number     Number       Type             X           Y           Z
 ---------------------------------------------------------------------
      1         13           0        0.000000    0.000000    0.000000
      2          1           0        0.960663    0.960663    0.960663
      3          1           0       -0.960663    0.960663   -0.960663
      4          1           0        0.960663   -0.960663   -0.960663
      5          1           0       -0.960663   -0.960663    0.960663
 ---------------------------------------------------------------------
                    Distance matrix (angstroms):
                    1          2          3          4          5
     1  Al   0.000000
     2  H    1.663917   0.000000
     3  H    1.663917   2.717165   0.000000
     4  H    1.663917   2.717165   2.717165   0.000000
     5  H    1.663917   2.717165   2.717165   2.717165   0.000000
 Stoichiometry    AlH4(1-)
 Framework group  TD[O(Al),4C3(H)]
 Deg. of freedom     1
 Full point group                 TD      NOp  24
 Largest Abelian subgroup         D2      NOp   4
 Largest concise Abelian subgroup D2      NOp   4
                         Standard orientation:                         
 ---------------------------------------------------------------------
 Center     Atomic      Atomic             Coordinates (Angstroms)
 Number     Number       Type             X           Y           Z
 ---------------------------------------------------------------------
      1         13           0        0.000000    0.000000    0.000000
      2          1           0        0.960663    0.960663    0.960663
      3          1           0       -0.960663   -0.960663    0.960663
      4          1           0       -0.960663    0.960663   -0.960663
      5          1           0        0.960663   -0.960663   -0.960663
 ---------------------------------------------------------------------
 Rotational constants (GHZ):          67.9203541          67.9203541          67.9203541
 Standard basis: 3-21G (6D, 7F)
 There are     6 symmetry adapted cartesian basis functions of A   symmetry.
 There are     5 symmetry adapted cartesian basis functions of B1  symmetry.
 There are     5 symmetry adapted cartesian basis functions of B2  symmetry.
 There are     5 symmetry adapted cartesian basis functions of B3  symmetry.
 There are     6 symmetry adapted basis functions of A   symmetry.
 There are     5 symmetry adapted basis functions of B1  symmetry.
 There are     5 symmetry adapted basis functions of B2  symmetry.
 There are     5 symmetry adapted basis functions of B3  symmetry.
    21 basis functions,    39 primitive gaussians,    21 cartesian basis functions
     9 alpha electrons        9 beta electrons
       nuclear repulsion energy        17.7061319650 Hartrees.
 NAtoms=    5 NActive=    5 NUniq=    2 SFac= 4.00D+00 NAtFMM=   60 NAOKFM=F Big=F
 Integral buffers will be    131072 words long.
 Raffenetti 1 integral format.
 Two-electron integral symmetry is turned on.
 One-electron integrals computed using PRISM.
 NBasis=    21 RedAO= T EigKep=  5.36D-02  NBF=     6     5     5     5
 NBsUse=    21 1.00D-06 EigRej= -1.00D+00 NBFU=     6     5     5     5
 ExpMin= 6.39D-02 ExpMax= 7.76D+02 ExpMxC= 7.76D+02 IAcc=3 IRadAn=         5 AccDes= 0.00D+00
 Harris functional with IExCor=  205 and IRadAn=       5 diagonalized for initial guess.
 HarFok:  IExCor=  205 AccDes= 0.00D+00 IRadAn=         5 IDoV= 1 UseB2=F ITyADJ=14
 ICtDFT=  3500011 ScaDFX=  1.000000  1.000000  1.000000  1.000000
 FoFCou: FMM=F IPFlag=           0 FMFlag=      100000 FMFlg1=           0
         NFxFlg=           0 DoJE=T BraDBF=F KetDBF=T FulRan=T
         wScrn=  0.000000 ICntrl=       500 IOpCl=  0 I1Cent=   200000004 NGrid=           0
         NMat0=    1 NMatS0=      1 NMatT0=    0 NMatD0=    1 NMtDS0=    0 NMtDT0=    0
 Petite list used in FoFCou.
 Initial guess orbital symmetries:
       Occupied  (A1) (A1) (T2) (T2) (T2) (A1) (T2) (T2) (T2)
       Virtual   (T2) (T2) (T2) (A1) (A1) (T2) (T2) (T2) (T2) (T2)
                 (T2) (A1)
 The electronic state of the initial guess is 1-A1.
 Keep R1 ints in memory in symmetry-blocked form, NReq=833719.
 Requested convergence on RMS density matrix=1.00D-08 within 128 cycles.
 Requested convergence on MAX density matrix=1.00D-06.
 Requested convergence on             energy=1.00D-06.
 No special actions if energy rises.
 SCF Done:  E(RHF) =  -242.877449258     A.U. after    8 cycles
            NFock=  8  Conv=0.22D-08     -V/T= 2.0009

 **********************************************************************

            Population analysis using the SCF Density.

 **********************************************************************

 Orbital symmetries:
       Occupied  (A1) (A1) (T2) (T2) (T2) (A1) (T2) (T2) (T2)
       Virtual   (T2) (T2) (T2) (A1) (A1) (T2) (T2) (T2) (T2) (T2)
                 (T2) (A1)
 The electronic state is 1-A1.
 Alpha  occ. eigenvalues --  -57.80327  -4.61271  -2.91684  -2.91684  -2.91684
 Alpha  occ. eigenvalues --   -0.35555  -0.18615  -0.18615  -0.18615
 Alpha virt. eigenvalues --    0.35703   0.35703   0.35703   0.48089   0.53274
 Alpha virt. eigenvalues --    0.60454   0.60454   0.60454   1.58795   1.58795
 Alpha virt. eigenvalues --    1.58795   1.63051
     Molecular Orbital Coefficients:
                           1         2         3         4         5
                        (A1)--O   (A1)--O   (T2)--O   (T2)--O   (T2)--O
     Eigenvalues --   -57.80327  -4.61271  -2.91684  -2.91684  -2.91684
   1 1   Al 1S          0.98854  -0.28420   0.00000   0.00000   0.00000
   2        2S          0.04415   1.01084   0.00000   0.00000   0.00000
   3        2PX         0.00000   0.00000   0.00000   0.00000   0.97858
   4        2PY         0.00000   0.00000   0.97858   0.00000   0.00000
   5        2PZ         0.00000   0.00000   0.00000   0.97858   0.00000
   6        3S         -0.01074   0.08866   0.00000   0.00000   0.00000
   7        3PX         0.00000   0.00000   0.00000   0.00000   0.08666
   8        3PY         0.00000   0.00000   0.08666   0.00000   0.00000
   9        3PZ         0.00000   0.00000   0.00000   0.08666   0.00000
  10        4S          0.00188  -0.02830   0.00000   0.00000   0.00000
  11        4PX         0.00000   0.00000   0.00000   0.00000  -0.02660
  12        4PY         0.00000   0.00000  -0.02660   0.00000   0.00000
  13        4PZ         0.00000   0.00000   0.00000  -0.02660   0.00000
  14 2   H  1S          0.00048  -0.00248  -0.00306  -0.00306  -0.00306
  15        2S          0.00101  -0.00191  -0.00121  -0.00121  -0.00121
  16 3   H  1S          0.00048  -0.00248   0.00306  -0.00306   0.00306
  17        2S          0.00101  -0.00191   0.00121  -0.00121   0.00121
  18 4   H  1S          0.00048  -0.00248  -0.00306   0.00306   0.00306
  19        2S          0.00101  -0.00191  -0.00121   0.00121   0.00121
  20 5   H  1S          0.00048  -0.00248   0.00306   0.00306  -0.00306
  21        2S          0.00101  -0.00191   0.00121   0.00121  -0.00121
                           6         7         8         9        10
                        (A1)--O   (T2)--O   (T2)--O   (T2)--O   (T2)--V
     Eigenvalues --    -0.35555  -0.18615  -0.18615  -0.18615   0.35703
   1 1   Al 1S          0.04679   0.00000   0.00000   0.00000   0.00000
   2        2S         -0.23935   0.00000   0.00000   0.00000   0.00000
   3        2PX         0.00000   0.00000  -0.12884   0.00000   0.00000
   4        2PY         0.00000   0.00000   0.00000  -0.12884   0.00000
   5        2PZ         0.00000  -0.12884   0.00000   0.00000  -0.01788
   6        3S          0.28261   0.00000   0.00000   0.00000   0.00000
   7        3PX         0.00000   0.00000   0.21188   0.00000   0.00000
   8        3PY         0.00000   0.00000   0.00000   0.21188   0.00000
   9        3PZ         0.00000   0.21188   0.00000   0.00000  -0.04035
  10        4S          0.27856   0.00000   0.00000   0.00000   0.00000
  11        4PX         0.00000   0.00000   0.14259   0.00000   0.00000
  12        4PY         0.00000   0.00000   0.00000   0.14259   0.00000
  13        4PZ         0.00000   0.14259   0.00000   0.00000   1.44799
  14 2   H  1S          0.11675   0.13638   0.13638   0.13638  -0.04341
  15        2S          0.16882   0.28849   0.28849   0.28849  -0.55720
  16 3   H  1S          0.11675   0.13638  -0.13638  -0.13638  -0.04341
  17        2S          0.16882   0.28849  -0.28849  -0.28849  -0.55720
  18 4   H  1S          0.11675  -0.13638  -0.13638   0.13638   0.04341
  19        2S          0.16882  -0.28849  -0.28849   0.28849   0.55720
  20 5   H  1S          0.11675  -0.13638   0.13638  -0.13638   0.04341
  21        2S          0.16882  -0.28849   0.28849  -0.28849   0.55720
                          11        12        13        14        15
                        (T2)--V   (T2)--V   (A1)--V   (A1)--V   (T2)--V
     Eigenvalues --     0.35703   0.35703   0.48089   0.53274   0.60454
   1 1   Al 1S          0.00000   0.00000  -0.02782   0.06598   0.00000
   2        2S          0.00000   0.00000  -0.02174  -0.26536   0.00000
   3        2PX         0.00000  -0.01788   0.00000   0.00000  -0.32778
   4        2PY        -0.01788   0.00000   0.00000   0.00000   0.00000
   5        2PZ         0.00000   0.00000   0.00000   0.00000   0.00000
   6        3S          0.00000   0.00000  -1.32655   1.17250   0.00000
   7        3PX         0.00000  -0.04035   0.00000   0.00000   1.41957
   8        3PY        -0.04035   0.00000   0.00000   0.00000   0.00000
   9        3PZ         0.00000   0.00000   0.00000   0.00000   0.00000
  10        4S          0.00000   0.00000   2.73355   0.61631   0.00000
  11        4PX         0.00000   1.44799   0.00000   0.00000  -0.60867
  12        4PY         1.44799   0.00000   0.00000   0.00000   0.00000
  13        4PZ         0.00000   0.00000   0.00000   0.00000   0.00000
  14 2   H  1S         -0.04341  -0.04341  -0.05389  -0.07275   0.00838
  15        2S         -0.55720  -0.55720  -0.61929  -0.66052  -0.30819
  16 3   H  1S          0.04341   0.04341  -0.05389  -0.07275  -0.00838
  17        2S          0.55720   0.55720  -0.61929  -0.66052   0.30819
  18 4   H  1S         -0.04341   0.04341  -0.05389  -0.07275  -0.00838
  19        2S         -0.55720   0.55720  -0.61929  -0.66052   0.30819
  20 5   H  1S          0.04341  -0.04341  -0.05389  -0.07275   0.00838
  21        2S          0.55720  -0.55720  -0.61929  -0.66052  -0.30819
                          16        17        18        19        20
                        (T2)--V   (T2)--V   (T2)--V   (T2)--V   (T2)--V
     Eigenvalues --     0.60454   0.60454   1.58795   1.58795   1.58795
   1 1   Al 1S          0.00000   0.00000   0.00000   0.00000   0.00000
   2        2S          0.00000   0.00000   0.00000   0.00000   0.00000
   3        2PX         0.00000   0.00000   0.00000   0.00000  -0.07853
   4        2PY        -0.32778   0.00000  -0.07853   0.00000   0.00000
   5        2PZ         0.00000  -0.32778   0.00000  -0.07853   0.00000
   6        3S          0.00000   0.00000   0.00000   0.00000   0.00000
   7        3PX         0.00000   0.00000   0.00000   0.00000   0.09143
   8        3PY         1.41957   0.00000   0.09143   0.00000   0.00000
   9        3PZ         0.00000   1.41957   0.00000   0.09143   0.00000
  10        4S          0.00000   0.00000   0.00000   0.00000   0.00000
  11        4PX         0.00000   0.00000   0.00000   0.00000  -0.55273
  12        4PY        -0.60867   0.00000  -0.55273   0.00000   0.00000
  13        4PZ         0.00000  -0.60867   0.00000  -0.55273   0.00000
  14 2   H  1S          0.00838   0.00838  -0.68679  -0.68679  -0.68679
  15        2S         -0.30819  -0.30819   0.76420   0.76420   0.76420
  16 3   H  1S         -0.00838   0.00838   0.68679  -0.68679   0.68679
  17        2S          0.30819  -0.30819  -0.76420   0.76420  -0.76420
  18 4   H  1S          0.00838  -0.00838  -0.68679   0.68679   0.68679
  19        2S         -0.30819   0.30819   0.76420  -0.76420  -0.76420
  20 5   H  1S         -0.00838  -0.00838   0.68679   0.68679  -0.68679
  21        2S          0.30819   0.30819  -0.76420  -0.76420   0.76420
                          21
                        (A1)--V
     Eigenvalues --     1.63051
   1 1   Al 1S         -0.01051
   2        2S          0.03400
   3        2PX         0.00000
   4        2PY         0.00000
   5        2PZ         0.00000
   6        3S         -0.11078
   7        3PX         0.00000
   8        3PY         0.00000
   9        3PZ         0.00000
  10        4S          1.69904
  11        4PX         0.00000
  12        4PY         0.00000
  13        4PZ         0.00000
  14 2   H  1S          0.70754
  15        2S         -1.11028
  16 3   H  1S          0.70754
  17        2S         -1.11028
  18 4   H  1S          0.70754
  19        2S         -1.11028
  20 5   H  1S          0.70754
  21        2S         -1.11028
     Density Matrix:
                           1         2         3         4         5
   1 1   Al 1S          2.12035
   2        2S         -0.50967   2.16207
   3        2PX         0.00000   0.00000   1.94843
   4        2PY         0.00000   0.00000   0.00000   1.94843
   5        2PZ         0.00000   0.00000  -0.00000   0.00000   1.94843
   6        3S         -0.04518   0.04300   0.00000   0.00000   0.00000
   7        3PX         0.00000   0.00000   0.11502  -0.00000  -0.00000
   8        3PY         0.00000   0.00000  -0.00000   0.11502   0.00000
   9        3PZ         0.00000   0.00000  -0.00000   0.00000   0.11502
  10        4S          0.04587  -0.19039   0.00000   0.00000   0.00000
  11        4PX         0.00000   0.00000  -0.08881  -0.00000   0.00000
  12        4PY         0.00000   0.00000  -0.00000  -0.08881  -0.00000
  13        4PZ         0.00000   0.00000   0.00000  -0.00000  -0.08881
  14 2   H  1S          0.01328  -0.06086  -0.04113  -0.04113  -0.04113
  15        2S          0.01889  -0.08458  -0.07670  -0.07670  -0.07670
  16 3   H  1S          0.01328  -0.06086   0.04113   0.04113  -0.04113
  17        2S          0.01889  -0.08458   0.07670   0.07670  -0.07670
  18 4   H  1S          0.01328  -0.06086   0.04113  -0.04113   0.04113
  19        2S          0.01889  -0.08458   0.07670  -0.07670   0.07670
  20 5   H  1S          0.01328  -0.06086  -0.04113   0.04113   0.04113
  21        2S          0.01889  -0.08458  -0.07670   0.07670   0.07670
                           6         7         8         9        10
   6        3S          0.17569
   7        3PX         0.00000   0.10481
   8        3PY         0.00000  -0.00000   0.10481
   9        3PZ         0.00000   0.00000   0.00000   0.10481
  10        4S          0.15239   0.00000   0.00000   0.00000   0.15680
  11        4PX         0.00000   0.05581  -0.00000  -0.00000   0.00000
  12        4PY         0.00000  -0.00000   0.05581   0.00000   0.00000
  13        4PZ         0.00000  -0.00000   0.00000   0.05581   0.00000
  14 2   H  1S          0.06554   0.05726   0.05726   0.05726   0.06519
  15        2S          0.09506   0.12204   0.12204   0.12204   0.09417
  16 3   H  1S          0.06554  -0.05726  -0.05726   0.05726   0.06519
  17        2S          0.09506  -0.12204  -0.12204   0.12204   0.09417
  18 4   H  1S          0.06554  -0.05726   0.05726  -0.05726   0.06519
  19        2S          0.09506  -0.12204   0.12204  -0.12204   0.09417
  20 5   H  1S          0.06554   0.05726  -0.05726  -0.05726   0.06519
  21        2S          0.09506   0.12204  -0.12204  -0.12204   0.09417
                          11        12        13        14        15
  11        4PX         0.04208
  12        4PY        -0.00000   0.04208
  13        4PZ        -0.00000   0.00000   0.04208
  14 2   H  1S          0.03905   0.03905   0.03905   0.13892
  15        2S          0.08234   0.08234   0.08234   0.27551   0.55637
  16 3   H  1S         -0.03905  -0.03905   0.03905  -0.00994  -0.03926
  17        2S         -0.08234  -0.08234   0.08234  -0.03926  -0.10944
  18 4   H  1S         -0.03905   0.03905  -0.03905  -0.00994  -0.03926
  19        2S         -0.08234   0.08234  -0.08234  -0.03926  -0.10944
  20 5   H  1S          0.03905  -0.03905  -0.03905  -0.00994  -0.03926
  21        2S          0.08234  -0.08234  -0.08234  -0.03926  -0.10944
                          16        17        18        19        20
  16 3   H  1S          0.13892
  17        2S          0.27551   0.55637
  18 4   H  1S         -0.00994  -0.03926   0.13892
  19        2S         -0.03926  -0.10944   0.27551   0.55637
  20 5   H  1S         -0.00994  -0.03926  -0.00994  -0.03926   0.13892
  21        2S         -0.03926  -0.10944  -0.03926  -0.10944   0.27551
                          21
  21        2S          0.55637
    Full Mulliken population analysis:
                           1         2         3         4         5
   1 1   Al 1S          2.12035
   2        2S         -0.12284   2.16207
   3        2PX         0.00000   0.00000   1.94843
   4        2PY         0.00000   0.00000   0.00000   1.94843
   5        2PZ         0.00000   0.00000  -0.00000   0.00000   1.94843
   6        3S         -0.00055   0.01100   0.00000   0.00000   0.00000
   7        3PX         0.00000   0.00000   0.02780  -0.00000  -0.00000
   8        3PY         0.00000   0.00000  -0.00000   0.02780   0.00000
   9        3PZ         0.00000   0.00000  -0.00000   0.00000   0.02780
  10        4S          0.00116  -0.04155   0.00000   0.00000   0.00000
  11        4PX         0.00000   0.00000  -0.00522  -0.00000   0.00000
  12        4PY         0.00000   0.00000  -0.00000  -0.00522  -0.00000
  13        4PZ         0.00000   0.00000   0.00000  -0.00000  -0.00522
  14 2   H  1S          0.00000  -0.00019  -0.00013  -0.00013  -0.00013
  15        2S          0.00017  -0.00716  -0.00216  -0.00216  -0.00216
  16 3   H  1S          0.00000  -0.00019  -0.00013  -0.00013  -0.00013
  17        2S          0.00017  -0.00716  -0.00216  -0.00216  -0.00216
  18 4   H  1S          0.00000  -0.00019  -0.00013  -0.00013  -0.00013
  19        2S          0.00017  -0.00716  -0.00216  -0.00216  -0.00216
  20 5   H  1S          0.00000  -0.00019  -0.00013  -0.00013  -0.00013
  21        2S          0.00017  -0.00716  -0.00216  -0.00216  -0.00216
                           6         7         8         9        10
   6        3S          0.17569
   7        3PX         0.00000   0.10481
   8        3PY         0.00000  -0.00000   0.10481
   9        3PZ         0.00000   0.00000   0.00000   0.10481
  10        4S          0.12583   0.00000   0.00000   0.00000   0.15680
  11        4PX         0.00000   0.03707  -0.00000  -0.00000   0.00000
  12        4PY         0.00000  -0.00000   0.03707   0.00000   0.00000
  13        4PZ         0.00000  -0.00000   0.00000   0.03707   0.00000
  14 2   H  1S          0.01014   0.00991   0.00991   0.00991   0.01273
  15        2S          0.03918   0.03603   0.03603   0.03603   0.04831
  16 3   H  1S          0.01014   0.00991   0.00991   0.00991   0.01273
  17        2S          0.03918   0.03603   0.03603   0.03603   0.04831
  18 4   H  1S          0.01014   0.00991   0.00991   0.00991   0.01273
  19        2S          0.03918   0.03603   0.03603   0.03603   0.04831
  20 5   H  1S          0.01014   0.00991   0.00991   0.00991   0.01273
  21        2S          0.03918   0.03603   0.03603   0.03603   0.04831
                          11        12        13        14        15
  11        4PX         0.04208
  12        4PY        -0.00000   0.04208
  13        4PZ        -0.00000   0.00000   0.04208
  14 2   H  1S          0.00651   0.00651   0.00651   0.13892
  15        2S          0.02874   0.02874   0.02874   0.17795   0.55637
  16 3   H  1S          0.00651   0.00651   0.00651  -0.00000  -0.00047
  17        2S          0.02874   0.02874   0.02874  -0.00047  -0.00978
  18 4   H  1S          0.00651   0.00651   0.00651  -0.00000  -0.00047
  19        2S          0.02874   0.02874   0.02874  -0.00047  -0.00978
  20 5   H  1S          0.00651   0.00651   0.00651  -0.00000  -0.00047
  21        2S          0.02874   0.02874   0.02874  -0.00047  -0.00978
                          16        17        18        19        20
  16 3   H  1S          0.13892
  17        2S          0.17795   0.55637
  18 4   H  1S         -0.00000  -0.00047   0.13892
  19        2S         -0.00047  -0.00978   0.17795   0.55637
  20 5   H  1S         -0.00000  -0.00047  -0.00000  -0.00047   0.13892
  21        2S         -0.00047  -0.00978  -0.00047  -0.00978   0.17795
                          21
  21        2S          0.55637
     Gross orbital populations:
                           1
   1 1   Al 1S          1.99882
   2        2S          1.97927
   3        2PX         1.96183
   4        2PY         1.96183
   5        2PZ         1.96183
   6        3S          0.50928
   7        3PX         0.35343
   8        3PY         0.35343
   9        3PZ         0.35343
  10        4S          0.48640
  11        4PX         0.21496
  12        4PY         0.21496
  13        4PZ         0.21496
  14 2   H  1S          0.38700
  15        2S          0.97189
  16 3   H  1S          0.38700
  17        2S          0.97189
  18 4   H  1S          0.38700
  19        2S          0.97189
  20 5   H  1S          0.38700
  21        2S          0.97189
          Condensed to atoms (all electrons):
               1          2          3          4          5
     1  Al  11.204836   0.339898   0.339898   0.339898   0.339898
     2  H    0.339898   1.051185  -0.010730  -0.010730  -0.010730
     3  H    0.339898  -0.010730   1.051185  -0.010730  -0.010730
     4  H    0.339898  -0.010730  -0.010730   1.051185  -0.010730
     5  H    0.339898  -0.010730  -0.010730  -0.010730   1.051185
 Mulliken charges:
               1
     1  Al   0.435570
     2  H   -0.358892
     3  H   -0.358892
     4  H   -0.358892
     5  H   -0.358892
 Sum of Mulliken charges =  -1.00000
 Mulliken charges with hydrogens summed into heavy atoms:
               1
     1  Al  -1.000000
 Electronic spatial extent (au):  <R**2>=             96.3344
 Charge=             -1.0000 electrons
 Dipole moment (field-independent basis, Debye):
    X=              0.0000    Y=              0.0000    Z=             -0.0000  Tot=              0.0000
 Quadrupole moment (field-independent basis, Debye-Ang):
   XX=            -25.4600   YY=            -25.4600   ZZ=            -25.4600
   XY=              0.0000   XZ=              0.0000   YZ=             -0.0000
 Traceless Quadrupole moment (field-independent basis, Debye-Ang):
   XX=              0.0000   YY=              0.0000   ZZ=              0.0000
   XY=              0.0000   XZ=              0.0000   YZ=             -0.0000
 Octapole moment (field-independent basis, Debye-Ang**2):
  XXX=              0.0000  YYY=              0.0000  ZZZ=              0.0000  XYY=             -0.0000
  XXY=              0.0000  XXZ=              0.0000  XZZ=              0.0000  YZZ=             -0.0000
  YYZ=              0.0000  XYZ=             -7.1104
 Hexadecapole moment (field-independent basis, Debye-Ang**3):
 XXXX=            -78.6033 YYYY=            -78.6033 ZZZZ=            -78.6033 XXXY=             -0.0000
 XXXZ=              0.0000 YYYX=              0.0000 YYYZ=             -0.0000 ZZZX=              0.0000
 ZZZY=              0.0000 XXYY=            -30.0466 XXZZ=            -30.0466 YYZZ=            -30.0466
 XXYZ=              0.0000 YYXZ=              0.0000 ZZXY=              0.0000
 N-N= 1.770613196501D+01 E-N=-6.196736101427D+02  KE= 2.426674142284D+02
 Symmetry A    KE= 1.808593125184D+02
 Symmetry B1   KE= 2.060270057000D+01
 Symmetry B2   KE= 2.060270057000D+01
 Symmetry B3   KE= 2.060270057000D+01
 Orbital energies and kinetic energies (alpha):
                                 1                 2
   1         (A1)--O         -57.803269         78.665372
   2         (A1)--O          -4.612712         11.077014
   3         (T2)--O          -2.916838          9.726455
   4         (T2)--O          -2.916838          9.726455
   5         (T2)--O          -2.916838          9.726455
   6         (A1)--O          -0.355547          0.687270
   7         (T2)--O          -0.186148          0.574895
   8         (T2)--O          -0.186148          0.574895
   9         (T2)--O          -0.186148          0.574895
  10         (T2)--V           0.357030          0.313884
  11         (T2)--V           0.357030          0.313884
  12         (T2)--V           0.357030          0.313884
  13         (A1)--V           0.480893          0.520985
  14         (A1)--V           0.532744          1.480261
  15         (T2)--V           0.604542          1.553474
  16         (T2)--V           0.604542          1.553474
  17         (T2)--V           0.604542          1.553474
  18         (T2)--V           1.587946          2.332529
  19         (T2)--V           1.587946          2.332529
  20         (T2)--V           1.587946          2.332529
  21         (A1)--V           1.630510          2.310918
 Total kinetic energy from orbitals= 2.426674142284D+02
 1\1\GINC-IISERK51\SP\RHF\3-21G\Al1H4(1-)\GAUSSIAN\14-Jun-2025\0\\# hf/
 3-21g pop=full geom=connectivity\\sp\\-1,1\Al,0,0.,0.,0.\H,0,0.960663,
 0.960663,0.960663\H,0,-0.960663,0.960663,-0.960663\H,0,0.960663,-0.960
 663,-0.960663\H,0,-0.960663,-0.960663,0.960663\\Version=EM64L-G16RevB.
 01\State=1-A1\HF=-242.8774493\RMSD=2.187e-09\Dipole=0.,0.,0.\Quadrupol
 e=0.,0.,0.,0.,0.,0.\PG=TD [O(Al1),4C3(H1)]\\@


 THE REAL VOYAGE OF DISCOVERY CONSISTS NOT IN SEEKING NEW LANDSCAPES 
 BUT IN HAVING NEW EYES.
                                                    -- MARCEL PROUST
 Job cpu time:       0 days  0 hours  0 minutes  0.4 seconds.
 Elapsed time:       0 days  0 hours  0 minutes  0.4 seconds.
 File lengths (MBytes):  RWF=      6 Int=      0 D2E=      0 Chk=      1 Scr=      1
 Normal termination of Gaussian 16 at Sat Jun 14 16:12:56 2025.
