 Entering Gaussian System, Link 0=g16
 Input=/home/gaussian/Documents/jeeva/Aromaticity/Toluene/methToluene.com
 Output=/home/gaussian/Documents/jeeva/Aromaticity/Toluene/methToluene.log
 Initial command:
 /usr/local/g16/l1.exe "/home/gaussian/tmp/Gau-93816.inp" -scrdir="/home/gaussian/tmp/"
 Entering Link 1 = /usr/local/g16/l1.exe PID=     93819.
  
 Copyright (c) 1988-2017, Gaussian, Inc.  All Rights Reserved.
  
 This is part of the Gaussian(R) 16 program.  It is based on
 the Gaussian(R) 09 system (copyright 2009, Gaussian, Inc.),
 the Gaussian(R) 03 system (copyright 2003, Gaussian, Inc.),
 the Gaussian(R) 98 system (copyright 1998, Gaussian, Inc.),
 the Gaussian(R) 94 system (copyright 1995, Gaussian, Inc.),
 the Gaussian 92(TM) system (copyright 1992, Gaussian, Inc.),
 the Gaussian 90(TM) system (copyright 1990, Gaussian, Inc.),
 the Gaussian 88(TM) system (copyright 1988, Gaussian, Inc.),
 the Gaussian 86(TM) system (copyright 1986, Carnegie Mellon
 University), and the Gaussian 82(TM) system (copyright 1983,
 Carnegie Mellon University). Gaussian is a federally registered
 trademark of Gaussian, Inc.
  
 This software contains proprietary and confidential information,
 including trade secrets, belonging to Gaussian, Inc.
  
 This software is provided under written license and may be
 used, copied, transmitted, or stored only in accord with that
 written license.
  
 The following legend is applicable only to US Government
 contracts under FAR:
  
                    RESTRICTED RIGHTS LEGEND
  
 Use, reproduction and disclosure by the US Government is
 subject to restrictions as set forth in subparagraphs (a)
 and (c) of the Commercial Computer Software - Restricted
 Rights clause in FAR 52.227-19.
  
 Gaussian, Inc.
 340 Quinnipiac St., Bldg. 40, Wallingford CT 06492
  
  
 ---------------------------------------------------------------
 Warning -- This program may not be used in any manner that
 competes with the business of Gaussian, Inc. or will provide
 assistance to any competitor of Gaussian, Inc.  The licensee
 of this program is prohibited from giving any competitor of
 Gaussian, Inc. access to this program.  By using this program,
 the user acknowledges that Gaussian, Inc. is engaged in the
 business of creating and licensing software in the field of
 computational chemistry and represents and warrants to the
 licensee that it is not a competitor of Gaussian, Inc. and that
 it will not use this program in any manner prohibited above.
 ---------------------------------------------------------------
  

 Cite this work as:
 Gaussian 16, Revision B.01,
 M. J. Frisch, G. W. Trucks, H. B. Schlegel, G. E. Scuseria, 
 M. A. Robb, J. R. Cheeseman, G. Scalmani, V. Barone, 
 G. A. Petersson, H. Nakatsuji, X. Li, M. Caricato, A. V. Marenich, 
 J. Bloino, B. G. Janesko, R. Gomperts, B. Mennucci, H. P. Hratchian, 
 J. V. Ortiz, A. F. Izmaylov, J. L. Sonnenberg, D. Williams-Young, 
 F. Ding, F. Lipparini, F. Egidi, J. Goings, B. Peng, A. Petrone, 
 T. Henderson, D. Ranasinghe, V. G. Zakrzewski, J. Gao, N. Rega, 
 G. Zheng, W. Liang, M. Hada, M. Ehara, K. Toyota, R. Fukuda, 
 J. Hasegawa, M. Ishida, T. Nakajima, Y. Honda, O. Kitao, H. Nakai, 
 T. Vreven, K. Throssell, J. A. Montgomery, Jr., J. E. Peralta, 
 F. Ogliaro, M. J. Bearpark, J. J. Heyd, E. N. Brothers, K. N. Kudin, 
 V. N. Staroverov, T. A. Keith, R. Kobayashi, J. Normand, 
 K. Raghavachari, A. P. Rendell, J. C. Burant, S. S. Iyengar, 
 J. Tomasi, M. Cossi, J. M. Millam, M. Klene, C. Adamo, R. Cammi, 
 J. W. Ochterski, R. L. Martin, K. Morokuma, O. Farkas, 
 J. B. Foresman, and D. J. Fox, Gaussian, Inc., Wallingford CT, 2016.
 
 ******************************************
 Gaussian 16:  EM64L-G16RevB.01 20-Dec-2017
                 9-Jun-2025 
 ******************************************
 %chk=methToluene.chk
 ----------------------------------------------
 # opt freq hf/3-21g pop=full geom=connectivity
 ----------------------------------------------
 1/18=20,19=15,38=1,57=2/1,3;
 2/9=110,12=2,17=6,18=5,40=1/2;
 3/5=5,11=9,25=1,30=1,71=1/1,2,3;
 4//1;
 5/5=2,38=5/2;
 6/7=3,28=1/1;
 7//1,2,3,16;
 1/18=20,19=15/3(2);
 2/9=110/2;
 99//99;
 2/9=110/2;
 3/5=5,11=9,25=1,30=1,71=1/1,2,3;
 4/5=5,16=3,69=1/1;
 5/5=2,38=5/2;
 7//1,2,3,16;
 1/18=20,19=15/3(-5);
 2/9=110/2;
 6/7=3,19=2,28=1/1;
 99/9=1/99;
 -----------------------
 Methyl Toluene opt+Freq
 -----------------------
 Symbolic Z-matrix:
 Charge =  0 Multiplicity = 1
 C                    -0.08664  -2.62817   0.00125 
 C                     1.31476  -2.62831  -0.00149 
 C                     2.01559  -1.41473  -0.00193 
 C                     1.31501  -0.20101   0.00038 
 C                    -0.08639  -0.20087   0.00313 
 C                    -0.78721  -1.41445   0.00357 
 H                    -0.62173  -3.55476   0.00158 
 H                     1.84967  -3.55501  -0.00326 
 H                     3.08558  -1.41484  -0.00403 
 H                    -0.62129   0.72583   0.0049 
 H                    -1.85721  -1.41434   0.00567 
 C                     2.08515   1.13259  -0.0001 
 H                     2.26549   1.44067   1.00859 
 H                     3.01908   1.00494  -0.50644 
 H                     1.50597   1.87874  -0.50279 
 

 GradGradGradGradGradGradGradGradGradGradGradGradGradGradGradGradGradGrad
 Berny optimization.
 Initialization pass.
                           ----------------------------
                           !    Initial Parameters    !
                           ! (Angstroms and Degrees)  !
 --------------------------                            --------------------------
 ! Name  Definition              Value          Derivative Info.                !
 --------------------------------------------------------------------------------
 ! R1    R(1,2)                  1.4014         estimate D2E/DX2                !
 ! R2    R(1,6)                  1.4014         estimate D2E/DX2                !
 ! R3    R(1,7)                  1.07           estimate D2E/DX2                !
 ! R4    R(2,3)                  1.4014         estimate D2E/DX2                !
 ! R5    R(2,8)                  1.07           estimate D2E/DX2                !
 ! R6    R(3,4)                  1.4014         estimate D2E/DX2                !
 ! R7    R(3,9)                  1.07           estimate D2E/DX2                !
 ! R8    R(4,5)                  1.4014         estimate D2E/DX2                !
 ! R9    R(4,12)                 1.54           estimate D2E/DX2                !
 ! R10   R(5,6)                  1.4014         estimate D2E/DX2                !
 ! R11   R(5,10)                 1.07           estimate D2E/DX2                !
 ! R12   R(6,11)                 1.07           estimate D2E/DX2                !
 ! R13   R(12,13)                1.07           estimate D2E/DX2                !
 ! R14   R(12,14)                1.07           estimate D2E/DX2                !
 ! R15   R(12,15)                1.07           estimate D2E/DX2                !
 ! A1    A(2,1,6)              120.0            estimate D2E/DX2                !
 ! A2    A(2,1,7)              120.0            estimate D2E/DX2                !
 ! A3    A(6,1,7)              120.0            estimate D2E/DX2                !
 ! A4    A(1,2,3)              120.0            estimate D2E/DX2                !
 ! A5    A(1,2,8)              120.0            estimate D2E/DX2                !
 ! A6    A(3,2,8)              120.0            estimate D2E/DX2                !
 ! A7    A(2,3,4)              120.0            estimate D2E/DX2                !
 ! A8    A(2,3,9)              120.0            estimate D2E/DX2                !
 ! A9    A(4,3,9)              120.0            estimate D2E/DX2                !
 ! A10   A(3,4,5)              120.0            estimate D2E/DX2                !
 ! A11   A(3,4,12)             120.0            estimate D2E/DX2                !
 ! A12   A(5,4,12)             120.0            estimate D2E/DX2                !
 ! A13   A(4,5,6)              120.0            estimate D2E/DX2                !
 ! A14   A(4,5,10)             120.0            estimate D2E/DX2                !
 ! A15   A(6,5,10)             120.0            estimate D2E/DX2                !
 ! A16   A(1,6,5)              120.0            estimate D2E/DX2                !
 ! A17   A(1,6,11)             120.0            estimate D2E/DX2                !
 ! A18   A(5,6,11)             120.0            estimate D2E/DX2                !
 ! A19   A(4,12,13)            109.4712         estimate D2E/DX2                !
 ! A20   A(4,12,14)            109.4712         estimate D2E/DX2                !
 ! A21   A(4,12,15)            109.4712         estimate D2E/DX2                !
 ! A22   A(13,12,14)           109.4712         estimate D2E/DX2                !
 ! A23   A(13,12,15)           109.4712         estimate D2E/DX2                !
 ! A24   A(14,12,15)           109.4712         estimate D2E/DX2                !
 ! D1    D(6,1,2,3)             -0.0002         estimate D2E/DX2                !
 ! D2    D(6,1,2,8)            179.9998         estimate D2E/DX2                !
 ! D3    D(7,1,2,3)            179.9999         estimate D2E/DX2                !
 ! D4    D(7,1,2,8)             -0.0001         estimate D2E/DX2                !
 ! D5    D(2,1,6,5)              0.0002         estimate D2E/DX2                !
 ! D6    D(2,1,6,11)          -179.9999         estimate D2E/DX2                !
 ! D7    D(7,1,6,5)           -179.9999         estimate D2E/DX2                !
 ! D8    D(7,1,6,11)             0.0001         estimate D2E/DX2                !
 ! D9    D(1,2,3,4)              0.0            estimate D2E/DX2                !
 ! D10   D(1,2,3,9)            180.0            estimate D2E/DX2                !
 ! D11   D(8,2,3,4)           -180.0            estimate D2E/DX2                !
 ! D12   D(8,2,3,9)              0.0            estimate D2E/DX2                !
 ! D13   D(2,3,4,5)              0.0001         estimate D2E/DX2                !
 ! D14   D(2,3,4,12)          -179.9999         estimate D2E/DX2                !
 ! D15   D(9,3,4,5)           -179.9998         estimate D2E/DX2                !
 ! D16   D(9,3,4,12)             0.0002         estimate D2E/DX2                !
 ! D17   D(3,4,5,6)             -0.0001         estimate D2E/DX2                !
 ! D18   D(3,4,5,10)           179.9999         estimate D2E/DX2                !
 ! D19   D(12,4,5,6)           179.9999         estimate D2E/DX2                !
 ! D20   D(12,4,5,10)           -0.0001         estimate D2E/DX2                !
 ! D21   D(3,4,12,13)          -90.0            estimate D2E/DX2                !
 ! D22   D(3,4,12,14)           30.0            estimate D2E/DX2                !
 ! D23   D(3,4,12,15)          150.0            estimate D2E/DX2                !
 ! D24   D(5,4,12,13)           90.0            estimate D2E/DX2                !
 ! D25   D(5,4,12,14)         -150.0            estimate D2E/DX2                !
 ! D26   D(5,4,12,15)          -30.0            estimate D2E/DX2                !
 ! D27   D(4,5,6,1)             -0.0001         estimate D2E/DX2                !
 ! D28   D(4,5,6,11)           180.0            estimate D2E/DX2                !
 ! D29   D(10,5,6,1)           180.0            estimate D2E/DX2                !
 ! D30   D(10,5,6,11)            0.0            estimate D2E/DX2                !
 --------------------------------------------------------------------------------
 Trust Radius=3.00D-01 FncErr=1.00D-07 GrdErr=1.00D-07 EigMax=2.50D+02 EigMin=1.00D-04
 Number of steps in this run=     79 maximum allowed number of steps=    100.
 GradGradGradGradGradGradGradGradGradGradGradGradGradGradGradGradGradGrad

                          Input orientation:                          
 ---------------------------------------------------------------------
 Center     Atomic      Atomic             Coordinates (Angstroms)
 Number     Number       Type             X           Y           Z
 ---------------------------------------------------------------------
      1          6           0       -0.086635   -2.628166    0.001253
      2          6           0        1.314762   -2.628308   -0.001493
      3          6           0        2.015586   -1.414732   -0.001929
      4          6           0        1.315012   -0.201013    0.000381
      5          6           0       -0.086385   -0.200871    0.003130
      6          6           0       -0.787209   -1.414447    0.003567
      7          1           0       -0.621730   -3.554759    0.001584
      8          1           0        1.849666   -3.555009   -0.003257
      9          1           0        3.085584   -1.414840   -0.004026
     10          1           0       -0.621289    0.725830    0.004896
     11          1           0       -1.857207   -1.414339    0.005666
     12          6           0        2.085148    1.132588   -0.000101
     13          1           0        2.265491    1.440674    1.008591
     14          1           0        3.019081    1.004939   -0.506435
     15          1           0        1.505965    1.878743   -0.502793
 ---------------------------------------------------------------------
                    Distance matrix (angstroms):
                    1          2          3          4          5
     1  C    0.000000
     2  C    1.401400   0.000000
     3  C    2.427296   1.401400   0.000000
     4  C    2.802800   2.427296   1.401400   0.000000
     5  C    2.427296   2.802800   2.427296   1.401400   0.000000
     6  C    1.401400   2.427296   2.802800   2.427296   1.401400
     7  H    1.070000   2.146700   3.396345   3.872800   3.396345
     8  H    2.146700   1.070000   2.146700   3.396345   3.872800
     9  H    3.396345   2.146700   1.070000   2.146700   3.396345
    10  H    3.396345   3.872800   3.396345   2.146700   1.070000
    11  H    2.146700   3.396345   3.872800   3.396345   2.146700
    12  C    4.342800   3.838989   2.548270   1.540000   2.548270
    13  H    4.806525   4.298927   3.039234   2.148263   3.039234
    14  H    4.806524   4.044769   2.667646   2.148263   3.370097
    15  H    4.806524   4.538874   3.370097   2.148263   2.667646
                    6          7          8          9         10
     6  C    0.000000
     7  H    2.146700   0.000000
     8  H    3.396345   2.471400   0.000000
     9  H    3.872800   4.280590   2.471400   0.000000
    10  H    2.146700   4.280590   4.942800   4.280590   0.000000
    11  H    1.070000   2.471400   4.280590   4.942800   2.471400
    12  C    3.838989   5.412800   4.693509   2.736837   2.736837
    13  H    4.298926   5.857000   5.114059   3.138774   3.138774
    14  H    4.538874   5.856998   4.734326   2.472280   3.686686
    15  H    4.044769   5.856998   5.467480   3.686686   2.472280
                   11         12         13         14         15
    11  H    0.000000
    12  C    4.693509   0.000000
    13  H    5.114059   1.070000   0.000000
    14  H    5.467480   1.070000   1.747303   0.000000
    15  H    4.734327   1.070000   1.747303   1.747303   0.000000
 Stoichiometry    C7H8
 Framework group  CS[SG(C3H2),X(C4H6)]
 Deg. of freedom    22
 Full point group                 CS      NOp   2
 Largest Abelian subgroup         CS      NOp   2
 Largest concise Abelian subgroup CS      NOp   2
                         Standard orientation:                         
 ---------------------------------------------------------------------
 Center     Atomic      Atomic             Coordinates (Angstroms)
 Number     Number       Type             X           Y           Z
 ---------------------------------------------------------------------
      1          6           0        0.000004   -1.902824    0.000000
      2          6           0        0.000001   -1.202124    1.213648
      3          6           0       -0.000001    0.199276    1.213648
      4          6           0       -0.000001    0.899976   -0.000000
      5          6           0       -0.000001    0.199276   -1.213648
      6          6           0        0.000001   -1.202124   -1.213648
      7          1           0        0.000008   -2.972824    0.000000
      8          1           0        0.000001   -1.737124    2.140295
      9          1           0       -0.000004    0.734276    2.140295
     10          1           0       -0.000004    0.734276   -2.140295
     11          1           0        0.000001   -1.737124   -2.140295
     12          6           0       -0.000001    2.439976   -0.000000
     13          1           0       -1.008807    2.796643   -0.000000
     14          1           0        0.504401    2.796643    0.873651
     15          1           0        0.504401    2.796643   -0.873651
 ---------------------------------------------------------------------
 Rotational constants (GHZ):           5.4786612           2.5095421           1.7393815
 Standard basis: 3-21G (6D, 7F)
 There are    49 symmetry adapted cartesian basis functions of A'  symmetry.
 There are    30 symmetry adapted cartesian basis functions of A"  symmetry.
 There are    49 symmetry adapted basis functions of A'  symmetry.
 There are    30 symmetry adapted basis functions of A"  symmetry.
    79 basis functions,   129 primitive gaussians,    79 cartesian basis functions
    25 alpha electrons       25 beta electrons
       nuclear repulsion energy       268.5510055239 Hartrees.
 NAtoms=   15 NActive=   15 NUniq=   10 SFac= 2.25D+00 NAtFMM=   60 NAOKFM=F Big=F
 Integral buffers will be    131072 words long.
 Raffenetti 1 integral format.
 Two-electron integral symmetry is turned on.
 One-electron integrals computed using PRISM.
 NBasis=    79 RedAO= T EigKep=  1.69D-03  NBF=    49    30
 NBsUse=    79 1.00D-06 EigRej= -1.00D+00 NBFU=    49    30
 ExpMin= 1.83D-01 ExpMax= 1.72D+02 ExpMxC= 1.72D+02 IAcc=3 IRadAn=         5 AccDes= 0.00D+00
 Harris functional with IExCor=  205 and IRadAn=       5 diagonalized for initial guess.
 HarFok:  IExCor=  205 AccDes= 0.00D+00 IRadAn=         5 IDoV= 1 UseB2=F ITyADJ=14
 ICtDFT=  3500011 ScaDFX=  1.000000  1.000000  1.000000  1.000000
 FoFCou: FMM=F IPFlag=           0 FMFlag=      100000 FMFlg1=           0
         NFxFlg=           0 DoJE=T BraDBF=F KetDBF=T FulRan=T
         wScrn=  0.000000 ICntrl=       500 IOpCl=  0 I1Cent=   200000004 NGrid=           0
         NMat0=    1 NMatS0=      1 NMatT0=    0 NMatD0=    1 NMtDS0=    0 NMtDT0=    0
 Petite list used in FoFCou.
 Initial guess orbital symmetries:
       Occupied  (A') (A') (A") (A') (A") (A') (A') (A') (A') (A")
                 (A') (A") (A') (A') (A") (A') (A") (A') (A') (A")
                 (A') (A') (A") (A") (A')
       Virtual   (A") (A') (A') (A') (A") (A') (A') (A") (A') (A')
                 (A") (A') (A") (A') (A') (A") (A") (A') (A") (A')
                 (A') (A') (A") (A') (A') (A") (A") (A') (A") (A')
                 (A') (A') (A') (A") (A') (A") (A') (A') (A") (A")
                 (A") (A') (A') (A') (A") (A') (A") (A') (A") (A')
                 (A') (A") (A') (A')
 The electronic state of the initial guess is 1-A'.
 Keep R1 ints in memory in symmetry-blocked form, NReq=7512601.
 Requested convergence on RMS density matrix=1.00D-08 within 128 cycles.
 Requested convergence on MAX density matrix=1.00D-06.
 Requested convergence on             energy=1.00D-06.
 No special actions if energy rises.
 SCF Done:  E(RHF) =  -268.237608269     A.U. after   12 cycles
            NFock= 12  Conv=0.62D-08     -V/T= 2.0025

 **********************************************************************

            Population analysis using the SCF Density.

 **********************************************************************

 Orbital symmetries:
       Occupied  (A') (A") (A') (A') (A") (A') (A') (A') (A') (A")
                 (A') (A") (A') (A') (A") (A') (A") (A') (A') (A")
                 (A') (A") (A') (A") (A')
       Virtual   (A") (A') (A') (A') (A") (A') (A') (A") (A') (A")
                 (A') (A') (A") (A') (A') (A") (A") (A') (A") (A')
                 (A') (A') (A") (A') (A') (A") (A") (A') (A") (A')
                 (A') (A') (A") (A') (A') (A") (A') (A") (A') (A")
                 (A") (A') (A') (A') (A") (A') (A") (A') (A") (A')
                 (A') (A") (A') (A')
 The electronic state is 1-A'.
 Alpha  occ. eigenvalues --  -11.18899 -11.17792 -11.17785 -11.17402 -11.17365
 Alpha  occ. eigenvalues --  -11.17349 -11.15938  -1.14809  -1.03922  -1.00896
 Alpha  occ. eigenvalues --   -0.93465  -0.82584  -0.79727  -0.69821  -0.63323
 Alpha  occ. eigenvalues --   -0.63195  -0.58933  -0.58199  -0.56291  -0.54439
 Alpha  occ. eigenvalues --   -0.48853  -0.48664  -0.47586  -0.33385  -0.32356
 Alpha virt. eigenvalues --    0.14734   0.15205   0.26346   0.30108   0.31605
 Alpha virt. eigenvalues --    0.33390   0.34925   0.35767   0.37615   0.37728
 Alpha virt. eigenvalues --    0.40198   0.42948   0.50713   0.52484   0.53705
 Alpha virt. eigenvalues --    0.55833   0.76648   0.81255   0.89182   0.90841
 Alpha virt. eigenvalues --    0.94229   0.97578   0.98203   0.98381   1.04011
 Alpha virt. eigenvalues --    1.05675   1.07933   1.08944   1.10586   1.12199
 Alpha virt. eigenvalues --    1.14657   1.19251   1.21211   1.21566   1.29143
 Alpha virt. eigenvalues --    1.32362   1.35340   1.37714   1.37747   1.42151
 Alpha virt. eigenvalues --    1.44866   1.45565   1.56823   1.59763   1.61114
 Alpha virt. eigenvalues --    1.71880   1.75207   1.79952   1.81318   1.88278
 Alpha virt. eigenvalues --    2.15894   2.18517   2.22915   2.75843
     Molecular Orbital Coefficients:
                           1         2         3         4         5
                           O         O         O         O         O
     Eigenvalues --   -11.18899 -11.17792 -11.17785 -11.17402 -11.17365
   1 1   C  1S         -0.00504   0.00000  -0.08267   0.96624   0.00000
   2        2S         -0.00135   0.00000  -0.01438   0.09692   0.00000
   3        2PX        -0.00001   0.00000   0.00000   0.00000   0.00000
   4        2PY        -0.00030   0.00000  -0.00174   0.00128   0.00000
   5        2PZ         0.00000  -0.00119   0.00000   0.00000  -0.00118
   6        3S          0.01063   0.00000   0.06034  -0.08292   0.00000
   7        3PX         0.00003   0.00000  -0.00001   0.00000   0.00000
   8        3PY         0.00648   0.00000   0.03270  -0.01981   0.00000
   9        3PZ         0.00000   0.01446   0.00000   0.00000   0.00118
  10 2   C  1S         -0.00423   0.69762   0.69413   0.04714   0.02435
  11        2S         -0.00026   0.07024   0.07081   0.00129   0.00012
  12        2PX        -0.00000   0.00000   0.00000   0.00000  -0.00000
  13        2PY        -0.00074   0.00020   0.00077   0.00045  -0.00080
  14        2PZ         0.00008  -0.00145  -0.00026   0.00133   0.00020
  15        3S         -0.00874  -0.05586  -0.08011   0.02427   0.01488
  16        3PX        -0.00004  -0.00001   0.00001  -0.00000   0.00001
  17        3PY        -0.00181  -0.00519  -0.01395  -0.00215   0.01003
  18        3PZ         0.00702   0.01039   0.02335  -0.01870  -0.00457
  19 3   C  1S         -0.01351  -0.02474  -0.05004  -0.13502   0.69764
  20        2S         -0.00523  -0.00489  -0.00886  -0.01360   0.07035
  21        2PX        -0.00001  -0.00001   0.00000  -0.00000   0.00000
  22        2PY        -0.00048   0.00089   0.00112   0.00116  -0.00022
  23        2PZ         0.00141   0.00019   0.00065   0.00022  -0.00137
  24        3S          0.03181   0.02072   0.04110   0.00271  -0.05819
  25        3PX         0.00015   0.00002  -0.00005   0.00001  -0.00002
  26        3PY         0.00309  -0.00991  -0.01776   0.00053   0.00278
  27        3PZ        -0.01871  -0.00521  -0.01639   0.00372   0.01133
  28 4   C  1S          0.98729   0.00000   0.00467   0.00157   0.00000
  29        2S          0.10020   0.00000   0.00150   0.00033   0.00000
  30        2PX         0.00002   0.00000  -0.00001   0.00000   0.00000
  31        2PY        -0.00040   0.00000   0.00073   0.00024   0.00000
  32        2PZ         0.00000  -0.00076   0.00000   0.00000  -0.00185
  33        3S         -0.09369   0.00000  -0.02597   0.00111   0.00000
  34        3PX        -0.00049   0.00000   0.00013  -0.00002   0.00000
  35        3PY         0.01189   0.00000   0.01421  -0.00297   0.00000
  36        3PZ         0.00000  -0.00235   0.00000   0.00000   0.02010
  37 5   C  1S         -0.01351   0.02474  -0.05004  -0.13502  -0.69764
  38        2S         -0.00523   0.00489  -0.00886  -0.01360  -0.07035
  39        2PX        -0.00001   0.00001   0.00000  -0.00000  -0.00000
  40        2PY        -0.00048  -0.00089   0.00112   0.00116   0.00022
  41        2PZ        -0.00141   0.00019  -0.00065  -0.00022  -0.00137
  42        3S          0.03181  -0.02072   0.04110   0.00271   0.05819
  43        3PX         0.00015  -0.00002  -0.00005   0.00001   0.00002
  44        3PY         0.00309   0.00991  -0.01776   0.00053  -0.00278
  45        3PZ         0.01871  -0.00521   0.01639  -0.00372   0.01133
  46 6   C  1S         -0.00423  -0.69762   0.69413   0.04714  -0.02435
  47        2S         -0.00026  -0.07024   0.07081   0.00129  -0.00012
  48        2PX        -0.00000  -0.00000   0.00000   0.00000   0.00000
  49        2PY        -0.00074  -0.00020   0.00077   0.00045   0.00080
  50        2PZ        -0.00008  -0.00145   0.00026  -0.00133   0.00020
  51        3S         -0.00874   0.05586  -0.08011   0.02427  -0.01488
  52        3PX        -0.00004   0.00001   0.00001  -0.00000  -0.00001
  53        3PY        -0.00181   0.00519  -0.01395  -0.00215  -0.01003
  54        3PZ        -0.00702   0.01039  -0.02335   0.01870  -0.00457
  55 7   H  1S          0.00016   0.00000   0.00035  -0.00234   0.00000
  56        2S          0.00170   0.00000   0.00714   0.00671   0.00000
  57 8   H  1S         -0.00046  -0.00146  -0.00214  -0.00014  -0.00013
  58        2S         -0.00106   0.00500   0.00245   0.00441   0.00245
  59 9   H  1S         -0.00039  -0.00014   0.00042  -0.00009  -0.00136
  60        2S          0.00276   0.00174   0.00502  -0.00173   0.00549
  61 10  H  1S         -0.00039   0.00014   0.00042  -0.00009   0.00136
  62        2S          0.00276  -0.00174   0.00502  -0.00173  -0.00549
  63 11  H  1S         -0.00046   0.00146  -0.00214  -0.00014   0.00013
  64        2S         -0.00106  -0.00500   0.00245   0.00441  -0.00245
  65 12  C  1S         -0.00235   0.00000  -0.00460   0.00009   0.00000
  66        2S         -0.00152   0.00000  -0.00136  -0.00012   0.00000
  67        2PX        -0.00040   0.00000   0.00008  -0.00001   0.00000
  68        2PY         0.00022   0.00000   0.00042  -0.00014   0.00000
  69        2PZ         0.00000  -0.00021   0.00000   0.00000  -0.00028
  70        3S          0.01116   0.00000  -0.00056   0.00182   0.00000
  71        3PX         0.00237   0.00000  -0.00053   0.00006   0.00000
  72        3PY        -0.00842   0.00000  -0.00058  -0.00071   0.00000
  73        3PZ         0.00000   0.00181   0.00000   0.00000  -0.00246
  74 13  H  1S         -0.00117   0.00000  -0.00020  -0.00006   0.00000
  75        2S          0.00373   0.00000  -0.00034  -0.00003   0.00000
  76 14  H  1S         -0.00088  -0.00028  -0.00019  -0.00005   0.00017
  77        2S         -0.00010  -0.00035   0.00046  -0.00013   0.00032
  78 15  H  1S         -0.00088   0.00028  -0.00019  -0.00005  -0.00017
  79        2S         -0.00010   0.00035   0.00046  -0.00013  -0.00032
                           6         7         8         9        10
                           O         O         O         O         O
     Eigenvalues --   -11.17349 -11.15938  -1.14809  -1.03922  -1.00896
   1 1   C  1S          0.18531   0.00155  -0.08949   0.11594   0.00000
   2        2S          0.01866   0.00003   0.09983  -0.12529   0.00000
   3        2PX         0.00000   0.00001  -0.00001  -0.00001   0.00000
   4        2PY        -0.00075  -0.00017   0.05416  -0.03422   0.00000
   5        2PZ         0.00000   0.00000   0.00000   0.00000   0.09992
   6        3S         -0.03352  -0.00135   0.17310  -0.25412   0.00000
   7        3PX         0.00000  -0.00015   0.00007   0.00018   0.00000
   8        3PY        -0.01595  -0.00155   0.01537  -0.00563   0.00000
   9        3PZ         0.00000   0.00000   0.00000   0.00000   0.01076
  10 2   C  1S          0.05914   0.00368  -0.09115   0.07314  -0.11735
  11        2S          0.00140  -0.00043   0.10306  -0.07778   0.12583
  12        2PX         0.00000  -0.00003   0.00002   0.00004  -0.00000
  13        2PY        -0.00089  -0.00036   0.02930   0.03839   0.05486
  14        2PZ         0.00091   0.00016  -0.04644   0.04793   0.00636
  15        3S          0.03683   0.00317   0.15996  -0.17721   0.27613
  16        3PX        -0.00000   0.00023  -0.00012  -0.00030  -0.00000
  17        3PY         0.01643   0.00276  -0.00101  -0.00853   0.00973
  18        3PZ        -0.01783  -0.00167  -0.00449   0.01429  -0.00586
  19 3   C  1S          0.68310   0.00729  -0.09778  -0.03261  -0.11870
  20        2S          0.06895   0.00009   0.10866   0.03476   0.12695
  21        2PX        -0.00001   0.00010  -0.00007  -0.00010  -0.00000
  22        2PY        -0.00047  -0.00075  -0.02138   0.07316  -0.05291
  23        2PZ        -0.00004   0.00022  -0.05181  -0.03771   0.00551
  24        3S         -0.07537  -0.00028   0.19481   0.08234   0.27697
  25        3PX         0.00001  -0.00043   0.00017   0.00057  -0.00003
  26        3PY         0.01381   0.00174  -0.01508  -0.00228  -0.01024
  27        3PZ         0.02284  -0.00227  -0.01725  -0.00695  -0.00488
  28 4   C  1S          0.01907   0.00214  -0.10819  -0.11723   0.00000
  29        2S         -0.00376  -0.00124   0.11952   0.12504   0.00000
  30        2PX        -0.00000  -0.00008  -0.00006  -0.00005   0.00000
  31        2PY         0.00236  -0.00052  -0.04915   0.03533   0.00000
  32        2PZ         0.00000   0.00000   0.00000   0.00000   0.10533
  33        3S          0.04928   0.01612   0.20299   0.25709   0.00000
  34        3PX         0.00001   0.00042  -0.00001  -0.00014   0.00000
  35        3PY        -0.03700   0.01712   0.00981   0.00411   0.00000
  36        3PZ         0.00000   0.00000   0.00000   0.00000   0.01791
  37 5   C  1S          0.68310   0.00729  -0.09778  -0.03261   0.11870
  38        2S          0.06895   0.00009   0.10866   0.03476  -0.12695
  39        2PX        -0.00001   0.00010  -0.00007  -0.00010   0.00000
  40        2PY        -0.00047  -0.00075  -0.02138   0.07316   0.05291
  41        2PZ         0.00004  -0.00022   0.05181   0.03771   0.00551
  42        3S         -0.07537  -0.00028   0.19481   0.08234  -0.27697
  43        3PX         0.00001  -0.00043   0.00017   0.00057   0.00003
  44        3PY         0.01381   0.00174  -0.01508  -0.00228   0.01024
  45        3PZ        -0.02284   0.00227   0.01725   0.00695  -0.00488
  46 6   C  1S          0.05914   0.00368  -0.09115   0.07314   0.11735
  47        2S          0.00140  -0.00043   0.10306  -0.07778  -0.12583
  48        2PX         0.00000  -0.00003   0.00002   0.00004   0.00000
  49        2PY        -0.00089  -0.00036   0.02930   0.03839  -0.05486
  50        2PZ        -0.00091  -0.00016   0.04644  -0.04793   0.00636
  51        3S          0.03683   0.00317   0.15996  -0.17721  -0.27613
  52        3PX        -0.00000   0.00023  -0.00012  -0.00030   0.00000
  53        3PY         0.01643   0.00276  -0.00101  -0.00853  -0.00973
  54        3PZ         0.01783   0.00167   0.00449  -0.01429  -0.00586
  55 7   H  1S         -0.00121  -0.00020   0.03191  -0.05649   0.00000
  56        2S         -0.00033  -0.00020  -0.00376  -0.00622   0.00000
  57 8   H  1S          0.00008   0.00004   0.03245  -0.03563   0.06422
  58        2S          0.00680   0.00124  -0.00700  -0.00759   0.01293
  59 9   H  1S         -0.00239   0.00000   0.03628   0.02164   0.06516
  60        2S          0.00218   0.00039  -0.00004   0.00876   0.01317
  61 10  H  1S         -0.00239   0.00000   0.03628   0.02164  -0.06516
  62        2S          0.00218   0.00039  -0.00004   0.00876  -0.01317
  63 11  H  1S          0.00008   0.00004   0.03245  -0.03563  -0.06422
  64        2S          0.00680   0.00124  -0.00700  -0.00759  -0.01293
  65 12  C  1S         -0.01115   0.98748  -0.04002  -0.11944   0.00000
  66        2S         -0.00274   0.10239   0.04172   0.11418   0.00000
  67        2PX         0.00001  -0.00003   0.00035   0.00048   0.00000
  68        2PY         0.00007  -0.00008  -0.02633  -0.03729   0.00000
  69        2PZ         0.00000   0.00000   0.00000   0.00000   0.01353
  70        3S          0.01408  -0.08552   0.08030   0.32638   0.00000
  71        3PX        -0.00007   0.00004  -0.00192  -0.00365   0.00000
  72        3PY        -0.00664   0.00656   0.00710  -0.01145   0.00000
  73        3PZ         0.00000   0.00000   0.00000   0.00000   0.00423
  74 13  H  1S         -0.00056   0.00011   0.01829   0.06098   0.00000
  75        2S         -0.00014   0.01507  -0.00687  -0.00566   0.00000
  76 14  H  1S         -0.00052   0.00016   0.01846   0.06121   0.00524
  77        2S         -0.00006   0.01483  -0.00303   0.00121   0.00381
  78 15  H  1S         -0.00052   0.00016   0.01846   0.06121  -0.00524
  79        2S         -0.00006   0.01483  -0.00303   0.00121  -0.00381
                          11        12        13        14        15
                           O         O         O         O         O
     Eigenvalues --    -0.93465  -0.82584  -0.79727  -0.69821  -0.63323
   1 1   C  1S         -0.09913   0.00000  -0.09134   0.02991   0.00000
   2        2S          0.10425   0.00000   0.09438  -0.02603   0.00000
   3        2PX        -0.00003   0.00000  -0.00001  -0.00007   0.00000
   4        2PY        -0.00890   0.00000  -0.04230   0.21528   0.00000
   5        2PZ         0.00000   0.17459   0.00000   0.00000   0.21113
   6        3S          0.26423   0.00000   0.29882  -0.12480   0.00000
   7        3PX         0.00022   0.00000  -0.00009   0.00000   0.00000
   8        3PY         0.00515   0.00000  -0.00356   0.13979   0.00000
   9        3PZ         0.00000   0.06287   0.00000   0.00000   0.11595
  10 2   C  1S         -0.01758  -0.09399   0.06277  -0.01367  -0.00478
  11        2S          0.01936   0.09744  -0.06411   0.01868   0.00435
  12        2PX         0.00006  -0.00004  -0.00001  -0.00016   0.00029
  13        2PY        -0.08803  -0.09537  -0.09017   0.09335  -0.20346
  14        2PZ        -0.04294  -0.00148  -0.11963  -0.12457  -0.08598
  15        3S          0.04203   0.29777  -0.21008   0.02806   0.02120
  16        3PX        -0.00038  -0.00000   0.00012  -0.00016   0.00002
  17        3PY        -0.02433  -0.02872  -0.03767   0.05742  -0.12063
  18        3PZ        -0.00375  -0.00736  -0.04787  -0.07906  -0.04930
  19 3   C  1S          0.07399   0.08987   0.03368   0.02287   0.01477
  20        2S         -0.07787  -0.09309  -0.03352  -0.01965  -0.01357
  21        2PX        -0.00014  -0.00005  -0.00007  -0.00048   0.00027
  22        2PY         0.00132  -0.10661   0.11416  -0.12213   0.18470
  23        2PZ         0.02800   0.00667  -0.13655  -0.12151  -0.10423
  24        3S         -0.19507  -0.28041  -0.11350  -0.09186  -0.06659
  25        3PX         0.00082  -0.00015  -0.00025  -0.00031   0.00095
  26        3PY         0.00907  -0.03132   0.03558  -0.07280   0.09735
  27        3PZ         0.01718   0.00767  -0.05434  -0.08725  -0.05117
  28 4   C  1S          0.03617   0.00000  -0.10501   0.01961   0.00000
  29        2S         -0.03853   0.00000   0.10836  -0.01539   0.00000
  30        2PX         0.00005   0.00000  -0.00023  -0.00089   0.00000
  31        2PY         0.13462   0.00000  -0.04785  -0.08823   0.00000
  32        2PZ         0.00000  -0.18662   0.00000   0.00000   0.21006
  33        3S         -0.09793   0.00000   0.34193  -0.08201   0.00000
  34        3PX        -0.00058   0.00000  -0.00010  -0.00087   0.00000
  35        3PY         0.01692   0.00000  -0.02846  -0.05526   0.00000
  36        3PZ         0.00000  -0.07936   0.00000   0.00000   0.15271
  37 5   C  1S          0.07399  -0.08987   0.03368   0.02287  -0.01477
  38        2S         -0.07787   0.09309  -0.03352  -0.01965   0.01357
  39        2PX        -0.00014   0.00005  -0.00007  -0.00048  -0.00027
  40        2PY         0.00132   0.10661   0.11416  -0.12213  -0.18470
  41        2PZ        -0.02800   0.00667   0.13655   0.12151  -0.10423
  42        3S         -0.19507   0.28041  -0.11350  -0.09186   0.06659
  43        3PX         0.00082   0.00015  -0.00025  -0.00031  -0.00095
  44        3PY         0.00907   0.03132   0.03558  -0.07280  -0.09735
  45        3PZ        -0.01718   0.00767   0.05434   0.08725  -0.05117
  46 6   C  1S         -0.01758   0.09399   0.06277  -0.01367   0.00478
  47        2S          0.01936  -0.09744  -0.06411   0.01868  -0.00435
  48        2PX         0.00006   0.00004  -0.00001  -0.00016  -0.00029
  49        2PY        -0.08803   0.09537  -0.09017   0.09335   0.20346
  50        2PZ         0.04294  -0.00148   0.11963   0.12457  -0.08598
  51        3S          0.04203  -0.29777  -0.21008   0.02806  -0.02120
  52        3PX        -0.00038   0.00000   0.00012  -0.00016  -0.00002
  53        3PY        -0.02433   0.02872  -0.03767   0.05742   0.12063
  54        3PZ         0.00375  -0.00736   0.04787   0.07906  -0.04930
  55 7   H  1S          0.07002   0.00000   0.09300  -0.15017   0.00000
  56        2S          0.02343   0.00000   0.04788  -0.09483   0.00000
  57 8   H  1S          0.01482   0.09383  -0.07883  -0.07618   0.02222
  58        2S          0.00215   0.04477  -0.03954  -0.05281   0.01611
  59 9   H  1S         -0.03839  -0.09192  -0.05749  -0.11591  -0.00971
  60        2S         -0.01011  -0.04444  -0.03140  -0.07158  -0.00365
  61 10  H  1S         -0.03839   0.09192  -0.05749  -0.11591   0.00971
  62        2S         -0.01011   0.04444  -0.03140  -0.07158   0.00365
  63 11  H  1S          0.01482  -0.09383  -0.07883  -0.07618  -0.02222
  64        2S          0.00215  -0.04477  -0.03954  -0.05281  -0.01611
  65 12  C  1S         -0.15659   0.00000   0.05220  -0.02631   0.00000
  66        2S          0.14614   0.00000  -0.04854   0.02200   0.00000
  67        2PX        -0.00036   0.00000  -0.00046  -0.00468   0.00000
  68        2PY         0.02805   0.00000  -0.08278   0.08688   0.00000
  69        2PZ         0.00000  -0.04505   0.00000   0.00000   0.16675
  70        3S          0.49268   0.00000  -0.18584   0.10770   0.00000
  71        3PX        -0.00106   0.00000  -0.00120  -0.00179   0.00000
  72        3PY        -0.00172   0.00000  -0.03584   0.05059   0.00000
  73        3PZ         0.00000  -0.02644   0.00000   0.00000   0.11817
  74 13  H  1S          0.09811   0.00000  -0.04953   0.03988   0.00000
  75        2S          0.01604   0.00000  -0.02496   0.02382   0.00000
  76 14  H  1S          0.09799  -0.02071  -0.05158   0.03369   0.09147
  77        2S          0.01701  -0.01326  -0.02367   0.01707   0.07228
  78 15  H  1S          0.09799   0.02071  -0.05158   0.03369  -0.09147
  79        2S          0.01701   0.01326  -0.02367   0.01707  -0.07228
                          16        17        18        19        20
                           O         O         O         O         O
     Eigenvalues --    -0.63195  -0.58933  -0.58199  -0.56291  -0.54439
   1 1   C  1S          0.05741   0.00000   0.00163  -0.01258   0.00000
   2        2S         -0.06233   0.00000  -0.00164   0.01521   0.00000
   3        2PX        -0.00042   0.00000   0.02627  -0.00234   0.00000
   4        2PY         0.00885   0.00000   0.01972   0.27575   0.00000
   5        2PZ         0.00000  -0.10540   0.00000   0.00000  -0.13530
   6        3S         -0.16515   0.00000  -0.00413   0.02501   0.00000
   7        3PX        -0.00026   0.00000   0.02291  -0.00210   0.00000
   8        3PY         0.05497   0.00000   0.01750   0.25280   0.00000
   9        3PZ         0.00000  -0.05716   0.00000   0.00000  -0.08704
  10 2   C  1S         -0.04983   0.01773  -0.00305  -0.01891  -0.00980
  11        2S          0.05209  -0.02162   0.00276   0.02187   0.01018
  12        2PX        -0.00068   0.00017   0.03590  -0.00278   0.00067
  13        2PY        -0.08557  -0.11613  -0.00840  -0.06998   0.11220
  14        2PZ         0.14694   0.19076  -0.00203  -0.10063   0.07482
  15        3S          0.15384  -0.02931   0.01553   0.03549   0.03699
  16        3PX        -0.00060   0.00003   0.02990  -0.00248  -0.00017
  17        3PY        -0.08956  -0.08539  -0.00196  -0.05078   0.06867
  18        3PZ         0.14447   0.15231   0.00331  -0.05015   0.05956
  19 3   C  1S          0.05197   0.02054   0.00388   0.02203   0.01650
  20        2S         -0.05467  -0.02470  -0.00452  -0.02541  -0.01520
  21        2PX        -0.00173   0.00033   0.06520  -0.00449   0.00101
  22        2PY        -0.01715   0.11325   0.00308   0.06836  -0.13049
  23        2PZ        -0.12273   0.18497  -0.00215   0.11243  -0.01396
  24        3S         -0.16061  -0.03552  -0.01340  -0.04575  -0.06711
  25        3PX        -0.00127   0.00063   0.06144  -0.00405   0.00313
  26        3PY        -0.05345   0.09064   0.01057   0.04045  -0.08880
  27        3PZ        -0.12224   0.14055  -0.00643   0.07982  -0.03448
  28 4   C  1S         -0.07657   0.00000  -0.00255  -0.01202   0.00000
  29        2S          0.07864   0.00000   0.00430   0.00661   0.00000
  30        2PX        -0.00341   0.00000   0.12467  -0.00769   0.00000
  31        2PY         0.03018   0.00000   0.00891   0.23736   0.00000
  32        2PZ         0.00000  -0.10363   0.00000   0.00000  -0.05811
  33        3S          0.24729   0.00000  -0.00437   0.07128   0.00000
  34        3PX        -0.00321   0.00000   0.09673  -0.00629   0.00000
  35        3PY         0.07567   0.00000   0.00611   0.20135   0.00000
  36        3PZ         0.00000  -0.07097   0.00000   0.00000  -0.04455
  37 5   C  1S          0.05197  -0.02054   0.00388   0.02203  -0.01650
  38        2S         -0.05467   0.02470  -0.00452  -0.02541   0.01520
  39        2PX        -0.00173  -0.00033   0.06520  -0.00449  -0.00101
  40        2PY        -0.01715  -0.11325   0.00308   0.06836   0.13049
  41        2PZ         0.12273   0.18497   0.00215  -0.11243  -0.01396
  42        3S         -0.16061   0.03552  -0.01340  -0.04575   0.06711
  43        3PX        -0.00127  -0.00063   0.06144  -0.00405  -0.00313
  44        3PY        -0.05345  -0.09064   0.01057   0.04045   0.08880
  45        3PZ         0.12224   0.14055   0.00643  -0.07982  -0.03448
  46 6   C  1S         -0.04983  -0.01773  -0.00305  -0.01891   0.00980
  47        2S          0.05209   0.02162   0.00276   0.02187  -0.01018
  48        2PX        -0.00068  -0.00017   0.03590  -0.00278  -0.00067
  49        2PY        -0.08557   0.11613  -0.00840  -0.06998  -0.11220
  50        2PZ        -0.14694   0.19076   0.00203   0.10063   0.07482
  51        3S          0.15384   0.02931   0.01553   0.03549  -0.03699
  52        3PX        -0.00060  -0.00003   0.02990  -0.00248   0.00017
  53        3PY        -0.08956   0.08539  -0.00196  -0.05078  -0.06867
  54        3PZ        -0.14447   0.15231  -0.00331   0.05015   0.05956
  55 7   H  1S         -0.06291   0.00000  -0.01556  -0.18299   0.00000
  56        2S         -0.02448   0.00000  -0.01143  -0.14016   0.00000
  57 8   H  1S          0.15843   0.13379   0.00477  -0.01603   0.01780
  58        2S          0.09533   0.10482   0.00258  -0.02176   0.01015
  59 9   H  1S         -0.12605   0.12751  -0.00325   0.06860  -0.06791
  60        2S         -0.07190   0.10255  -0.00039   0.06034  -0.04451
  61 10  H  1S         -0.12605  -0.12751  -0.00325   0.06860   0.06791
  62        2S         -0.07190  -0.10255  -0.00039   0.06034   0.04451
  63 11  H  1S          0.15843  -0.13379   0.00477  -0.01603  -0.01780
  64        2S          0.09533  -0.10482   0.00258  -0.02176  -0.01015
  65 12  C  1S          0.00705   0.00000   0.00058   0.00518   0.00000
  66        2S         -0.00476   0.00000  -0.00041  -0.00119   0.00000
  67        2PX        -0.01235   0.00000   0.35094  -0.01754   0.00000
  68        2PY        -0.10944   0.00000  -0.01114  -0.21221   0.00000
  69        2PZ         0.00000   0.03516   0.00000   0.00000   0.32592
  70        3S         -0.05880   0.00000  -0.00180  -0.05774   0.00000
  71        3PX        -0.00786   0.00000   0.28781  -0.01659   0.00000
  72        3PY        -0.05302   0.00000  -0.00931  -0.14459   0.00000
  73        3PZ         0.00000   0.03746   0.00000   0.00000   0.28588
  74 13  H  1S         -0.02034   0.00000  -0.23595  -0.04195   0.00000
  75        2S         -0.02172   0.00000  -0.19829  -0.04145   0.00000
  76 14  H  1S         -0.03577   0.02356   0.11434  -0.05892   0.19675
  77        2S         -0.03489   0.02161   0.09599  -0.05261   0.17383
  78 15  H  1S         -0.03577  -0.02356   0.11434  -0.05892  -0.19675
  79        2S         -0.03489  -0.02161   0.09599  -0.05261  -0.17383
                          21        22        23        24        25
                           O         O         O         O         O
     Eigenvalues --    -0.48853  -0.48664  -0.47586  -0.33385  -0.32356
   1 1   C  1S         -0.00028   0.00000   0.00300   0.00000   0.00023
   2        2S          0.00027   0.00000  -0.00410   0.00000  -0.00027
   3        2PX         0.18904   0.00000  -0.00800   0.00000   0.26382
   4        2PY        -0.00513   0.00000  -0.14978   0.00000  -0.00067
   5        2PZ         0.00000  -0.21214   0.00000  -0.00026   0.00000
   6        3S         -0.00003   0.00000  -0.00795   0.00000  -0.00010
   7        3PX         0.18737   0.00000  -0.00780   0.00000   0.32691
   8        3PY        -0.00542   0.00000  -0.17939   0.00000  -0.00153
   9        3PZ         0.00000  -0.14637   0.00000  -0.00173   0.00000
  10 2   C  1S         -0.00000   0.00680  -0.00615   0.00009  -0.00024
  11        2S          0.00035  -0.00744   0.00827  -0.00013   0.00006
  12        2PX         0.18208  -0.00045  -0.00747   0.23014   0.12402
  13        2PY         0.00785   0.00139   0.19961  -0.00030   0.00102
  14        2PZ        -0.00055   0.19226   0.00694   0.00028   0.00020
  15        3S         -0.00428  -0.03192  -0.00017  -0.00093   0.00357
  16        3PX         0.18188  -0.00011  -0.00797   0.27939   0.15137
  17        3PY         0.00355  -0.04654   0.14869  -0.00152   0.00277
  18        3PZ        -0.00268   0.20159  -0.02781  -0.00160   0.00084
  19 3   C  1S         -0.00030  -0.00865   0.00207  -0.00025   0.00032
  20        2S          0.00044   0.00995  -0.00291   0.00059  -0.00038
  21        2PX         0.16520  -0.00087  -0.00593   0.23313  -0.14516
  22        2PY        -0.00685   0.03595  -0.19864   0.00062  -0.00140
  23        2PZ         0.00350  -0.19936   0.03311  -0.00089  -0.00106
  24        3S          0.00299   0.02376   0.01701  -0.00380  -0.00185
  25        3PX         0.16148  -0.00173  -0.00505   0.28552  -0.17786
  26        3PY        -0.01092  -0.03065  -0.18304  -0.00316   0.00231
  27        3PZ         0.00323  -0.19864  -0.02922   0.00307  -0.00433
  28 4   C  1S         -0.00042   0.00000  -0.00668   0.00000   0.00029
  29        2S         -0.00063   0.00000   0.00304   0.00000   0.00046
  30        2PX         0.13687   0.00000  -0.00261   0.00000  -0.26188
  31        2PY         0.01145   0.00000   0.24101   0.00000   0.00048
  32        2PZ         0.00000   0.23958   0.00000   0.00053   0.00000
  33        3S          0.00865   0.00000   0.01793   0.00000  -0.00803
  34        3PX         0.14422   0.00000  -0.00457   0.00000  -0.32284
  35        3PY         0.01366   0.00000   0.29997   0.00000   0.00183
  36        3PZ         0.00000   0.19211   0.00000   0.01170   0.00000
  37 5   C  1S         -0.00030   0.00865   0.00207   0.00025   0.00032
  38        2S          0.00044  -0.00995  -0.00291  -0.00059  -0.00038
  39        2PX         0.16520   0.00087  -0.00593  -0.23313  -0.14516
  40        2PY        -0.00685  -0.03595  -0.19864  -0.00062  -0.00140
  41        2PZ        -0.00350  -0.19936  -0.03311  -0.00089   0.00106
  42        3S          0.00299  -0.02376   0.01701   0.00380  -0.00185
  43        3PX         0.16148   0.00173  -0.00505  -0.28552  -0.17786
  44        3PY        -0.01092   0.03065  -0.18304   0.00316   0.00231
  45        3PZ        -0.00323  -0.19864   0.02922   0.00307   0.00433
  46 6   C  1S         -0.00000  -0.00680  -0.00615  -0.00009  -0.00024
  47        2S          0.00035   0.00744   0.00827   0.00013   0.00006
  48        2PX         0.18208   0.00045  -0.00747  -0.23014   0.12402
  49        2PY         0.00785  -0.00139   0.19961   0.00030   0.00102
  50        2PZ         0.00055   0.19226  -0.00694   0.00028  -0.00020
  51        3S         -0.00428   0.03192  -0.00017   0.00093   0.00357
  52        3PX         0.18188   0.00011  -0.00797  -0.27939   0.15137
  53        3PY         0.00355   0.04654   0.14869   0.00152   0.00277
  54        3PZ         0.00268   0.20159   0.02781  -0.00160  -0.00084
  55 7   H  1S          0.00467   0.00000   0.12286   0.00000   0.00042
  56        2S          0.00401   0.00000   0.10197   0.00000   0.00036
  57 8   H  1S         -0.00349   0.12900  -0.07131   0.00032  -0.00004
  58        2S         -0.00296   0.10476  -0.06279   0.00083  -0.00011
  59 9   H  1S         -0.00075  -0.12057  -0.06462  -0.00002  -0.00117
  60        2S         -0.00164  -0.10108  -0.04832  -0.00117   0.00097
  61 10  H  1S         -0.00075   0.12057  -0.06462   0.00002  -0.00117
  62        2S         -0.00164   0.10108  -0.04832   0.00117   0.00097
  63 11  H  1S         -0.00349  -0.12900  -0.07131  -0.00032  -0.00004
  64        2S         -0.00296  -0.10476  -0.06279  -0.00083  -0.00011
  65 12  C  1S         -0.00062   0.00000  -0.02063   0.00000  -0.00042
  66        2S          0.00090   0.00000   0.02242   0.00000  -0.00017
  67        2PX        -0.12354   0.00000   0.01210   0.00000   0.07441
  68        2PY        -0.01096   0.00000  -0.24137   0.00000  -0.00060
  69        2PZ         0.00000  -0.08614   0.00000  -0.00427   0.00000
  70        3S         -0.00182   0.00000   0.02485   0.00000   0.00488
  71        3PX        -0.11998   0.00000   0.01394   0.00000   0.07591
  72        3PY        -0.00714   0.00000  -0.16857   0.00000   0.00011
  73        3PZ         0.00000  -0.09273   0.00000  -0.02082   0.00000
  74 13  H  1S          0.09218   0.00000  -0.05128   0.00000  -0.07470
  75        2S          0.08573   0.00000  -0.06670   0.00000  -0.09465
  76 14  H  1S         -0.04934  -0.06063  -0.04226  -0.00104   0.03705
  77        2S         -0.04664  -0.06438  -0.05955   0.01179   0.04479
  78 15  H  1S         -0.04934   0.06063  -0.04226   0.00104   0.03705
  79        2S         -0.04664   0.06438  -0.05955  -0.01179   0.04479
                          26        27        28        29        30
                           V         V         V         V         V
     Eigenvalues --     0.14734   0.15205   0.26346   0.30108   0.31605
   1 1   C  1S          0.00000  -0.00100   0.04383   0.01462   0.00000
   2        2S          0.00000   0.00098  -0.02360   0.00964   0.00000
   3        2PX         0.00000   0.26294   0.01751  -0.02172   0.00000
   4        2PY         0.00000   0.00068   0.09031   0.08835   0.00000
   5        2PZ         0.00047   0.00000   0.00000   0.00000  -0.03235
   6        3S          0.00000   0.00225  -0.49351  -0.48136   0.00000
   7        3PX         0.00000   0.58910   0.04652  -0.06047   0.00000
   8        3PY         0.00000  -0.00191   0.38412   0.17832   0.00000
   9        3PZ         0.00812   0.00000   0.00000   0.00000   0.01632
  10 2   C  1S         -0.00057   0.00047   0.03850   0.03980   0.03320
  11        2S          0.00055  -0.00054  -0.01197  -0.02498  -0.00376
  12        2PX         0.23319  -0.13473  -0.01454   0.01883   0.01277
  13        2PY         0.00112  -0.00242   0.05907   0.00688   0.04254
  14        2PZ        -0.00020   0.00010  -0.07564  -0.05513  -0.11507
  15        3S          0.00836  -0.00266  -0.56463  -0.44329  -0.61948
  16        3PX         0.51772  -0.30019  -0.03551   0.05246   0.02579
  17        3PY         0.00814  -0.00405   0.15965   0.07839   0.17929
  18        3PZ         0.00961  -0.00450  -0.21863  -0.40090  -0.37397
  19 3   C  1S          0.00084  -0.00137   0.04953  -0.01528   0.01694
  20        2S         -0.00221   0.00074  -0.03083   0.02296   0.00638
  21        2PX        -0.22850  -0.12719   0.00393  -0.01100  -0.02577
  22        2PY        -0.00165   0.00202  -0.04896   0.02987  -0.04468
  23        2PZ         0.00313   0.00390  -0.07471   0.02018  -0.15109
  24        3S          0.02057   0.00870  -0.52296   0.04759  -0.45382
  25        3PX        -0.51264  -0.28534   0.00512  -0.03079  -0.03179
  26        3PY         0.01903   0.00092  -0.21010   0.00355  -0.28387
  27        3PZ        -0.01297   0.02407  -0.39453   0.41511  -0.50249
  28 4   C  1S          0.00000  -0.00122   0.02760   0.00369   0.00000
  29        2S          0.00000  -0.00157  -0.00985  -0.00725   0.00000
  30        2PX         0.00000   0.28046   0.00474   0.00802   0.00000
  31        2PY         0.00000   0.00025  -0.04427  -0.00213   0.00000
  32        2PZ         0.00190   0.00000   0.00000   0.00000  -0.03906
  33        3S          0.00000   0.03337  -0.41380   0.32848   0.00000
  34        3PX         0.00000   0.58282   0.03461   0.01098   0.00000
  35        3PY         0.00000  -0.01289  -0.02462  -0.37210   0.00000
  36        3PZ        -0.05701   0.00000   0.00000   0.00000  -0.00029
  37 5   C  1S         -0.00084  -0.00137   0.04953  -0.01528  -0.01694
  38        2S          0.00221   0.00074  -0.03083   0.02296  -0.00638
  39        2PX         0.22850  -0.12719   0.00393  -0.01100   0.02577
  40        2PY         0.00165   0.00202  -0.04896   0.02987   0.04468
  41        2PZ         0.00313  -0.00390   0.07471  -0.02018  -0.15109
  42        3S         -0.02057   0.00870  -0.52296   0.04759   0.45382
  43        3PX         0.51264  -0.28534   0.00512  -0.03079   0.03179
  44        3PY        -0.01903   0.00092  -0.21010   0.00355   0.28387
  45        3PZ        -0.01297  -0.02407   0.39453  -0.41511  -0.50249
  46 6   C  1S          0.00057   0.00047   0.03850   0.03980  -0.03320
  47        2S         -0.00055  -0.00054  -0.01197  -0.02498   0.00376
  48        2PX        -0.23319  -0.13473  -0.01454   0.01883  -0.01277
  49        2PY        -0.00112  -0.00242   0.05907   0.00688  -0.04254
  50        2PZ        -0.00020  -0.00010   0.07564   0.05513  -0.11507
  51        3S         -0.00836  -0.00266  -0.56463  -0.44329   0.61948
  52        3PX        -0.51772  -0.30019  -0.03551   0.05246  -0.02579
  53        3PY        -0.00814  -0.00405   0.15965   0.07839  -0.17929
  54        3PZ         0.00961   0.00450   0.21863   0.40090  -0.37397
  55 7   H  1S          0.00000  -0.00122   0.04274   0.00345   0.00000
  56        2S          0.00000  -0.00693   0.78881   0.46253   0.00000
  57 8   H  1S         -0.00096  -0.00043   0.03478   0.01907   0.01995
  58        2S         -0.00623  -0.00083   0.70200   0.63371   0.83088
  59 9   H  1S         -0.00066   0.00153   0.02987   0.03559   0.01391
  60        2S         -0.00075  -0.02130   0.82129  -0.30746   0.91323
  61 10  H  1S          0.00066   0.00153   0.02987   0.03559  -0.01391
  62        2S          0.00075  -0.02130   0.82129  -0.30746  -0.91323
  63 11  H  1S          0.00096  -0.00043   0.03478   0.01907  -0.01995
  64        2S          0.00623  -0.00083   0.70200   0.63371  -0.83088
  65 12  C  1S          0.00000  -0.00094   0.01929  -0.14088   0.00000
  66        2S          0.00000  -0.00035   0.00210   0.03065   0.00000
  67        2PX         0.00000   0.00093  -0.02949   0.02049   0.00000
  68        2PY         0.00000   0.00313  -0.10535   0.09056   0.00000
  69        2PZ         0.01573   0.00000   0.00000   0.00000  -0.15466
  70        3S          0.00000   0.01675  -0.40255   2.08898   0.00000
  71        3PX         0.00000   0.09707  -0.17914   0.10378   0.00000
  72        3PY         0.00000   0.01007  -0.41815   0.39775   0.00000
  73        3PZ         0.14097   0.00000   0.00000   0.00000  -0.71355
  74 13  H  1S          0.00000   0.06325  -0.00414   0.00727   0.00000
  75        2S          0.00000   0.25251   0.09756  -0.82723   0.00000
  76 14  H  1S         -0.00356  -0.03270   0.00571  -0.00446   0.01993
  77        2S         -0.12288  -0.13778   0.38802  -1.00723   0.75099
  78 15  H  1S          0.00356  -0.03270   0.00571  -0.00446  -0.01993
  79        2S          0.12288  -0.13778   0.38802  -1.00723  -0.75099
                          31        32        33        34        35
                           V         V         V         V         V
     Eigenvalues --     0.33390   0.34925   0.35767   0.37615   0.37728
   1 1   C  1S          0.01409   0.06571   0.00000   0.09632   0.00000
   2        2S          0.00540  -0.01247   0.00000  -0.06879   0.00000
   3        2PX        -0.12859   0.08138   0.00000  -0.07286   0.00000
   4        2PY         0.07771   0.16049   0.00000   0.06574   0.00000
   5        2PZ         0.00000   0.00000  -0.01388   0.00000  -0.06853
   6        3S         -0.37205  -1.12574   0.00000  -0.94181   0.00000
   7        3PX        -0.37404   0.23913   0.00000  -0.21640   0.00000
   8        3PY         0.21360   0.64066   0.00000   1.00115   0.00000
   9        3PZ         0.00000   0.00000  -0.18167   0.00000  -0.39249
  10 2   C  1S          0.01248  -0.01717  -0.02932  -0.06829  -0.08054
  11        2S         -0.00678   0.01049   0.00068   0.05763   0.03186
  12        2PX         0.12598  -0.08004   0.01883   0.07217  -0.00481
  13        2PY         0.02047   0.03295  -0.06703  -0.06926  -0.00807
  14        2PZ        -0.02952  -0.03278   0.11019   0.03738   0.06314
  15        3S         -0.14782   0.20599   0.58520   0.51084   1.21619
  16        3PX         0.34382  -0.22920   0.03478   0.22097  -0.00812
  17        3PY         0.06981  -0.01522  -0.36155  -0.67399  -0.05442
  18        3PZ        -0.19887  -0.15575   0.41664   0.68183   0.49564
  19 3   C  1S         -0.01390  -0.04287  -0.02670   0.01943   0.08348
  20        2S          0.00194   0.01087   0.00734  -0.03691  -0.03659
  21        2PX        -0.09394   0.06886  -0.04275  -0.07576   0.01159
  22        2PY         0.02516   0.08979   0.05328   0.01183  -0.01207
  23        2PZ         0.04103   0.05901   0.01716  -0.03209  -0.10151
  24        3S          0.17280   0.69278   0.41628   0.21549  -1.15745
  25        3PX        -0.24886   0.19809  -0.04276  -0.23568   0.00956
  26        3PY         0.11365   0.43625   0.10115  -0.23094  -0.03057
  27        3PZ         0.27321   0.23332   0.00033  -0.61330  -0.66645
  28 4   C  1S         -0.00504   0.01487   0.00000   0.01092   0.00000
  29        2S         -0.02925  -0.01595   0.00000   0.03420   0.00000
  30        2PX         0.07167  -0.06683   0.00000   0.08950   0.00000
  31        2PY         0.04820   0.12520   0.00000  -0.04025   0.00000
  32        2PZ         0.00000   0.00000  -0.01144   0.00000   0.07138
  33        3S          0.28804  -0.15435   0.00000  -0.66916   0.00000
  34        3PX         0.06686  -0.14229   0.00000   0.26827   0.00000
  35        3PY         0.03218   0.39102   0.00000   0.33789   0.00000
  36        3PZ         0.00000   0.00000  -0.04378   0.00000   0.10385
  37 5   C  1S         -0.01390  -0.04287   0.02670   0.01943  -0.08348
  38        2S          0.00194   0.01087  -0.00734  -0.03691   0.03659
  39        2PX        -0.09394   0.06886   0.04275  -0.07576  -0.01159
  40        2PY         0.02516   0.08979  -0.05328   0.01183   0.01207
  41        2PZ        -0.04103  -0.05901   0.01716   0.03209  -0.10151
  42        3S          0.17280   0.69278  -0.41628   0.21549   1.15745
  43        3PX        -0.24886   0.19809   0.04276  -0.23568  -0.00956
  44        3PY         0.11365   0.43625  -0.10115  -0.23094   0.03057
  45        3PZ        -0.27321  -0.23332   0.00033   0.61330  -0.66645
  46 6   C  1S          0.01248  -0.01717   0.02932  -0.06829   0.08054
  47        2S         -0.00678   0.01049  -0.00068   0.05763  -0.03186
  48        2PX         0.12598  -0.08004  -0.01883   0.07217   0.00481
  49        2PY         0.02047   0.03295   0.06703  -0.06926   0.00807
  50        2PZ         0.02952   0.03278   0.11019  -0.03738   0.06314
  51        3S         -0.14782   0.20599  -0.58520   0.51084  -1.21619
  52        3PX         0.34382  -0.22920  -0.03478   0.22097   0.00812
  53        3PY         0.06981  -0.01522   0.36155  -0.67399   0.05442
  54        3PZ         0.19887   0.15575   0.41664  -0.68183   0.49564
  55 7   H  1S          0.00183   0.00615   0.00000   0.00594   0.00000
  56        2S          0.44672   1.28133   0.00000   1.39694   0.00000
  57 8   H  1S          0.00445   0.00437   0.00826  -0.01209   0.01371
  58        2S          0.30186   0.09561  -0.86549  -1.17419  -0.96569
  59 9   H  1S         -0.00626  -0.02843  -0.00503   0.03207  -0.00257
  60        2S         -0.38975  -0.85221  -0.30476   0.57983   1.16875
  61 10  H  1S         -0.00626  -0.02843   0.00503   0.03207   0.00257
  62        2S         -0.38975  -0.85221   0.30476   0.57983  -1.16875
  63 11  H  1S          0.00445   0.00437  -0.00826  -0.01209  -0.01371
  64        2S          0.30186   0.09561   0.86549  -1.17419   0.96569
  65 12  C  1S          0.06079   0.05878   0.00000  -0.03551   0.00000
  66        2S         -0.01649  -0.01960   0.00000   0.01111   0.00000
  67        2PX         0.19117  -0.07093   0.00000  -0.01966   0.00000
  68        2PY        -0.01599   0.03821   0.00000   0.02320   0.00000
  69        2PZ         0.00000   0.00000  -0.22436   0.00000  -0.00186
  70        3S         -0.84829  -0.77960   0.00000   0.42180   0.00000
  71        3PX         0.99366  -0.32717   0.00000  -0.15407   0.00000
  72        3PY        -0.06368   0.19943   0.00000   0.09940   0.00000
  73        3PZ         0.00000   0.00000  -1.19061   0.00000   0.26811
  74 13  H  1S          0.04867  -0.03276   0.00000   0.01153   0.00000
  75        2S          1.57699  -0.19586   0.00000  -0.35199   0.00000
  76 14  H  1S         -0.02902   0.00763   0.05489  -0.00510  -0.06266
  77        2S         -0.23602   0.45148   1.24597  -0.17460  -0.28902
  78 15  H  1S         -0.02902   0.00763  -0.05489  -0.00510   0.06266
  79        2S         -0.23602   0.45148  -1.24597  -0.17460   0.28902
                          36        37        38        39        40
                           V         V         V         V         V
     Eigenvalues --     0.40198   0.42948   0.50713   0.52484   0.53705
   1 1   C  1S          0.02379  -0.05264   0.00000  -0.10001   0.00147
   2        2S         -0.02184  -0.00114   0.00000   0.01042   0.01828
   3        2PX         0.12777  -0.00268   0.00000  -0.00214  -0.00982
   4        2PY         0.02433   0.09180   0.00000   0.14905   0.10008
   5        2PZ         0.00000   0.00000  -0.14410   0.00000   0.00000
   6        3S         -0.20264   1.19406   0.00000   2.17464  -0.51899
   7        3PX         0.37892  -0.00810   0.00000  -0.00497  -0.02255
   8        3PY         0.42748   0.78402   0.00000   1.24230   0.55471
   9        3PZ         0.00000   0.00000  -1.71603   0.00000   0.00000
  10 2   C  1S         -0.01115   0.00845  -0.09305   0.02206   0.05433
  11        2S          0.01798   0.02813   0.00794  -0.02142  -0.00785
  12        2PX        -0.12686   0.00212   0.00007   0.00223   0.00986
  13        2PY        -0.05115   0.07047   0.01482   0.02394  -0.15702
  14        2PZ         0.01338   0.02205  -0.14812   0.12892  -0.03000
  15        3S         -0.07006  -0.61996   2.09937  -0.09046  -1.20326
  16        3PX        -0.40753   0.00985   0.00022   0.00614   0.02885
  17        3PY        -0.35857   0.24529   0.36388   0.93956  -1.08304
  18        3PZ         0.27461   0.62526  -1.04997   1.12097  -0.10618
  19 3   C  1S          0.01934   0.06763   0.01992   0.03763  -0.01351
  20        2S         -0.02053  -0.04375  -0.01814   0.00588  -0.00263
  21        2PX         0.15653  -0.00324  -0.00015  -0.00479  -0.02313
  22        2PY        -0.02100   0.00660   0.12452   0.11966  -0.12429
  23        2PZ         0.00109   0.03332   0.06858   0.01563   0.13148
  24        3S         -0.09514  -0.69807  -0.03821  -1.06237   0.42157
  25        3PX         0.49829  -0.01565  -0.00043  -0.00939  -0.04676
  26        3PY        -0.35299  -0.46934   1.34439   0.78627  -1.27302
  27        3PZ        -0.06078  -0.12828   0.20847   0.53015   1.14320
  28 4   C  1S         -0.01856  -0.15937   0.00000   0.01471  -0.08686
  29        2S          0.00239   0.06251   0.00000   0.00613  -0.01141
  30        2PX        -0.20142   0.00558   0.00000   0.00626   0.02332
  31        2PY        -0.05743   0.15118   0.00000  -0.23238  -0.13116
  32        2PZ         0.00000   0.00000  -0.13292   0.00000   0.00000
  33        3S          0.25789   2.16080   0.00000  -0.27059   2.23327
  34        3PX        -0.68555   0.02943   0.00000   0.01713   0.09150
  35        3PY        -0.12869   1.14724   0.00000  -1.77916  -0.94856
  36        3PZ         0.00000   0.00000  -0.84370   0.00000   0.00000
  37 5   C  1S          0.01934   0.06763  -0.01992   0.03763  -0.01351
  38        2S         -0.02053  -0.04375   0.01814   0.00588  -0.00263
  39        2PX         0.15653  -0.00324   0.00015  -0.00479  -0.02313
  40        2PY        -0.02100   0.00660  -0.12452   0.11966  -0.12429
  41        2PZ        -0.00109  -0.03332   0.06858  -0.01563  -0.13148
  42        3S         -0.09514  -0.69807   0.03821  -1.06237   0.42157
  43        3PX         0.49829  -0.01565   0.00043  -0.00939  -0.04676
  44        3PY        -0.35299  -0.46934  -1.34439   0.78627  -1.27302
  45        3PZ         0.06078   0.12828   0.20847  -0.53015  -1.14320
  46 6   C  1S         -0.01115   0.00845   0.09305   0.02206   0.05433
  47        2S          0.01798   0.02813  -0.00794  -0.02142  -0.00785
  48        2PX        -0.12686   0.00212  -0.00007   0.00223   0.00986
  49        2PY        -0.05115   0.07047  -0.01482   0.02394  -0.15702
  50        2PZ        -0.01338  -0.02205  -0.14812  -0.12892   0.03000
  51        3S         -0.07006  -0.61996  -2.09937  -0.09046  -1.20326
  52        3PX        -0.40753   0.00985  -0.00022   0.00614   0.02885
  53        3PY        -0.35857   0.24529  -0.36388   0.93956  -1.08304
  54        3PZ        -0.27461  -0.62526  -1.04997  -1.12097   0.10618
  55 7   H  1S         -0.00614   0.02822   0.00000   0.06596  -0.11561
  56        2S          0.46549   0.37819   0.00000   0.57226   0.54330
  57 8   H  1S         -0.00863  -0.02242   0.07122   0.04776  -0.05706
  58        2S         -0.42864  -0.13903   0.47693  -0.41429  -0.09914
  59 9   H  1S          0.03382  -0.02005   0.06318  -0.02254   0.02748
  60        2S          0.33944   0.54118  -0.68768  -0.49661  -0.44069
  61 10  H  1S          0.03382  -0.02005  -0.06318  -0.02254   0.02748
  62        2S          0.33944   0.54118   0.68768  -0.49661  -0.44069
  63 11  H  1S         -0.00863  -0.02242  -0.07122   0.04776  -0.05706
  64        2S         -0.42864  -0.13903  -0.47693  -0.41429  -0.09914
  65 12  C  1S         -0.01944   0.07714   0.00000  -0.04380   0.01202
  66        2S          0.01371  -0.00107   0.00000  -0.03053   0.02608
  67        2PX         0.19965  -0.01962   0.00000  -0.01358  -0.11401
  68        2PY        -0.00552   0.16524   0.00000  -0.02205  -0.15006
  69        2PZ         0.00000   0.00000  -0.05697   0.00000   0.00000
  70        3S          0.22513  -1.18642   0.00000   1.09080  -0.34304
  71        3PX         1.03248  -0.08792   0.00000  -0.04109  -0.31626
  72        3PY        -0.04294   1.46429   0.00000  -1.15557  -0.35640
  73        3PZ         0.00000   0.00000   0.08608   0.00000   0.00000
  74 13  H  1S          0.00740  -0.04606   0.00000   0.04223   0.03478
  75        2S          1.03442  -0.21017   0.00000   0.01552  -0.15328
  76 14  H  1S          0.00325  -0.04973  -0.02524   0.05309   0.00973
  77        2S         -0.63727  -0.03894   0.02289   0.07890   0.55785
  78 15  H  1S          0.00325  -0.04973   0.02524   0.05309   0.00973
  79        2S         -0.63727  -0.03894  -0.02289   0.07890   0.55785
                          41        42        43        44        45
                           V         V         V         V         V
     Eigenvalues --     0.55833   0.76648   0.81255   0.89182   0.90841
   1 1   C  1S          0.00000   0.00000  -0.11964   0.00000   0.01280
   2        2S          0.00000   0.00000   0.02839   0.00000  -0.04427
   3        2PX         0.00000   0.00000   0.00156   0.00000  -0.00932
   4        2PY         0.00000   0.00000   0.15505   0.00000  -0.25887
   5        2PZ        -0.18662  -0.07692   0.00000  -0.40682   0.00000
   6        3S          0.00000   0.00000   2.65210   0.00000  -0.20462
   7        3PX         0.00000   0.00000  -0.00099   0.00000   0.00993
   8        3PY         0.00000   0.00000   2.12134   0.00000   0.22609
   9        3PZ        -0.97314  -2.60244   0.00000  -0.97606   0.00000
  10 2   C  1S          0.02043  -0.01742   0.11687  -0.00176   0.00300
  11        2S         -0.01747   0.01188  -0.01974   0.00245  -0.03818
  12        2PX        -0.00611   0.00657  -0.00172   0.00085  -0.00734
  13        2PY        -0.11614  -0.22672  -0.06675   0.16449  -0.12354
  14        2PZ         0.04872  -0.15171   0.12319   0.06036   0.21212
  15        3S          0.00269   0.15195  -2.69329   0.02951  -0.09459
  16        3PX        -0.00495  -0.00456   0.00183   0.00019  -0.00683
  17        3PY        -1.37190  -1.83271  -1.07914  -1.43844   0.14644
  18        3PZ        -0.00527  -1.25222   1.85213  -0.81560  -0.31526
  19 3   C  1S         -0.10144   0.01963  -0.12157   0.01236   0.01135
  20        2S          0.00544   0.02690   0.03364  -0.03461  -0.04518
  21        2PX         0.02080  -0.03188   0.01032  -0.00505  -0.04616
  22        2PY        -0.05354   0.03792  -0.04595  -0.38671   0.14542
  23        2PZ        -0.10934   0.01455  -0.14917   0.24892   0.23225
  24        3S          2.38109  -0.65123   2.69767   0.08698  -0.13439
  25        3PX         0.00321   0.01835  -0.00721   0.00074   0.04874
  26        3PY        -0.19764  -2.33393  -1.16368  -0.76391  -0.21410
  27        3PZ        -1.04818   1.50607  -1.94406   0.55007  -0.24605
  28 4   C  1S          0.00000   0.00000   0.11716   0.00000   0.00159
  29        2S          0.00000   0.00000  -0.04489   0.00000  -0.08586
  30        2PX         0.00000   0.00000   0.00054   0.00000  -0.07464
  31        2PY         0.00000   0.00000   0.15082   0.00000   0.22061
  32        2PZ        -0.23813   0.32272   0.00000   0.01779   0.00000
  33        3S          0.00000   0.00000  -2.46374   0.00000   0.30059
  34        3PX         0.00000   0.00000   0.00419   0.00000  -0.01589
  35        3PY         0.00000   0.00000   2.54488   0.00000   0.00967
  36        3PZ        -2.01647   2.99216   0.00000   1.46648   0.00000
  37 5   C  1S          0.10144  -0.01963  -0.12157  -0.01236   0.01135
  38        2S         -0.00544  -0.02690   0.03364   0.03461  -0.04518
  39        2PX        -0.02080   0.03188   0.01032   0.00505  -0.04616
  40        2PY         0.05354  -0.03792  -0.04595   0.38671   0.14542
  41        2PZ        -0.10934   0.01455   0.14917   0.24892  -0.23225
  42        3S         -2.38109   0.65123   2.69767  -0.08698  -0.13439
  43        3PX        -0.00321  -0.01835  -0.00721  -0.00074   0.04874
  44        3PY         0.19764   2.33393  -1.16368   0.76391  -0.21410
  45        3PZ        -1.04818   1.50607   1.94406   0.55007   0.24605
  46 6   C  1S         -0.02043   0.01742   0.11687   0.00176   0.00300
  47        2S          0.01747  -0.01188  -0.01974  -0.00245  -0.03818
  48        2PX         0.00611  -0.00657  -0.00172  -0.00085  -0.00734
  49        2PY         0.11614   0.22672  -0.06675  -0.16449  -0.12354
  50        2PZ         0.04872  -0.15171  -0.12319   0.06036  -0.21212
  51        3S         -0.00269  -0.15195  -2.69329  -0.02951  -0.09459
  52        3PX         0.00495   0.00456   0.00183  -0.00019  -0.00683
  53        3PY         1.37190   1.83271  -1.07914   1.43844   0.14644
  54        3PZ        -0.00527  -1.25222  -1.85213  -0.81560   0.31526
  55 7   H  1S          0.00000   0.00000  -0.13826   0.00000   0.32837
  56        2S          0.00000   0.00000   0.84656   0.00000  -0.11000
  57 8   H  1S          0.08793  -0.00432   0.13036  -0.03982   0.30893
  58        2S         -0.50549   0.05857  -0.84510   0.02867  -0.04194
  59 9   H  1S          0.07919   0.05583  -0.14722  -0.04419   0.31688
  60        2S          0.30128   0.02749   0.94298  -0.06491  -0.06453
  61 10  H  1S         -0.07919  -0.05583  -0.14722   0.04419   0.31688
  62        2S         -0.30128  -0.02749   0.94298   0.06491  -0.06453
  63 11  H  1S         -0.08793   0.00432   0.13036   0.03982   0.30893
  64        2S          0.50549  -0.05857  -0.84510  -0.02867  -0.04194
  65 12  C  1S          0.00000   0.00000  -0.00508   0.00000  -0.00329
  66        2S          0.00000   0.00000   0.08077   0.00000   0.03462
  67        2PX         0.00000   0.00000   0.04552   0.00000  -0.13653
  68        2PY         0.00000   0.00000  -0.22588   0.00000  -0.39866
  69        2PZ         0.10131   0.26888   0.00000  -0.29834   0.00000
  70        3S          0.00000   0.00000  -0.82514   0.00000  -0.08474
  71        3PX         0.00000   0.00000  -0.00842   0.00000   0.21106
  72        3PY         0.00000   0.00000   0.86831   0.00000   0.54504
  73        3PZ         0.78554  -0.98170   0.00000   0.14982   0.00000
  74 13  H  1S          0.00000   0.00000  -0.06317   0.00000   0.02992
  75        2S          0.00000   0.00000  -0.01677   0.00000  -0.00965
  76 14  H  1S          0.05151   0.16970  -0.05666  -0.28292  -0.12360
  77        2S         -0.52837   0.29185  -0.08017   0.22677   0.03258
  78 15  H  1S         -0.05151  -0.16970  -0.05666   0.28292  -0.12360
  79        2S          0.52837  -0.29185  -0.08017  -0.22677   0.03258
                          46        47        48        49        50
                           V         V         V         V         V
     Eigenvalues --     0.94229   0.97578   0.98203   0.98381   1.04011
   1 1   C  1S         -0.00100   0.04972   0.00000  -0.02943  -0.05540
   2        2S          0.00425  -0.01704   0.00000   0.00876  -0.04102
   3        2PX        -0.19433   0.22918   0.00000   0.44280  -0.01643
   4        2PY         0.03030  -0.07632   0.00000   0.05104   0.16829
   5        2PZ         0.00000   0.00000  -0.51781   0.00000   0.00000
   6        3S          0.10842  -0.10155   0.00000   0.11765  -0.21271
   7        3PX         0.13774  -0.14005   0.00000  -0.26769   0.01070
   8        3PY         0.01237  -0.21825   0.00000   0.14801  -0.33314
   9        3PZ         0.00000   0.00000   0.88676   0.00000   0.00000
  10 2   C  1S         -0.00494  -0.04658  -0.05241   0.02278  -0.00864
  11        2S          0.01731   0.03987   0.02724  -0.01143   0.02000
  12        2PX        -0.19596   0.22464  -0.00003   0.42622  -0.01042
  13        2PY         0.03173  -0.12687   0.43348   0.10214   0.51220
  14        2PZ        -0.05098  -0.23816   0.11190   0.11588   0.25517
  15        3S         -0.06158   0.18489  -0.07593  -0.16410   0.18948
  16        3PX         0.06955  -0.16329  -0.00937  -0.33335   0.01255
  17        3PY        -0.04751   0.28135  -0.01801  -0.20666  -0.36267
  18        3PZ         0.11736   0.04461  -0.04008   0.03608  -0.30940
  19 3   C  1S         -0.00596  -0.00834   0.05417   0.00167   0.03950
  20        2S          0.02256   0.05347   0.02208  -0.01409   0.11268
  21        2PX        -0.37956   0.13736  -0.05360   0.16176   0.01683
  22        2PY         0.04800   0.34868   0.22427  -0.14722   0.03945
  23        2PZ        -0.10936  -0.27761   0.02303   0.08213   0.01168
  24        3S          0.10400  -0.21382  -0.32268   0.19622  -0.06707
  25        3PX         0.32670  -0.06167   0.05136  -0.02267  -0.02216
  26        3PY        -0.06440  -0.24472   0.07891   0.06345   0.03978
  27        3PZ        -0.03785   0.25263  -0.09179  -0.18010  -0.06663
  28 4   C  1S          0.01562   0.05237   0.00000  -0.01746  -0.00929
  29        2S         -0.00134  -0.00880   0.00000  -0.00446   0.13670
  30        2PX        -0.49541   0.03284   0.00000  -0.05522  -0.00705
  31        2PY        -0.03417  -0.13371   0.00000   0.06354  -0.42283
  32        2PZ         0.00000   0.00000   0.20852   0.00000   0.00000
  33        3S         -0.13235   0.55339   0.00000  -0.39279   0.18727
  34        3PX         0.06382  -0.08779   0.00000  -0.15057   0.01685
  35        3PY         0.20978   0.37589   0.00000  -0.05618   0.49755
  36        3PZ         0.00000   0.00000  -0.04011   0.00000   0.00000
  37 5   C  1S         -0.00596  -0.00834  -0.05417   0.00167   0.03950
  38        2S          0.02256   0.05347  -0.02208  -0.01409   0.11268
  39        2PX        -0.37956   0.13736   0.05360   0.16176   0.01683
  40        2PY         0.04800   0.34868  -0.22427  -0.14722   0.03945
  41        2PZ         0.10936   0.27761   0.02303  -0.08213  -0.01168
  42        3S          0.10400  -0.21382   0.32268   0.19622  -0.06707
  43        3PX         0.32670  -0.06167  -0.05136  -0.02267  -0.02216
  44        3PY        -0.06440  -0.24472  -0.07891   0.06345   0.03978
  45        3PZ         0.03785  -0.25263  -0.09179   0.18010   0.06663
  46 6   C  1S         -0.00494  -0.04658   0.05241   0.02278  -0.00864
  47        2S          0.01731   0.03987  -0.02724  -0.01143   0.02000
  48        2PX        -0.19596   0.22464   0.00003   0.42622  -0.01042
  49        2PY         0.03173  -0.12687  -0.43348   0.10214   0.51220
  50        2PZ         0.05098   0.23816   0.11190  -0.11588  -0.25517
  51        3S         -0.06158   0.18489   0.07593  -0.16410   0.18948
  52        3PX         0.06955  -0.16329   0.00937  -0.33335   0.01255
  53        3PY        -0.04751   0.28135   0.01801  -0.20666  -0.36267
  54        3PZ        -0.11736  -0.04461  -0.04008  -0.03608   0.30940
  55 7   H  1S         -0.04254   0.12362   0.00000  -0.09058  -0.39623
  56        2S          0.02097  -0.15466   0.00000   0.10108   0.02581
  57 8   H  1S         -0.06243  -0.19900  -0.17556   0.08500  -0.06494
  58        2S         -0.01473   0.15000   0.09092  -0.10093   0.07162
  59 9   H  1S         -0.05142  -0.07206   0.26834   0.02674   0.24159
  60        2S          0.08602   0.02452  -0.03109   0.04708  -0.06903
  61 10  H  1S         -0.05142  -0.07206  -0.26834   0.02674   0.24159
  62        2S          0.08602   0.02452   0.03109   0.04708  -0.06903
  63 11  H  1S         -0.06243  -0.19900   0.17556   0.08500  -0.06494
  64        2S         -0.01473   0.15000  -0.09092  -0.10093   0.07162
  65 12  C  1S         -0.00073  -0.02302   0.00000   0.01266  -0.02590
  66        2S          0.01571   0.09891   0.00000  -0.04343   0.06083
  67        2PX        -0.42594  -0.14581   0.00000  -0.38977   0.01612
  68        2PY         0.04947  -0.53554   0.00000   0.33566  -0.44669
  69        2PZ         0.00000   0.00000   0.28950   0.00000   0.00000
  70        3S         -0.08563  -0.19242   0.00000   0.02908  -0.10180
[...]
   x         -0.770740D+01     -0.665859D-01     -0.247127D-01
   y         -0.134040D+02     -0.115800D+00     -0.429780D-01
   z         -0.296908D+02     -0.256506D+00     -0.951995D-01
   ||         0.669512D+01      0.578406D-01      0.214670D-01
   xxx        0.168104D+02      0.145229D+00      0.539003D-01
   xxy        0.110718D+01      0.956514D-02      0.355001D-02
   yxy       -0.144463D+02     -0.124805D+00     -0.463200D-01
   yyy        0.300433D+01      0.259551D-01      0.963297D-02
   xxz        0.144218D+02      0.124593D+00      0.462414D-01
   yxz        0.650237D+01      0.561754D-01      0.208490D-01
   yyz        0.219911D+02      0.189986D+00      0.705115D-01
   zxz       -0.493328D+01     -0.426197D-01     -0.158179D-01
   zyz       -0.857949D+01     -0.741201D-01     -0.275090D-01
   zzz       -0.463098D+02     -0.400081D+00     -0.148486D+00

 ----------------------------------------------------------------------
 1\1\GINC-IISERK51\Freq\RHF\3-21G\C7H8\GAUSSIAN\09-Jun-2025\0\\#N Geom=
 AllCheck Guess=TCheck SCRF=Check GenChk RHF/3-21G Freq\\Methyl Toluene
  opt+Freq\\0,1\C,-0.0810668602,-2.6185575258,0.0093775321\C,1.30262282
 87,-2.6123206327,0.0006118575\C,1.9930997526,-1.4130366734,-0.01184045
 55\C,1.3139697622,-0.202757487,-0.0139875835\C,-0.0737144772,-0.219478
 5429,-0.0068657029\C,-0.7672868305,-1.4169749323,0.0055940607\H,-0.617
 0883222,-3.5467859464,0.0169745394\H,1.8433563166,-3.5382893735,0.0007
 550788\H,3.0661625686,-1.4171416972,-0.0217811874\H,-0.6136397907,0.70
 78959386,-0.0129240264\H,-1.8395573925,-1.4114549739,0.0096197287\C,2.
 0727698008,1.1111452262,0.0019833391\H,2.2582387462,1.4280514986,1.023
 9029849\H,3.0290048,1.0140972019,-0.4980225754\H,1.5089675897,1.891898
 7696,-0.4943638968\\Version=EM64L-G16RevB.01\State=1-A'\HF=-268.240210
 1\RMSD=1.224e-09\RMSF=3.696e-05\ZeroPoint=0.13796\Thermal=0.1428465\Di
 pole=0.064389,0.1114376,0.0146695\DipoleDeriv=-0.1022066,0.111933,-0.0
 029221,0.1119289,0.0270022,-0.0050264,-0.0019292,-0.003307,-0.1749179,
 0.0145337,-0.1061466,-0.0044944,-0.0756159,0.0927517,0.0027006,-0.0031
 046,-0.0029911,-0.1382038,0.1006795,-0.0307954,0.0000333,-0.0691178,-0
 .2016371,-0.0012036,-0.0038357,-0.0031669,-0.1662582,-0.0042364,0.1764
 693,0.0069559,0.1763817,0.1992184,0.0118688,0.0279915,0.0482951,-0.063
 8826,-0.0828672,-0.1750463,-0.0017251,-0.136709,-0.0180898,0.0002297,-
 0.0014118,-0.0039643,-0.1662588,0.1519068,0.0036306,0.0035457,-0.02688
 23,-0.044599,-0.0022507,-0.0021423,-0.004002,-0.1382263,0.0299007,-0.0
 829632,0.0011083,-0.0829651,-0.0658642,0.0015878,0.0015732,0.0023929,0
 .1573191,0.0294513,0.0817464,0.0008565,0.0755425,-0.0719505,0.0007492,
 0.0025837,0.0009945,0.1512899,-0.1096307,-0.0044714,0.0031849,-0.01518
 65,0.0783765,0.0031451,0.0065285,0.0028876,0.1466944,0.0399215,0.07113
 62,0.001666,0.0818452,-0.0711947,0.0035808,-0.000206,0.0063868,0.14671
 34,-0.1147074,-0.0076415,0.0011651,-0.0014422,0.0722031,0.0009566,0.00
 05272,0.0025976,0.1512949,0.0859753,-0.0423663,0.0015053,-0.042192,0.0
 373656,0.0025716,-0.0403366,-0.0698836,0.1188455,0.0524772,-0.0543671,
 -0.0309614,-0.0543299,-0.0099116,-0.0528291,-0.0398914,-0.0682926,-0.1
 043878,-0.0938995,-0.0342903,0.0849841,0.036786,0.0367947,-0.0262696,0
 .0887957,0.0104609,0.0396598,0.0027018,0.0931725,-0.064902,0.0219563,-
 0.0604652,0.0601891,-0.0351422,0.0815923,0.0403183\Polar=74.1857954,4.
 1084112,78.9275703,-0.0899941,0.0435544,23.9747533\PolarDeriv=-0.59403
 93,-0.1427597,-1.7617832,-0.159082,0.0306605,0.1789036,-1.8965777,-0.7
 493225,-2.1817089,0.0443038,-0.1091185,0.3085168,0.025514,0.0070521,0.
 0561092,-2.0821466,-3.6059523,-0.0508671,0.7020563,2.1464379,2.4536748
 ,0.193457,-0.0079033,-0.2107237,-1.1669878,1.2599049,0.03198,0.1180812
 ,0.0471407,0.2794692,0.1018248,-0.0050428,0.0913317,1.8141271,-2.74910
 37,0.0811707,1.3740005,0.1282024,2.1064063,0.0165303,-0.0096974,-0.116
 2133,-1.2422113,-3.5916253,-2.0981231,-0.0665115,-0.1174641,0.0097516,
 0.3332772,0.1114652,-0.1559985,2.8407287,-0.3306652,-0.1290866,-0.1123
 478,0.4078677,4.4452774,-0.3193126,0.4842632,-0.3514549,3.3529676,2.74
 82264,4.1619463,0.4688568,0.2228515,-0.6146797,-0.7055789,-0.1817929,-
 0.9410433,1.6450316,2.8424736,0.2672981,0.1545696,-2.0687593,-4.786655
 4,-0.0617899,-0.0998436,0.066084,2.1821917,-0.7530185,-0.837814,-0.054
 902,-0.0535509,-0.0953766,-0.1386054,-0.1382975,0.3135174,-1.7064117,2
 .2968485,-0.1076321,-1.2547895,0.079774,-1.3047687,0.0300784,0.0241943
 ,0.3475841,-0.5432624,2.162431,2.7073216,-0.0856008,0.2021178,-0.04150
 87,0.077979,0.0047206,0.1043701,-3.288114,0.1975516,0.1043908,-2.70644
 73,-3.08524,-3.0204933,0.0215043,0.0200371,-0.2080678,-1.8743763,-3.71
 96142,-8.0426779,0.0195997,0.04479,-0.3603841,-0.005986,0.0028995,-0.0
 027323,-0.8022999,-1.3894552,0.0408065,2.4116735,-2.9239701,3.0834657,
 0.0027185,-0.0064425,0.2215135,-1.6180162,3.4432562,-8.0598841,0.00179
 65,0.002915,-0.3458468,-0.0411581,-0.0011643,-0.0348348,0.7982622,-1.5
 137097,-0.0156957,9.3581255,-0.3575352,0.4194969,-0.0264516,-0.0165038
 ,0.3814814,-0.2536561,1.4356954,-0.1353034,-0.0034258,-0.0170581,0.005
 291,-0.0534285,-0.0175447,-0.0716048,1.5524726,-0.0764523,0.0060906,-2
 .7001913,2.6900418,-2.5242189,0.0008669,-0.00425,-0.1860065,1.8618793,
 -3.1218829,6.4126174,-0.0177304,-0.0115118,0.3330288,-0.0443243,-0.026
 3954,-0.0561263,-0.8420126,1.3062954,0.0189833,-10.8917464,-0.3373342,
 -0.2372393,0.035839,0.0043855,-0.4104286,0.0038148,-1.5480162,-0.08147
 57,-0.004804,0.0062711,0.0190663,-0.0084255,0.0034749,-0.0396283,-1.71
 00866,-0.0652704,-0.0021,-3.4798424,-1.7198245,2.0738588,2.0149131,-1.
 6580545,-0.9432217,0.4757862,0.8061276,-2.94256,-1.6558546,0.1080507,-
 1.5944735,1.7834896,-1.5736525,-0.0246894,-2.7384463,-4.7043203,-3.374
 1196,2.3156619,1.924742,0.3044029,2.0296299,0.964928,0.5836596,0.33886
 52,1.220059,4.1708069,0.9626171,3.1351145,0.9925888,0.8350821,1.694809
 1,2.7816274,2.0568158,3.5368254,7.2852781,7.0496785,1.7227492,0.705317
 ,-2.3477609,-0.2483597,0.9046107,0.3859612,1.7104027,-0.0244746,-0.004
 8451,-1.280546,0.2186034,-1.6721963,-0.2833898,-0.4232469,2.9322761,1.
 1482249,-2.0718383,-1.6263624,1.5356063,-1.9567408,-1.43114,0.5225866,
 -0.2577206,-0.0063797,-1.3026246,6.9193502,0.2784192,-2.1800017,0.8859
 54,-0.4874632,0.4028584,-1.5970515,-0.4701961,3.1067098,-2.0526787\Hyp
 erPolar=7.9714265,-7.6204002,-25.7189777,-22.9201823,-11.4808033,5.909
 9656,-4.7197361,12.5453747,21.5156082,20.2005365\Quadrupole=2.2423723,
 2.4015978,-4.6439701,0.1379758,-0.0102275,0.0106599\PG=CS [SG(C3H2),X(
 C4H6)]\NImag=1\\0.75501710,0.05587951,0.81953503,-0.00349817,-0.003824
 19,0.18691560,-0.34947445,-0.04581058,0.00164956,0.75894992,0.04335865
 ,-0.16499021,-0.00003656,-0.05364936,0.81542225,0.00142489,0.00054045,
 -0.09252697,-0.00381969,-0.00288754,0.19025085,-0.03274349,-0.04041413
 ,0.00060085,-0.21214241,-0.12490245,0.00136995,0.84309444,-0.11026752,
 0.05307328,0.00064489,-0.03531979,-0.30345303,0.00139803,0.01172988,0.
 72514665,0.00167026,-0.00036069,0.01483895,0.00040657,0.00170430,-0.09
 143981,-0.00591104,-0.00213379,0.18717983,-0.08527983,0.04939543,0.000
 00068,0.10081536,0.03551155,-0.00096516,-0.20560598,0.02484297,0.00190
 974,0.72696057,0.04939363,-0.02827122,-0.00042566,-0.03565265,-0.07693
 783,0.00050816,0.12052102,-0.28812987,-0.00070674,-0.00592279,0.720119
 38,0.00043271,0.00032245,-0.01139537,0.00039568,-0.00009135,0.01316202
 ,0.00014418,0.00048106,-0.09408296,-0.00035430,0.00149305,0.22496597,0
 .09686166,-0.03546858,-0.00011180,-0.08265565,-0.04517464,0.00079341,-
 0.03370999,0.10828785,-0.00107445,-0.33044441,-0.04719444,0.00109948,0
 .74445709,0.03438561,-0.07654016,0.00052811,-0.04654507,-0.02962035,0.
 00038256,0.04014548,0.05195487,-0.00107194,0.04848341,-0.16329593,0.00
 004601,-0.04521145,0.82380707,-0.00137165,0.00120392,0.01484724,0.0014
 4355,0.00081927,-0.01105275,-0.00013237,-0.00177999,0.01486091,-0.0006
 1232,0.00132692,-0.09407846,-0.00099973,-0.00469585,0.18715676,-0.2100
 1891,0.12384121,-0.00017382,-0.03445309,0.04124387,0.00015126,-0.00316
 375,0.00070139,-0.00003894,-0.03246766,-0.04140554,-0.00019848,-0.2112
 7228,-0.12440064,0.00144619,0.84775204,0.03467113,-0.30445216,0.000843
 49,0.11106697,0.05344504,-0.00089996,-0.00066610,-0.10911750,0.0014577
 7,-0.11256846,0.05634734,0.00079346,-0.03481966,-0.30432182,0.00088590
 ,-0.00240768,0.72662473,0.00025235,0.00061539,-0.09252057,-0.00044557,
 -0.00038724,0.01484473,-0.00009508,0.00067144,-0.01104750,0.00085260,-
 0.00034246,0.01315984,0.00088616,0.00189062,-0.09144115,-0.00297046,-0
 .00362473,0.19024625,-0.14967000,-0.13039050,0.00120681,-0.01221614,-0
 .03610419,0.00026060,-0.00641550,0.00168294,0.00009015,-0.00069568,0.0
 0099681,-0.00000608,-0.00167039,0.00363422,0.00002119,0.01458540,0.019
 44919,-0.00013624,0.15415366,-0.13039041,-0.30017177,0.00199092,0.0039
 8132,0.00497393,-0.00001927,0.00089562,0.00139808,0.00002508,0.0009965
 3,0.00045437,-0.00001249,0.00442169,-0.00334747,0.00004982,-0.02063668
 ,-0.02182893,0.00023190,0.14158808,0.31758065,0.00118338,0.00195035,-0
 .05066042,0.00021290,0.00020790,0.00632019,0.00010048,-0.00002431,0.00
 856540,0.00006113,0.00010390,-0.00080091,-0.00002510,0.00003692,0.0085
 6585,0.00000080,0.00015942,0.00632150,-0.00137192,-0.00221333,0.033444
 02,-0.01216553,0.03596937,-0.00000813,-0.15084636,0.13063698,0.0001782
 3,0.01446306,-0.01933843,0.00003409,-0.00157574,-0.00383062,0.00000288
 ,-0.00057150,-0.00101463,0.00002325,-0.00668763,-0.00146282,0.00010862
 ,0.00104680,-0.00058524,-0.00004559,0.15555077,-0.00386578,0.00508732,
 0.00003651,0.13056961,-0.29813113,0.00018467,0.02069335,-0.02199571,-0
 .00002788,-0.00431869,-0.00324288,0.00002294,-0.00104932,0.00051448,-0
 .00000084,-0.00092346,0.00147143,0.00003890,0.00057935,0.00098601,-0.0
 0003093,-0.14184699,0.31545216,0.00007151,-0.00021713,0.00693449,0.000
 27494,0.00015784,-0.05206303,-0.00008900,0.00022352,0.00686398,0.00005
 364,0.00028772,0.00886891,0.00004790,0.00003766,-0.00077901,0.00009226
 ,0.00000369,0.00861368,-0.00004407,-0.00002502,-0.00530624,-0.00028356
 ,-0.00025116,0.03384944,0.00067732,-0.00322814,0.00011818,-0.01361226,
 0.00446776,0.00006031,-0.37072704,0.00193790,0.00309653,-0.01561321,-0
 .00445097,0.00030383,0.00052056,0.00302655,0.00009877,0.00108373,0.000
 13272,-0.00000931,-0.00076976,0.00010752,0.00002360,0.00104997,-0.0005
 5930,-0.00007367,0.39596592,-0.00244212,-0.00554738,0.00008473,-0.0355
 9822,0.00548166,0.00023730,0.00085683,-0.07365992,0.00018460,0.0347417
 9,0.00416162,-0.00017710,0.00279371,-0.00567310,0.00005201,-0.00007391
 ,-0.00117604,0.00000733,-0.00153018,0.00006168,0.00002984,0.00052250,0
 .00102918,-0.00003846,-0.00129524,0.07386087,0.00014668,0.00008982,0.0
 0874234,0.00030057,-0.00010263,0.00648111,0.00343958,0.00009391,-0.051
 14190,0.00026435,0.00055978,0.00679687,-0.00019761,0.00005353,0.008091
 86,-0.00000787,0.00009887,-0.00075045,0.00002592,-0.00000161,0.0000005
 8,-0.00005204,-0.00001668,-0.00539454,-0.00354325,-0.00026061,0.033258
 50,-0.00153743,-0.00371976,0.00004367,-0.00063660,-0.00106673,0.000008
 37,-0.00664474,-0.00134220,0.00004608,-0.01389122,0.03573725,-0.000156
 06,-0.14909253,0.12877344,-0.00076575,0.01418793,-0.01955470,0.0001068
 0,0.00046985,-0.00081477,0.00001065,0.00004311,0.00007436,-0.00000049,
 -0.00077439,0.00161408,-0.00000864,0.15545994,-0.00450585,-0.00333310,
 0.00013580,-0.00086044,0.00054455,0.00000141,-0.00110875,0.00149298,0.
 00010179,-0.00345774,0.00243891,0.00017804,0.12985411,-0.29531317,0.00
 179646,0.02051166,-0.02231953,0.00003675,0.00082302,-0.00117805,0.0000
 2993,0.00007082,-0.00007532,-0.00001474,0.00000195,0.00015839,-0.00004
 218,-0.14010268,0.31438644,0.00003220,0.00016020,0.00874280,0.00008737
 ,0.00004915,-0.00075071,0.00019602,-0.00015331,0.00809108,0.00042019,0
 .00037065,0.00679759,-0.00101351,0.00205216,-0.05112317,-0.00022418,0.
 00021958,0.00648210,-0.00001433,0.00002213,0.00000070,-0.00001140,-0.0
 0000088,-0.00127030,-0.00002972,-0.00003389,-0.00008406,0.00081203,-0.
 00210732,0.03323893,-0.01312110,-0.00441733,0.00009888,0.00046606,0.00
 320505,0.00001550,0.00113664,-0.00006332,-0.00001940,0.00070249,-0.003
 00394,0.00004165,-0.01347319,0.00457158,0.00004177,-0.37441061,0.00155
 292,0.00123779,0.00100366,0.00055437,-0.00002562,-0.00075035,-0.000118
 10,0.00000765,-0.00010863,-0.00001321,0.00000071,0.00105028,-0.0005593
 8,-0.00001287,0.39831389,0.03541822,0.00604279,-0.00011851,0.00266586,
 -0.00568268,0.00007409,-0.00002882,-0.00119386,0.00001896,-0.00251693,
 -0.00552053,-0.00000695,-0.03546051,0.00594118,0.00014168,0.00162018,-
 0.07456348,0.00019392,-0.00061023,0.00102926,-0.00003953,0.00153656,0.
 00006826,-0.00001857,-0.00001672,0.00007641,-0.00000745,0.00052253,0.0
 0102910,-0.00004190,-0.00175054,0.07268509,-0.00007757,-0.00003250,0.0
 0693459,-0.00000795,0.00004038,0.00861410,0.00000170,0.00005968,-0.000
 77880,0.00024663,0.00017111,0.00886834,0.00023758,0.00001621,0.0068633
 4,0.00116635,0.00026452,-0.05206643,-0.00002369,-0.00003947,-0.0053063
 4,-0.00001429,-0.00000192,-0.00008058,-0.00001675,-0.00000494,-0.00127
 029,-0.00001867,-0.00006762,-0.00539477,-0.00139519,-0.00028386,0.0338
 5338,-0.00005932,-0.00037492,0.00003486,-0.00300604,0.00433348,0.00129
 521,0.01411894,0.01476247,0.00067063,-0.13163516,-0.04182577,-0.000584
 38,-0.01813315,-0.03899466,-0.00071507,-0.00522970,0.00253719,-0.00073
 750,0.00011304,-0.00005769,-0.00009698,0.00054004,0.00107420,-0.000097
 72,0.00085890,0.00112683,-0.00115535,0.00142419,-0.00076550,0.00054810
 ,-0.00060406,-0.00117008,0.00000854,0.62066329,-0.00037234,-0.00048791
 ,0.00006446,0.00381759,-0.00126869,-0.00016580,-0.02038831,-0.03211663
 ,-0.00044867,-0.04183326,-0.17991554,-0.00109331,-0.00384657,0.0001305
 6,0.00035657,0.00305041,0.00095324,0.00101300,-0.00005816,0.00004655,-
 0.00016268,-0.00051021,-0.00065987,-0.00004555,-0.00109134,0.00163344,
 -0.00000702,0.00145105,0.00106951,-0.00099765,0.00041336,0.00048437,-0
 .00010755,-0.06144987,0.54979297,-0.00058515,-0.00100917,-0.00082658,-
 0.00006049,0.00135672,0.00811874,0.00058854,0.00026285,0.00680428,0.00
 121186,0.00201713,-0.08795544,0.00001550,0.00076800,0.00680918,0.00125
 988,0.00060164,0.00812047,0.00001709,0.00003483,-0.00111113,0.00009381
 ,0.00010744,-0.00016162,0.00045999,-0.00049557,-0.00458336,-0.00067780
 ,0.00016526,-0.00458473,0.00004863,0.00014053,-0.00016177,-0.00551886,
 -0.00936404,0.60994364,0.00091401,-0.00085854,-0.00010779,-0.00128301,
 -0.00069128,0.00060157,-0.00020034,0.00187080,0.00010665,-0.00418267,-
 0.00848833,-0.01961222,-0.00082787,-0.00183376,0.00083093,0.00017725,0
 .00112382,0.00120285,-0.00000246,-0.00001569,-0.00009984,-0.00000822,-
 0.00007258,0.00001639,0.00012096,0.00001315,-0.00015092,-0.00026280,0.
 00017098,-0.00081265,-0.00008147,-0.00004225,-0.00008004,-0.06443323,-
 0.01199080,-0.04344511,0.06636852,-0.00085958,-0.00007768,-0.00018055,
 0.00028653,0.00042558,0.00173359,-0.00146747,-0.00080993,0.00102087,-0
 .00856970,-0.01393159,-0.03397763,0.00150751,-0.00017934,0.00059632,0.
 00015510,-0.00103371,0.00138464,-0.00001605,-0.00002024,-0.00017261,-0
 .00000020,-0.00014733,-0.00008325,0.00038932,-0.00015427,-0.00102564,-
 0.00020879,0.00022797,-0.00064153,-0.00011466,-0.00007432,-0.00002719,
 -0.01199463,-0.07786525,-0.07420279,0.01738937,0.08598293,0.00014298,0
 .00025369,-0.00005381,-0.00009125,-0.00038533,0.00008471,-0.00016597,0
 .00034090,0.00023908,-0.00008896,-0.00017036,0.00467928,0.00038521,0.0
 0003239,0.00023601,-0.00028815,-0.00027802,0.00008372,-0.00001387,-0.0
 0002374,-0.00006065,-0.00002703,-0.00005225,0.00001613,-0.00006588,-0.
 00007626,-0.00028977,-0.00003365,-0.00009471,-0.00028825,-0.00003164,-
 0.00004957,0.00001638,-0.04252592,-0.07261109,-0.30417486,0.04784079,0
 .08168480,0.33410695,0.00050506,-0.00018194,0.00004880,-0.00032935,-0.
 00056527,-0.00081141,0.00092950,0.00263603,-0.00068634,-0.01805205,0.0
 0264568,0.00709122,-0.00083515,-0.00378897,0.00062378,-0.00059051,0.00
 065348,-0.00047962,0.00005726,-0.00007453,0.00014360,0.00000654,-0.000
 06422,0.00005023,0.00104041,-0.00046345,0.00075179,0.00045503,-0.00006
 924,0.00025240,-0.00015087,-0.00024892,-0.00001640,-0.27530059,0.02444
 629,0.11555344,0.00732104,-0.00026820,-0.00278335,0.30271374,0.0000178
 2,-0.00013981,0.00014150,-0.00019124,0.00034833,-0.00020495,-0.0011833
 5,0.00165808,-0.00031403,-0.03419962,0.00235887,0.01733970,-0.00122588
 ,-0.00579887,0.00000611,-0.00118985,0.00045801,-0.00092366,0.00005683,
 -0.00001533,0.00000024,0.00006959,0.00003725,0.00001714,0.00074214,-0.
 00052108,0.00016706,-0.00015562,0.00010190,0.00036230,-0.00020469,-0.0
 0033796,-0.00003920,0.02911485,-0.06246219,-0.01328460,0.00993072,-0.0
 0157519,-0.00415955,-0.02631645,0.06838727,-0.00043696,0.00045641,0.00
 001517,0.00025992,0.00029027,-0.00005734,0.00006128,-0.00017270,0.0005
 6106,-0.00413977,-0.00107630,0.00051878,0.00013281,-0.00005005,0.00048
 359,-0.00033412,-0.00089388,0.00001331,-0.00002718,0.00000259,0.000013
 51,0.00001294,0.00002286,-0.00002067,-0.00025457,0.00044841,0.00014298
 ,0.00011893,-0.00012380,-0.00000071,-0.00002092,-0.00002524,-0.0000706
 2,0.11699742,-0.01147214,-0.11856286,0.03477337,-0.00417993,-0.0173640
 7,-0.12943794,0.01591091,0.12445284,0.00009491,-0.00022110,0.00009742,
 0.00042405,-0.00060342,-0.00056303,-0.00238933,-0.00212095,-0.00030054
 ,0.01096518,-0.01751936,0.01139990,0.00084679,-0.00123111,0.00006746,0
 .00050779,0.00029199,0.00022661,0.00001027,0.00002989,-0.00007149,-0.0
 0009498,-0.00017242,-0.00002602,0.00028753,-0.00025255,0.00018608,-0.0
 0025061,-0.00000297,-0.00022965,0.00002726,0.00008164,-0.00001026,-0.1
 3931714,0.10836218,-0.06896134,-0.00361971,0.00377145,-0.00225330,-0.0
 1777007,0.02473475,-0.01770521,0.15027803,-0.00042098,0.00027298,0.000
 11506,0.00123948,-0.00055740,-0.00088275,-0.00468279,-0.00424750,0.000
 55037,0.01941552,-0.02663511,0.01468212,0.00258618,0.00174204,-0.00075
 830,-0.00008606,-0.00048664,-0.00080581,-0.00010112,0.00003125,0.00012
 489,-0.00021668,-0.00039385,-0.00003369,-0.00016415,0.00026854,0.00040
 086,-0.00120747,0.00076941,0.00074032,-0.00005211,0.00001638,0.0000523
 4,0.10368410,-0.19933456,0.09290177,-0.00650560,0.00923237,-0.00441088
 ,0.00165971,-0.00249929,0.00086259,-0.11514804,0.22182137,0.00061254,-
 0.00014900,0.00001253,-0.00060612,-0.00073519,0.00001416,-0.00010913,0
 .00008781,0.00048641,0.00113969,-0.00411692,0.00049553,-0.00017585,-0.
 00002633,0.00055982,0.00011928,0.00036826,-0.00005950,0.00001563,-0.00
 002232,0.00001393,-0.00001177,-0.00003079,-0.00007062,-0.00016805,0.00
 004261,0.00000014,0.00051452,0.00000495,0.00014350,0.00001305,0.000022
 41,-0.00002052,-0.06812299,0.09504148,-0.11767395,-0.02106398,0.028070
 89,-0.01723088,0.00969980,-0.01501899,0.00987502,0.07814337,-0.1035388
 7,0.12345444\\-0.00003867,-0.00006652,-0.00010637,-0.00005378,-0.00004
 776,0.00005789,0.00002714,0.00008427,-0.00000853,0.00002988,0.00005153
 ,0.00005361,0.00005940,0.00006564,-0.00000861,-0.00001428,-0.00007057,
 0.00005779,-0.00000755,-0.00001315,0.00002045,-0.00002712,0.00000062,-
 0.00000308,-0.00000248,0.00001994,-0.00001590,0.00001845,0.00000785,-0
 .00001595,0.00001408,-0.00002317,-0.00000318,-0.00000096,-0.00000157,-
 0.00002082,-0.00001145,-0.00001977,-0.00001528,-0.00000417,0.00001086,
 0.00000402,0.00001151,0.00000181,0.00000398\\\@


      TO SUSPECT YOUR OWN MORTALITY IS TO KNOW THE BEGINNING OF TERROR.
      TO LEARN IRREFUTABLY THAT YOU ARE MORTAL IS TO KNOW THE END
      OF TERROR.

                                                  -- JESSICA
                                                     CHILDREN OF DUNE
                                                     BY FRANK HERBERT
 Job cpu time:       0 days  0 hours  0 minutes  4.1 seconds.
 Elapsed time:       0 days  0 hours  0 minutes  4.2 seconds.
 File lengths (MBytes):  RWF=     14 Int=      0 D2E=      0 Chk=      2 Scr=      1
 Normal termination of Gaussian 16 at Mon Jun  9 20:02:00 2025.
