 Entering Gaussian System, Link 0=g16
 Input=/home/gaussian/Documents/Summer_Internship/Acid_Base_adduct/Acid/AlH3/neutral/AlH3_sp.com
 Output=/home/gaussian/Documents/Summer_Internship/Acid_Base_adduct/Acid/AlH3/neutral/AlH3_sp.log
 Initial command:
 /usr/local/g16/l1.exe "/home/gaussian/tmp/Gau-48887.inp" -scrdir="/home/gaussian/tmp/"
 Entering Link 1 = /usr/local/g16/l1.exe PID=     48890.
  
 Copyright (c) 1988-2017, Gaussian, Inc.  All Rights Reserved.
  
 This is part of the Gaussian(R) 16 program.  It is based on
 the Gaussian(R) 09 system (copyright 2009, Gaussian, Inc.),
 the Gaussian(R) 03 system (copyright 2003, Gaussian, Inc.),
 the Gaussian(R) 98 system (copyright 1998, Gaussian, Inc.),
 the Gaussian(R) 94 system (copyright 1995, Gaussian, Inc.),
 the Gaussian 92(TM) system (copyright 1992, Gaussian, Inc.),
 the Gaussian 90(TM) system (copyright 1990, Gaussian, Inc.),
 the Gaussian 88(TM) system (copyright 1988, Gaussian, Inc.),
 the Gaussian 86(TM) system (copyright 1986, Carnegie Mellon
 University), and the Gaussian 82(TM) system (copyright 1983,
 Carnegie Mellon University). Gaussian is a federally registered
 trademark of Gaussian, Inc.
  
 This software contains proprietary and confidential information,
 including trade secrets, belonging to Gaussian, Inc.
  
 This software is provided under written license and may be
 used, copied, transmitted, or stored only in accord with that
 written license.
  
 The following legend is applicable only to US Government
 contracts under FAR:
  
                    RESTRICTED RIGHTS LEGEND
  
 Use, reproduction and disclosure by the US Government is
 subject to restrictions as set forth in subparagraphs (a)
 and (c) of the Commercial Computer Software - Restricted
 Rights clause in FAR 52.227-19.
  
 Gaussian, Inc.
 340 Quinnipiac St., Bldg. 40, Wallingford CT 06492
  
  
 ---------------------------------------------------------------
 Warning -- This program may not be used in any manner that
 competes with the business of Gaussian, Inc. or will provide
 assistance to any competitor of Gaussian, Inc.  The licensee
 of this program is prohibited from giving any competitor of
 Gaussian, Inc. access to this program.  By using this program,
 the user acknowledges that Gaussian, Inc. is engaged in the
 business of creating and licensing software in the field of
 computational chemistry and represents and warrants to the
 licensee that it is not a competitor of Gaussian, Inc. and that
 it will not use this program in any manner prohibited above.
 ---------------------------------------------------------------
  

 Cite this work as:
 Gaussian 16, Revision B.01,
 M. J. Frisch, G. W. Trucks, H. B. Schlegel, G. E. Scuseria, 
 M. A. Robb, J. R. Cheeseman, G. Scalmani, V. Barone, 
 G. A. Petersson, H. Nakatsuji, X. Li, M. Caricato, A. V. Marenich, 
 J. Bloino, B. G. Janesko, R. Gomperts, B. Mennucci, H. P. Hratchian, 
 J. V. Ortiz, A. F. Izmaylov, J. L. Sonnenberg, D. Williams-Young, 
 F. Ding, F. Lipparini, F. Egidi, J. Goings, B. Peng, A. Petrone, 
 T. Henderson, D. Ranasinghe, V. G. Zakrzewski, J. Gao, N. Rega, 
 G. Zheng, W. Liang, M. Hada, M. Ehara, K. Toyota, R. Fukuda, 
 J. Hasegawa, M. Ishida, T. Nakajima, Y. Honda, O. Kitao, H. Nakai, 
 T. Vreven, K. Throssell, J. A. Montgomery, Jr., J. E. Peralta, 
 F. Ogliaro, M. J. Bearpark, J. J. Heyd, E. N. Brothers, K. N. Kudin, 
 V. N. Staroverov, T. A. Keith, R. Kobayashi, J. Normand, 
 K. Raghavachari, A. P. Rendell, J. C. Burant, S. S. Iyengar, 
 J. Tomasi, M. Cossi, J. M. Millam, M. Klene, C. Adamo, R. Cammi, 
 J. W. Ochterski, R. L. Martin, K. Morokuma, O. Farkas, 
 J. B. Foresman, and D. J. Fox, Gaussian, Inc., Wallingford CT, 2016.
 
 ******************************************
 Gaussian 16:  EM64L-G16RevB.01 20-Dec-2017
                14-Jun-2025 
 ******************************************
 %chk=AlH3_sp.chk
 -------------------------------------
 # hf/3-21g pop=full geom=connectivity
 -------------------------------------
 1/38=1,57=2,172=1/1;
 2/12=2,17=6,18=5,40=1/2;
 3/5=5,11=9,25=1,30=1/1,2,3;
 4//1;
 5/5=2,38=5/2;
 6/7=3,28=1/1;
 99/5=1,9=1/99;
 -------
 sp calc
 -------
 Symbolic Z-matrix:
 Charge =  0 Multiplicity = 1
 Al                    0.        0.        0. 
 H                     0.        1.5995    0. 
 H                     1.3852   -0.79975   0. 
 H                    -1.3852   -0.79975   0. 
 
                          Input orientation:                          
 ---------------------------------------------------------------------
 Center     Atomic      Atomic             Coordinates (Angstroms)
 Number     Number       Type             X           Y           Z
 ---------------------------------------------------------------------
      1         13           0        0.000000    0.000000    0.000000
      2          1           0        0.000000    1.599495    0.000000
      3          1           0        1.385203   -0.799748    0.000000
      4          1           0       -1.385203   -0.799748    0.000000
 ---------------------------------------------------------------------
                    Distance matrix (angstroms):
                    1          2          3          4
     1  Al   0.000000
     2  H    1.599495   0.000000
     3  H    1.599495   2.770407   0.000000
     4  H    1.599495   2.770407   2.770406   0.000000
 Stoichiometry    AlH3
 Framework group  C3H[O(Al),SGH(H3)]
 Deg. of freedom     1
 Full point group                 C3H     NOp   6
 Largest Abelian subgroup         CS      NOp   2
 Largest concise Abelian subgroup C1      NOp   1
                         Standard orientation:                         
 ---------------------------------------------------------------------
 Center     Atomic      Atomic             Coordinates (Angstroms)
 Number     Number       Type             X           Y           Z
 ---------------------------------------------------------------------
      1         13           0       -0.000000   -0.000000    0.000000
      2          1           0        0.000000    1.599495    0.000000
      3          1           0        1.385203   -0.799748    0.000000
      4          1           0       -1.385203   -0.799748    0.000000
 ---------------------------------------------------------------------
 Rotational constants (GHZ):         130.6697288         130.6697288          65.3348644
 Standard basis: 3-21G (6D, 7F)
 There are    16 symmetry adapted cartesian basis functions of A'  symmetry.
 There are     3 symmetry adapted cartesian basis functions of A"  symmetry.
 There are    16 symmetry adapted basis functions of A'  symmetry.
 There are     3 symmetry adapted basis functions of A"  symmetry.
    19 basis functions,    36 primitive gaussians,    19 cartesian basis functions
     8 alpha electrons        8 beta electrons
       nuclear repulsion energy        13.4757984234 Hartrees.
 NAtoms=    4 NActive=    4 NUniq=    2 SFac= 4.00D+00 NAtFMM=   60 NAOKFM=F Big=F
 Integral buffers will be    131072 words long.
 Raffenetti 1 integral format.
 Two-electron integral symmetry is turned on.
 One-electron integrals computed using PRISM.
 NBasis=    19 RedAO= T EigKep=  8.70D-02  NBF=    16     3
 NBsUse=    19 1.00D-06 EigRej= -1.00D+00 NBFU=    16     3
 ExpMin= 6.39D-02 ExpMax= 7.76D+02 ExpMxC= 7.76D+02 IAcc=3 IRadAn=         5 AccDes= 0.00D+00
 Harris functional with IExCor=  205 and IRadAn=       5 diagonalized for initial guess.
 HarFok:  IExCor=  205 AccDes= 0.00D+00 IRadAn=         5 IDoV= 1 UseB2=F ITyADJ=14
 ICtDFT=  3500011 ScaDFX=  1.000000  1.000000  1.000000  1.000000
 FoFCou: FMM=F IPFlag=           0 FMFlag=      100000 FMFlg1=           0
         NFxFlg=           0 DoJE=T BraDBF=F KetDBF=T FulRan=T
         wScrn=  0.000000 ICntrl=       500 IOpCl=  0 I1Cent=   200000004 NGrid=           0
         NMat0=    1 NMatS0=      1 NMatT0=    0 NMatD0=    1 NMtDS0=    0 NMtDT0=    0
 Petite list used in FoFCou.
 Initial guess orbital symmetries:
       Occupied  (A') (A') (E') (E') (A") (A') (E') (E')
       Virtual   (A") (A') (E') (E') (A') (E') (E') (A") (A') (E')
                 (E')
 The electronic state of the initial guess is 1-A'.
 Keep R1 ints in memory in symmetry-blocked form, NReq=823220.
 Requested convergence on RMS density matrix=1.00D-08 within 128 cycles.
 Requested convergence on MAX density matrix=1.00D-06.
 Requested convergence on             energy=1.00D-06.
 No special actions if energy rises.
 SCF Done:  E(RHF) =  -242.284112304     A.U. after    8 cycles
            NFock=  8  Conv=0.75D-09     -V/T= 2.0010

 **********************************************************************

            Population analysis using the SCF Density.

 **********************************************************************

 Orbital symmetries:
       Occupied  (A') (A') (A") (E') (E') (A') (E') (E')
       Virtual   (A") (E') (E') (A') (A') (A") (E') (E') (A') (E')
                 (E')
 The electronic state is 1-A'.
 Alpha  occ. eigenvalues --  -58.05997  -4.87207  -3.17567  -3.17432  -3.17432
 Alpha  occ. eigenvalues --   -0.57219  -0.42617  -0.42617
 Alpha virt. eigenvalues --    0.03080   0.17847   0.17847   0.19109   0.29286
 Alpha virt. eigenvalues --    0.37037   0.38917   0.38917   1.33732   1.37727
 Alpha virt. eigenvalues --    1.37727
     Molecular Orbital Coefficients:
                           1         2         3         4         5
                        (A')--O   (A')--O   (A")--O   (E')--O   (E')--O
     Eigenvalues --   -58.05997  -4.87207  -3.17567  -3.17432  -3.17432
   1 1   Al 1S          0.98855  -0.28423   0.00000   0.00000  -0.00000
   2        2S          0.04408   1.01109   0.00000  -0.00000   0.00000
   3        2PX        -0.00000   0.00000   0.00000   0.97247   0.10849
   4        2PY         0.00000  -0.00000   0.00000  -0.10849   0.97247
   5        2PZ         0.00000   0.00000   0.97878   0.00000   0.00000
   6        3S         -0.01095   0.08897   0.00000   0.00000  -0.00000
   7        3PX        -0.00000   0.00000   0.00000   0.08695   0.00970
   8        3PY         0.00000  -0.00000   0.00000  -0.00970   0.08695
   9        3PZ         0.00000   0.00000   0.08584   0.00000   0.00000
  10        4S          0.00367  -0.03190   0.00000  -0.00000   0.00000
  11        4PX         0.00000  -0.00000   0.00000  -0.02466  -0.00275
  12        4PY         0.00000   0.00000   0.00000   0.00275  -0.02466
  13        4PZ         0.00000   0.00000  -0.03010   0.00000   0.00000
  14 2   H  1S          0.00083  -0.00317   0.00000   0.00053  -0.00476
  15        2S          0.00022  -0.00051   0.00000   0.00046  -0.00413
  16 3   H  1S          0.00083  -0.00317   0.00000  -0.00439   0.00192
  17        2S          0.00022  -0.00051   0.00000  -0.00381   0.00167
  18 4   H  1S          0.00083  -0.00317   0.00000   0.00385   0.00284
  19        2S          0.00022  -0.00051   0.00000   0.00335   0.00246
                           6         7         8         9        10
                        (A')--O   (E')--O   (E')--O   (A")--V   (E')--V
     Eigenvalues --    -0.57219  -0.42617  -0.42617   0.03080   0.17847
   1 1   Al 1S          0.05043   0.00000  -0.00000   0.00000  -0.00000
   2        2S         -0.25085  -0.00000   0.00000   0.00000   0.00000
   3        2PX         0.00000   0.06360   0.13931   0.00000   0.00305
   4        2PY         0.00000  -0.13931   0.06360   0.00000  -0.01245
   5        2PZ         0.00000  -0.00000   0.00000  -0.14567   0.00000
   6        3S          0.36766  -0.00000  -0.00000   0.00000   0.00000
   7        3PX        -0.00000  -0.12094  -0.26491   0.00000   0.00128
   8        3PY        -0.00000   0.26491  -0.12094   0.00000  -0.00522
   9        3PZ         0.00000  -0.00000   0.00000   0.25156   0.00000
  10        4S          0.21148   0.00000   0.00000   0.00000  -0.00000
  11        4PX        -0.00000  -0.03932  -0.08612   0.00000  -0.36395
  12        4PY         0.00000   0.08612  -0.03932   0.00000   1.48474
  13        4PZ         0.00000  -0.00000   0.00000   0.82043   0.00000
  14 2   H  1S          0.13732   0.21070  -0.09619   0.00000  -0.07216
  15        2S          0.20209   0.39047  -0.17826   0.00000  -0.95708
  16 3   H  1S          0.13732  -0.18865  -0.13438   0.00000   0.05140
  17        2S          0.20209  -0.34962  -0.24903   0.00000   0.68171
  18 4   H  1S          0.13732  -0.02205   0.23057   0.00000   0.02076
  19        2S          0.20209  -0.04086   0.42729   0.00000   0.27536
                          11        12        13        14        15
                        (E')--V   (A')--V   (A')--V   (A")--V   (E')--V
     Eigenvalues --     0.17847   0.19109   0.29286   0.37037   0.38917
   1 1   Al 1S         -0.00000   0.01827   0.06573   0.00000  -0.00000
   2        2S         -0.00000  -0.15263  -0.17487   0.00000   0.00000
   3        2PX        -0.01245   0.00000   0.00000   0.00000   0.02992
   4        2PY        -0.00305  -0.00000  -0.00000   0.00000  -0.31743
   5        2PZ         0.00000   0.00000   0.00000  -0.32265   0.00000
   6        3S         -0.00000  -0.19149   1.74085   0.00000  -0.00000
   7        3PX        -0.00522   0.00000  -0.00000   0.00000  -0.13592
   8        3PY        -0.00128   0.00000   0.00000   0.00000   1.44185
   9        3PZ         0.00000   0.00000   0.00000   1.36424   0.00000
  10        4S          0.00000   1.94741  -1.26648   0.00000   0.00000
  11        4PX         1.48474  -0.00000   0.00000   0.00000   0.04845
  12        4PY         0.36395   0.00000  -0.00000   0.00000  -0.51390
  13        4PZ         0.00000   0.00000   0.00000  -1.07298   0.00000
  14 2   H  1S         -0.01769  -0.09859  -0.02979   0.00000  -0.00224
  15        2S         -0.23461  -0.82426  -0.17181   0.00000  -0.65155
  16 3   H  1S         -0.05365  -0.09859  -0.02979   0.00000   0.00130
  17        2S         -0.71155  -0.82426  -0.17181   0.00000   0.37897
  18 4   H  1S          0.07134  -0.09859  -0.02979   0.00000   0.00094
  19        2S          0.94616  -0.82426  -0.17181   0.00000   0.27258
                          16        17        18        19
                        (E')--V   (A')--V   (E')--V   (E')--V
     Eigenvalues --     0.38917   1.33732   1.37727   1.37727
   1 1   Al 1S          0.00000  -0.01422  -0.00000  -0.00000
   2        2S         -0.00000   0.07462   0.00000   0.00000
   3        2PX        -0.31743   0.00000  -0.04663   0.07616
   4        2PY        -0.02992   0.00000   0.07616   0.04663
   5        2PZ         0.00000   0.00000  -0.00000   0.00000
   6        3S          0.00000  -0.06040  -0.00000  -0.00000
   7        3PX         1.44185  -0.00000   0.05106  -0.08341
   8        3PY         0.13592  -0.00000  -0.08341  -0.05106
   9        3PZ         0.00000   0.00000  -0.00000   0.00000
  10        4S         -0.00000   1.10052   0.00000  -0.00000
  11        4PX        -0.51390  -0.00000  -0.33537   0.54777
  12        4PY        -0.04845  -0.00000   0.54777   0.33537
  13        4PZ         0.00000   0.00000  -0.00000   0.00000
  14 2   H  1S         -0.00021   0.79474   0.96244   0.58924
  15        2S         -0.06142  -1.04146  -1.12528  -0.68893
  16 3   H  1S         -0.00183   0.79474  -0.99151   0.53888
  17        2S         -0.53355  -1.04146   1.15927  -0.63005
  18 4   H  1S          0.00205   0.79474   0.02908  -1.12811
  19        2S          0.59497  -1.04146  -0.03399   1.31898
     Density Matrix:
                           1         2         3         4         5
   1 1   Al 1S          2.12110
   2        2S         -0.51290   2.17433
   3        2PX         0.00000   0.00000   1.96182
   4        2PY        -0.00000   0.00000  -0.00000   1.96182
   5        2PZ         0.00000   0.00000   0.00000   0.00000   1.91603
   6        3S         -0.03514  -0.00551  -0.00000  -0.00000   0.00000
   7        3PX         0.00000  -0.00000   0.08201  -0.00000   0.00000
   8        3PY         0.00000  -0.00000   0.00000   0.08201   0.00000
   9        3PZ         0.00000   0.00000   0.00000   0.00000   0.16803
  10        4S          0.04672  -0.17028  -0.00000  -0.00000   0.00000
  11        4PX         0.00000  -0.00000  -0.07756  -0.00000   0.00000
  12        4PY        -0.00000   0.00000   0.00000  -0.07756   0.00000
  13        4PZ         0.00000   0.00000   0.00000   0.00000  -0.05893
  14 2   H  1S          0.01729  -0.07523  -0.00000  -0.08031   0.00000
  15        2S          0.02111  -0.10241  -0.00000  -0.13960   0.00000
  16 3   H  1S          0.01729  -0.07523  -0.06955   0.04015   0.00000
  17        2S          0.02111  -0.10241  -0.12090   0.06980   0.00000
  18 4   H  1S          0.01729  -0.07523   0.06955   0.04015   0.00000
  19        2S          0.02111  -0.10241   0.12090   0.06980   0.00000
                           6         7         8         9        10
   6        3S          0.28642
   7        3PX        -0.00000   0.18492
   8        3PY        -0.00000  -0.00000   0.18492
   9        3PZ         0.00000   0.00000   0.00000   0.01474
  10        4S          0.14975   0.00000   0.00000   0.00000   0.09151
  11        4PX         0.00000   0.05080   0.00000   0.00000   0.00000
  12        4PY        -0.00000  -0.00000   0.05080   0.00000   0.00000
  13        4PZ         0.00000   0.00000   0.00000  -0.00517   0.00000
  14 2   H  1S          0.10039   0.00000   0.13406   0.00000   0.05829
  15        2S          0.14851   0.00000   0.24927   0.00000   0.08551
  16 3   H  1S          0.10039   0.11610  -0.06703   0.00000   0.05829
  17        2S          0.14851   0.21588  -0.12464   0.00000   0.08551
  18 4   H  1S          0.10039  -0.11610  -0.06703   0.00000   0.05829
  19        2S          0.14851  -0.21588  -0.12464   0.00000   0.08551
                          11        12        13        14        15
  11        4PX         0.01916
  12        4PY         0.00000   0.01916
  13        4PZ         0.00000   0.00000   0.00181
  14 2   H  1S          0.00000   0.04409   0.00000   0.14508
  15        2S          0.00000   0.08148   0.00000   0.25439   0.45021
  16 3   H  1S          0.03819  -0.02205   0.00000  -0.01593  -0.04393
  17        2S          0.07057  -0.04074   0.00000  -0.04393  -0.10258
  18 4   H  1S         -0.03819  -0.02205   0.00000  -0.01593  -0.04393
  19        2S         -0.07057  -0.04074   0.00000  -0.04393  -0.10258
                          16        17        18        19
  16 3   H  1S          0.14508
  17        2S          0.25439   0.45021
  18 4   H  1S         -0.01593  -0.04393   0.14508
  19        2S         -0.04393  -0.10258   0.25439   0.45021
    Full Mulliken population analysis:
                           1         2         3         4         5
   1 1   Al 1S          2.12110
   2        2S         -0.12362   2.17433
   3        2PX         0.00000   0.00000   1.96182
   4        2PY         0.00000   0.00000  -0.00000   1.96182
   5        2PZ         0.00000   0.00000   0.00000   0.00000   1.91603
   6        3S         -0.00043  -0.00141   0.00000   0.00000   0.00000
   7        3PX         0.00000   0.00000   0.01982   0.00000   0.00000
   8        3PY         0.00000   0.00000   0.00000   0.01982   0.00000
   9        3PZ         0.00000   0.00000   0.00000   0.00000   0.04061
  10        4S          0.00118  -0.03716   0.00000   0.00000   0.00000
  11        4PX         0.00000   0.00000  -0.00456  -0.00000   0.00000
  12        4PY         0.00000   0.00000  -0.00000  -0.00456   0.00000
  13        4PZ         0.00000   0.00000   0.00000   0.00000  -0.00346
  14 2   H  1S          0.00000  -0.00035   0.00000  -0.00066   0.00000
  15        2S          0.00022  -0.00983   0.00000  -0.00742   0.00000
  16 3   H  1S          0.00000  -0.00035  -0.00050  -0.00017   0.00000
  17        2S          0.00022  -0.00983  -0.00557  -0.00186   0.00000
  18 4   H  1S          0.00000  -0.00035  -0.00050  -0.00017   0.00000
  19        2S          0.00022  -0.00983  -0.00557  -0.00186   0.00000
                           6         7         8         9        10
   6        3S          0.28642
   7        3PX         0.00000   0.18492
   8        3PY         0.00000   0.00000   0.18492
   9        3PZ         0.00000   0.00000   0.00000   0.01474
  10        4S          0.12365   0.00000   0.00000   0.00000   0.09151
  11        4PX         0.00000   0.03374   0.00000   0.00000   0.00000
  12        4PY         0.00000   0.00000   0.03374   0.00000   0.00000
  13        4PZ         0.00000   0.00000   0.00000  -0.00343   0.00000
  14 2   H  1S          0.01747   0.00000   0.04375   0.00000   0.01190
  15        2S          0.06548  -0.00000   0.13178   0.00000   0.04546
  16 3   H  1S          0.01747   0.03282   0.01094   0.00000   0.01190
  17        2S          0.06548   0.09884   0.03295   0.00000   0.04546
  18 4   H  1S          0.01747   0.03282   0.01094   0.00000   0.01190
  19        2S          0.06548   0.09884   0.03295   0.00000   0.04546
                          11        12        13        14        15
  11        4PX         0.01916
  12        4PY         0.00000   0.01916
  13        4PZ         0.00000   0.00000   0.00181
  14 2   H  1S          0.00000   0.01280   0.00000   0.14508
  15        2S          0.00000   0.04908   0.00000   0.16431   0.45021
  16 3   H  1S          0.00960   0.00320   0.00000  -0.00000  -0.00045
  17        2S          0.03681   0.01227   0.00000  -0.00045  -0.00833
  18 4   H  1S          0.00960   0.00320   0.00000  -0.00000  -0.00045
  19        2S          0.03681   0.01227   0.00000  -0.00045  -0.00833
                          16        17        18        19
  16 3   H  1S          0.14508
  17        2S          0.16431   0.45021
  18 4   H  1S         -0.00000  -0.00045   0.14508
  19        2S         -0.00045  -0.00833   0.16431   0.45021
     Gross orbital populations:
                           1
   1 1   Al 1S          1.99891
   2        2S          1.98160
   3        2PX         1.96496
   4        2PY         1.96496
   5        2PZ         1.95317
   6        3S          0.65710
   7        3PX         0.50178
   8        3PY         0.50178
   9        3PZ         0.05191
  10        4S          0.35125
  11        4PX         0.14116
  12        4PY         0.14116
  13        4PZ        -0.00508
  14 2   H  1S          0.39340
  15        2S          0.87172
  16 3   H  1S          0.39340
  17        2S          0.87172
  18 4   H  1S          0.39340
  19        2S          0.87172
          Condensed to atoms (all electrons):
               1          2          3          4
     1  Al  11.125572   0.359695   0.359695   0.359695
     2  H    0.359695   0.923899  -0.009240  -0.009240
     3  H    0.359695  -0.009240   0.923899  -0.009240
     4  H    0.359695  -0.009240  -0.009240   0.923899
 Mulliken charges:
               1
     1  Al   0.795343
     2  H   -0.265114
     3  H   -0.265114
     4  H   -0.265114
 Sum of Mulliken charges =   0.00000
 Mulliken charges with hydrogens summed into heavy atoms:
               1
     1  Al   0.000000
 Electronic spatial extent (au):  <R**2>=             64.8700
 Charge=              0.0000 electrons
 Dipole moment (field-independent basis, Debye):
    X=              0.0000    Y=             -0.0000    Z=              0.0000  Tot=              0.0000
 Quadrupole moment (field-independent basis, Debye-Ang):
   XX=            -19.4026   YY=            -19.4026   ZZ=            -11.5817
   XY=              0.0000   XZ=              0.0000   YZ=              0.0000
 Traceless Quadrupole moment (field-independent basis, Debye-Ang):
   XX=             -2.6070   YY=             -2.6070   ZZ=              5.2140
   XY=              0.0000   XZ=              0.0000   YZ=              0.0000
 Octapole moment (field-independent basis, Debye-Ang**2):
  XXX=              0.0000  YYY=             -3.9359  ZZZ=              0.0000  XYY=             -0.0000
  XXY=              3.9359  XXZ=              0.0000  XZZ=              0.0000  YZZ=              0.0000
  YYZ=              0.0000  XYZ=              0.0000
 Hexadecapole moment (field-independent basis, Debye-Ang**3):
 XXXX=            -66.5010 YYYY=            -66.5010 ZZZZ=            -13.5949 XXXY=              0.0000
 XXXZ=              0.0000 YYYX=              0.0000 YYYZ=              0.0000 ZZZX=              0.0000
 ZZZY=              0.0000 XXYY=            -22.1670 XXZZ=            -12.2387 YYZZ=            -12.2387
 XXYZ=              0.0000 YYXZ=              0.0000 ZZXY=              0.0000
 N-N= 1.347579842335D+01 E-N=-6.058100832503D+02  KE= 2.420519954928D+02
 Symmetry A'   KE= 2.225927382264D+02
 Symmetry A"   KE= 1.945925726647D+01
 Orbital energies and kinetic energies (alpha):
                                 1                 2
   1         (A')--O         -58.059966         78.666327
   2         (A')--O          -4.872068         11.079808
   3         (A")--O          -3.175671          9.729629
   4         (E')--O          -3.174317          9.725404
   5         (E')--O          -3.174317          9.725404
   6         (A')--O          -0.572195          0.780918
   7         (E')--O          -0.426166          0.659254
   8         (E')--O          -0.426166          0.659254
   9         (A")--V           0.030800          0.394912
  10         (E')--V           0.178475          0.320002
  11         (E')--V           0.178475          0.320002
  12         (A')--V           0.191088          0.551526
  13         (A')--V           0.292862          1.251866
  14         (A")--V           0.370369          1.483171
  15         (E')--V           0.389166          1.501357
  16         (E')--V           0.389166          1.501357
  17         (A')--V           1.337316          2.270338
  18         (E')--V           1.377267          2.361571
  19         (E')--V           1.377267          2.361571
 Total kinetic energy from orbitals= 2.420519954928D+02
 1\1\GINC-IISERK51\SP\RHF\3-21G\Al1H3\GAUSSIAN\14-Jun-2025\0\\# hf/3-21
 g pop=full geom=connectivity\\sp calc\\0,1\Al,0,0.,0.,0.\H,0,0.,1.5994
 95,0.\H,0,1.385203,-0.799748,0.\H,0,-1.385203,-0.799748,0.\\Version=EM
 64L-G16RevB.01\State=1-A'\HF=-242.2841123\RMSD=7.512e-10\Dipole=0.,0.,
 0.\Quadrupole=-1.9382272,-1.9382272,3.8764544,0.,0.,0.\PG=C03H [O(Al1)
 ,SGH(H3)]\\@


 WE HAVE LEARNED THAT NOTHING IS SIMPLE AND
 RATIONAL EXCEPT WHAT WE OURSELVES HAVE INVENTED;
 THAT GOD THINKS IN TERMS NEITHER OF EUCLID OR RIEMANN; THAT SCIENCE HAS "EXPLAINED" NOTHING;
 THAT THE MORE WE KNOW THE MORE FANTASTIC THE WORLD BECOMES
 AND THE PROFOUNDER THE SURROUNDING DARKNESS.
   --  ALDOUS HUXLEY
 Job cpu time:       0 days  0 hours  0 minutes  0.3 seconds.
 Elapsed time:       0 days  0 hours  0 minutes  0.3 seconds.
 File lengths (MBytes):  RWF=      6 Int=      0 D2E=      0 Chk=      1 Scr=      1
 Normal termination of Gaussian 16 at Sat Jun 14 16:08:17 2025.
