 Entering Gaussian System, Link 0=g16
 Initial command:
 /home/user/softwares/g16/g16/l1.exe "/home/user/scratch/Gau-321903.inp" -scrdir="/home/user/scratch/"
 Entering Link 1 = /home/user/softwares/g16/g16/l1.exe PID=    321905.
  
 Copyright (c) 1988-2017, Gaussian, Inc.  All Rights Reserved.
  
 This is part of the Gaussian(R) 16 program.  It is based on
 the Gaussian(R) 09 system (copyright 2009, Gaussian, Inc.),
 the Gaussian(R) 03 system (copyright 2003, Gaussian, Inc.),
 the Gaussian(R) 98 system (copyright 1998, Gaussian, Inc.),
 the Gaussian(R) 94 system (copyright 1995, Gaussian, Inc.),
 the Gaussian 92(TM) system (copyright 1992, Gaussian, Inc.),
 the Gaussian 90(TM) system (copyright 1990, Gaussian, Inc.),
 the Gaussian 88(TM) system (copyright 1988, Gaussian, Inc.),
 the Gaussian 86(TM) system (copyright 1986, Carnegie Mellon
 University), and the Gaussian 82(TM) system (copyright 1983,
 Carnegie Mellon University). Gaussian is a federally registered
 trademark of Gaussian, Inc.
  
 This software contains proprietary and confidential information,
 including trade secrets, belonging to Gaussian, Inc.
  
 This software is provided under written license and may be
 used, copied, transmitted, or stored only in accord with that
 written license.
  
 The following legend is applicable only to US Government
 contracts under FAR:
  
                    RESTRICTED RIGHTS LEGEND
  
 Use, reproduction and disclosure by the US Government is
 subject to restrictions as set forth in subparagraphs (a)
 and (c) of the Commercial Computer Software - Restricted
 Rights clause in FAR 52.227-19.
  
 Gaussian, Inc.
 340 Quinnipiac St., Bldg. 40, Wallingford CT 06492
  
  
 ---------------------------------------------------------------
 Warning -- This program may not be used in any manner that
 competes with the business of Gaussian, Inc. or will provide
 assistance to any competitor of Gaussian, Inc.  The licensee
 of this program is prohibited from giving any competitor of
 Gaussian, Inc. access to this program.  By using this program,
 the user acknowledges that Gaussian, Inc. is engaged in the
 business of creating and licensing software in the field of
 computational chemistry and represents and warrants to the
 licensee that it is not a competitor of Gaussian, Inc. and that
 it will not use this program in any manner prohibited above.
 ---------------------------------------------------------------
  

 Cite this work as:
 Gaussian 16, Revision B.01,
 M. J. Frisch, G. W. Trucks, H. B. Schlegel, G. E. Scuseria, 
 M. A. Robb, J. R. Cheeseman, G. Scalmani, V. Barone, 
 G. A. Petersson, H. Nakatsuji, X. Li, M. Caricato, A. V. Marenich, 
 J. Bloino, B. G. Janesko, R. Gomperts, B. Mennucci, H. P. Hratchian, 
 J. V. Ortiz, A. F. Izmaylov, J. L. Sonnenberg, D. Williams-Young, 
 F. Ding, F. Lipparini, F. Egidi, J. Goings, B. Peng, A. Petrone, 
 T. Henderson, D. Ranasinghe, V. G. Zakrzewski, J. Gao, N. Rega, 
 G. Zheng, W. Liang, M. Hada, M. Ehara, K. Toyota, R. Fukuda, 
 J. Hasegawa, M. Ishida, T. Nakajima, Y. Honda, O. Kitao, H. Nakai, 
 T. Vreven, K. Throssell, J. A. Montgomery, Jr., J. E. Peralta, 
 F. Ogliaro, M. J. Bearpark, J. J. Heyd, E. N. Brothers, K. N. Kudin, 
 V. N. Staroverov, T. A. Keith, R. Kobayashi, J. Normand, 
 K. Raghavachari, A. P. Rendell, J. C. Burant, S. S. Iyengar, 
 J. Tomasi, M. Cossi, J. M. Millam, M. Klene, C. Adamo, R. Cammi, 
 J. W. Ochterski, R. L. Martin, K. Morokuma, O. Farkas, 
 J. B. Foresman, and D. J. Fox, Gaussian, Inc., Wallingford CT, 2016.
 
 ******************************************
 Gaussian 16:  EM64L-G16RevB.01 20-Dec-2017
                 9-Jun-2025 
 ******************************************
 %nproc=20
 Will use up to   20 processors via shared memory.
 %mem=15GB
 %chk=C6H6.chk
 ---------------------------------------------
 #p hf/3-21g opt freq gfinput gfprint pop=full
 ---------------------------------------------
 1/18=20,19=15,38=1/1,3;
 2/9=110,12=2,17=6,18=5,40=1/2;
 3/5=5,11=9,24=110,25=1,30=1,71=1/1,2,3;
 4//1;
 5/5=2,38=5/2;
 6/7=3,28=1/1;
 7//1,2,3,16;
 1/18=20,19=15/3(2);
 2/9=110/2;
 99//99;
 2/9=110/2;
 3/5=5,11=9,25=1,30=1,71=1/1,2,3;
 4/5=5,16=3,69=1/1;
 5/5=2,38=5/2;
 7//1,2,3,16;
 1/18=20,19=15/3(-5);
 2/9=110/2;
 6/7=3,19=2,28=1/1;
 99/9=1/99;
 Leave Link    1 at Mon Jun  9 11:31:50 2025, MaxMem=  2013265920 cpu:               1.3 elap:               0.1
 (Enter /home/user/softwares/g16/g16/l101.exe)
 ------------
 optimisation
 ------------
 Symbolic Z-matrix:
 Charge =  0 Multiplicity = 1
 C                     2.04019  -3.88083   0.00168 
 C                     3.43535  -3.88083   0.00168 
 C                     4.13288  -2.67308   0.00168 
 C                     3.43523  -1.46457   0.00048 
 C                     2.0404   -1.46465   0. 
 C                     1.3428   -2.67285   0.001 
 H                     1.49043  -4.83315   0.00213 
 H                     3.98485  -4.83334   0.00299 
 H                     5.23256  -2.673     0.00231 
 H                     3.98543  -0.51243   0.00042 
 H                     1.49028  -0.51237  -0.00095 
 H                     0.2432   -2.67267   0.00082 
 
 ITRead=  0  0  0  0  0  0  0  0  0  0  0  0
 MicOpt= -1 -1 -1 -1 -1 -1 -1 -1 -1 -1 -1 -1
 NAtoms=     12 NQM=       12 NQMF=       0 NMMI=      0 NMMIF=      0
                NMic=       0 NMicF=      0.
                    Isotopes and Nuclear Properties:
 (Nuclear quadrupole moments (NQMom) in fm**2, nuclear magnetic moments (NMagM)
  in nuclear magnetons)

  Atom         1           2           3           4           5           6           7           8           9          10
 IAtWgt=          12          12          12          12          12          12           1           1           1           1
 AtmWgt=  12.0000000  12.0000000  12.0000000  12.0000000  12.0000000  12.0000000   1.0078250   1.0078250   1.0078250   1.0078250
 NucSpn=           0           0           0           0           0           0           1           1           1           1
 AtZEff=  -0.0000000  -0.0000000  -0.0000000  -0.0000000  -0.0000000  -0.0000000  -0.0000000  -0.0000000  -0.0000000  -0.0000000
 NQMom=    0.0000000   0.0000000   0.0000000   0.0000000   0.0000000   0.0000000   0.0000000   0.0000000   0.0000000   0.0000000
 NMagM=    0.0000000   0.0000000   0.0000000   0.0000000   0.0000000   0.0000000   2.7928460   2.7928460   2.7928460   2.7928460
 AtZNuc=   6.0000000   6.0000000   6.0000000   6.0000000   6.0000000   6.0000000   1.0000000   1.0000000   1.0000000   1.0000000

  Atom        11          12
 IAtWgt=           1           1
 AtmWgt=   1.0078250   1.0078250
 NucSpn=           1           1
 AtZEff=  -0.0000000  -0.0000000
 NQMom=    0.0000000   0.0000000
 NMagM=    2.7928460   2.7928460
 AtZNuc=   1.0000000   1.0000000
 Leave Link  101 at Mon Jun  9 11:31:52 2025, MaxMem=  2013265920 cpu:              25.8 elap:               1.3
 (Enter /home/user/softwares/g16/g16/l103.exe)

 GradGradGradGradGradGradGradGradGradGradGradGradGradGradGradGradGradGrad
 Berny optimization.
 Initialization pass.
                           ----------------------------
                           !    Initial Parameters    !
                           ! (Angstroms and Degrees)  !
 --------------------------                            --------------------------
 ! Name  Definition              Value          Derivative Info.                !
 --------------------------------------------------------------------------------
 ! R1    R(1,2)                  1.3952         estimate D2E/DX2                !
 ! R2    R(1,6)                  1.3948         estimate D2E/DX2                !
 ! R3    R(1,7)                  1.0996         estimate D2E/DX2                !
 ! R4    R(2,3)                  1.3947         estimate D2E/DX2                !
 ! R5    R(2,8)                  1.0997         estimate D2E/DX2                !
 ! R6    R(3,4)                  1.3954         estimate D2E/DX2                !
 ! R7    R(3,9)                  1.0997         estimate D2E/DX2                !
 ! R8    R(4,5)                  1.3948         estimate D2E/DX2                !
 ! R9    R(4,10)                 1.0997         estimate D2E/DX2                !
 ! R10   R(5,6)                  1.3951         estimate D2E/DX2                !
 ! R11   R(5,11)                 1.0998         estimate D2E/DX2                !
 ! R12   R(6,12)                 1.0996         estimate D2E/DX2                !
 ! A1    A(2,1,6)              119.9985         estimate D2E/DX2                !
 ! A2    A(2,1,7)              119.9972         estimate D2E/DX2                !
 ! A3    A(6,1,7)              120.0043         estimate D2E/DX2                !
 ! A4    A(1,2,3)              120.0086         estimate D2E/DX2                !
 ! A5    A(1,2,8)              119.9808         estimate D2E/DX2                !
 ! A6    A(3,2,8)              120.0106         estimate D2E/DX2                !
 ! A7    A(2,3,4)              119.9942         estimate D2E/DX2                !
 ! A8    A(2,3,9)              120.0128         estimate D2E/DX2                !
 ! A9    A(4,3,9)              119.993          estimate D2E/DX2                !
 ! A10   A(3,4,5)              119.994          estimate D2E/DX2                !
 ! A11   A(3,4,10)             119.9811         estimate D2E/DX2                !
 ! A12   A(5,4,10)             120.0249         estimate D2E/DX2                !
 ! A13   A(4,5,6)              120.0047         estimate D2E/DX2                !
 ! A14   A(4,5,11)             120.0113         estimate D2E/DX2                !
 ! A15   A(6,5,11)             119.984          estimate D2E/DX2                !
 ! A16   A(1,6,5)              120.0            estimate D2E/DX2                !
 ! A17   A(1,6,12)             120.008          estimate D2E/DX2                !
 ! A18   A(5,6,12)             119.992          estimate D2E/DX2                !
 ! D1    D(6,1,2,3)              0.0323         estimate D2E/DX2                !
 ! D2    D(6,1,2,8)            179.9532         estimate D2E/DX2                !
 ! D3    D(7,1,2,3)           -179.9729         estimate D2E/DX2                !
 ! D4    D(7,1,2,8)             -0.052          estimate D2E/DX2                !
 ! D5    D(2,1,6,5)              0.0149         estimate D2E/DX2                !
 ! D6    D(2,1,6,12)           179.9892         estimate D2E/DX2                !
 ! D7    D(7,1,6,5)           -179.9798         estimate D2E/DX2                !
 ! D8    D(7,1,6,12)            -0.0056         estimate D2E/DX2                !
 ! D9    D(1,2,3,4)             -0.0568         estimate D2E/DX2                !
 ! D10   D(1,2,3,9)            179.9619         estimate D2E/DX2                !
 ! D11   D(8,2,3,4)           -179.9777         estimate D2E/DX2                !
 ! D12   D(8,2,3,9)              0.041          estimate D2E/DX2                !
 ! D13   D(2,3,4,5)              0.0341         estimate D2E/DX2                !
 ! D14   D(2,3,4,10)          -179.9964         estimate D2E/DX2                !
 ! D15   D(9,3,4,5)           -179.9846         estimate D2E/DX2                !
 ! D16   D(9,3,4,10)            -0.0151         estimate D2E/DX2                !
 ! D17   D(3,4,5,6)              0.0131         estimate D2E/DX2                !
 ! D18   D(3,4,5,11)          -179.9995         estimate D2E/DX2                !
 ! D19   D(10,4,5,6)          -179.9563         estimate D2E/DX2                !
 ! D20   D(10,4,5,11)            0.0311         estimate D2E/DX2                !
 ! D21   D(4,5,6,1)             -0.0376         estimate D2E/DX2                !
 ! D22   D(4,5,6,12)           179.9881         estimate D2E/DX2                !
 ! D23   D(11,5,6,1)           179.975          estimate D2E/DX2                !
 ! D24   D(11,5,6,12)            0.0007         estimate D2E/DX2                !
 --------------------------------------------------------------------------------
 Trust Radius=3.00D-01 FncErr=1.00D-07 GrdErr=1.00D-07 EigMax=2.50D+02 EigMin=1.00D-04
 Number of steps in this run=     64 maximum allowed number of steps=    100.
 GradGradGradGradGradGradGradGradGradGradGradGradGradGradGradGradGradGrad

 Leave Link  103 at Mon Jun  9 11:31:52 2025, MaxMem=  2013265920 cpu:               0.4 elap:               0.0
 (Enter /home/user/softwares/g16/g16/l202.exe)
                          Input orientation:                          
 ---------------------------------------------------------------------
 Center     Atomic      Atomic             Coordinates (Angstroms)
 Number     Number       Type             X           Y           Z
 ---------------------------------------------------------------------
      1          6           0        2.040185   -3.880828    0.001678
      2          6           0        3.435345   -3.880828    0.001678
      3          6           0        4.132883   -2.673077    0.001678
      4          6           0        3.435229   -1.464568    0.000479
      5          6           0        2.040404   -1.464646    0.000000
      6          6           0        1.342803   -2.672852    0.000996
      7          1           0        1.490426   -4.833145    0.002128
      8          1           0        3.984853   -4.833341    0.002993
      9          1           0        5.232563   -2.672997    0.002312
     10          1           0        3.985429   -0.512425    0.000420
     11          1           0        1.490282   -0.512365   -0.000953
     12          1           0        0.243199   -2.672669    0.000816
 ---------------------------------------------------------------------
                    Distance matrix (angstroms):
                    1          2          3          4          5
     1  C    0.000000
     2  C    1.395160   0.000000
     3  C    2.416205   1.394712   0.000000
     4  C    2.790065   2.416260   1.395427   0.000000
     5  C    2.416183   2.789946   2.416356   1.394825   0.000000
     6  C    1.394829   2.416183   2.790080   2.416236   1.395138
     7  H    1.099610   2.165553   3.412986   3.889675   3.413102
     8  H    2.165414   1.099655   2.165330   3.413316   3.889601
     9  H    3.413229   2.165375   1.099680   2.165806   3.413209
    10  H    3.889745   3.413024   2.165678   1.099680   2.165606
    11  H    3.413055   3.889707   3.413506   2.165528   1.099761
    12  H    2.165365   3.413128   3.889684   3.412999   2.165471
                    6          7          8          9         10
     6  C    0.000000
     7  H    2.165331   0.000000
     8  H    3.412938   2.494427   0.000000
     9  H    3.889760   4.320860   2.494768   0.000000
    10  H    3.413344   4.989355   4.320917   2.494678   0.000000
    11  H    2.165516   4.320781   4.989362   4.321228   2.495147
    12  H    1.099604   2.494641   4.320704   4.989364   4.320988
                   11         12
    11  H    0.000000
    12  H    2.494420   0.000000
 Stoichiometry    C6H6
 Framework group  C1[X(C6H6)]
 Deg. of freedom    30
 Full point group                 C1      NOp   1
 Largest Abelian subgroup         C1      NOp   1
 Largest concise Abelian subgroup C1      NOp   1
                         Standard orientation:                         
 ---------------------------------------------------------------------
 Center     Atomic      Atomic             Coordinates (Angstroms)
 Number     Number       Type             X           Y           Z
 ---------------------------------------------------------------------
      1          6           0       -0.176717   -1.383752    0.000005
      2          6           0        1.110106   -0.844719   -0.000364
      3          6           0        1.286853    0.538749    0.000194
      4          6           0        0.176454    1.383870   -0.000075
      5          6           0       -1.110031    0.844894   -0.000185
      6          6           0       -1.286660   -0.539018    0.000252
      7          1           0       -0.315850   -2.474525    0.000015
      8          1           0        1.984957   -1.510960    0.000218
      9          1           0        2.301110    0.963694    0.000537
     10          1           0        0.316060    2.474652    0.000306
     11          1           0       -1.985358    1.510684   -0.000405
     12          1           0       -2.300948   -0.963691    0.000364
 ---------------------------------------------------------------------
 Rotational constants (GHZ):           5.6865650           5.6862640           2.8432074
 Leave Link  202 at Mon Jun  9 11:31:52 2025, MaxMem=  2013265920 cpu:               0.1 elap:               0.0
 (Enter /home/user/softwares/g16/g16/l301.exe)
 Standard basis: 3-21G (6D, 7F)
 Ernie: Thresh=  0.10000D-02 Tol=  0.10000D-05 Strict=F.
 AO basis set in the form of general basis input (Overlap normalization):
      1 0
 S   3 1.00       0.000000000000
      0.1722560000D+03  0.6176690738D-01
      0.2591090000D+02  0.3587940429D+00
      0.5533350000D+01  0.7007130837D+00
 SP   2 1.00       0.000000000000
      0.3664980000D+01 -0.3958951621D+00  0.2364599466D+00
      0.7705450000D+00  0.1215834356D+01  0.8606188057D+00
 SP   1 1.00       0.000000000000
      0.1958570000D+00  0.1000000000D+01  0.1000000000D+01
 ****
      2 0
 S   3 1.00       0.000000000000
      0.1722560000D+03  0.6176690738D-01
      0.2591090000D+02  0.3587940429D+00
      0.5533350000D+01  0.7007130837D+00
 SP   2 1.00       0.000000000000
      0.3664980000D+01 -0.3958951621D+00  0.2364599466D+00
      0.7705450000D+00  0.1215834356D+01  0.8606188057D+00
 SP   1 1.00       0.000000000000
      0.1958570000D+00  0.1000000000D+01  0.1000000000D+01
 ****
      3 0
 S   3 1.00       0.000000000000
      0.1722560000D+03  0.6176690738D-01
      0.2591090000D+02  0.3587940429D+00
      0.5533350000D+01  0.7007130837D+00
 SP   2 1.00       0.000000000000
      0.3664980000D+01 -0.3958951621D+00  0.2364599466D+00
      0.7705450000D+00  0.1215834356D+01  0.8606188057D+00
 SP   1 1.00       0.000000000000
      0.1958570000D+00  0.1000000000D+01  0.1000000000D+01
 ****
      4 0
 S   3 1.00       0.000000000000
      0.1722560000D+03  0.6176690738D-01
      0.2591090000D+02  0.3587940429D+00
      0.5533350000D+01  0.7007130837D+00
 SP   2 1.00       0.000000000000
      0.3664980000D+01 -0.3958951621D+00  0.2364599466D+00
      0.7705450000D+00  0.1215834356D+01  0.8606188057D+00
 SP   1 1.00       0.000000000000
      0.1958570000D+00  0.1000000000D+01  0.1000000000D+01
 ****
      5 0
 S   3 1.00       0.000000000000
      0.1722560000D+03  0.6176690738D-01
      0.2591090000D+02  0.3587940429D+00
      0.5533350000D+01  0.7007130837D+00
 SP   2 1.00       0.000000000000
      0.3664980000D+01 -0.3958951621D+00  0.2364599466D+00
      0.7705450000D+00  0.1215834356D+01  0.8606188057D+00
 SP   1 1.00       0.000000000000
      0.1958570000D+00  0.1000000000D+01  0.1000000000D+01
 ****
      6 0
 S   3 1.00       0.000000000000
      0.1722560000D+03  0.6176690738D-01
      0.2591090000D+02  0.3587940429D+00
      0.5533350000D+01  0.7007130837D+00
 SP   2 1.00       0.000000000000
      0.3664980000D+01 -0.3958951621D+00  0.2364599466D+00
      0.7705450000D+00  0.1215834356D+01  0.8606188057D+00
 SP   1 1.00       0.000000000000
      0.1958570000D+00  0.1000000000D+01  0.1000000000D+01
 ****
      7 0
 S   2 1.00       0.000000000000
      0.5447178000D+01  0.1562849787D+00
      0.8245472400D+00  0.9046908767D+00
 S   1 1.00       0.000000000000
      0.1831915800D+00  0.1000000000D+01
 ****
      8 0
 S   2 1.00       0.000000000000
      0.5447178000D+01  0.1562849787D+00
      0.8245472400D+00  0.9046908767D+00
 S   1 1.00       0.000000000000
      0.1831915800D+00  0.1000000000D+01
 ****
      9 0
 S   2 1.00       0.000000000000
      0.5447178000D+01  0.1562849787D+00
      0.8245472400D+00  0.9046908767D+00
 S   1 1.00       0.000000000000
      0.1831915800D+00  0.1000000000D+01
 ****
     10 0
 S   2 1.00       0.000000000000
      0.5447178000D+01  0.1562849787D+00
      0.8245472400D+00  0.9046908767D+00
 S   1 1.00       0.000000000000
      0.1831915800D+00  0.1000000000D+01
 ****
     11 0
 S   2 1.00       0.000000000000
      0.5447178000D+01  0.1562849787D+00
      0.8245472400D+00  0.9046908767D+00
 S   1 1.00       0.000000000000
      0.1831915800D+00  0.1000000000D+01
 ****
     12 0
 S   2 1.00       0.000000000000
      0.5447178000D+01  0.1562849787D+00
      0.8245472400D+00  0.9046908767D+00
 S   1 1.00       0.000000000000
      0.1831915800D+00  0.1000000000D+01
 ****

 AO basis set (Overlap normalization):
 Atom C1       Shell     1 S   3     bf    1 -     1         -0.333947585218         -2.614912542621          0.000010175989
      0.1722560000D+03  0.6176690738D-01
      0.2591090000D+02  0.3587940429D+00
      0.5533350000D+01  0.7007130837D+00
 Atom C1       Shell     2 SP   2    bf    2 -     5         -0.333947585218         -2.614912542621          0.000010175989
      0.3664980000D+01 -0.3958951621D+00  0.2364599466D+00
      0.7705450000D+00  0.1215834356D+01  0.8606188057D+00
 Atom C1       Shell     3 SP   1    bf    6 -     9         -0.333947585218         -2.614912542621          0.000010175989
      0.1958570000D+00  0.1000000000D+01  0.1000000000D+01
 Atom C2       Shell     4 S   3     bf   10 -    10          2.097796103228         -1.596287102253         -0.000688712976
      0.1722560000D+03  0.6176690738D-01
      0.2591090000D+02  0.3587940429D+00
      0.5533350000D+01  0.7007130837D+00
 Atom C2       Shell     5 SP   2    bf   11 -    14          2.097796103228         -1.596287102253         -0.000688712976
      0.3664980000D+01 -0.3958951621D+00  0.2364599466D+00
      0.7705450000D+00  0.1215834356D+01  0.8606188057D+00
 Atom C2       Shell     6 SP   1    bf   15 -    18          2.097796103228         -1.596287102253         -0.000688712976
      0.1958570000D+00  0.1000000000D+01  0.1000000000D+01
 Atom C3       Shell     7 S   3     bf   19 -    19          2.431799661438          1.018087285600          0.000367449113
      0.1722560000D+03  0.6176690738D-01
      0.2591090000D+02  0.3587940429D+00
      0.5533350000D+01  0.7007130837D+00
 Atom C3       Shell     8 SP   2    bf   20 -    23          2.431799661438          1.018087285600          0.000367449113
      0.3664980000D+01 -0.3958951621D+00  0.2364599466D+00
      0.7705450000D+00  0.1215834356D+01  0.8606188057D+00
 Atom C3       Shell     9 SP   1    bf   24 -    27          2.431799661438          1.018087285600          0.000367449113
      0.1958570000D+00  0.1000000000D+01  0.1000000000D+01
 Atom C4       Shell    10 S   3     bf   28 -    28          0.333449236663          2.615135107351         -0.000142382753
      0.1722560000D+03  0.6176690738D-01
      0.2591090000D+02  0.3587940429D+00
      0.5533350000D+01  0.7007130837D+00
 Atom C4       Shell    11 SP   2    bf   29 -    32          0.333449236663          2.615135107351         -0.000142382753
      0.3664980000D+01 -0.3958951621D+00  0.2364599466D+00
      0.7705450000D+00  0.1215834356D+01  0.8606188057D+00
 Atom C4       Shell    12 SP   1    bf   33 -    36          0.333449236663          2.615135107351         -0.000142382753
      0.1958570000D+00  0.1000000000D+01  0.1000000000D+01
 Atom C5       Shell    13 S   3     bf   37 -    37         -2.097654039491          1.596618723683         -0.000348930989
      0.1722560000D+03  0.6176690738D-01
      0.2591090000D+02  0.3587940429D+00
      0.5533350000D+01  0.7007130837D+00
 Atom C5       Shell    14 SP   2    bf   38 -    41         -2.097654039491          1.596618723683         -0.000348930989
      0.3664980000D+01 -0.3958951621D+00  0.2364599466D+00
      0.7705450000D+00  0.1215834356D+01  0.8606188057D+00
 Atom C5       Shell    15 SP   1    bf   42 -    45         -2.097654039491          1.596618723683         -0.000348930989
      0.1958570000D+00  0.1000000000D+01  0.1000000000D+01
 Atom C6       Shell    16 S   3     bf   46 -    46         -2.431434296193         -1.018595596051          0.000476575747
      0.1722560000D+03  0.6176690738D-01
      0.2591090000D+02  0.3587940429D+00
      0.5533350000D+01  0.7007130837D+00
 Atom C6       Shell    17 SP   2    bf   47 -    50         -2.431434296193         -1.018595596051          0.000476575747
      0.3664980000D+01 -0.3958951621D+00  0.2364599466D+00
      0.7705450000D+00  0.1215834356D+01  0.8606188057D+00
 Atom C6       Shell    18 SP   1    bf   51 -    54         -2.431434296193         -1.018595596051          0.000476575747
      0.1958570000D+00  0.1000000000D+01  0.1000000000D+01
 Atom H7       Shell    19 S   2     bf   55 -    55         -0.596869838212         -4.676174125951          0.000027637445
      0.5447178000D+01  0.1562849787D+00
      0.8245472400D+00  0.9046908767D+00
 Atom H7       Shell    20 S   1     bf   56 -    56         -0.596869838212         -4.676174125951          0.000027637445
      0.1831915800D+00  0.1000000000D+01
 Atom H8       Shell    21 S   2     bf   57 -    57          3.751024212830         -2.855301166752          0.000412468252
      0.5447178000D+01  0.1562849787D+00
      0.8245472400D+00  0.9046908767D+00
 Atom H8       Shell    22 S   1     bf   58 -    58          3.751024212830         -2.855301166752          0.000412468252
      0.1831915800D+00  0.1000000000D+01
 Atom H9       Shell    23 S   2     bf   59 -    59          4.348468155184          1.821117608611          0.001014756571
      0.5447178000D+01  0.1562849787D+00
      0.8245472400D+00  0.9046908767D+00
 Atom H9       Shell    24 S   1     bf   60 -    60          4.348468155184          1.821117608611          0.001014756571
      0.1831915800D+00  0.1000000000D+01
 Atom H10      Shell    25 S   2     bf   61 -    61          0.597267542460          4.676415047334          0.000578615123
      0.5447178000D+01  0.1562849787D+00
      0.8245472400D+00  0.9046908767D+00
 Atom H10      Shell    26 S   1     bf   62 -    62          0.597267542460          4.676415047334          0.000578615123
      0.1831915800D+00  0.1000000000D+01
 Atom H11      Shell    27 S   2     bf   63 -    63         -3.751782625888          2.854779807238         -0.000765993941
      0.5447178000D+01  0.1562849787D+00
      0.8245472400D+00  0.9046908767D+00
 Atom H11      Shell    28 S   1     bf   64 -    64         -3.751782625888          2.854779807238         -0.000765993941
      0.1831915800D+00  0.1000000000D+01
 Atom H12      Shell    29 S   2     bf   65 -    65         -4.348161928934         -1.821112424736          0.000687471766
      0.5447178000D+01  0.1562849787D+00
      0.8245472400D+00  0.9046908767D+00
 Atom H12      Shell    30 S   1     bf   66 -    66         -4.348161928934         -1.821112424736          0.000687471766
      0.1831915800D+00  0.1000000000D+01
 There are    66 symmetry adapted cartesian basis functions of A   symmetry.
 There are    66 symmetry adapted basis functions of A   symmetry.
    66 basis functions,   108 primitive gaussians,    66 cartesian basis functions
    21 alpha electrons       21 beta electrons
       nuclear repulsion energy       203.0307491037 Hartrees.
 IExCor=    0 DFT=F Ex=HF Corr=None ExCW=0 ScaHFX=  1.000000
 ScaDFX=  1.000000  1.000000  1.000000  1.000000 ScalE2=  1.000000  1.000000
 IRadAn=      5 IRanWt=     -1 IRanGd=            0 ICorTp=0 IEmpDi=  4
 NAtoms=   12 NActive=   12 NUniq=   12 SFac= 1.00D+00 NAtFMM=   60 NAOKFM=F Big=F
 Integral buffers will be    131072 words long.
 Raffenetti 1 integral format.
 Two-electron integral symmetry is turned on.
 Leave Link  301 at Mon Jun  9 11:31:52 2025, MaxMem=  2013265920 cpu:               0.8 elap:               0.0
 (Enter /home/user/softwares/g16/g16/l302.exe)
 NPDir=0 NMtPBC=     1 NCelOv=     1 NCel=       1 NClECP=     1 NCelD=      1
         NCelK=      1 NCelE2=     1 NClLst=     1 CellRange=     0.0.
 One-electron integrals computed using PRISM.
 One-electron integral symmetry used in STVInt
 NBasis=    66 RedAO= T EigKep=  1.79D-03  NBF=    66
 NBsUse=    66 1.00D-06 EigRej= -1.00D+00 NBFU=    66
 Leave Link  302 at Mon Jun  9 11:31:52 2025, MaxMem=  2013265920 cpu:               5.0 elap:               0.3
 (Enter /home/user/softwares/g16/g16/l303.exe)
 DipDrv:  MaxL=1.
 Leave Link  303 at Mon Jun  9 11:31:52 2025, MaxMem=  2013265920 cpu:               1.4 elap:               0.1
 (Enter /home/user/softwares/g16/g16/l401.exe)
 ExpMin= 1.83D-01 ExpMax= 1.72D+02 ExpMxC= 1.72D+02 IAcc=3 IRadAn=         5 AccDes= 0.00D+00
 Harris functional with IExCor=  205 and IRadAn=       5 diagonalized for initial guess.
 HarFok:  IExCor=  205 AccDes= 0.00D+00 IRadAn=         5 IDoV= 1 UseB2=F ITyADJ=14
 ICtDFT=  3500011 ScaDFX=  1.000000  1.000000  1.000000  1.000000
 FoFCou: FMM=F IPFlag=           0 FMFlag=      100000 FMFlg1=           0
         NFxFlg=           0 DoJE=T BraDBF=F KetDBF=T FulRan=T
         wScrn=  0.000000 ICntrl=       500 IOpCl=  0 I1Cent=   200000004 NGrid=           0
         NMat0=    1 NMatS0=      1 NMatT0=    0 NMatD0=    1 NMtDS0=    0 NMtDT0=    0
 Petite list used in FoFCou.
 Harris En= -229.764004293881    
 JPrj=0 DoOrth=F DoCkMO=F.
 Leave Link  401 at Mon Jun  9 11:31:53 2025, MaxMem=  2013265920 cpu:               7.9 elap:               0.4
 (Enter /home/user/softwares/g16/g16/l502.exe)
 Keep R1 ints in memory in canonical form, NReq=6499354.
 FoFCou: FMM=F IPFlag=           0 FMFlag=           0 FMFlg1=           0
         NFxFlg=           0 DoJE=F BraDBF=F KetDBF=F FulRan=T
         wScrn=  0.000000 ICntrl=       600 IOpCl=  0 I1Cent=           0 NGrid=           0
         NMat0=    1 NMatS0=   2211 NMatT0=    0 NMatD0=    1 NMtDS0=    0 NMtDT0=    0
 Symmetry not used in FoFCou.
 Two-electron integral symmetry not used.
 Closed shell SCF:
 Using DIIS extrapolation, IDIIS=  1040.
 NGot=  2013265920 LenX=  2010809516 LenY=  2010804719
 Requested convergence on RMS density matrix=1.00D-08 within 128 cycles.
 Requested convergence on MAX density matrix=1.00D-06.
 Requested convergence on             energy=1.00D-06.
 No special actions if energy rises.

 Cycle   1  Pass 1  IDiag  1:
 E= -229.219145382796    
 DIIS: error= 6.82D-02 at cycle   1 NSaved=   1.
 NSaved= 1 IEnMin= 1 EnMin= -229.219145382796     IErMin= 1 ErrMin= 6.82D-02
 ErrMax= 6.82D-02  0.00D+00 EMaxC= 1.00D-01 BMatC= 2.38D-01 BMatP= 2.38D-01
 IDIUse=3 WtCom= 3.18D-01 WtEn= 6.82D-01
 Coeff-Com:  0.100D+01
 Coeff-En:   0.100D+01
 Coeff:      0.100D+01
 Gap=     0.495 Goal=   None    Shift=    0.000
 GapD=    0.495 DampG=2.000 DampE=0.500 DampFc=1.0000 IDamp=-1.
 RMSDP=9.20D-03 MaxDP=6.03D-02              OVMax= 9.91D-02

 Cycle   2  Pass 1  IDiag  1:
 E= -229.396776000229     Delta-E=       -0.177630617433 Rises=F Damp=F
 DIIS: error= 2.15D-02 at cycle   2 NSaved=   2.
 NSaved= 2 IEnMin= 2 EnMin= -229.396776000229     IErMin= 2 ErrMin= 2.15D-02
 ErrMax= 2.15D-02  0.00D+00 EMaxC= 1.00D-01 BMatC= 1.99D-02 BMatP= 2.38D-01
 IDIUse=3 WtCom= 7.85D-01 WtEn= 2.15D-01
 Coeff-Com:  0.166D+00 0.834D+00
 Coeff-En:   0.000D+00 0.100D+01
 Coeff:      0.130D+00 0.870D+00
 Gap=     0.490 Goal=   None    Shift=    0.000
 RMSDP=2.96D-03 MaxDP=1.52D-02 DE=-1.78D-01 OVMax= 3.08D-02

 Cycle   3  Pass 1  IDiag  1:
 E= -229.415023048207     Delta-E=       -0.018247047978 Rises=F Damp=F
 DIIS: error= 3.93D-03 at cycle   3 NSaved=   3.
 NSaved= 3 IEnMin= 3 EnMin= -229.415023048207     IErMin= 3 ErrMin= 3.93D-03
 ErrMax= 3.93D-03  0.00D+00 EMaxC= 1.00D-01 BMatC= 5.23D-04 BMatP= 1.99D-02
 IDIUse=3 WtCom= 9.61D-01 WtEn= 3.93D-02
 Coeff-Com: -0.231D-01 0.857D-01 0.937D+00
 Coeff-En:   0.000D+00 0.000D+00 0.100D+01
 Coeff:     -0.222D-01 0.823D-01 0.940D+00
 Gap=     0.486 Goal=   None    Shift=    0.000
 RMSDP=4.30D-04 MaxDP=2.51D-03 DE=-1.82D-02 OVMax= 5.29D-03

 Cycle   4  Pass 1  IDiag  1:
 E= -229.415622669427     Delta-E=       -0.000599621220 Rises=F Damp=F
 DIIS: error= 3.61D-04 at cycle   4 NSaved=   4.
 NSaved= 4 IEnMin= 4 EnMin= -229.415622669427     IErMin= 4 ErrMin= 3.61D-04
 ErrMax= 3.61D-04  0.00D+00 EMaxC= 1.00D-01 BMatC= 3.50D-06 BMatP= 5.23D-04
 IDIUse=3 WtCom= 9.96D-01 WtEn= 3.61D-03
 Coeff-Com:  0.565D-02-0.301D-01-0.249D+00 0.127D+01
 Coeff-En:   0.000D+00 0.000D+00 0.000D+00 0.100D+01
 Coeff:      0.563D-02-0.300D-01-0.248D+00 0.127D+01
 Gap=     0.486 Goal=   None    Shift=    0.000
 RMSDP=9.15D-05 MaxDP=5.90D-04 DE=-6.00D-04 OVMax= 5.81D-04

 Cycle   5  Pass 1  IDiag  1:
 E= -229.415628795019     Delta-E=       -0.000006125592 Rises=F Damp=F
 DIIS: error= 3.11D-05 at cycle   5 NSaved=   5.
 NSaved= 5 IEnMin= 5 EnMin= -229.415628795019     IErMin= 5 ErrMin= 3.11D-05
 ErrMax= 3.11D-05  0.00D+00 EMaxC= 1.00D-01 BMatC= 1.65D-08 BMatP= 3.50D-06
 IDIUse=1 WtCom= 1.00D+00 WtEn= 0.00D+00
 Coeff-Com: -0.782D-03 0.423D-02 0.348D-01-0.222D+00 0.118D+01
 Coeff:     -0.782D-03 0.423D-02 0.348D-01-0.222D+00 0.118D+01
 Gap=     0.486 Goal=   None    Shift=    0.000
 RMSDP=8.37D-06 MaxDP=1.20D-04 DE=-6.13D-06 OVMax= 5.29D-05

 Cycle   6  Pass 1  IDiag  1:
 E= -229.415628829421     Delta-E=       -0.000000034403 Rises=F Damp=F
 DIIS: error= 2.57D-06 at cycle   6 NSaved=   6.
 NSaved= 6 IEnMin= 6 EnMin= -229.415628829421     IErMin= 6 ErrMin= 2.57D-06
 ErrMax= 2.57D-06  0.00D+00 EMaxC= 1.00D-01 BMatC= 4.87D-10 BMatP= 1.65D-08
 IDIUse=1 WtCom= 1.00D+00 WtEn= 0.00D+00
 Coeff-Com: -0.141D-03 0.766D-03 0.631D-02-0.368D-01 0.135D+00 0.895D+00
 Coeff:     -0.141D-03 0.766D-03 0.631D-02-0.368D-01 0.135D+00 0.895D+00
 Gap=     0.486 Goal=   None    Shift=    0.000
 RMSDP=6.39D-07 MaxDP=8.19D-06 DE=-3.44D-08 OVMax= 1.13D-05

 Cycle   7  Pass 1  IDiag  1:
 E= -229.415628829976     Delta-E=       -0.000000000555 Rises=F Damp=F
 DIIS: error= 1.35D-06 at cycle   7 NSaved=   7.
 NSaved= 7 IEnMin= 7 EnMin= -229.415628829976     IErMin= 7 ErrMin= 1.35D-06
 ErrMax= 1.35D-06  0.00D+00 EMaxC= 1.00D-01 BMatC= 9.61D-11 BMatP= 4.87D-10
 IDIUse=1 WtCom= 1.00D+00 WtEn= 0.00D+00
 Coeff-Com:  0.553D-04-0.298D-03-0.243D-02 0.166D-01-0.107D+00 0.254D+00
 Coeff-Com:  0.839D+00
 Coeff:      0.553D-04-0.298D-03-0.243D-02 0.166D-01-0.107D+00 0.254D+00
 Coeff:      0.839D+00
 Gap=     0.486 Goal=   None    Shift=    0.000
 RMSDP=2.14D-07 MaxDP=2.78D-06 DE=-5.55D-10 OVMax= 4.51D-06

 Cycle   8  Pass 1  IDiag  1:
 E= -229.415628830101     Delta-E=       -0.000000000125 Rises=F Damp=F
 DIIS: error= 2.39D-07 at cycle   8 NSaved=   8.
 NSaved= 8 IEnMin= 8 EnMin= -229.415628830101     IErMin= 8 ErrMin= 2.39D-07
 ErrMax= 2.39D-07  0.00D+00 EMaxC= 1.00D-01 BMatC= 1.35D-12 BMatP= 9.61D-11
 IDIUse=1 WtCom= 1.00D+00 WtEn= 0.00D+00
 Coeff-Com: -0.532D-05 0.255D-04 0.228D-03-0.175D-02 0.146D-01-0.716D-01
 Coeff-Com: -0.137D+00 0.120D+01
 Coeff:     -0.532D-05 0.255D-04 0.228D-03-0.175D-02 0.146D-01-0.716D-01
 Coeff:     -0.137D+00 0.120D+01
 Gap=     0.486 Goal=   None    Shift=    0.000
 RMSDP=3.47D-08 MaxDP=3.89D-07 DE=-1.25D-10 OVMax= 1.17D-06

 Cycle   9  Pass 1  IDiag  1:
 E= -229.415628830103     Delta-E=       -0.000000000002 Rises=F Damp=F
 DIIS: error= 1.10D-07 at cycle   9 NSaved=   9.
 NSaved= 9 IEnMin= 9 EnMin= -229.415628830103     IErMin= 9 ErrMin= 1.10D-07
 ErrMax= 1.10D-07  0.00D+00 EMaxC= 1.00D-01 BMatC= 1.73D-13 BMatP= 1.35D-12
 IDIUse=1 WtCom= 1.00D+00 WtEn= 0.00D+00
 Coeff-Com: -0.292D-05 0.151D-04 0.127D-03-0.913D-03 0.663D-02-0.232D-01
 Coeff-Com: -0.562D-01 0.243D+00 0.831D+00
 Coeff:     -0.292D-05 0.151D-04 0.127D-03-0.913D-03 0.663D-02-0.232D-01
 Coeff:     -0.562D-01 0.243D+00 0.831D+00
 Gap=     0.486 Goal=   None    Shift=    0.000
 RMSDP=1.12D-08 MaxDP=1.33D-07 DE=-1.71D-12 OVMax= 4.20D-07

 Cycle  10  Pass 1  IDiag  1:
 E= -229.415628830104     Delta-E=       -0.000000000002 Rises=F Damp=F
 DIIS: error= 6.82D-08 at cycle  10 NSaved=  10.
 NSaved=10 IEnMin=10 EnMin= -229.415628830104     IErMin=10 ErrMin= 6.82D-08
 ErrMax= 6.82D-08  0.00D+00 EMaxC= 1.00D-01 BMatC= 4.46D-14 BMatP= 1.73D-13
 IDIUse=1 WtCom= 1.00D+00 WtEn= 0.00D+00
 Coeff-Com:  0.309D-05-0.153D-04-0.134D-03 0.985D-03-0.754D-02 0.312D-01
 Coeff-Com:  0.669D-01-0.444D+00-0.470D+00 0.182D+01
 Coeff:      0.309D-05-0.153D-04-0.134D-03 0.985D-03-0.754D-02 0.312D-01
 Coeff:      0.669D-01-0.444D+00-0.470D+00 0.182D+01
 Gap=     0.486 Goal=   None    Shift=    0.000
 RMSDP=1.60D-08 MaxDP=1.96D-07 DE=-1.53D-12 OVMax= 6.17D-07

 Cycle  11  Pass 1  IDiag  1:
 E= -229.415628830105     Delta-E=       -0.000000000001 Rises=F Damp=F
 DIIS: error= 1.14D-08 at cycle  11 NSaved=  11.
 NSaved=11 IEnMin=11 EnMin= -229.415628830105     IErMin=11 ErrMin= 1.14D-08
 ErrMax= 1.14D-08  0.00D+00 EMaxC= 1.00D-01 BMatC= 1.59D-15 BMatP= 4.46D-14
 IDIUse=1 WtCom= 1.00D+00 WtEn= 0.00D+00
 Coeff-Com: -0.703D-06 0.336D-05 0.303D-04-0.221D-03 0.169D-02-0.740D-02
 Coeff-Com: -0.153D-01 0.114D+00 0.688D-01-0.555D+00 0.139D+01
 Coeff:     -0.703D-06 0.336D-05 0.303D-04-0.221D-03 0.169D-02-0.740D-02
 Coeff:     -0.153D-01 0.114D+00 0.688D-01-0.555D+00 0.139D+01
 Gap=     0.486 Goal=   None    Shift=    0.000
 RMSDP=3.19D-09 MaxDP=3.89D-08 DE=-6.82D-13 OVMax= 1.21D-07

 SCF Done:  E(RHF) =  -229.415628830     A.U. after   11 cycles
            NFock= 11  Conv=0.32D-08     -V/T= 2.0035
 KE= 2.286080513049D+02 PE=-9.391023677900D+02 EE= 2.780479385512D+02
 Leave Link  502 at Mon Jun  9 11:31:53 2025, MaxMem=  2013265920 cpu:               6.1 elap:               0.3
 (Enter /home/user/softwares/g16/g16/l601.exe)
 Copying SCF densities to generalized density rwf, IOpCl= 0 IROHF=0.

 **********************************************************************

            Population analysis using the SCF Density.

 **********************************************************************

 Orbital symmetries:
       Occupied  (A) (A) (A) (A) (A) (A) (A) (A) (A) (A) (A) (A)
                 (A) (A) (A) (A) (A) (A) (A) (A) (A)
       Virtual   (A) (A) (A) (A) (A) (A) (A) (A) (A) (A) (A) (A)
                 (A) (A) (A) (A) (A) (A) (A) (A) (A) (A) (A) (A)
                 (A) (A) (A) (A) (A) (A) (A) (A) (A) (A) (A) (A)
                 (A) (A) (A) (A) (A) (A) (A) (A) (A)
 The electronic state is 1-A.
 Alpha  occ. eigenvalues --  -11.18297 -11.18274 -11.18273 -11.18247 -11.18246
 Alpha  occ. eigenvalues --  -11.18187  -1.15107  -1.01132  -1.01127  -0.81953
 Alpha  occ. eigenvalues --   -0.81948  -0.70944  -0.63132  -0.62160  -0.58617
 Alpha  occ. eigenvalues --   -0.58615  -0.50516  -0.48770  -0.48761  -0.33810
 Alpha  occ. eigenvalues --   -0.33805
 Alpha virt. eigenvalues --    0.14779   0.14785   0.24768   0.31621   0.31624
 Alpha virt. eigenvalues --    0.36427   0.36429   0.36502   0.36911   0.50140
 Alpha virt. eigenvalues --    0.50147   0.51941   0.51949   0.80359   0.81739
 Alpha virt. eigenvalues --    0.87743   0.91270   0.95544   1.00015   1.00027
 Alpha virt. eigenvalues --    1.05255   1.05257   1.07757   1.07764   1.10480
 Alpha virt. eigenvalues --    1.10481   1.12992   1.17486   1.26785   1.29269
 Alpha virt. eigenvalues --    1.29272   1.39488   1.39495   1.41026   1.56389
 Alpha virt. eigenvalues --    1.56396   1.57936   1.71586   1.73226   1.73232
 Alpha virt. eigenvalues --    1.80293   1.80302   2.15851   2.15861   2.74590
     Molecular Orbital Coefficients:
                           1         2         3         4         5
                           O         O         O         O         O
     Eigenvalues --   -11.18297 -11.18274 -11.18273 -11.18247 -11.18246
   1 1   C  1S         -0.36701   0.55596  -0.16572   0.56067   0.13192
   2        2S         -0.04103   0.05804  -0.01727   0.05466   0.01284
   3        2PX        -0.00013   0.00017  -0.00016   0.00050  -0.00168
   4        2PY        -0.00108   0.00158  -0.00045   0.00071   0.00039
   5        2PZ         0.00000  -0.00000   0.00000  -0.00000  -0.00000
   6        3S          0.08085  -0.06197   0.01817  -0.03168  -0.00717
   7        3PX         0.00465   0.00017   0.00896  -0.00301   0.01138
   8        3PY         0.03671  -0.01838   0.00415  -0.00201  -0.00184
   9        3PZ        -0.00000   0.00000  -0.00000   0.00000   0.00000
  10 2   C  1S          0.37617  -0.17655   0.53733   0.13868   0.56799
  11        2S          0.04209  -0.01845   0.05600   0.01348   0.05542
  12        2PX        -0.00090   0.00048  -0.00118   0.00086  -0.00090
  13        2PY         0.00069  -0.00017   0.00103   0.00146   0.00006
  14        2PZ         0.00000  -0.00000   0.00000   0.00000   0.00000
  15        3S         -0.08258   0.02083  -0.05790  -0.00756  -0.03295
  16        3PX         0.02961  -0.01061   0.01143  -0.00632   0.00410
  17        3PY        -0.02325  -0.00300  -0.01192  -0.00913   0.00056
  18        3PZ        -0.00001   0.00000  -0.00001  -0.00000  -0.00001
  19 3   C  1S         -0.42667  -0.38036  -0.42745  -0.40794   0.38024
  20        2S         -0.04727  -0.03930  -0.04421  -0.03966   0.03674
  21        2PX         0.00118   0.00108   0.00101  -0.00005  -0.00086
  22        2PY         0.00046   0.00023   0.00056   0.00135   0.00094
  23        2PZ         0.00000   0.00000   0.00000   0.00000  -0.00000
  24        3S          0.08744   0.03661   0.04370   0.02297  -0.01908
  25        3PX        -0.03615  -0.01085  -0.00832   0.00143   0.00341
  26        3PY        -0.01435   0.00285  -0.01069  -0.00796  -0.00714
  27        3PZ        -0.00002  -0.00000  -0.00001  -0.00000   0.00000
  28 4   C  1S          0.45252   0.53639  -0.16706  -0.54063  -0.12223
  29        2S          0.04992   0.05529  -0.01722  -0.05230  -0.01178
  30        2PX        -0.00016  -0.00010   0.00033   0.00047  -0.00166
  31        2PY        -0.00132  -0.00146   0.00041   0.00054   0.00034
  32        2PZ         0.00000   0.00000   0.00000  -0.00000   0.00000
  33        3S         -0.08981  -0.05147   0.01619   0.02801   0.00584
  34        3PX         0.00490  -0.00126  -0.00994  -0.00257   0.01047
  35        3PY         0.03915   0.01290  -0.00281  -0.00069  -0.00129
  36        3PZ        -0.00000  -0.00000  -0.00000   0.00000  -0.00000
  37 5   C  1S         -0.41505  -0.07791   0.56641  -0.19642  -0.52802
  38        2S         -0.04611  -0.00802   0.05864  -0.01919  -0.05122
  39        2PX        -0.00101  -0.00035   0.00126   0.00083  -0.00080
  40        2PY         0.00073  -0.00003  -0.00094   0.00147  -0.00003
  41        2PZ         0.00000   0.00000   0.00000  -0.00000  -0.00000
  42        3S          0.08656   0.00601  -0.05741   0.01197   0.02850
  43        3PX         0.03126   0.00626  -0.01105  -0.00537   0.00349
  44        3PY        -0.02285   0.00695   0.01057  -0.00926   0.00188
  45        3PZ         0.00001  -0.00000  -0.00001   0.00000   0.00000
  46 6   C  1S          0.37709  -0.44308  -0.35693   0.37843  -0.44239
  47        2S          0.04214  -0.04624  -0.03716   0.03688  -0.04314
  48        2PX         0.00105  -0.00119  -0.00089  -0.00002  -0.00100
  49        2PY         0.00042  -0.00043  -0.00056   0.00138   0.00088
  50        2PZ        -0.00000   0.00000   0.00000  -0.00000   0.00000
  51        3S         -0.08236   0.04950   0.03771  -0.02146   0.02528
  52        3PX        -0.03444   0.01580   0.00683   0.00175   0.00480
  53        3PY        -0.01487   0.00020   0.01040  -0.00862  -0.00625
  54        3PZ         0.00001  -0.00001  -0.00001   0.00000  -0.00000
  55 7   H  1S          0.00138  -0.00085   0.00025  -0.00104  -0.00024
  56        2S          0.00376   0.00181  -0.00058   0.00525   0.00127
  57 8   H  1S         -0.00138   0.00032  -0.00077  -0.00027  -0.00108
  58        2S         -0.00381  -0.00041   0.00199   0.00129   0.00524
  59 9   H  1S          0.00146   0.00047   0.00064   0.00079  -0.00073
  60        2S          0.00355  -0.00194  -0.00186  -0.00389   0.00384
  61 10  H  1S         -0.00150  -0.00071   0.00023   0.00105   0.00023
  62        2S         -0.00341   0.00275  -0.00084  -0.00542  -0.00128
  63 11  H  1S          0.00144   0.00003  -0.00080   0.00038   0.00102
  64        2S          0.00363  -0.00059   0.00252  -0.00179  -0.00512
  65 12  H  1S         -0.00139   0.00069   0.00048  -0.00072   0.00083
  66        2S         -0.00377  -0.00141  -0.00143   0.00351  -0.00415
                           6         7         8         9        10
                           O         O         O         O         O
     Eigenvalues --   -11.18187  -1.15107  -1.01132  -1.01127  -0.81953
   1 1   C  1S          0.41453  -0.09726  -0.03509  -0.13239  -0.10222
   2        2S          0.03784   0.10928   0.03763   0.14199   0.10536
   3        2PX        -0.00014   0.00765   0.10024  -0.02264   0.05154
   4        2PY        -0.00110   0.06021  -0.00475   0.03323  -0.05428
   5        2PZ        -0.00000  -0.00000  -0.00001  -0.00000  -0.00002
   6        3S         -0.01394   0.18220   0.08298   0.31311   0.32979
   7        3PX         0.00041   0.00157   0.00949  -0.00069   0.01984
   8        3PY         0.00307   0.01230   0.00244   0.01382  -0.00925
   9        3PZ         0.00000  -0.00001  -0.00001  -0.00000  -0.00001
  10 2   C  1S          0.41424  -0.09727  -0.13224  -0.03568   0.02222
  11        2S          0.03788   0.10929   0.14184   0.03826  -0.02291
  12        2PX         0.00090  -0.04827  -0.00749  -0.06697  -0.11901
  13        2PY        -0.00063   0.03679   0.03982  -0.07462  -0.13942
  14        2PZ         0.00000   0.00004   0.00006   0.00001  -0.00003
  15        3S         -0.01451   0.18220   0.31274   0.08441  -0.07166
  16        3PX        -0.00237  -0.00985  -0.00933  -0.00844  -0.04098
  17        3PY         0.00149   0.00750   0.01021  -0.00501  -0.05147
  18        3PZ        -0.00001   0.00003   0.00005   0.00001  -0.00002
  19 3   C  1S          0.39294  -0.09722  -0.09712   0.09660   0.07993
  20        2S          0.03576   0.10924   0.10416  -0.10359  -0.08240
  21        2PX         0.00103  -0.05593   0.00786   0.04855  -0.08239
  22        2PY         0.00048  -0.02353  -0.07600  -0.05907   0.10104
  23        2PZ        -0.00000  -0.00002  -0.00003   0.00002   0.00002
  24        3S         -0.01292   0.18213   0.22965  -0.22848  -0.25781
  25        3PX        -0.00272  -0.01143  -0.00664   0.01176  -0.02218
  26        3PY        -0.00150  -0.00479  -0.01001  -0.00229   0.03943
  27        3PZ         0.00000  -0.00002  -0.00002   0.00001   0.00001
  28 4   C  1S          0.38368  -0.09721   0.03520   0.13238  -0.10222
  29        2S          0.03486   0.10922  -0.03776  -0.14197   0.10536
  30        2PX         0.00015  -0.00775   0.10026  -0.02238  -0.05146
  31        2PY         0.00114  -0.06017  -0.00470   0.03321   0.05423
  32        2PZ         0.00000   0.00001   0.00000  -0.00002   0.00001
  33        3S         -0.01249   0.18210  -0.08322  -0.31309   0.32971
  34        3PX        -0.00044  -0.00157   0.00949  -0.00066  -0.01979
  35        3PY        -0.00303  -0.01229   0.00244   0.01383   0.00926
  36        3PZ        -0.00000   0.00001   0.00001  -0.00002   0.00002
  37 5   C  1S          0.39785  -0.09724   0.13220   0.03584   0.02229
  38        2S          0.03626   0.10926  -0.14179  -0.03845  -0.02297
  39        2PX        -0.00087   0.04830  -0.00762  -0.06704   0.11907
  40        2PY         0.00071  -0.03673   0.03967  -0.07461   0.13938
  41        2PZ        -0.00000   0.00002  -0.00002   0.00000  -0.00002
  42        3S         -0.01336   0.18216  -0.31264  -0.08477  -0.07190
  43        3PX         0.00219   0.00985  -0.00935  -0.00845   0.04102
  44        3PY        -0.00206  -0.00750   0.01020  -0.00501   0.05145
  45        3PZ         0.00000   0.00001  -0.00002   0.00000  -0.00001
  46 6   C  1S          0.41231  -0.09726   0.09706  -0.09665   0.07998
  47        2S          0.03767   0.10928  -0.10409   0.10365  -0.08244
  48        2PX        -0.00104   0.05599   0.00783   0.04864   0.08248
  49        2PY        -0.00039   0.02341  -0.07583  -0.05927  -0.10104
  50        2PZ        -0.00000  -0.00003   0.00003  -0.00002   0.00002
  51        3S         -0.01424   0.18219  -0.22953   0.22857  -0.25806
  52        3PX         0.00273   0.01143  -0.00665   0.01176   0.02218
  53        3PY         0.00092   0.00479  -0.00998  -0.00233  -0.03945
  54        3PZ         0.00000  -0.00001   0.00002  -0.00002   0.00002
  55 7   H  1S         -0.00116   0.03208   0.01778   0.06708   0.09779
  56        2S          0.00646  -0.00446   0.00391   0.01475   0.04979
  57 8   H  1S         -0.00116   0.03208   0.06699   0.01809  -0.02122
  58        2S          0.00639  -0.00446   0.01472   0.00398  -0.01080
  59 9   H  1S         -0.00112   0.03206   0.04919  -0.04894  -0.07643
  60        2S          0.00623  -0.00446   0.01081  -0.01077  -0.03891
  61 10  H  1S         -0.00110   0.03206  -0.01782  -0.06707   0.09774
  62        2S          0.00613  -0.00446  -0.00391  -0.01475   0.04977
  63 11  H  1S         -0.00112   0.03206  -0.06696  -0.01814  -0.02135
  64        2S          0.00626  -0.00446  -0.01472  -0.00398  -0.01087
  65 12  H  1S         -0.00116   0.03208  -0.04918   0.04897  -0.07653
  66        2S          0.00639  -0.00446  -0.01081   0.01076  -0.03897
                          11        12        13        14        15
                           O         O         O         O         O
     Eigenvalues --    -0.81948  -0.70944  -0.63132  -0.62160  -0.58617
   1 1   C  1S          0.03327   0.01165  -0.06045  -0.00007   0.00128
   2        2S         -0.03430  -0.00712   0.06323   0.00007  -0.00161
   3        2PX         0.17838   0.02112  -0.01412   0.24322  -0.07341
   4        2PY        -0.00724   0.16617  -0.10863  -0.03094  -0.00638
   5        2PZ        -0.00004  -0.00002  -0.00002  -0.00009   0.00006
   6        3S         -0.10734  -0.05889   0.19097   0.00023  -0.00211
   7        3PX         0.06370   0.01368  -0.01635   0.14041  -0.03982
   8        3PY        -0.00593   0.10746  -0.12697  -0.01787  -0.00740
   9        3PZ        -0.00002  -0.00001  -0.00000  -0.00005   0.00005
  10 2   C  1S         -0.10517   0.01167   0.06046   0.00008   0.01777
  11        2S          0.10840  -0.00714  -0.06325  -0.00009  -0.02268
  12        2PX         0.01525  -0.13326  -0.08680  -0.14869   0.16300
  13        2PY        -0.06038   0.10150   0.06642  -0.19504  -0.16448
  14        2PZ         0.00005  -0.00002  -0.00004  -0.00003   0.00006
  15        3S          0.33931  -0.05897  -0.19097  -0.00022  -0.02742
  16        3PX        -0.00298  -0.08617  -0.10163  -0.08591   0.13465
  17        3PY        -0.01527   0.06564   0.07756  -0.11256  -0.12413
  18        3PZ         0.00005  -0.00002  -0.00005  -0.00002   0.00006
  19 3   C  1S          0.07191   0.01165  -0.06045  -0.00006   0.01658
  20        2S         -0.07411  -0.00712   0.06323   0.00004  -0.02116
  21        2PX         0.02300  -0.15442   0.10109  -0.09445   0.18139
  22        2PY        -0.14117  -0.06472   0.04214   0.22624   0.11921
  23        2PZ        -0.00001  -0.00006   0.00002   0.00004   0.00015
  24        3S         -0.23203  -0.05888   0.19098   0.00033  -0.02565
  25        3PX         0.01498  -0.09988   0.11811  -0.05448   0.14818
  26        3PY        -0.04793  -0.04183   0.04935   0.13063   0.08518
  27        3PZ        -0.00000  -0.00003   0.00005   0.00002   0.00011
  28 4   C  1S          0.03336   0.01167   0.06045   0.00008  -0.00125
  29        2S         -0.03437  -0.00715  -0.06323  -0.00010   0.00160
  30        2PX        -0.17835  -0.02122  -0.01420   0.24321  -0.07343
  31        2PY         0.00714  -0.16608  -0.10858  -0.03100  -0.00676
  32        2PZ        -0.00004  -0.00003  -0.00005   0.00007   0.00005
  33        3S         -0.10766  -0.05897  -0.19094  -0.00016   0.00190
  34        3PX        -0.06369  -0.01373  -0.01641   0.14041  -0.03984
  35        3PY         0.00591  -0.10740  -0.12694  -0.01794  -0.00771
  36        3PZ        -0.00002  -0.00002  -0.00005   0.00004   0.00004
  37 5   C  1S         -0.10516   0.01167  -0.06046  -0.00004  -0.01777
  38        2S          0.10840  -0.00714   0.06325   0.00003   0.02268
  39        2PX        -0.01531   0.13327  -0.08683  -0.14857   0.16303
  40        2PY         0.06022  -0.10137   0.06637  -0.19514  -0.16414
  41        2PZ        -0.00001   0.00002  -0.00006   0.00005   0.00010
  42        3S          0.33928  -0.05897   0.19098   0.00016   0.02746
  43        3PX         0.00294   0.08619  -0.10167  -0.08581   0.13464
  44        3PY         0.01520  -0.06555   0.07752  -0.11262  -0.12389
  45        3PZ         0.00000   0.00001  -0.00004   0.00002   0.00008
  46 6   C  1S          0.07182   0.01165   0.06045   0.00005  -0.01661
  47        2S         -0.07403  -0.00712  -0.06323  -0.00006   0.02118
  48        2PX        -0.02307   0.15453   0.10108  -0.09444   0.18131
  49        2PY         0.14118   0.06463   0.04209   0.22626   0.11889
  50        2PZ        -0.00001  -0.00003  -0.00005  -0.00003  -0.00001
  51        3S         -0.23171  -0.05889  -0.19097  -0.00017   0.02581
  52        3PX        -0.01498   0.09993   0.11810  -0.05442   0.14808
  53        3PY         0.04794   0.04181   0.04932   0.13067   0.08501
  54        3PZ         0.00001  -0.00002  -0.00005  -0.00002  -0.00001
  55 7   H  1S         -0.03182  -0.10258   0.12728   0.00002   0.00923
  56        2S         -0.01620  -0.06715   0.07593   0.00001   0.00756
  57 8   H  1S          0.10061  -0.10260  -0.12713  -0.00016   0.13657
  58        2S          0.05124  -0.06716  -0.07582  -0.00010   0.11157
  59 9   H  1S         -0.06881  -0.10253   0.12727   0.00026   0.12701
  60        2S         -0.03506  -0.06712   0.07592   0.00020   0.10378
  61 10  H  1S         -0.03196  -0.10255  -0.12726  -0.00000  -0.00952
  62        2S         -0.01628  -0.06714  -0.07592   0.00002  -0.00778
  63 11  H  1S          0.10057  -0.10255   0.12713   0.00011  -0.13644
  64        2S          0.05122  -0.06714   0.07583   0.00006  -0.11149
  65 12  H  1S         -0.06871  -0.10258  -0.12726  -0.00023  -0.12686
  66        2S         -0.03498  -0.06715  -0.07590  -0.00015  -0.10366
                          16        17        18        19        20
                           O         O         O         O         O
     Eigenvalues --    -0.58615  -0.50516  -0.48770  -0.48761  -0.33810
   1 1   C  1S         -0.01986  -0.00001  -0.00312   0.00158   0.00000
   2        2S          0.02533   0.00001   0.00436  -0.00223   0.00001
   3        2PX         0.02757   0.00012   0.12395   0.18718   0.00007
   4        2PY         0.25399  -0.00001   0.15574  -0.11221  -0.00002
   5        2PZ        -0.00002   0.18049  -0.00006  -0.00012   0.08839
   6        3S          0.03077   0.00004   0.01574  -0.00796  -0.00013
   7        3PX         0.02314   0.00007   0.09542   0.11920   0.00002
   8        3PY         0.20174   0.00001   0.20090  -0.12496  -0.00008
   9        3PZ        -0.00001   0.17531  -0.00005  -0.00008   0.10701
  10 2   C  1S         -0.00885   0.00003   0.00014  -0.00351   0.00005
  11        2S          0.01129  -0.00004  -0.00021   0.00491  -0.00006
  12        2PX        -0.12951  -0.00011  -0.12910  -0.15856  -0.00004
  13        2PY         0.01779   0.00004  -0.18414   0.10736   0.00001
  14        2PZ         0.00001   0.18049  -0.00003  -0.00007   0.26392
  15        3S          0.01373  -0.00012  -0.00071   0.01769  -0.00007
  16        3PX        -0.09285  -0.00007  -0.08255  -0.19331  -0.00012
  17        3PY         0.02743   0.00001  -0.12657   0.13820   0.00005
  18        3PZ        -0.00000   0.17531  -0.00002  -0.00008   0.31954
  19 3   C  1S          0.01098  -0.00003   0.00293   0.00193  -0.00001
  20        2S         -0.01400   0.00003  -0.00412  -0.00266   0.00003
  21        2PX         0.15363  -0.00008   0.10154   0.16867  -0.00005
  22        2PY        -0.00087  -0.00009   0.17425  -0.13466  -0.00011
  23        2PZ         0.00007   0.18044   0.00010  -0.00001   0.17549
  24        3S         -0.01706   0.00010  -0.01471  -0.00975  -0.00005
  25        3PX         0.11614  -0.00010   0.15294   0.16774  -0.00002
  26        3PY         0.01368  -0.00007   0.15237  -0.06747  -0.00005
  27        3PZ         0.00005   0.17527   0.00009   0.00001   0.21246
  28 4   C  1S          0.01986   0.00002  -0.00310   0.00163  -0.00001
  29        2S         -0.02533  -0.00002   0.00435  -0.00226   0.00001
  30        2PX         0.02788  -0.00006  -0.12386  -0.18720   0.00001
  31        2PY         0.25396  -0.00005  -0.15557   0.11260   0.00004
  32        2PZ         0.00005   0.18042  -0.00007  -0.00002  -0.08866
  33        3S         -0.03075  -0.00009   0.01562  -0.00825   0.00012
  34        3PX         0.02331  -0.00006  -0.09536  -0.11920  -0.00000
  35        3PY         0.20172  -0.00002  -0.20069   0.12538   0.00001
  36        3PZ         0.00005   0.17525  -0.00008  -0.00001  -0.10733
  37 5   C  1S          0.00882   0.00001   0.00020  -0.00350  -0.00000
  38        2S         -0.01127  -0.00001  -0.00026   0.00491   0.00001
  39        2PX        -0.12990  -0.00002   0.12875   0.15854   0.00002
  40        2PY         0.01792   0.00011   0.18441  -0.10737  -0.00011
  41        2PZ        -0.00001   0.18047  -0.00008   0.00007  -0.26387
  42        3S         -0.01354  -0.00001  -0.00099   0.01766  -0.00007
  43        3PX        -0.09317  -0.00003   0.08220   0.19332   0.00000
  44        3PY         0.02757   0.00007   0.12684  -0.13818  -0.00010
  45        3PZ        -0.00001   0.17529  -0.00006   0.00007  -0.31948
  46 6   C  1S         -0.01096   0.00001   0.00296   0.00187   0.00001
  47        2S          0.01400  -0.00001  -0.00414  -0.00263  -0.00002
  48        2PX         0.15394  -0.00005  -0.10173  -0.16833  -0.00007
  49        2PY        -0.00093   0.00000  -0.17440   0.13472   0.00000
  50        2PZ        -0.00003   0.18048   0.00003  -0.00001  -0.17529
  51        3S          0.01688  -0.00005  -0.01491  -0.00944   0.00002
  52        3PX         0.11636  -0.00005  -0.15317  -0.16736  -0.00003
  53        3PY         0.01369   0.00001  -0.15252   0.06756   0.00002
  54        3PZ        -0.00002   0.17531   0.00003  -0.00000  -0.21223
  55 7   H  1S         -0.15206   0.00001  -0.13564   0.06989   0.00002
  56        2S         -0.12424   0.00002  -0.11360   0.05853   0.00001
  57 8   H  1S         -0.06776  -0.00007   0.00707  -0.15241   0.00001
  58        2S         -0.05537  -0.00010   0.00590  -0.12769   0.00001
  59 9   H  1S          0.08416  -0.00001   0.12835   0.08251  -0.00002
  60        2S          0.06877  -0.00000   0.10750   0.06912  -0.00003
  61 10  H  1S          0.15206  -0.00003  -0.13553   0.07009   0.00004
  62        2S          0.12426  -0.00004  -0.11352   0.05873   0.00006
  63 11  H  1S          0.06806   0.00003   0.00728  -0.15241  -0.00003
  64        2S          0.05560   0.00004   0.00612  -0.12771  -0.00005
  65 12  H  1S         -0.08436   0.00005   0.12848   0.08232   0.00003
  66        2S         -0.06891   0.00005   0.10761   0.06894   0.00005
                          21        22        23        24        25
                           O         V         V         V         V
     Eigenvalues --    -0.33805   0.14779   0.14785   0.24768   0.31621
   1 1   C  1S         -0.00001  -0.00002  -0.00004   0.04332  -0.01341
   2        2S          0.00001   0.00002   0.00007  -0.02105   0.00055
   3        2PX         0.00014   0.00010   0.00001   0.01132   0.01845
   4        2PY         0.00001   0.00002   0.00006   0.08899  -0.06560
   5        2PZ         0.25364   0.25098  -0.09822  -0.00004   0.00000
   6        3S          0.00009   0.00009   0.00004  -0.51672   0.25132
   7        3PX         0.00014   0.00038  -0.00015   0.03978  -0.06510
   8        3PY         0.00002  -0.00008  -0.00013   0.31203  -0.20823
   9        3PZ         0.30713   0.55908  -0.21877  -0.00004  -0.00009
  10 2   C  1S          0.00001  -0.00002   0.00006   0.04329  -0.03976
  11        2S         -0.00001   0.00002  -0.00004  -0.02103   0.00150
  12        2PX        -0.00003   0.00001  -0.00006  -0.07140   0.15228
  13        2PY        -0.00001   0.00002   0.00001   0.05438  -0.10924
  14        2PZ         0.04999  -0.04025   0.26650   0.00000   0.00006
  15        3S         -0.00007   0.00015  -0.00031  -0.51657   0.74689
  16        3PX        -0.00002   0.00017  -0.00031  -0.25020   0.50554
  17        3PY         0.00000   0.00019   0.00012   0.19066  -0.39413
  18        3PZ         0.06054  -0.08960   0.59371  -0.00011   0.00037
  19 3   C  1S          0.00002   0.00002  -0.00001   0.04333  -0.02641
  20        2S         -0.00003  -0.00001   0.00003  -0.02105   0.00098
  21        2PX         0.00010   0.00006   0.00004  -0.08276   0.12322
  22        2PY         0.00007   0.00010  -0.00000  -0.03468   0.02843
  23        2PZ        -0.20338  -0.21059  -0.16825  -0.00009   0.00006
  24        3S         -0.00006  -0.00025  -0.00015  -0.51678   0.49622
  25        3PX         0.00008   0.00010   0.00024  -0.29017   0.38156
  26        3PY         0.00009   0.00033   0.00008  -0.12158   0.19258
  27        3PZ        -0.24629  -0.46899  -0.37490  -0.00018   0.00011
  28 4   C  1S         -0.00001   0.00001  -0.00003   0.04331   0.01324
  29        2S          0.00002  -0.00000   0.00003  -0.02104  -0.00047
  30        2PX         0.00006  -0.00007   0.00002  -0.01138   0.01843
  31        2PY         0.00005  -0.00006   0.00000  -0.08902  -0.06566
  32        2PZ        -0.25358   0.25097  -0.09838   0.00002  -0.00008
  33        3S         -0.00001  -0.00005   0.00022  -0.51672  -0.24919
  34        3PX         0.00008  -0.00027   0.00011  -0.04000  -0.06486
  35        3PY         0.00008  -0.00016   0.00002  -0.31199  -0.20815
  36        3PZ        -0.30707   0.55896  -0.21925  -0.00005  -0.00027
  37 5   C  1S         -0.00000  -0.00002   0.00001   0.04331   0.03982
  38        2S          0.00000   0.00004   0.00000  -0.02104  -0.00153
  39        2PX         0.00001   0.00005  -0.00002   0.07148   0.15228
  40        2PY        -0.00004  -0.00002   0.00008  -0.05435  -0.10930
  41        2PZ        -0.05030  -0.04046   0.26648  -0.00001   0.00008
  42        3S          0.00007   0.00006  -0.00013  -0.51665  -0.74748
  43        3PX         0.00005  -0.00014  -0.00005   0.25046   0.50553
  44        3PY        -0.00004  -0.00011   0.00028  -0.19053  -0.39440
  45        3PZ        -0.06092  -0.09015   0.59364   0.00005   0.00030
  46 6   C  1S         -0.00002   0.00003   0.00001   0.04332   0.02650
  47        2S          0.00002  -0.00003  -0.00000  -0.02104  -0.00103
  48        2PX         0.00003  -0.00004  -0.00003   0.08277   0.12307
  49        2PY         0.00008  -0.00006  -0.00001   0.03464   0.02847
  50        2PZ         0.20353  -0.21065  -0.16814   0.00004  -0.00006
  51        3S          0.00006  -0.00012   0.00001  -0.51677  -0.49745
  52        3PX         0.00001   0.00009  -0.00004   0.29019   0.38116
  53        3PY         0.00008  -0.00024   0.00010   0.12139   0.19305
  54        3PZ         0.24645  -0.46924  -0.37453   0.00002  -0.00015
  55 7   H  1S         -0.00000  -0.00002  -0.00002   0.04301  -0.00796
  56        2S         -0.00000  -0.00012  -0.00017   0.71452  -0.38202
  57 8   H  1S         -0.00002  -0.00003   0.00009   0.04301  -0.02381
  58        2S         -0.00003  -0.00013   0.00033   0.71446  -1.13884
  59 9   H  1S          0.00003   0.00002  -0.00000   0.04302  -0.01585
  60        2S          0.00005   0.00005  -0.00008   0.71459  -0.75728
  61 10  H  1S         -0.00000   0.00002  -0.00005   0.04302   0.00800
  62        2S         -0.00000   0.00006  -0.00019   0.71451   0.38109
  63 11  H  1S         -0.00002  -0.00001  -0.00001   0.04303   0.02382
  64        2S         -0.00002  -0.00010  -0.00007   0.71463   1.13918
  65 12  H  1S         -0.00001   0.00004   0.00001   0.04301   0.01581
  66        2S         -0.00002   0.00016   0.00003   0.71455   0.75749
                          26        27        28        29        30
                           V         V         V         V         V
     Eigenvalues --     0.31624   0.36427   0.36429   0.36502   0.36911
   1 1   C  1S         -0.03823  -0.08964   0.03130   0.06568  -0.00036
   2        2S          0.00145   0.03243  -0.01132  -0.06848   0.00039
   3        2PX        -0.03203   0.01060   0.06584   0.00683   0.00012
   4        2PY        -0.17747  -0.09021   0.02255   0.05350  -0.00030
   5        2PZ        -0.00001  -0.00016  -0.00083   0.00138   0.21070
   6        3S          0.71819   1.33517  -0.46621  -0.26208   0.00083
   7        3PX        -0.06510   0.06399   0.38250   0.12373   0.00051
   8        3PY        -0.61298  -0.50712   0.12490   0.97138  -0.00603
   9        3PZ        -0.00007  -0.00035  -0.00229   0.00395   0.62924
  10 2   C  1S         -0.00767   0.07157   0.06444  -0.06369   0.00071
  11        2S          0.00032  -0.02556  -0.02510   0.06773  -0.00058
  12        2PX         0.01165  -0.02992  -0.08042   0.03992  -0.00064
  13        2PY        -0.04356   0.07706  -0.00175  -0.03339   0.00025
  14        2PZ         0.00004   0.00004   0.00076  -0.00125  -0.21069
  15        3S          0.14349  -1.07147  -0.93109   0.23259  -0.00590
  16        3PX         0.12133  -0.15856  -0.47925   0.76145  -0.00713
  17        3PY        -0.04227   0.43657  -0.00154  -0.59729   0.00397
  18        3PZ         0.00017  -0.00005   0.00206  -0.00375  -0.62923
  19 3   C  1S          0.03074   0.02047  -0.09665   0.05977  -0.00077
  20        2S         -0.00120  -0.00942   0.03734  -0.06625   0.00051
  21        2PX        -0.12607   0.00696   0.09178  -0.04524   0.00055
  22        2PY        -0.07270  -0.06763   0.02522  -0.01655   0.00016
  23        2PZ        -0.00006  -0.00015  -0.00085   0.00136   0.21066
  24        3S         -0.57677  -0.27274   1.40108  -0.17567   0.00719
  25        3PX        -0.46606   0.01628   0.54940  -0.87637   0.00729
  26        3PY        -0.16628  -0.40374   0.15307  -0.35329   0.00250
  27        3PZ        -0.00015  -0.00040  -0.00241   0.00357   0.62906
  28 4   C  1S          0.03828  -0.09432   0.03307  -0.05786   0.00044
  29        2S         -0.00147   0.03752  -0.01316   0.06552  -0.00045
  30        2PX        -0.03193  -0.00996  -0.06617   0.00590  -0.00038
  31        2PY        -0.17746   0.09388  -0.02407   0.04586  -0.00031
  32        2PZ        -0.00005   0.00024   0.00085  -0.00133  -0.21065
  33        3S         -0.71865   1.35019  -0.47345   0.14776  -0.00198
  34        3PX        -0.06468  -0.05368  -0.38625   0.11870  -0.00285
  35        3PY        -0.61299   0.57837  -0.15129   0.92603  -0.00605
  36        3PZ        -0.00022   0.00078   0.00245  -0.00385  -0.62899
  37 5   C  1S          0.00749   0.07619   0.06280   0.05984  -0.00005
  38        2S         -0.00024  -0.03063  -0.02327  -0.06628   0.00031
  39        2PX         0.01169   0.03287   0.07948   0.03977  -0.00001
  40        2PY        -0.04361  -0.07919   0.00262  -0.02734   0.00013
  41        2PZ         0.00002  -0.00018  -0.00085   0.00139   0.21068
  42        3S         -0.14129  -1.08545  -0.92648  -0.17632  -0.00396
  43        3PX         0.12112   0.21616   0.45907   0.76067  -0.00324
  44        3PY        -0.04234  -0.47935   0.01797  -0.56129   0.00340
  45        3PZ         0.00010  -0.00062  -0.00247   0.00424   0.62914
  46 6   C  1S         -0.03062   0.01572  -0.09497  -0.06377   0.00007
  47        2S          0.00114  -0.00434   0.03550   0.06776  -0.00029
  48        2PX        -0.12609  -0.01061  -0.09068  -0.04715  -0.00009
  49        2PY        -0.07280   0.06602  -0.02453  -0.02219   0.00012
  50        2PZ         0.00003   0.00018   0.00082  -0.00142  -0.21069
  51        3S          0.57536  -0.25549   1.39617   0.23402   0.00342
  52        3PX        -0.46586  -0.08340  -0.52614  -0.88798   0.00348
  53        3PY        -0.16670   0.37521  -0.14210  -0.38597   0.00242
  54        3PZ         0.00004   0.00054   0.00233  -0.00398  -0.62922
  55 7   H  1S         -0.02287   0.00776  -0.00272   0.02414  -0.00017
  56        2S         -1.09497  -1.07840   0.37603   1.09531  -0.00628
  57 8   H  1S         -0.00451  -0.00644  -0.00438  -0.02429   0.00003
  58        2S         -0.21746   0.85875   0.78726  -1.07090   0.01100
  59 9   H  1S          0.01832  -0.00040   0.00678   0.02460  -0.00010
  60        2S          0.87822   0.26028  -1.17820   1.02314  -0.01085
  61 10  H  1S          0.02286   0.00590  -0.00207  -0.02474   0.00010
  62        2S          1.09504  -1.15706   0.40603  -0.99975   0.00742
  63 11  H  1S          0.00456  -0.00454  -0.00507   0.02459  -0.00022
  64        2S          0.21645   0.93660   0.75927   1.02384  -0.00293
  65 12  H  1S         -0.01834  -0.00227   0.00746  -0.02429   0.00018
  66        2S         -0.87772   0.17958  -1.15036  -1.07202   0.00266
                          31        32        33        34        35
                           V         V         V         V         V
     Eigenvalues --     0.50140   0.50147   0.51941   0.51949   0.80359
   1 1   C  1S         -0.08265   0.03867   0.02922   0.05707  -0.00093
   2        2S          0.01490  -0.00688   0.00244   0.00506   0.00023
   3        2PX         0.02091  -0.01712   0.19036  -0.09649   0.21324
   4        2PY         0.17709  -0.08105  -0.02895   0.00545  -0.02596
   5        2PZ         0.00002   0.00003   0.00002  -0.00001  -0.00019
   6        3S          1.64905  -0.77385  -0.80879  -1.58700   0.01978
   7        3PX        -0.16121  -0.82129   1.66877  -0.85984   2.83061
   8        3PY         1.38068  -0.52575  -0.31576  -0.07507  -0.34456
   9        3PZ         0.00000   0.00031  -0.00015   0.00021  -0.00110
  10 2   C  1S          0.00866  -0.09091   0.06387   0.00424   0.00091
  11        2S         -0.00147   0.01635   0.00563   0.00027  -0.00025
  12        2PX         0.01822  -0.15602   0.01400  -0.12913   0.13107
  13        2PY        -0.00518   0.11818   0.00544  -0.17180   0.17023
  14        2PZ         0.00000  -0.00002  -0.00008   0.00003   0.00010
  15        3S         -0.17563   1.81555  -1.77498  -0.11578  -0.01895
  16        3PX         0.60191  -1.13908   0.22857  -1.12968   1.74017
  17        3PY         0.56902   0.94927  -0.04091  -1.51631   2.25956
  18        3PZ        -0.00010   0.00029  -0.00075  -0.00003   0.00040
  19 3   C  1S          0.07489   0.05236   0.03465  -0.05372  -0.00088
  20        2S         -0.01343  -0.00943   0.00319  -0.00465   0.00024
  21        2PX         0.15035   0.10244   0.07249   0.03916  -0.08413
  22        2PY         0.05706   0.04830  -0.16461  -0.11198   0.19765
  23        2PZ         0.00010   0.00009   0.00006  -0.00008   0.00009
  24        3S         -1.49630  -1.04457  -0.96565   1.49177   0.01617
  25        3PX         1.30874   0.53278   0.70614   0.23963  -1.11529
  26        3PY         0.02370   0.94482  -1.41380  -1.03314   2.62320
  27        3PZ         0.00064   0.00060   0.00035  -0.00072   0.00051
  28 4   C  1S         -0.08312   0.03807  -0.02808  -0.05736   0.00087
  29        2S          0.01489  -0.00688  -0.00261  -0.00501  -0.00024
  30        2PX        -0.01831   0.01639   0.19074  -0.09648  -0.21315
  31        2PY        -0.17748   0.08119  -0.02683   0.00493   0.02841
  32        2PZ        -0.00004   0.00002  -0.00006   0.00003  -0.00018
  33        3S          1.66075  -0.75846   0.78306   1.59352  -0.01707
  34        3PX         0.18172   0.81570   1.66490  -0.86878  -2.82484
  35        3PY        -1.38425   0.52572  -0.29701  -0.07878   0.37625
  36        3PZ        -0.00012  -0.00007   0.00006   0.00013  -0.00081
  37 5   C  1S          0.00777  -0.09103  -0.06387  -0.00334  -0.00091
  38        2S         -0.00150   0.01635  -0.00563  -0.00040   0.00023
  39        2PX        -0.01831   0.15474   0.01397  -0.13047  -0.12908
  40        2PY         0.00519  -0.11986   0.00544  -0.17080  -0.17168
  41        2PZ         0.00001   0.00011   0.00009  -0.00000   0.00010
  42        3S         -0.15239   1.81864   1.77506   0.09541   0.01987
  43        3PX        -0.60107   1.12923   0.23632  -1.13999  -1.71389
  44        3PY        -0.57031  -0.96251  -0.03077  -1.50617  -2.27906
  45        3PZ         0.00011   0.00053   0.00049   0.00015   0.00058
  46 6   C  1S          0.07445   0.05284  -0.03580   0.05310   0.00093
  47        2S         -0.01342  -0.00945  -0.00302   0.00475  -0.00021
  48        2PX        -0.14926  -0.10189   0.07444   0.04026   0.08192
  49        2PY        -0.05954  -0.04962  -0.16366  -0.11165  -0.19862
  50        2PZ         0.00005   0.00004  -0.00007   0.00005   0.00009
  51        3S         -1.48545  -1.05658   0.99136  -1.47789  -0.01978
  52        3PX        -1.29982  -0.52890   0.72530   0.24623   1.08624
  53        3PY        -0.04317  -0.95543  -1.41254  -1.02322  -2.63644
  54        3PZ         0.00038   0.00023  -0.00028   0.00043   0.00040
  55 7   H  1S          0.00572  -0.00342  -0.05651  -0.11270  -0.00117
  56        2S          0.74057  -0.34142   0.07658   0.16316   0.00664
  57 8   H  1S         -0.00151   0.00663  -0.12583  -0.00750   0.00091
  58        2S         -0.07118   0.81209   0.18119   0.00701  -0.00631
  59 9   H  1S         -0.00595  -0.00341  -0.06929   0.10531  -0.00126
  60        2S         -0.66566  -0.47047   0.10432  -0.14896   0.00643
  61 10  H  1S          0.00660  -0.00218   0.05641   0.11273   0.00095
  62        2S          0.73879  -0.34423  -0.08589  -0.16064  -0.00617
  63 11  H  1S          0.00031   0.00687   0.12583   0.00747  -0.00097
  64        2S         -0.07523   0.81148  -0.18123  -0.01467   0.00635
  65 12  H  1S         -0.00511  -0.00437   0.06944  -0.10522   0.00104
  66        2S         -0.66740  -0.46842  -0.09513   0.15389  -0.00655
                          36        37        38        39        40
                           V         V         V         V         V
     Eigenvalues --     0.81739   0.87743   0.91270   0.95544   1.00015
   1 1   C  1S          0.12294  -0.00005   0.00799   0.00001  -0.06402
   2        2S         -0.02898   0.00041  -0.06063   0.00002   0.01935
   3        2PX        -0.01760  -0.38997  -0.03621   0.00022  -0.18169
   4        2PY        -0.14915   0.05074  -0.27341   0.00001   0.18408
   5        2PZ        -0.00003   0.00012   0.00016   0.43961   0.00018
   6        3S         -2.78483   0.00057  -0.08967  -0.00022  -0.11288
   7        3PX        -0.25593   0.47331   0.03941  -0.00010   0.18381
   8        3PY        -2.18666  -0.06091   0.29125  -0.00028  -0.03508
   9        3PZ         0.00016  -0.00007  -0.00006  -0.27606  -0.00015
  10 2   C  1S         -0.12294   0.00001   0.00795   0.00002   0.00993
  11        2S          0.02899   0.00047  -0.06066  -0.00005  -0.00244
  12        2PX        -0.11841   0.23755   0.22009  -0.00008   0.34976
  13        2PY         0.09231   0.31340  -0.16605   0.00001   0.41896
  14        2PZ        -0.00025   0.00006   0.00002   0.43960   0.00018
  15        3S          2.78556  -0.00033  -0.09028   0.00013   0.01778
  16        3PX        -1.73785  -0.28885  -0.23399  -0.00013  -0.30502
  17        3PY         1.35148  -0.38155   0.17734   0.00013  -0.39819
  18        3PZ         0.00086  -0.00003  -0.00004  -0.27609  -0.00019
  19 3   C  1S          0.12295  -0.00002   0.00797   0.00000   0.05422
  20        2S         -0.02902   0.00060  -0.06058   0.00009  -0.01588
  21        2PX         0.13813   0.15095   0.25460  -0.00017   0.25663
  22        2PY         0.05912  -0.36300   0.10590  -0.00018  -0.26292
  23        2PZ        -0.00009  -0.00006   0.00017   0.43954  -0.00017
  24        3S         -2.78402   0.00087  -0.08946  -0.00020   0.09805
  25        3PX         2.02094  -0.18372  -0.27175   0.00035  -0.13236
  26        3PY         0.87224   0.44048  -0.11214   0.00018   0.28726
  27        3PZ         0.00095   0.00003  -0.00018  -0.27601   0.00019
  28 4   C  1S         -0.12295   0.00003   0.00803  -0.00001  -0.06400
  29        2S          0.02899   0.00056  -0.06060   0.00001   0.01892
  30        2PX        -0.02055  -0.38995   0.03403  -0.00011   0.18427
  31        2PY        -0.14879   0.04902   0.27377  -0.00015  -0.18430
  32        2PZ        -0.00007  -0.00011   0.00006   0.43953   0.00008
  33        3S          2.78342  -0.00038  -0.09020   0.00024  -0.11559
  34        3PX        -0.30168   0.47408  -0.03690   0.00004  -0.18815
  35        3PY        -2.18011  -0.05907  -0.29108  -0.00013   0.03706
  36        3PZ         0.00006   0.00006  -0.00010  -0.27597  -0.00003
  37 5   C  1S          0.12295  -0.00006   0.00792   0.00003   0.00968
  38        2S         -0.02903   0.00046  -0.06064  -0.00004  -0.00339
  39        2PX        -0.12050   0.23889  -0.21860  -0.00003  -0.34950
  40        2PY         0.08972   0.31243   0.16792   0.00016  -0.41890
  41        2PZ         0.00004  -0.00007   0.00015   0.43958   0.00006
  42        3S         -2.78509   0.00065  -0.08968  -0.00026   0.01728
  43        3PX        -1.76537  -0.28945   0.23261  -0.00018   0.30547
  44        3PY         1.31492  -0.37998  -0.17954   0.00009   0.39731
  45        3PZ        -0.00055   0.00004   0.00003  -0.27608  -0.00010
  46 6   C  1S         -0.12294   0.00002   0.00799  -0.00004   0.05421
  47        2S          0.02897   0.00038  -0.06064   0.00009  -0.01650
  48        2PX         0.13908   0.15265  -0.25383   0.00022  -0.25586
  49        2PY         0.05654  -0.36233  -0.10788   0.00015   0.26068
  50        2PZ         0.00013   0.00005   0.00011   0.43960   0.00002
  51        3S          2.78501  -0.00075  -0.09002   0.00037   0.09504
  52        3PX         2.03932  -0.18615   0.27055   0.00006   0.12954
  53        3PY         0.82961   0.44050   0.11430  -0.00001  -0.28395
  54        3PZ        -0.00080  -0.00003  -0.00016  -0.27606   0.00007
  55 7   H  1S          0.14937  -0.00089   0.33413  -0.00004  -0.28376
  56        2S         -0.86305   0.00047  -0.10455  -0.00010   0.15616
  57 8   H  1S         -0.14920  -0.00067   0.33391   0.00004   0.04474
  58        2S          0.86277  -0.00010  -0.10455   0.00016  -0.02465
  59 9   H  1S          0.14945  -0.00067   0.33407  -0.00002   0.24129
  60        2S         -0.86297   0.00024  -0.10451  -0.00011  -0.13228
  61 10  H  1S         -0.14947  -0.00049   0.33419  -0.00006  -0.28453
  62        2S          0.86284  -0.00032  -0.10479   0.00016   0.15612
  63 11  H  1S          0.14936  -0.00080   0.33383  -0.00004   0.04256
  64        2S         -0.86278   0.00042  -0.10448  -0.00009  -0.02320
  65 12  H  1S         -0.14926  -0.00074   0.33411  -0.00019   0.24031
  66        2S          0.86298  -0.00008  -0.10459   0.00015  -0.13222
                          41        42        43        44        45
                           V         V         V         V         V
     Eigenvalues --     1.00027   1.05255   1.05257   1.07757   1.07764
   1 1   C  1S         -0.02572   0.00007  -0.00001  -0.01064   0.03812
   2        2S          0.00730   0.00014  -0.00006  -0.04656   0.16976
   3        2PX         0.51553   0.00013   0.00073  -0.52403  -0.13782
   4        2PY        -0.00154  -0.00029  -0.00010   0.05744   0.05332
   5        2PZ        -0.00011   0.20475   0.60107   0.00029   0.00026
   6        3S         -0.04648   0.00063  -0.00005  -0.02709   0.09556
   7        3PX        -0.46866  -0.00017  -0.00087   0.53171   0.14760
   8        3PY         0.05519   0.00072   0.00010  -0.07357   0.00024
   9        3PZ         0.00016  -0.16928  -0.49749  -0.00007  -0.00022
  10 2   C  1S          0.06827   0.00001   0.00004  -0.03828   0.01019
  11        2S         -0.02047   0.00014   0.00011  -0.17028   0.04443
[...]
 ! D22   D(4,5,6,12)           180.0005         -DE/DX =    0.0                 !
 ! D23   D(11,5,6,1)           180.0032         -DE/DX =    0.0                 !
 ! D24   D(11,5,6,12)            0.0011         -DE/DX =    0.0                 !
 --------------------------------------------------------------------------------
 GradGradGradGradGradGradGradGradGradGradGradGradGradGradGradGradGradGrad

 Leave Link  103 at Mon Jun  9 11:32:03 2025, MaxMem=  2013265920 cpu:               0.4 elap:               0.0
 (Enter /home/user/softwares/g16/g16/l9999.exe)

 ----------------------------------------------------------------------

 Electric dipole moment (input orientation):
 (Debye = 10**-18 statcoulomb cm , SI units = C m)
                  (au)            (Debye)         (10**-30 SI)
   Tot        0.529755D-04      0.134650D-03      0.449145D-03
   x          0.000000D+00      0.000000D+00      0.000000D+00
   y          0.000000D+00      0.000000D+00      0.000000D+00
   z         -0.529755D-04     -0.134650D-03     -0.449145D-03

 Dipole polarizability, Alpha (input orientation).
 (esu units = cm**3 , SI units = C**2 m**2 J**-1)
 Alpha(0;0):
               (au)            (10**-24 esu)      (10**-40 SI)
   iso        0.480316D+02      0.711755D+01      0.791934D+01
   aniso      0.505949D+02      0.749739D+01      0.834197D+01
   xx         0.648966D+02      0.961668D+01      0.107000D+02
   yx        -0.979965D-04     -0.145216D-04     -0.161574D-04
   yy         0.648965D+02      0.961667D+01      0.107000D+02
   zx         0.164479D-01      0.243733D-02      0.271189D-02
   zy        -0.325438D-01     -0.482249D-02     -0.536574D-02
   zz         0.143017D+02      0.211929D+01      0.235803D+01

 First dipole hyperpolarizability, Beta (input orientation).
 ||, _|_  parallel and perpendicular components, (z) with respect to z axis,
 vector components x,y,z.  Values do not include the 1/n! factor of 1/2.
 (esu units = statvolt**-1 cm**4 , SI units = C**3 m**3 J**-2)
 Beta(0;0,0):
               (au)            (10**-30 esu)      (10**-50 SI)
   || (z)    -0.249628D-02     -0.215659D-04     -0.800396D-05
   _|_(z)    -0.832092D-03     -0.718863D-05     -0.266799D-05
   x          0.231466D-03      0.199969D-05      0.742165D-06
   y          0.288015D-03      0.248823D-05      0.923481D-06
   z         -0.124814D-01     -0.107829D-03     -0.400198D-04
   ||         0.249737D-02      0.215753D-04      0.800747D-05
   xxx        0.131685D-03      0.113765D-05      0.422229D-06
   xxy        0.761816D-02      0.658149D-04      0.244266D-04
   yxy       -0.468933D-04     -0.405122D-06     -0.150357D-06
   yyy       -0.751860D-02     -0.649549D-04     -0.241074D-04
   xxz       -0.297655D-02     -0.257151D-04     -0.954391D-05
   yxz       -0.215686D-03     -0.186336D-05     -0.691568D-06
   yyz       -0.205878D-02     -0.177863D-04     -0.660121D-05
   zxz        0.000000D+00      0.000000D+00      0.000000D+00
   zyz        0.000000D+00      0.000000D+00      0.000000D+00
   zzz        0.874879D-03      0.755827D-05      0.280518D-05

 ----------------------------------------------------------------------

 Dipole orientation:
     6          3.86521941          7.31690942         -0.02702012
     6          6.48211098          7.31711062         -0.00839750
     6          7.79046386          5.05115361          0.01875255
     6          6.48205158          2.78476779          0.02713927
     6          3.86541806          2.78456629          0.00845945
     6          2.55693604          5.05074746         -0.01857041
     1          2.85246827          9.07112201         -0.04797639
     1          7.49479507          9.07147897         -0.01474112
     1          9.81609146          5.05117936          0.03332636
     1          7.49500656          1.03067369          0.04820736
     1          2.85253446          1.03031165          0.01490282
     1          0.53130938          5.05048263         -0.03301542

 Electric dipole moment (dipole orientation):
 (Debye = 10**-18 statcoulomb cm , SI units = C m)
                  (au)            (Debye)         (10**-30 SI)
   Tot        0.529784D-04      0.134658D-03      0.449169D-03
   x          0.000000D+00      0.000000D+00      0.000000D+00
   y          0.000000D+00      0.000000D+00      0.000000D+00
   z          0.529784D-04      0.134658D-03      0.449169D-03

 Dipole polarizability, Alpha (dipole orientation).
 (esu units = cm**3 , SI units = C**2 m**2 J**-1)
 Alpha(0;0):
               (au)            (10**-24 esu)      (10**-40 SI)
   iso        0.480316D+02      0.711755D+01      0.791934D+01
   aniso      0.505949D+02      0.749739D+01      0.834197D+01
   xx         0.648940D+02      0.961630D+01      0.106996D+02
   yx         0.293706D-02      0.435228D-03      0.484256D-03
   yy         0.648934D+02      0.961621D+01      0.106995D+02
   zx         0.361252D+00      0.535320D-01      0.595624D-01
   zy        -0.396096D+00     -0.586954D-01     -0.653075D-01
   zz         0.143074D+02      0.212013D+01      0.235896D+01

 First dipole hyperpolarizability, Beta (dipole orientation).
 ||, _|_  parallel and perpendicular components, (z) with respect to z axis,
 vector components x,y,z.  Values do not include the 1/n! factor of 1/2.
 (esu units = statvolt**-1 cm**4 , SI units = C**3 m**3 J**-2)
 Beta(0;0,0):
               (au)            (10**-30 esu)      (10**-50 SI)
   || (z)     0.249690D-02      0.215713D-04      0.800597D-05
   _|_(z)     0.832301D-03      0.719043D-05      0.266866D-05
   x          0.138271D-03      0.119456D-05      0.443348D-06
   y         -0.198310D-03     -0.171324D-05     -0.635854D-06
   z          0.124845D-01      0.107856D-03      0.400298D-04
   ||         0.249737D-02      0.215753D-04      0.800747D-05
   xxx        0.643984D-04      0.556352D-06      0.206484D-06
   xxy       -0.759293D-02     -0.655970D-04     -0.243457D-04
   yxy       -0.655639D-04     -0.566421D-06     -0.210222D-06
   yyy        0.756240D-02      0.653332D-04      0.242478D-04
   xxz        0.303165D-02      0.261911D-04      0.972056D-05
   yxz       -0.271803D-03     -0.234817D-05     -0.871499D-06
   yyz        0.200395D-02      0.173125D-04      0.642538D-05
   zxz        0.472560D-04      0.408255D-06      0.151520D-06
   zyz       -0.355735D-04     -0.307327D-06     -0.114061D-06
   zzz       -0.874093D-03     -0.755148D-05     -0.280266D-05

 ----------------------------------------------------------------------
 1\1\GINC-USER-HP-Z2-G9-WS\Freq\RHF\3-21G\C6H6\USER\09-Jun-2025\0\\#P G
 eom=AllCheck Guess=TCheck SCRF=Check GenChk RHF/3-21G Freq\\optimisati
 on\\0,1\C,2.0453261449,-3.8719993624,0.0017437939\C,3.4301605054,-3.87
 2072159,0.0022272487\C,4.122566837,-2.672925638,0.0016463611\C,3.43020
 5131,-1.473586413,0.0006578442\C,2.0455070914,-1.4735136796,0.00020568
 04\C,1.3530329048,-2.6727783575,0.0007216005\H,1.509358366,-4.80033003
 02,0.0021610633\H,3.9660347578,-4.8004584394,0.002913392\H,5.194510501
 7,-2.6729126001,0.0019370423\H,3.9662812177,-0.5453180193,0.000181762\
 H,1.5095276628,-0.5451871863,-0.0005344656\H,0.2810902395,-2.672664395
 2,0.0003636772\\Version=EM64L-G16RevB.01\State=1-A\HF=-229.4194451\RMS
 D=3.567e-10\RMSF=1.493e-04\ZeroPoint=0.1088017\Thermal=0.1127967\Dipol
 e=0.0000004,0.0000004,-0.000053\DipoleDeriv=-0.0470393,0.1069899,-0.00
 00323,0.1070298,0.076447,-0.0001204,-0.0000288,-0.0001317,-0.1556967,-
 0.0470572,-0.1069826,0.0001006,-0.1070145,0.0764763,-0.0001746,0.00007
 8,-0.000121,-0.1556962,0.1382526,-0.0000454,0.0000863,-0.0000168,-0.10
 88393,-0.0000318,0.0000789,-0.0000355,-0.1556974,-0.0470747,0.1070064,
 -0.000038,0.1069739,0.0764817,-0.0001279,-0.0000394,-0.0001554,-0.1556
 967,-0.0470919,-0.1069988,0.0000982,-0.1069589,0.0765117,-0.0001693,0.
 0000949,-0.0001534,-0.1556964,0.1382517,0.0000312,0.0001124,-0.0000129
 ,-0.1088389,-0.0000313,0.0000959,-0.0000365,-0.1556971,0.0314391,-0.07
 99263,0.0000079,-0.0799424,-0.0608535,0.0001131,0.0000029,0.0001171,0.
 1556965,0.0314565,0.0799176,-0.0000905,0.0799327,-0.0608686,0.000165,-
 0.0000688,0.0001243,0.1556971,-0.1070049,0.0000104,-0.0000772,-0.00000
 61,0.0775916,0.0000515,-0.0000675,0.0000542,0.1556968,0.0314275,-0.079
 9498,0.0000143,-0.0799323,-0.0608422,0.0001151,0.0000217,0.000133,0.15
 56964,0.0314452,0.0799405,-0.0000911,0.079923,-0.0608577,0.0001613,-0.
 0000914,0.0001547,0.155697,-0.1070045,0.0000069,-0.0000908,0.0000245,0
 .0775917,0.0000493,-0.0000765,0.0000503,0.1556969\Polar=64.8965999,-0.
 000098,64.896488,0.0164479,-0.0325438,14.3016984\PolarDeriv=0.6618761,
 0.8454945,-2.2162134,0.0002966,0.0033779,0.1735255,-2.2023952,-0.46025
 75,-0.5100473,-0.0017684,-0.00211,0.3012758,0.0028185,0.0006911,-0.004
 896,-1.7500348,-3.035403,0.0020695,-0.6619236,0.8461081,2.2161266,-0.0
 009971,-0.0008666,-0.1734944,-2.2023489,0.4604231,-0.5100573,-0.000291
 6,-0.0006335,0.3012954,0.0007005,0.0014706,-0.001213,1.749727,-3.03546
 03,0.0066423,1.5354856,0.0003916,1.5907147,-0.0003195,-0.0012332,-0.34
 76754,0.003862,-1.9269687,0.0058495,0.0038441,-0.0005416,-0.0003671,-0
 .001653,0.0036709,0.0000698,3.5037176,0.0020272,0.0014834,-0.6517759,-
 0.8466516,2.2236192,0.0002727,-0.0023572,-0.1741841,2.1977439,0.461600
 8,0.504597,0.0015302,0.0019048,-0.3008963,-0.0026026,-0.0001784,0.0052
 225,1.7539538,3.0331415,-0.0017806,0.6518045,-0.8472586,-2.2235382,0.0
 009352,-0.0000708,0.1741485,2.1976955,-0.4617698,0.504574,-0.0000017,0
 .000656,-0.3009166,-0.0001101,-0.0021539,0.0023417,-1.7536512,3.033190
 1,-0.0051117,-1.5354988,0.0007775,-1.5907132,0.0004543,0.0011855,0.347
 6766,0.0043045,1.926968,0.0061789,-0.003277,0.0012175,-0.0003954,0.001
 5168,-0.0035711,-0.0006257,-3.5037193,0.0024948,-0.0025118,-2.5327533,
 -2.887821,-2.8372083,0.0013728,0.0012077,-0.2173759,-1.7631601,-3.4864
 5,-7.5384,0.001259,0.002566,-0.3764318,0.0008477,0.0012028,0.0021437,-
 0.8291901,-1.4355185,0.0015764,2.5320051,-2.8874482,2.8370315,0.002132
 8,-0.0020139,0.2173412,-1.7627216,3.4861687,-7.5394083,-0.002001,0.004
 4174,-0.3764595,0.0011184,-0.0018412,0.0031357,0.8290477,-1.4356252,0.
 0020408,10.5239448,0.000036,0.21645,0.0024016,0.0001379,0.4346905,-0.0
 000167,1.5150652,0.0003516,0.0000874,0.0004215,-0.0000312,0.0019369,0.
 0000735,0.0000124,1.6578008,-0.0003143,0.0010816,2.533954,2.8879248,2.
 8374584,-0.001491,-0.0013,0.2173552,1.7633905,3.4869241,7.5373275,-0.0
 013736,-0.0028137,0.3764444,-0.0009476,-0.0014211,-0.0025577,0.8287653
 ,1.435764,-0.0018374,-2.5331923,2.8875476,-2.8372754,-0.0022379,0.0020
 731,-0.2173172,1.7629483,-3.4866439,7.5383718,0.0020723,-0.0046021,0.3
 764735,-0.0012846,0.002117,-0.0036522,-0.8286208,1.4358778,-0.0024587,
 -10.5239262,0.0008993,-0.2164518,-0.0028204,-0.0001403,-0.4346904,0.00
 06979,-1.5150599,0.0006625,-0.0000796,-0.0004823,0.0000089,-0.0023409,
 -0.0000602,0.0000189,-1.657796,-0.0001741,-0.0011937\HyperPolar=0.0001
 317,0.0076182,-0.0000469,-0.0075186,-0.0029766,-0.0002157,-0.0020588,-
 0.0000076,-0.0000035,0.0008749\Quadrupole=2.3585306,2.358483,-4.717013
 5,-0.0000319,0.0020816,-0.0044513\PG=C01 [X(C6H6)]\NImag=0\\0.75368709
 ,0.05507177,0.81766210,0.00015814,-0.00038782,0.18940348,-0.34710852,-
 0.04469951,-0.00006123,0.75367808,0.04471899,-0.16576678,0.00006028,-0
 .05505264,0.81768762,-0.00011347,0.00003030,-0.09257359,0.00020687,-0.
 00040488,0.18940290,-0.03300317,-0.04092971,0.00001194,-0.21120329,-0.
 12340549,0.00004444,0.84935934,-0.11028007,0.05431863,-0.00006138,-0.0
 3398379,-0.30205184,0.00012509,0.00018678,0.72199445,0.00005471,-0.000
 03864,0.01456852,-0.00000978,0.00010061,-0.09255522,0.00018992,-0.0003
 4690,0.18940352,-0.08346432,0.04660345,-0.00005461,0.09796402,0.034666
 75,0.00000327,-0.21109177,0.03380303,-0.00005627,0.75399956,0.04660350
 ,-0.02966375,0.00002746,-0.03468372,-0.07664741,0.00004633,0.12322177,
 -0.30177013,0.00017372,0.05525204,0.81734873,-0.00005270,0.00002630,-0
 .01181081,0.00004781,0.00007162,0.01456833,-0.00011628,0.00014672,-0.0
 9257490,0.00013613,-0.00039903,0.18940359,0.09796400,-0.03468432,0.000
 05037,-0.08347362,-0.04659825,0.00000668,-0.03298603,0.11028830,-0.000
 08685,-0.34748142,-0.04470092,-0.00005127,0.75398944,0.03466617,-0.076
 64744,0.00006937,-0.04659835,-0.02965393,-0.00000307,0.04093766,0.0543
 0357,-0.00001347,0.04472048,-0.16576457,0.00006313,-0.05523134,0.81737
 477,0.00000488,0.00004757,0.01456832,0.00000576,-0.00000376,-0.0118108
 4,-0.00004094,0.00001060,0.01456809,-0.00011149,0.00003263,-0.09255574
 ,0.00021741,-0.00040863,0.18940310,-0.21118347,0.12338592,-0.00012191,
 -0.03298659,0.04093741,-0.00004154,-0.00275379,-0.00000531,0.00000227,
 -0.03300269,-0.04093001,0.00001037,-0.21111181,-0.12324177,0.00003710,
 0.84936187,0.03396433,-0.30204985,0.00015008,0.11028804,0.05430404,0.0
 0001144,-0.00000526,-0.11037393,0.00006413,-0.11028037,0.05431815,-0.0
 0006253,-0.03382294,-0.30177285,0.00011733,-0.00017469,0.72199475,-0.0
 0006368,0.00017893,-0.09255689,-0.00008667,-0.00001080,0.01456806,0.00
 000225,0.00006304,-0.01181092,0.00005604,-0.00003930,0.01456853,-0.000
 02065,0.00008901,-0.09257310,0.00022549,-0.00034069,0.18940326,-0.1497
 1786,-0.13037368,0.00005000,-0.01227034,-0.03603443,0.00001660,-0.0065
 7938,0.00154724,-0.00000618,-0.00059101,0.00098307,-0.00000057,-0.0016
 3228,0.00381758,-0.00000611,0.01462693,0.01940287,-0.00000972,0.154337
 79,-0.13037235,-0.30026107,0.00011609,0.00387673,0.00502442,0.00000252
 ,0.00096288,0.00146413,0.00000507,0.00098271,0.00054325,-0.00000053,0.
 00440198,-0.00348065,0.00000940,-0.02050944,-0.02187145,0.00001138,0.1
 4145015,0.31767023,0.00005141,0.00011594,-0.05174577,-0.00001019,-0.00
 001216,0.00673202,-0.00000558,0.00000577,0.00873148,-0.00000043,-0.000
 00060,-0.00078952,-0.00000653,0.00000907,0.00873715,0.00001598,0.00002
 540,0.00673579,-0.00004951,-0.00013517,0.03374034,-0.01226686,0.036035
 95,-0.00002736,-0.14969078,0.13035662,-0.00010475,0.01462709,-0.019406
 48,0.00001437,-0.00163302,-0.00381774,-0.00000035,-0.00059119,-0.00098
 296,0.00000073,-0.00657949,-0.00154648,-0.00000387,0.00103373,-0.00055
 673,0.00000219,0.15430794,-0.00387491,0.00502111,-0.00000063,0.1303548
 1,-0.30028490,0.00018366,0.02050594,-0.02187177,0.00002296,-0.00440218
 ,-0.00347974,0.00000613,-0.00098255,0.00054340,-0.00000113,-0.00096210
 ,0.00146439,0.00000368,0.00055674,0.00101466,-0.00000342,-0.14143162,0
 .31769653,-0.00000688,0.00001380,0.00673195,-0.00010068,0.00017915,-0.
 05174665,-0.00001035,0.00001329,0.00673607,-0.00000022,0.00000741,0.00
 873721,0.00000143,-0.00000107,-0.00078954,-0.00000496,0.00000298,0.008
 73150,0.00000184,-0.00000426,-0.00532881,0.00011795,-0.00020750,0.0337
 4106,0.00054068,-0.00314747,-0.00000004,-0.01322583,0.00442857,-0.0000
 0857,-0.37552745,-0.00000412,-0.00008857,-0.01322413,-0.00442737,-0.00
 000280,0.00054015,0.00314757,-0.00000409,0.00111087,-0.00000008,0.0000
 0059,-0.00074614,0.00011955,-0.00000034,0.00101940,-0.00054849,0.00000
 201,0.39933233,-0.00256306,-0.00565350,0.00000865,-0.03548368,0.005981
 59,-0.00000968,-0.00000251,-0.07444783,0.00001509,0.03548357,0.0059780
 2,0.00001068,0.00256316,-0.00565537,0.00001010,-0.00000053,-0.00115864
 ,0.00000024,-0.00153023,0.00006847,-0.00000070,0.00056518,0.00102905,-
 0.00000398,0.00000279,0.07267177,-0.00000131,0.00000833,0.00873717,0.0
 0001787,0.00000174,0.00673594,-0.00008776,0.00001456,-0.05174631,-0.00
 002897,-0.00000053,0.00673189,-0.00000435,0.00001041,0.00873142,0.0000
 0061,0.00000020,-0.00078952,0.00000082,-0.00000006,-0.00006507,0.00000
 136,-0.00000385,-0.00533358,0.00010034,-0.00002560,0.03374093,-0.00059
 133,0.00098249,-0.00000050,-0.00163285,0.00381807,-0.00000544,0.014625
 16,0.01940129,-0.00001053,-0.14974741,-0.13038922,0.00005941,-0.012270
 72,-0.03603516,0.00001826,-0.00657747,0.00154754,-0.00000577,0.0000435
 0,-0.00007904,0.00000047,0.00047565,0.00082480,-0.00000038,0.00101945,
 -0.00056494,0.00000218,0.15436832,0.00098293,0.00054357,-0.00000062,0.
 00440247,-0.00348245,0.00000943,-0.02050993,-0.02187150,0.00001319,-0.
 13039046,-0.30023096,0.00012946,0.00387706,0.00502662,0.00000255,0.000
 96315,0.00146459,0.00000546,-0.00007895,-0.00004770,-0.00000093,-0.000
 82499,-0.00115335,0.00000048,0.00054847,0.00102897,-0.00000415,0.14146
 753,0.31763915,0.00000051,-0.00000113,-0.00078952,-0.00000694,0.000008
 19,0.00873144,0.00001574,0.00002571,0.00673199,0.00006270,0.00013074,-
 0.05174585,-0.00001131,-0.00001112,0.00673581,-0.00000556,0.00000640,0
 .00873718,0.00000057,-0.00000089,-0.00134899,0.00000074,0.00000099,-0.
 00006509,0.00000131,-0.00000433,-0.00532876,-0.00005982,-0.00015033,0.
 03374043,-0.00163360,-0.00381823,-0.00000100,-0.00059151,-0.00098238,0
 .00000069,-0.00657758,-0.00154677,-0.00000376,-0.01226741,0.03603685,-
 0.00002893,-0.14971920,0.13037087,-0.00011209,0.01462534,-0.01940484,0
 .00001489,0.00047565,-0.00082495,0.00000075,0.00004352,0.00007903,0.00
 000042,-0.00074603,0.00153029,-0.00000124,0.00103387,-0.00055686,0.000
 00235,0.15433750,-0.00440266,-0.00348151,0.00000595,-0.00098275,0.0005
 4372,-0.00000117,-0.00096235,0.00146485,0.00000405,-0.00387517,0.00502
 320,-0.00000032,0.13037187,-0.30025466,0.00019483,0.02050632,-0.021871
 57,0.00002466,0.00082484,-0.00115334,0.00000101,0.00007894,-0.00004771
 ,-0.00000077,-0.00011949,0.00006835,-0.00000013,0.00055686,0.00101456,
 -0.00000373,-0.14144796,0.31766514,-0.00000077,0.00000656,0.00873149,0
 .00000079,-0.00000111,-0.00078953,-0.00000425,0.00000380,0.00873721,-0
 .00000486,0.00001344,0.00673580,-0.00011080,0.00019415,-0.05174689,-0.
 00001016,0.00001179,0.00673219,-0.00000034,0.00000042,-0.00006508,0.00
 000036,-0.00000072,-0.00134906,-0.00000018,0.00000049,-0.00006508,0.00
 000154,-0.00000456,-0.00533358,0.00012620,-0.00022035,0.03374133,-0.01
 322264,-0.00442666,-0.00000381,0.00054123,0.00314678,-0.00000478,0.001
 11087,-0.00000012,0.00000066,0.00053960,-0.00314824,-0.00000081,-0.013
 22733,0.00442926,-0.00000943,-0.37552972,0.00003188,-0.00010890,0.0010
 1939,0.00054850,0.00000177,-0.00074599,-0.00011947,-0.00000018,-0.0000
 9331,-0.00000004,0.00000045,-0.00074618,0.00011958,-0.00000029,0.00101
 946,-0.00054846,0.00000248,0.39933461,0.03548535,0.00597849,0.00001258
 ,0.00256239,-0.00565408,0.00001003,0.00000023,-0.00115864,0.00000019,-
 0.00256385,-0.00565480,0.00000837,-0.03548205,0.00598112,-0.00001149,0
 .00003105,-0.07444762,0.00001440,-0.00056520,0.00102905,-0.00000422,0.
 00153031,0.00006833,0.00000045,0.00000006,0.00008911,-0.00000093,-0.00
 153021,0.00006850,-0.00000052,0.00056494,0.00102897,-0.00000391,-0.000
 03301,0.07267158,-0.00003085,-0.00000014,0.00673566,-0.00000361,0.0000
 1110,0.00873714,0.00000089,-0.00000031,-0.00078953,-0.00000128,0.00000
 773,0.00873147,0.00001587,0.00000222,0.00673220,-0.00010769,0.00001346
 ,-0.05174609,0.00000260,-0.00000396,-0.00533356,-0.00000138,-0.0000001
 7,-0.00006507,0.00000033,-0.00000096,-0.00134901,0.00000058,0.,-0.0000
 6507,0.00000172,-0.00000403,-0.00532880,0.00012283,-0.00002497,0.03374
 066\\-0.00021421,-0.00026913,-0.00000214,0.00021863,-0.00026506,0.0000
 1461,0.00034023,-0.00006157,-0.00000154,0.00011891,0.00032418,0.000004
 67,-0.00012407,0.00031911,-0.00000156,-0.00034051,-0.00004882,-0.00000
 670,0.00006550,0.00010549,0.00000073,-0.00006448,0.00010462,-0.0000064
 2,-0.00012264,0.00000432,-0.00000198,-0.00005782,-0.00010971,-0.000003
 14,0.00005707,-0.00010817,0.00000257,0.00012339,0.00000474,0.00000089\
 \\@


 ... A MOLECULAR SYSTEM ... (PASSES) ... FROM ONE STATE OF EQUILIBRIUM 
 TO ANOTHER ... BY MEANS OF ALL POSSIBLE INTERMEDIATE PATHS, 
 BUT THE PATH MOST ECONOMICAL OF ENERGY WILL BE THE MORE OFTEN TRAVELED.

                      -- HENRY EYRING, 1945
 Job cpu time:       0 days  0 hours  1 minutes 41.2 seconds.
 Elapsed time:       0 days  0 hours  0 minutes  5.2 seconds.
 File lengths (MBytes):  RWF=     12 Int=      0 D2E=      0 Chk=      2 Scr=      1
 Normal termination of Gaussian 16 at Mon Jun  9 11:32:03 2025.
