 Entering Gaussian System, Link 0=g16
 Initial command:
 /home/user/softwares/g16/g16/l1.exe "/home/user/scratch/Gau-357103.inp" -scrdir="/home/user/scratch/"
 Entering Link 1 = /home/user/softwares/g16/g16/l1.exe PID=    357105.
  
 Copyright (c) 1988-2017, Gaussian, Inc.  All Rights Reserved.
  
 This is part of the Gaussian(R) 16 program.  It is based on
 the Gaussian(R) 09 system (copyright 2009, Gaussian, Inc.),
 the Gaussian(R) 03 system (copyright 2003, Gaussian, Inc.),
 the Gaussian(R) 98 system (copyright 1998, Gaussian, Inc.),
 the Gaussian(R) 94 system (copyright 1995, Gaussian, Inc.),
 the Gaussian 92(TM) system (copyright 1992, Gaussian, Inc.),
 the Gaussian 90(TM) system (copyright 1990, Gaussian, Inc.),
 the Gaussian 88(TM) system (copyright 1988, Gaussian, Inc.),
 the Gaussian 86(TM) system (copyright 1986, Carnegie Mellon
 University), and the Gaussian 82(TM) system (copyright 1983,
 Carnegie Mellon University). Gaussian is a federally registered
 trademark of Gaussian, Inc.
  
 This software contains proprietary and confidential information,
 including trade secrets, belonging to Gaussian, Inc.
  
 This software is provided under written license and may be
 used, copied, transmitted, or stored only in accord with that
 written license.
  
 The following legend is applicable only to US Government
 contracts under FAR:
  
                    RESTRICTED RIGHTS LEGEND
  
 Use, reproduction and disclosure by the US Government is
 subject to restrictions as set forth in subparagraphs (a)
 and (c) of the Commercial Computer Software - Restricted
 Rights clause in FAR 52.227-19.
  
 Gaussian, Inc.
 340 Quinnipiac St., Bldg. 40, Wallingford CT 06492
  
  
 ---------------------------------------------------------------
 Warning -- This program may not be used in any manner that
 competes with the business of Gaussian, Inc. or will provide
 assistance to any competitor of Gaussian, Inc.  The licensee
 of this program is prohibited from giving any competitor of
 Gaussian, Inc. access to this program.  By using this program,
 the user acknowledges that Gaussian, Inc. is engaged in the
 business of creating and licensing software in the field of
 computational chemistry and represents and warrants to the
 licensee that it is not a competitor of Gaussian, Inc. and that
 it will not use this program in any manner prohibited above.
 ---------------------------------------------------------------
  

 Cite this work as:
 Gaussian 16, Revision B.01,
 M. J. Frisch, G. W. Trucks, H. B. Schlegel, G. E. Scuseria, 
 M. A. Robb, J. R. Cheeseman, G. Scalmani, V. Barone, 
 G. A. Petersson, H. Nakatsuji, X. Li, M. Caricato, A. V. Marenich, 
 J. Bloino, B. G. Janesko, R. Gomperts, B. Mennucci, H. P. Hratchian, 
 J. V. Ortiz, A. F. Izmaylov, J. L. Sonnenberg, D. Williams-Young, 
 F. Ding, F. Lipparini, F. Egidi, J. Goings, B. Peng, A. Petrone, 
 T. Henderson, D. Ranasinghe, V. G. Zakrzewski, J. Gao, N. Rega, 
 G. Zheng, W. Liang, M. Hada, M. Ehara, K. Toyota, R. Fukuda, 
 J. Hasegawa, M. Ishida, T. Nakajima, Y. Honda, O. Kitao, H. Nakai, 
 T. Vreven, K. Throssell, J. A. Montgomery, Jr., J. E. Peralta, 
 F. Ogliaro, M. J. Bearpark, J. J. Heyd, E. N. Brothers, K. N. Kudin, 
 V. N. Staroverov, T. A. Keith, R. Kobayashi, J. Normand, 
 K. Raghavachari, A. P. Rendell, J. C. Burant, S. S. Iyengar, 
 J. Tomasi, M. Cossi, J. M. Millam, M. Klene, C. Adamo, R. Cammi, 
 J. W. Ochterski, R. L. Martin, K. Morokuma, O. Farkas, 
 J. B. Foresman, and D. J. Fox, Gaussian, Inc., Wallingford CT, 2016.
 
 ******************************************
 Gaussian 16:  EM64L-G16RevB.01 20-Dec-2017
                10-Jun-2025 
 ******************************************
 %nproc=20
 Will use up to   20 processors via shared memory.
 %mem=15GB
 %chk=cycloheptatrienyl_cation_isomer.chk
 ---------------------------------------------
 #p hf/3-21g opt freq gfinput gfprint pop=full
 ---------------------------------------------
 1/18=20,19=15,38=1/1,3;
 2/9=110,12=2,17=6,18=5,40=1/2;
 3/5=5,11=9,24=110,25=1,30=1,71=1/1,2,3;
 4//1;
 5/5=2,38=5/2;
 6/7=3,28=1/1;
 7//1,2,3,16;
 1/18=20,19=15/3(2);
 2/9=110/2;
 99//99;
 2/9=110/2;
 3/5=5,11=9,25=1,30=1,71=1/1,2,3;
 4/5=5,16=3,69=1/1;
 5/5=2,38=5/2;
 7//1,2,3,16;
 1/18=20,19=15/3(-5);
 2/9=110/2;
 6/7=3,19=2,28=1/1;
 99/9=1/99;
 Leave Link    1 at Tue Jun 10 01:44:46 2025, MaxMem=  2013265920 cpu:               1.3 elap:               0.1
 (Enter /home/user/softwares/g16/g16/l101.exe)
 ------------
 optimisation
 ------------
 Symbolic Z-matrix:
 Charge =  1 Multiplicity = 1
 C                    -0.98947   1.15871  -0.41618 
 C                     0.41023   1.15536  -0.28644 
 C                     1.30428   2.18987   0.14495 
 C                    -1.93501   2.22062  -0.22405 
 C                     0.92095   3.32034   0.76313 
 C                    -1.57339   3.59969   0.32192 
 C                    -0.47357   3.37754   1.30893 
 H                    -1.41576   0.22562  -0.72034 
 H                     0.88532   0.23884  -0.56782 
 H                     2.34938   2.05321  -0.03937 
 H                     1.58934   4.14972   0.86456 
 H                    -0.67463   3.2383    2.3506 
 C                    -3.22992   1.98447  -0.54655 
 H                    -3.5197    1.02917  -0.9317 
 H                    -3.96255   2.75331  -0.41603 
 H                    -1.24736   4.2361   -0.47405 
 H                    -2.41516   4.04996   0.80522 
 
 ITRead=  0  0  0  0  0  0  0  0  0  0  0  0  0  0  0  0  0
 MicOpt= -1 -1 -1 -1 -1 -1 -1 -1 -1 -1 -1 -1 -1 -1 -1 -1 -1
 NAtoms=     17 NQM=       17 NQMF=       0 NMMI=      0 NMMIF=      0
                NMic=       0 NMicF=      0.
                    Isotopes and Nuclear Properties:
 (Nuclear quadrupole moments (NQMom) in fm**2, nuclear magnetic moments (NMagM)
  in nuclear magnetons)

  Atom         1           2           3           4           5           6           7           8           9          10
 IAtWgt=          12          12          12          12          12          12          12           1           1           1
 AtmWgt=  12.0000000  12.0000000  12.0000000  12.0000000  12.0000000  12.0000000  12.0000000   1.0078250   1.0078250   1.0078250
 NucSpn=           0           0           0           0           0           0           0           1           1           1
 AtZEff=  -0.0000000  -0.0000000  -0.0000000  -0.0000000  -0.0000000  -0.0000000  -0.0000000  -0.0000000  -0.0000000  -0.0000000
 NQMom=    0.0000000   0.0000000   0.0000000   0.0000000   0.0000000   0.0000000   0.0000000   0.0000000   0.0000000   0.0000000
 NMagM=    0.0000000   0.0000000   0.0000000   0.0000000   0.0000000   0.0000000   0.0000000   2.7928460   2.7928460   2.7928460
 AtZNuc=   6.0000000   6.0000000   6.0000000   6.0000000   6.0000000   6.0000000   6.0000000   1.0000000   1.0000000   1.0000000

  Atom        11          12          13          14          15          16          17
 IAtWgt=           1           1          12           1           1           1           1
 AtmWgt=   1.0078250   1.0078250  12.0000000   1.0078250   1.0078250   1.0078250   1.0078250
 NucSpn=           1           1           0           1           1           1           1
 AtZEff=  -0.0000000  -0.0000000  -0.0000000  -0.0000000  -0.0000000  -0.0000000  -0.0000000
 NQMom=    0.0000000   0.0000000   0.0000000   0.0000000   0.0000000   0.0000000   0.0000000
 NMagM=    2.7928460   2.7928460   0.0000000   2.7928460   2.7928460   2.7928460   2.7928460
 AtZNuc=   1.0000000   1.0000000   6.0000000   1.0000000   1.0000000   1.0000000   1.0000000
 Leave Link  101 at Tue Jun 10 01:44:47 2025, MaxMem=  2013265920 cpu:              16.1 elap:               0.8
 (Enter /home/user/softwares/g16/g16/l103.exe)

 GradGradGradGradGradGradGradGradGradGradGradGradGradGradGradGradGradGrad
 Berny optimization.
 Initialization pass.
                           ----------------------------
                           !    Initial Parameters    !
                           ! (Angstroms and Degrees)  !
 --------------------------                            --------------------------
 ! Name  Definition              Value          Derivative Info.                !
 --------------------------------------------------------------------------------
 ! R1    R(1,2)                  1.4057         estimate D2E/DX2                !
 ! R2    R(1,4)                  1.4348         estimate D2E/DX2                !
 ! R3    R(1,8)                  1.07           estimate D2E/DX2                !
 ! R4    R(2,3)                  1.4337         estimate D2E/DX2                !
 ! R5    R(2,9)                  1.07           estimate D2E/DX2                !
 ! R6    R(3,5)                  1.3443         estimate D2E/DX2                !
 ! R7    R(3,10)                 1.07           estimate D2E/DX2                !
 ! R8    R(4,6)                  1.5267         estimate D2E/DX2                !
 ! R9    R(4,13)                 1.3552         estimate D2E/DX2                !
 ! R10   R(5,7)                  1.4986         estimate D2E/DX2                !
 ! R11   R(5,11)                 1.07           estimate D2E/DX2                !
 ! R12   R(6,7)                  1.4944         estimate D2E/DX2                !
 ! R13   R(6,16)                 1.07           estimate D2E/DX2                !
 ! R14   R(6,17)                 1.07           estimate D2E/DX2                !
 ! R15   R(7,12)                 1.07           estimate D2E/DX2                !
 ! R16   R(13,14)                1.07           estimate D2E/DX2                !
 ! R17   R(13,15)                1.07           estimate D2E/DX2                !
 ! A1    A(2,1,4)              130.2108         estimate D2E/DX2                !
 ! A2    A(2,1,8)              114.8893         estimate D2E/DX2                !
 ! A3    A(4,1,8)              114.8929         estimate D2E/DX2                !
 ! A4    A(1,2,3)              130.3129         estimate D2E/DX2                !
 ! A5    A(1,2,9)              114.8269         estimate D2E/DX2                !
 ! A6    A(3,2,9)              114.8537         estimate D2E/DX2                !
 ! A7    A(2,3,5)              124.5647         estimate D2E/DX2                !
 ! A8    A(2,3,10)             117.7152         estimate D2E/DX2                !
 ! A9    A(5,3,10)             117.7201         estimate D2E/DX2                !
 ! A10   A(1,4,6)              124.08           estimate D2E/DX2                !
 ! A11   A(1,4,13)             117.9605         estimate D2E/DX2                !
 ! A12   A(6,4,13)             117.9596         estimate D2E/DX2                !
 ! A13   A(3,5,7)              117.7058         estimate D2E/DX2                !
 ! A14   A(3,5,11)             121.1518         estimate D2E/DX2                !
 ! A15   A(7,5,11)             121.1421         estimate D2E/DX2                !
 ! A16   A(4,6,7)              106.037          estimate D2E/DX2                !
 ! A17   A(4,6,16)             110.0851         estimate D2E/DX2                !
 ! A18   A(4,6,17)             110.8128         estimate D2E/DX2                !
 ! A19   A(7,6,16)             110.8245         estimate D2E/DX2                !
 ! A20   A(7,6,17)             110.0734         estimate D2E/DX2                !
 ! A21   A(16,6,17)            108.9908         estimate D2E/DX2                !
 ! A22   A(5,7,6)              116.7421         estimate D2E/DX2                !
 ! A23   A(5,7,12)             121.6311         estimate D2E/DX2                !
 ! A24   A(6,7,12)             121.6045         estimate D2E/DX2                !
 ! A25   A(4,13,14)            120.0            estimate D2E/DX2                !
 ! A26   A(4,13,15)            120.0            estimate D2E/DX2                !
 ! A27   A(14,13,15)           120.0            estimate D2E/DX2                !
 ! D1    D(4,1,2,3)              3.7792         estimate D2E/DX2                !
 ! D2    D(4,1,2,9)           -175.2367         estimate D2E/DX2                !
 ! D3    D(8,1,2,3)           -177.2457         estimate D2E/DX2                !
 ! D4    D(8,1,2,9)              3.7384         estimate D2E/DX2                !
 ! D5    D(2,1,4,6)             -6.4773         estimate D2E/DX2                !
 ! D6    D(2,1,4,13)           173.5654         estimate D2E/DX2                !
 ! D7    D(8,1,4,6)            174.5476         estimate D2E/DX2                !
 ! D8    D(8,1,4,13)            -5.4097         estimate D2E/DX2                !
 ! D9    D(1,2,3,5)             13.5125         estimate D2E/DX2                !
 ! D10   D(1,2,3,10)          -166.3893         estimate D2E/DX2                !
 ! D11   D(9,2,3,5)           -167.4719         estimate D2E/DX2                !
 ! D12   D(9,2,3,10)            12.6263         estimate D2E/DX2                !
 ! D13   D(2,3,5,7)             14.1633         estimate D2E/DX2                !
 ! D14   D(2,3,5,11)          -166.0117         estimate D2E/DX2                !
 ! D15   D(10,3,5,7)          -165.9348         estimate D2E/DX2                !
 ! D16   D(10,3,5,11)           13.8901         estimate D2E/DX2                !
 ! D17   D(1,4,6,7)            -33.8111         estimate D2E/DX2                !
 ! D18   D(1,4,6,16)            86.12           estimate D2E/DX2                !
 ! D19   D(1,4,6,17)          -153.2382         estimate D2E/DX2                !
 ! D20   D(13,4,6,7)           146.1462         estimate D2E/DX2                !
 ! D21   D(13,4,6,16)          -93.9226         estimate D2E/DX2                !
 ! D22   D(13,4,6,17)           26.7191         estimate D2E/DX2                !
 ! D23   D(1,4,13,14)           -0.02           estimate D2E/DX2                !
 ! D24   D(1,4,13,15)          179.98           estimate D2E/DX2                !
 ! D25   D(6,4,13,14)         -179.98           estimate D2E/DX2                !
 ! D26   D(6,4,13,15)            0.02           estimate D2E/DX2                !
 ! D27   D(3,5,7,6)            -76.9849         estimate D2E/DX2                !
 ! D28   D(3,5,7,12)           101.3228         estimate D2E/DX2                !
 ! D29   D(11,5,7,6)           103.1901         estimate D2E/DX2                !
 ! D30   D(11,5,7,12)          -78.5022         estimate D2E/DX2                !
 ! D31   D(4,6,7,5)             85.4146         estimate D2E/DX2                !
 ! D32   D(4,6,7,12)           -92.8936         estimate D2E/DX2                !
 ! D33   D(16,6,7,5)           -34.0328         estimate D2E/DX2                !
 ! D34   D(16,6,7,12)          147.6589         estimate D2E/DX2                !
 ! D35   D(17,6,7,5)          -154.6745         estimate D2E/DX2                !
 ! D36   D(17,6,7,12)           27.0173         estimate D2E/DX2                !
 --------------------------------------------------------------------------------
 Trust Radius=3.00D-01 FncErr=1.00D-07 GrdErr=1.00D-07 EigMax=2.50D+02 EigMin=1.00D-04
 Number of steps in this run=     90 maximum allowed number of steps=    102.
 GradGradGradGradGradGradGradGradGradGradGradGradGradGradGradGradGradGrad

 Leave Link  103 at Tue Jun 10 01:44:47 2025, MaxMem=  2013265920 cpu:               0.3 elap:               0.0
 (Enter /home/user/softwares/g16/g16/l202.exe)
                          Input orientation:                          
 ---------------------------------------------------------------------
 Center     Atomic      Atomic             Coordinates (Angstroms)
 Number     Number       Type             X           Y           Z
 ---------------------------------------------------------------------
      1          6           0       -0.989468    1.158707   -0.416176
      2          6           0        0.410229    1.155360   -0.286439
      3          6           0        1.304278    2.189874    0.144952
      4          6           0       -1.935011    2.220615   -0.224052
      5          6           0        0.920949    3.320344    0.763131
      6          6           0       -1.573386    3.599686    0.321923
      7          6           0       -0.473574    3.377542    1.308930
      8          1           0       -1.415765    0.225617   -0.720338
      9          1           0        0.885317    0.238837   -0.567825
     10          1           0        2.349384    2.053211   -0.039373
     11          1           0        1.589337    4.149722    0.864560
     12          1           0       -0.674634    3.238298    2.350604
     13          6           0       -3.229923    1.984465   -0.546550
     14          1           0       -3.519695    1.029168   -0.931699
     15          1           0       -3.962550    2.753310   -0.416029
     16          1           0       -1.247360    4.236103   -0.474055
     17          1           0       -2.415159    4.049960    0.805216
 ---------------------------------------------------------------------
                    Distance matrix (angstroms):
                    1          2          3          4          5
     1  C    0.000000
     2  C    1.405701   0.000000
     3  C    2.576711   1.433750   0.000000
     4  C    1.434787   2.576590   3.260384   0.000000
     5  C    3.116590   2.459590   1.344265   3.215656   0.000000
     6  C    2.616129   3.206176   3.209336   1.526663   2.548412
     7  C    2.857511   2.874788   2.434370   2.413362   1.498620
     8  H    1.070000   2.094503   3.464919   2.120362   4.151896
     9  H    2.093794   1.070000   2.118991   3.464083   3.356843
    10  H    3.477075   2.151162   1.070000   4.291640   2.071247
    11  H    4.151710   3.417792   2.107155   4.162639   1.070000
    12  H    3.475470   3.531226   3.143276   3.041889   2.252263
    13  C    2.391341   3.742430   4.591224   1.355200   4.552974
    14  H    2.585458   3.984544   5.077118   2.105120   5.276481
    15  H    3.373718   4.657406   5.326503   2.105120   5.055740
    16  H    3.088725   3.503395   3.328825   2.144191   2.659098
    17  H    3.447280   4.189658   4.210710   2.153239   3.415220
                    6          7          8          9         10
     6  C    0.000000
     7  C    1.494362   0.000000
     8  H    3.534897   3.865267   0.000000
     9  H    4.258189   3.901315   2.306168   0.000000
    10  H    4.232050   3.397185   4.240302   2.390546   0.000000
    11  H    3.255735   2.247071   5.190486   4.224026   2.406268
    12  H    2.248089   1.070000   4.365342   4.466256   4.032507
    13  C    2.471294   3.602906   2.532769   4.470220   5.602733
    14  H    3.459371   4.451307   2.262055   4.490118   6.024201
    15  H    2.639892   3.941840   3.601104   5.463280   6.361801
    16  H    1.070000   2.124831   4.021568   4.531582   4.229719
    17  H    1.070000   2.115568   4.236945   5.225231   5.234616
                   11         12         13         14         15
    11  H    0.000000
    12  H    2.857374   0.000000
    13  C    5.468531   4.061416   0.000000
    14  H    6.250329   4.873206   1.070000   0.000000
    15  H    5.866287   4.324334   1.070000   1.853294   0.000000
    16  H    3.137865   3.049972   3.000947   3.956940   3.094237
    17  H    4.006178   2.465046   2.599496   3.655414   2.359482
                   16         17
    16  H    0.000000
    17  H    1.742107   0.000000
 Stoichiometry    C8H9(1+)
 Framework group  C1[X(C8H9)]
 Deg. of freedom    45
 Full point group                 C1      NOp   1
 Largest Abelian subgroup         C1      NOp   1
 Largest concise Abelian subgroup C1      NOp   1
                         Standard orientation:                         
 ---------------------------------------------------------------------
 Center     Atomic      Atomic             Coordinates (Angstroms)
 Number     Number       Type             X           Y           Z
 ---------------------------------------------------------------------
      1          6           0        0.494547    1.267465    0.129615
      2          6           0       -0.892390    1.481732    0.049056
      3          6           0       -1.962478    0.555008   -0.178394
      4          6           0        1.259386    0.068874   -0.062776
      5          6           0       -1.841330   -0.781958   -0.108442
      6          6           0        0.645602   -1.312702   -0.275416
      7          6           0       -0.608152   -1.336984    0.537374
      8          1           0        1.072471    2.139059    0.355950
      9          1           0       -1.196763    2.501328    0.161664
     10          1           0       -2.924245    0.955527   -0.422299
     11          1           0       -2.600491   -1.427664   -0.497851
     12          1           0       -0.618487   -1.706945    1.541327
     13          6           0        2.610834    0.169293   -0.054391
     14          1           0        3.075631    1.121837    0.092319
     15          1           0        3.213075   -0.703966   -0.194480
     16          1           0        0.429566   -1.463145   -1.312525
     17          1           0        1.313138   -2.080407    0.056133
 ---------------------------------------------------------------------
 Rotational constants (GHZ):           3.7640850           1.9445688           1.3504645
 Leave Link  202 at Tue Jun 10 01:44:47 2025, MaxMem=  2013265920 cpu:               0.1 elap:               0.0
 (Enter /home/user/softwares/g16/g16/l301.exe)
 Standard basis: 3-21G (6D, 7F)
 Ernie: Thresh=  0.10000D-02 Tol=  0.10000D-05 Strict=F.
 AO basis set in the form of general basis input (Overlap normalization):
      1 0
 S   3 1.00       0.000000000000
      0.1722560000D+03  0.6176690738D-01
      0.2591090000D+02  0.3587940429D+00
      0.5533350000D+01  0.7007130837D+00
 SP   2 1.00       0.000000000000
      0.3664980000D+01 -0.3958951621D+00  0.2364599466D+00
      0.7705450000D+00  0.1215834356D+01  0.8606188057D+00
 SP   1 1.00       0.000000000000
      0.1958570000D+00  0.1000000000D+01  0.1000000000D+01
 ****
      2 0
 S   3 1.00       0.000000000000
      0.1722560000D+03  0.6176690738D-01
      0.2591090000D+02  0.3587940429D+00
      0.5533350000D+01  0.7007130837D+00
 SP   2 1.00       0.000000000000
      0.3664980000D+01 -0.3958951621D+00  0.2364599466D+00
      0.7705450000D+00  0.1215834356D+01  0.8606188057D+00
 SP   1 1.00       0.000000000000
      0.1958570000D+00  0.1000000000D+01  0.1000000000D+01
 ****
      3 0
 S   3 1.00       0.000000000000
      0.1722560000D+03  0.6176690738D-01
      0.2591090000D+02  0.3587940429D+00
      0.5533350000D+01  0.7007130837D+00
 SP   2 1.00       0.000000000000
      0.3664980000D+01 -0.3958951621D+00  0.2364599466D+00
      0.7705450000D+00  0.1215834356D+01  0.8606188057D+00
 SP   1 1.00       0.000000000000
      0.1958570000D+00  0.1000000000D+01  0.1000000000D+01
 ****
      4 0
 S   3 1.00       0.000000000000
      0.1722560000D+03  0.6176690738D-01
      0.2591090000D+02  0.3587940429D+00
      0.5533350000D+01  0.7007130837D+00
 SP   2 1.00       0.000000000000
      0.3664980000D+01 -0.3958951621D+00  0.2364599466D+00
      0.7705450000D+00  0.1215834356D+01  0.8606188057D+00
 SP   1 1.00       0.000000000000
      0.1958570000D+00  0.1000000000D+01  0.1000000000D+01
 ****
      5 0
 S   3 1.00       0.000000000000
      0.1722560000D+03  0.6176690738D-01
      0.2591090000D+02  0.3587940429D+00
      0.5533350000D+01  0.7007130837D+00
 SP   2 1.00       0.000000000000
      0.3664980000D+01 -0.3958951621D+00  0.2364599466D+00
      0.7705450000D+00  0.1215834356D+01  0.8606188057D+00
 SP   1 1.00       0.000000000000
      0.1958570000D+00  0.1000000000D+01  0.1000000000D+01
 ****
      6 0
 S   3 1.00       0.000000000000
      0.1722560000D+03  0.6176690738D-01
      0.2591090000D+02  0.3587940429D+00
      0.5533350000D+01  0.7007130837D+00
 SP   2 1.00       0.000000000000
      0.3664980000D+01 -0.3958951621D+00  0.2364599466D+00
      0.7705450000D+00  0.1215834356D+01  0.8606188057D+00
 SP   1 1.00       0.000000000000
      0.1958570000D+00  0.1000000000D+01  0.1000000000D+01
 ****
      7 0
 S   3 1.00       0.000000000000
      0.1722560000D+03  0.6176690738D-01
      0.2591090000D+02  0.3587940429D+00
      0.5533350000D+01  0.7007130837D+00
 SP   2 1.00       0.000000000000
      0.3664980000D+01 -0.3958951621D+00  0.2364599466D+00
      0.7705450000D+00  0.1215834356D+01  0.8606188057D+00
 SP   1 1.00       0.000000000000
      0.1958570000D+00  0.1000000000D+01  0.1000000000D+01
 ****
      8 0
 S   2 1.00       0.000000000000
      0.5447178000D+01  0.1562849787D+00
      0.8245472400D+00  0.9046908767D+00
 S   1 1.00       0.000000000000
      0.1831915800D+00  0.1000000000D+01
 ****
      9 0
 S   2 1.00       0.000000000000
      0.5447178000D+01  0.1562849787D+00
      0.8245472400D+00  0.9046908767D+00
 S   1 1.00       0.000000000000
      0.1831915800D+00  0.1000000000D+01
 ****
     10 0
 S   2 1.00       0.000000000000
      0.5447178000D+01  0.1562849787D+00
      0.8245472400D+00  0.9046908767D+00
 S   1 1.00       0.000000000000
      0.1831915800D+00  0.1000000000D+01
 ****
     11 0
 S   2 1.00       0.000000000000
      0.5447178000D+01  0.1562849787D+00
      0.8245472400D+00  0.9046908767D+00
 S   1 1.00       0.000000000000
      0.1831915800D+00  0.1000000000D+01
 ****
     12 0
 S   2 1.00       0.000000000000
      0.5447178000D+01  0.1562849787D+00
      0.8245472400D+00  0.9046908767D+00
 S   1 1.00       0.000000000000
      0.1831915800D+00  0.1000000000D+01
 ****
     13 0
 S   3 1.00       0.000000000000
      0.1722560000D+03  0.6176690738D-01
      0.2591090000D+02  0.3587940429D+00
      0.5533350000D+01  0.7007130837D+00
 SP   2 1.00       0.000000000000
      0.3664980000D+01 -0.3958951621D+00  0.2364599466D+00
      0.7705450000D+00  0.1215834356D+01  0.8606188057D+00
 SP   1 1.00       0.000000000000
      0.1958570000D+00  0.1000000000D+01  0.1000000000D+01
 ****
     14 0
 S   2 1.00       0.000000000000
      0.5447178000D+01  0.1562849787D+00
      0.8245472400D+00  0.9046908767D+00
 S   1 1.00       0.000000000000
      0.1831915800D+00  0.1000000000D+01
 ****
     15 0
 S   2 1.00       0.000000000000
      0.5447178000D+01  0.1562849787D+00
      0.8245472400D+00  0.9046908767D+00
 S   1 1.00       0.000000000000
      0.1831915800D+00  0.1000000000D+01
 ****
     16 0
 S   2 1.00       0.000000000000
      0.5447178000D+01  0.1562849787D+00
      0.8245472400D+00  0.9046908767D+00
 S   1 1.00       0.000000000000
      0.1831915800D+00  0.1000000000D+01
 ****
     17 0
 S   2 1.00       0.000000000000
      0.5447178000D+01  0.1562849787D+00
      0.8245472400D+00  0.9046908767D+00
 S   1 1.00       0.000000000000
      0.1831915800D+00  0.1000000000D+01
 ****

 AO basis set (Overlap normalization):
 Atom C1       Shell     1 S   3     bf    1 -     1          0.934558268279          2.395162454945          0.244937538552
      0.1722560000D+03  0.6176690738D-01
      0.2591090000D+02  0.3587940429D+00
      0.5533350000D+01  0.7007130837D+00
 Atom C1       Shell     2 SP   2    bf    2 -     5          0.934558268279          2.395162454945          0.244937538552
      0.3664980000D+01 -0.3958951621D+00  0.2364599466D+00
      0.7705450000D+00  0.1215834356D+01  0.8606188057D+00
 Atom C1       Shell     3 SP   1    bf    6 -     9          0.934558268279          2.395162454945          0.244937538552
      0.1958570000D+00  0.1000000000D+01  0.1000000000D+01
 Atom C2       Shell     4 S   3     bf   10 -    10         -1.686373411756          2.800067755746          0.092702865897
      0.1722560000D+03  0.6176690738D-01
      0.2591090000D+02  0.3587940429D+00
      0.5533350000D+01  0.7007130837D+00
 Atom C2       Shell     5 SP   2    bf   11 -    14         -1.686373411756          2.800067755746          0.092702865897
      0.3664980000D+01 -0.3958951621D+00  0.2364599466D+00
      0.7705450000D+00  0.1215834356D+01  0.8606188057D+00
 Atom C2       Shell     6 SP   1    bf   15 -    18         -1.686373411756          2.800067755746          0.092702865897
      0.1958570000D+00  0.1000000000D+01  0.1000000000D+01
 Atom C3       Shell     7 S   3     bf   19 -    19         -3.708546799554          1.048813515307         -0.337115141065
      0.1722560000D+03  0.6176690738D-01
      0.2591090000D+02  0.3587940429D+00
      0.5533350000D+01  0.7007130837D+00
 Atom C3       Shell     8 SP   2    bf   20 -    23         -3.708546799554          1.048813515307         -0.337115141065
      0.3664980000D+01 -0.3958951621D+00  0.2364599466D+00
      0.7705450000D+00  0.1215834356D+01  0.8606188057D+00
 Atom C3       Shell     9 SP   1    bf   24 -    27         -3.708546799554          1.048813515307         -0.337115141065
      0.1958570000D+00  0.1000000000D+01  0.1000000000D+01
 Atom C4       Shell    10 S   3     bf   28 -    28          2.379894062198          0.130153573565         -0.118629319056
      0.1722560000D+03  0.6176690738D-01
      0.2591090000D+02  0.3587940429D+00
      0.5533350000D+01  0.7007130837D+00
 Atom C4       Shell    11 SP   2    bf   29 -    32          2.379894062198          0.130153573565         -0.118629319056
      0.3664980000D+01 -0.3958951621D+00  0.2364599466D+00
      0.7705450000D+00  0.1215834356D+01  0.8606188057D+00
 Atom C4       Shell    12 SP   1    bf   33 -    36          2.379894062198          0.130153573565         -0.118629319056
      0.1958570000D+00  0.1000000000D+01  0.1000000000D+01
 Atom C5       Shell    13 S   3     bf   37 -    37         -3.479610274785         -1.477686277565         -0.204926509441
      0.1722560000D+03  0.6176690738D-01
      0.2591090000D+02  0.3587940429D+00
      0.5533350000D+01  0.7007130837D+00
 Atom C5       Shell    14 SP   2    bf   38 -    41         -3.479610274785         -1.477686277565         -0.204926509441
      0.3664980000D+01 -0.3958951621D+00  0.2364599466D+00
      0.7705450000D+00  0.1215834356D+01  0.8606188057D+00
 Atom C5       Shell    15 SP   1    bf   42 -    45         -3.479610274785         -1.477686277565         -0.204926509441
      0.1958570000D+00  0.1000000000D+01  0.1000000000D+01
 Atom C6       Shell    16 S   3     bf   46 -    46          1.220011293908         -2.480646760040         -0.520461028039
      0.1722560000D+03  0.6176690738D-01
      0.2591090000D+02  0.3587940429D+00
      0.5533350000D+01  0.7007130837D+00
 Atom C6       Shell    17 SP   2    bf   47 -    50          1.220011293908         -2.480646760040         -0.520461028039
      0.3664980000D+01 -0.3958951621D+00  0.2364599466D+00
      0.7705450000D+00  0.1215834356D+01  0.8606188057D+00
 Atom C6       Shell    18 SP   1    bf   51 -    54          1.220011293908         -2.480646760040         -0.520461028039
      0.1958570000D+00  0.1000000000D+01  0.1000000000D+01
 Atom C7       Shell    19 S   3     bf   55 -    55         -1.149241547845         -2.526533402244          1.015490210468
      0.1722560000D+03  0.6176690738D-01
      0.2591090000D+02  0.3587940429D+00
      0.5533350000D+01  0.7007130837D+00
 Atom C7       Shell    20 SP   2    bf   56 -    59         -1.149241547845         -2.526533402244          1.015490210468
      0.3664980000D+01 -0.3958951621D+00  0.2364599466D+00
      0.7705450000D+00  0.1215834356D+01  0.8606188057D+00
 Atom C7       Shell    21 SP   1    bf   60 -    63         -1.149241547845         -2.526533402244          1.015490210468
      0.1958570000D+00  0.1000000000D+01  0.1000000000D+01
 Atom H8       Shell    22 S   2     bf   64 -    64          2.026676824283          4.042236491122          0.672648068113
      0.5447178000D+01  0.1562849787D+00
      0.8245472400D+00  0.9046908767D+00
 Atom H8       Shell    23 S   1     bf   65 -    65          2.026676824283          4.042236491122          0.672648068113
      0.1831915800D+00  0.1000000000D+01
 Atom H9       Shell    24 S   2     bf   66 -    66         -2.261554210894          4.726825651199          0.305501382264
      0.5447178000D+01  0.1562849787D+00
      0.8245472400D+00  0.9046908767D+00
 Atom H9       Shell    25 S   1     bf   67 -    67         -2.261554210894          4.726825651199          0.305501382264
      0.1831915800D+00  0.1000000000D+01
 Atom H10      Shell    26 S   2     bf   68 -    68         -5.526021672407          1.805685013877         -0.798030237150
      0.5447178000D+01  0.1562849787D+00
      0.8245472400D+00  0.9046908767D+00
 Atom H10      Shell    27 S   1     bf   69 -    69         -5.526021672407          1.805685013877         -0.798030237150
      0.1831915800D+00  0.1000000000D+01
 Atom H11      Shell    28 S   2     bf   70 -    70         -4.914215077064         -2.697894067062         -0.940802920860
      0.5447178000D+01  0.1562849787D+00
      0.8245472400D+00  0.9046908767D+00
 Atom H11      Shell    29 S   1     bf   71 -    71         -4.914215077064         -2.697894067062         -0.940802920860
      0.1831915800D+00  0.1000000000D+01
 Atom H12      Shell    30 S   2     bf   72 -    72         -1.168770687531         -3.225658616770          2.912686747572
      0.5447178000D+01  0.1562849787D+00
      0.8245472400D+00  0.9046908767D+00
 Atom H12      Shell    31 S   1     bf   73 -    73         -1.168770687531         -3.225658616770          2.912686747572
      0.1831915800D+00  0.1000000000D+01
 Atom C13      Shell    32 S   3     bf   74 -    74          4.933761479106          0.319916810689         -0.102783663786
      0.1722560000D+03  0.6176690738D-01
      0.2591090000D+02  0.3587940429D+00
      0.5533350000D+01  0.7007130837D+00
 Atom C13      Shell    33 SP   2    bf   75 -    78          4.933761479106          0.319916810689         -0.102783663786
      0.3664980000D+01 -0.3958951621D+00  0.2364599466D+00
      0.7705450000D+00  0.1215834356D+01  0.8606188057D+00
 Atom C13      Shell    34 SP   1    bf   79 -    82          4.933761479106          0.319916810689         -0.102783663786
      0.1958570000D+00  0.1000000000D+01  0.1000000000D+01
 Atom H14      Shell    35 S   2     bf   83 -    83          5.812100108455          2.119964268447          0.174457304883
      0.5447178000D+01  0.1562849787D+00
      0.8245472400D+00  0.9046908767D+00
 Atom H14      Shell    36 S   1     bf   84 -    84          5.812100108455          2.119964268447          0.174457304883
      0.1831915800D+00  0.1000000000D+01
 Atom H15      Shell    37 S   2     bf   85 -    85          6.071832350158         -1.330302808255         -0.367513673177
      0.5447178000D+01  0.1562849787D+00
      0.8245472400D+00  0.9046908767D+00
 Atom H15      Shell    38 S   1     bf   86 -    86          6.071832350158         -1.330302808255         -0.367513673177
      0.1831915800D+00  0.1000000000D+01
 Atom H16      Shell    39 S   2     bf   87 -    87          0.811762698783         -2.764943243060         -2.480313236492
      0.5447178000D+01  0.1562849787D+00
      0.8245472400D+00  0.9046908767D+00
 Atom H16      Shell    40 S   1     bf   88 -    88          0.811762698783         -2.764943243060         -2.480313236492
      0.1831915800D+00  0.1000000000D+01
 Atom H17      Shell    41 S   2     bf   89 -    89          2.481471248916         -3.931398711911          0.106076843659
      0.5447178000D+01  0.1562849787D+00
      0.8245472400D+00  0.9046908767D+00
 Atom H17      Shell    42 S   1     bf   90 -    90          2.481471248916         -3.931398711911          0.106076843659
      0.1831915800D+00  0.1000000000D+01
 There are    90 symmetry adapted cartesian basis functions of A   symmetry.
 There are    90 symmetry adapted basis functions of A   symmetry.
    90 basis functions,   147 primitive gaussians,    90 cartesian basis functions
    28 alpha electrons       28 beta electrons
       nuclear repulsion energy       333.4005338872 Hartrees.
 IExCor=    0 DFT=F Ex=HF Corr=None ExCW=0 ScaHFX=  1.000000
 ScaDFX=  1.000000  1.000000  1.000000  1.000000 ScalE2=  1.000000  1.000000
 IRadAn=      5 IRanWt=     -1 IRanGd=            0 ICorTp=0 IEmpDi=  4
 NAtoms=   17 NActive=   17 NUniq=   17 SFac= 1.00D+00 NAtFMM=   60 NAOKFM=F Big=F
 Integral buffers will be    131072 words long.
 Raffenetti 1 integral format.
 Two-electron integral symmetry is turned on.
 Leave Link  301 at Tue Jun 10 01:44:47 2025, MaxMem=  2013265920 cpu:               1.9 elap:               0.1
 (Enter /home/user/softwares/g16/g16/l302.exe)
 NPDir=0 NMtPBC=     1 NCelOv=     1 NCel=       1 NClECP=     1 NCelD=      1
         NCelK=      1 NCelE2=     1 NClLst=     1 CellRange=     0.0.
 One-electron integrals computed using PRISM.
 One-electron integral symmetry used in STVInt
 NBasis=    90 RedAO= T EigKep=  4.00D-03  NBF=    90
 NBsUse=    90 1.00D-06 EigRej= -1.00D+00 NBFU=    90
 Leave Link  302 at Tue Jun 10 01:44:47 2025, MaxMem=  2013265920 cpu:               3.4 elap:               0.2
 (Enter /home/user/softwares/g16/g16/l303.exe)
 DipDrv:  MaxL=1.
 Leave Link  303 at Tue Jun 10 01:44:47 2025, MaxMem=  2013265920 cpu:               1.0 elap:               0.1
 (Enter /home/user/softwares/g16/g16/l401.exe)
 ExpMin= 1.83D-01 ExpMax= 1.72D+02 ExpMxC= 1.72D+02 IAcc=3 IRadAn=         5 AccDes= 0.00D+00
 Harris functional with IExCor=  205 and IRadAn=       5 diagonalized for initial guess.
 HarFok:  IExCor=  205 AccDes= 0.00D+00 IRadAn=         5 IDoV= 1 UseB2=F ITyADJ=14
 ICtDFT=  3500011 ScaDFX=  1.000000  1.000000  1.000000  1.000000
 FoFCou: FMM=F IPFlag=           0 FMFlag=      100000 FMFlg1=           0
         NFxFlg=           0 DoJE=T BraDBF=F KetDBF=T FulRan=T
         wScrn=  0.000000 ICntrl=       500 IOpCl=  0 I1Cent=   200000004 NGrid=           0
         NMat0=    1 NMatS0=      1 NMatT0=    0 NMatD0=    1 NMtDS0=    0 NMtDT0=    0
 Petite list used in FoFCou.
 Harris En= -306.574188064521    
 JPrj=0 DoOrth=F DoCkMO=F.
 Leave Link  401 at Tue Jun 10 01:44:47 2025, MaxMem=  2013265920 cpu:               9.9 elap:               0.5
 (Enter /home/user/softwares/g16/g16/l502.exe)
 Integral symmetry usage will be decided dynamically.
 Closed shell SCF:
 Using DIIS extrapolation, IDIIS=  1040.
 NGot=  2013265920 LenX=  2013246555 LenY=  2013238014
 Requested convergence on RMS density matrix=1.00D-08 within 128 cycles.
 Requested convergence on MAX density matrix=1.00D-06.
 Requested convergence on             energy=1.00D-06.
 No special actions if energy rises.
 Fock matrices will be formed incrementally for  20 cycles.
 Integral accuracy reduced to 1.0D-05 until final iterations.

 Cycle   1  Pass 0  IDiag  1:
 FoFJK:  IHMeth= 1 ICntrl=       0 DoSepK=F KAlg= 0 I1Cent=           0 FoldK=F
 IRaf= 940000000 NMat=       1 IRICut=       1 DoRegI=T DoRafI=F ISym2E= 0 IDoP0=0 IntGTp=1.
 FoFCou: FMM=F IPFlag=           0 FMFlag=      100000 FMFlg1=           0
         NFxFlg=           0 DoJE=F BraDBF=F KetDBF=F FulRan=T
         wScrn=  0.000000 ICntrl=         0 IOpCl=  0 I1Cent=           0 NGrid=           0
         NMat0=    1 NMatS0=      1 NMatT0=    0 NMatD0=    1 NMtDS0=    0 NMtDT0=    0
 Symmetry not used in FoFCou.
 E= -305.850142908873    
 DIIS: error= 3.18D-02 at cycle   1 NSaved=   1.
 NSaved= 1 IEnMin= 1 EnMin= -305.850142908873     IErMin= 1 ErrMin= 3.18D-02
 ErrMax= 3.18D-02  0.00D+00 EMaxC= 1.00D-01 BMatC= 2.98D-01 BMatP= 2.98D-01
 IDIUse=3 WtCom= 6.82D-01 WtEn= 3.18D-01
 Coeff-Com:  0.100D+01
 Coeff-En:   0.100D+01
 Coeff:      0.100D+01
 Gap=     0.156 Goal=   None    Shift=    0.000
 GapD=    0.156 DampG=1.000 DampE=0.500 DampFc=0.5000 IDamp=-1.
 Damping current iteration by 5.00D-01
 RMSDP=7.32D-03 MaxDP=8.17D-02              OVMax= 1.45D-01

 Cycle   2  Pass 0  IDiag  1:
 RMSU=  3.63D-03    CP:  9.89D-01
 E= -305.973776540350     Delta-E=       -0.123633631477 Rises=F Damp=T
 DIIS: error= 1.41D-02 at cycle   2 NSaved=   2.
 NSaved= 2 IEnMin= 2 EnMin= -305.973776540350     IErMin= 2 ErrMin= 1.41D-02
 ErrMax= 1.41D-02  0.00D+00 EMaxC= 1.00D-01 BMatC= 6.02D-02 BMatP= 2.98D-01
 IDIUse=3 WtCom= 8.59D-01 WtEn= 1.41D-01
 Coeff-Com: -0.645D+00 0.165D+01
 Coeff-En:   0.000D+00 0.100D+01
 Coeff:     -0.554D+00 0.155D+01
 Gap=     0.282 Goal=   None    Shift=    0.000
 RMSDP=3.25D-03 MaxDP=3.45D-02 DE=-1.24D-01 OVMax= 4.42D-02

 Cycle   3  Pass 0  IDiag  1:
 RMSU=  2.15D-03    CP:  9.81D-01  1.67D+00
 E= -306.085221152457     Delta-E=       -0.111444612107 Rises=F Damp=F
 DIIS: error= 3.73D-03 at cycle   3 NSaved=   3.
 NSaved= 3 IEnMin= 3 EnMin= -306.085221152457     IErMin= 3 ErrMin= 3.73D-03
 ErrMax= 3.73D-03  0.00D+00 EMaxC= 1.00D-01 BMatC= 9.63D-04 BMatP= 6.02D-02
 IDIUse=3 WtCom= 9.63D-01 WtEn= 3.73D-02
 Coeff-Com: -0.849D-01 0.133D+00 0.952D+00
 Coeff-En:   0.000D+00 0.000D+00 0.100D+01
 Coeff:     -0.817D-01 0.128D+00 0.953D+00
 Gap=     0.265 Goal=   None    Shift=    0.000
 RMSDP=6.02D-04 MaxDP=7.72D-03 DE=-1.11D-01 OVMax= 2.00D-02

 Cycle   4  Pass 0  IDiag  1:
 RMSU=  4.57D-04    CP:  9.81D-01  1.77D+00  1.02D+00
 E= -306.086899678357     Delta-E=       -0.001678525900 Rises=F Damp=F
 DIIS: error= 1.40D-03 at cycle   4 NSaved=   4.
 NSaved= 4 IEnMin= 4 EnMin= -306.086899678357     IErMin= 4 ErrMin= 1.40D-03
 ErrMax= 1.40D-03  0.00D+00 EMaxC= 1.00D-01 BMatC= 1.71D-04 BMatP= 9.63D-04
 IDIUse=3 WtCom= 9.86D-01 WtEn= 1.40D-02
 Coeff-Com:  0.295D-02-0.245D-01 0.235D+00 0.786D+00
 Coeff-En:   0.000D+00 0.000D+00 0.000D+00 0.100D+01
 Coeff:      0.291D-02-0.242D-01 0.232D+00 0.789D+00
 Gap=     0.269 Goal=   None    Shift=    0.000
 RMSDP=2.20D-04 MaxDP=3.20D-03 DE=-1.68D-03 OVMax= 5.75D-03

 Cycle   5  Pass 0  IDiag  1:
 RMSU=  1.86D-04    CP:  9.80D-01  1.77D+00  1.08D+00  1.06D+00
 E= -306.087219059030     Delta-E=       -0.000319380673 Rises=F Damp=F
 DIIS: error= 8.40D-04 at cycle   5 NSaved=   5.
 NSaved= 5 IEnMin= 5 EnMin= -306.087219059030     IErMin= 5 ErrMin= 8.40D-04
 ErrMax= 8.40D-04  0.00D+00 EMaxC= 1.00D-01 BMatC= 2.41D-05 BMatP= 1.71D-04
 IDIUse=3 WtCom= 9.92D-01 WtEn= 8.40D-03
 Coeff-Com:  0.119D-01-0.144D-01-0.176D+00-0.292D+00 0.147D+01
 Coeff-En:   0.000D+00 0.000D+00 0.000D+00 0.000D+00 0.100D+01
 Coeff:      0.118D-01-0.143D-01-0.175D+00-0.290D+00 0.147D+01
 Gap=     0.272 Goal=   None    Shift=    0.000
 RMSDP=1.97D-04 MaxDP=2.18D-03 DE=-3.19D-04 OVMax= 7.79D-03

 Cycle   6  Pass 0  IDiag  1:
 RMSU=  7.10D-05    CP:  9.80D-01  1.77D+00  1.11D+00  1.31D+00  1.68D+00
 E= -306.087359390756     Delta-E=       -0.000140331726 Rises=F Damp=F
 DIIS: error= 2.81D-04 at cycle   6 NSaved=   6.
 NSaved= 6 IEnMin= 6 EnMin= -306.087359390756     IErMin= 6 ErrMin= 2.81D-04
 ErrMax= 2.81D-04  0.00D+00 EMaxC= 1.00D-01 BMatC= 4.88D-06 BMatP= 2.41D-05
 IDIUse=3 WtCom= 9.97D-01 WtEn= 2.81D-03
 Coeff-Com:  0.188D-02-0.830D-03-0.393D-01-0.165D+00 0.203D+00 0.100D+01
 Coeff-En:   0.000D+00 0.000D+00 0.000D+00 0.000D+00 0.000D+00 0.100D+01
 Coeff:      0.187D-02-0.828D-03-0.391D-01-0.165D+00 0.203D+00 0.100D+01
 Gap=     0.273 Goal=   None    Shift=    0.000
 RMSDP=7.11D-05 MaxDP=9.94D-04 DE=-1.40D-04 OVMax= 3.26D-03

 Cycle   7  Pass 0  IDiag  1:
 RMSU=  2.98D-05    CP:  9.80D-01  1.77D+00  1.11D+00  1.37D+00  1.95D+00
                    CP:  1.36D+00
 E= -306.087378595333     Delta-E=       -0.000019204577 Rises=F Damp=F
 DIIS: error= 1.33D-04 at cycle   7 NSaved=   7.
 NSaved= 7 IEnMin= 7 EnMin= -306.087378595333     IErMin= 7 ErrMin= 1.33D-04
 ErrMax= 1.33D-04  0.00D+00 EMaxC= 1.00D-01 BMatC= 1.13D-06 BMatP= 4.88D-06
 IDIUse=3 WtCom= 9.99D-01 WtEn= 1.33D-03
 Coeff-Com: -0.264D-02 0.283D-02 0.520D-01 0.524D-01-0.346D+00-0.428D-02
 Coeff-Com:  0.125D+01
 Coeff-En:   0.000D+00 0.000D+00 0.000D+00 0.000D+00 0.000D+00 0.000D+00
 Coeff-En:   0.100D+01
 Coeff:     -0.264D-02 0.283D-02 0.519D-01 0.523D-01-0.345D+00-0.428D-02
 Coeff:      0.124D+01
 Gap=     0.273 Goal=   None    Shift=    0.000
 RMSDP=4.71D-05 MaxDP=4.88D-04 DE=-1.92D-05 OVMax= 1.90D-03

 Cycle   8  Pass 0  IDiag  1:
 RMSU=  1.63D-05    CP:  9.80D-01  1.77D+00  1.12D+00  1.39D+00  2.08D+00
                    CP:  1.81D+00  1.49D+00
 E= -306.087384422645     Delta-E=       -0.000005827312 Rises=F Damp=F
 DIIS: error= 8.66D-05 at cycle   8 NSaved=   8.
 NSaved= 8 IEnMin= 8 EnMin= -306.087384422645     IErMin= 8 ErrMin= 8.66D-05
 ErrMax= 8.66D-05  0.00D+00 EMaxC= 1.00D-01 BMatC= 1.59D-07 BMatP= 1.13D-06
 IDIUse=1 WtCom= 1.00D+00 WtEn= 0.00D+00
 Coeff-Com: -0.203D-03-0.226D-03 0.121D-01 0.228D-01-0.452D-01-0.123D+00
 Coeff-Com:  0.329D-01 0.110D+01
 Coeff:     -0.203D-03-0.226D-03 0.121D-01 0.228D-01-0.452D-01-0.123D+00
 Coeff:      0.329D-01 0.110D+01
 Gap=     0.273 Goal=   None    Shift=    0.000
 RMSDP=1.76D-05 MaxDP=2.16D-04 DE=-5.83D-06 OVMax= 9.76D-04

 Cycle   9  Pass 0  IDiag  1:
 RMSU=  6.57D-06    CP:  9.80D-01  1.77D+00  1.12D+00  1.39D+00  2.11D+00
                    CP:  1.94D+00  1.81D+00  1.46D+00
 E= -306.087385562661     Delta-E=       -0.000001140016 Rises=F Damp=F
 DIIS: error= 6.07D-05 at cycle   9 NSaved=   9.
 NSaved= 9 IEnMin= 9 EnMin= -306.087385562661     IErMin= 9 ErrMin= 6.07D-05
 ErrMax= 6.07D-05  0.00D+00 EMaxC= 1.00D-01 BMatC= 5.43D-08 BMatP= 1.59D-07
 IDIUse=1 WtCom= 1.00D+00 WtEn= 0.00D+00
 Coeff-Com:  0.817D-03-0.104D-02-0.122D-01-0.173D-01 0.784D-01 0.334D-01
 Coeff-Com: -0.360D+00-0.510D-01 0.133D+01
 Coeff:      0.817D-03-0.104D-02-0.122D-01-0.173D-01 0.784D-01 0.334D-01
 Coeff:     -0.360D+00-0.510D-01 0.133D+01
 Gap=     0.273 Goal=   None    Shift=    0.000
 RMSDP=1.50D-05 MaxDP=1.89D-04 DE=-1.14D-06 OVMax= 8.38D-04

 Cycle  10  Pass 0  IDiag  1:
 RMSU=  4.18D-06    CP:  9.80D-01  1.77D+00  1.12D+00  1.39D+00  2.12D+00
                    CP:  2.05D+00  2.01D+00  1.99D+00  1.82D+00
 E= -306.087386067476     Delta-E=       -0.000000504814 Rises=F Damp=F
 DIIS: error= 3.71D-05 at cycle  10 NSaved=  10.
 NSaved=10 IEnMin=10 EnMin= -306.087386067476     IErMin=10 ErrMin= 3.71D-05
 ErrMax= 3.71D-05  0.00D+00 EMaxC= 1.00D-01 BMatC= 1.15D-08 BMatP= 5.43D-08
 IDIUse=1 WtCom= 1.00D+00 WtEn= 0.00D+00
 Coeff-Com:  0.203D-04-0.273D-04 0.873D-04-0.193D-02-0.490D-02 0.335D-01
 Coeff-Com:  0.263D-01-0.219D+00-0.729D-01 0.124D+01
 Coeff:      0.203D-04-0.273D-04 0.873D-04-0.193D-02-0.490D-02 0.335D-01
 Coeff:      0.263D-01-0.219D+00-0.729D-01 0.124D+01
 Gap=     0.273 Goal=   None    Shift=    0.000
 RMSDP=7.01D-06 MaxDP=1.02D-04 DE=-5.05D-07 OVMax= 4.66D-04

 Initial convergence to 1.0D-05 achieved.  Increase integral accuracy.
 Cycle  11  Pass 1  IDiag  1:
 E= -306.087384833354     Delta-E=        0.000001234122 Rises=F Damp=F
 DIIS: error= 2.37D-05 at cycle   1 NSaved=   1.
 NSaved= 1 IEnMin= 1 EnMin= -306.087384833354     IErMin= 1 ErrMin= 2.37D-05
 ErrMax= 2.37D-05  0.00D+00 EMaxC= 1.00D-01 BMatC= 4.96D-09 BMatP= 4.96D-09
 IDIUse=1 WtCom= 1.00D+00 WtEn= 0.00D+00
 Coeff-Com:  0.100D+01
 Coeff:      0.100D+01
 Gap=     0.273 Goal=   None    Shift=    0.000
 RMSDP=7.01D-06 MaxDP=1.02D-04 DE= 1.23D-06 OVMax= 1.83D-04

 Cycle  12  Pass 1  IDiag  1:
 RMSU=  2.84D-06    CP:  1.00D+00
 E= -306.087384876255     Delta-E=       -0.000000042901 Rises=F Damp=F
 DIIS: error= 1.89D-05 at cycle   2 NSaved=   2.
 NSaved= 2 IEnMin= 2 EnMin= -306.087384876255     IErMin= 2 ErrMin= 1.89D-05
 ErrMax= 1.89D-05  0.00D+00 EMaxC= 1.00D-01 BMatC= 2.59D-09 BMatP= 4.96D-09
 IDIUse=1 WtCom= 1.00D+00 WtEn= 0.00D+00
 Coeff-Com: -0.439D+00 0.144D+01
 Coeff:     -0.439D+00 0.144D+01
 Gap=     0.273 Goal=   None    Shift=    0.000
 RMSDP=3.00D-06 MaxDP=4.37D-05 DE=-4.29D-08 OVMax= 2.05D-04

 Cycle  13  Pass 1  IDiag  1:
 RMSU=  1.02D-06    CP:  1.00D+00  2.00D+00
 E= -306.087384911676     Delta-E=       -0.000000035421 Rises=F Damp=F
 DIIS: error= 1.33D-05 at cycle   3 NSaved=   3.
 NSaved= 3 IEnMin= 3 EnMin= -306.087384911676     IErMin= 3 ErrMin= 1.33D-05
 ErrMax= 1.33D-05  0.00D+00 EMaxC= 1.00D-01 BMatC= 1.30D-09 BMatP= 2.59D-09
 IDIUse=1 WtCom= 1.00D+00 WtEn= 0.00D+00
 Coeff-Com: -0.552D+00-0.155D+00 0.171D+01
 Coeff:     -0.552D+00-0.155D+00 0.171D+01
 Gap=     0.273 Goal=   None    Shift=    0.000
 RMSDP=4.24D-06 MaxDP=6.30D-05 DE=-3.54D-08 OVMax= 2.91D-04

 Cycle  14  Pass 1  IDiag  1:
 RMSU=  1.26D-06    CP:  1.00D+00  3.00D+00  2.35D+00
 E= -306.087384940370     Delta-E=       -0.000000028694 Rises=F Damp=F
 DIIS: error= 5.24D-06 at cycle   4 NSaved=   4.
 NSaved= 4 IEnMin= 4 EnMin= -306.087384940370     IErMin= 4 ErrMin= 5.24D-06
 ErrMax= 5.24D-06  0.00D+00 EMaxC= 1.00D-01 BMatC= 2.69D-10 BMatP= 1.30D-09
 IDIUse=1 WtCom= 1.00D+00 WtEn= 0.00D+00
 Coeff-Com:  0.717D-01-0.538D+00 0.215D+00 0.125D+01
 Coeff:      0.717D-01-0.538D+00 0.215D+00 0.125D+01
 Gap=     0.273 Goal=   None    Shift=    0.000
 RMSDP=2.35D-06 MaxDP=3.49D-05 DE=-2.87D-08 OVMax= 1.59D-04

 Cycle  15  Pass 1  IDiag  1:
 RMSU=  8.20D-07    CP:  1.00D+00  3.00D+00  3.00D+00  2.61D+00
 E= -306.087384945492     Delta-E=       -0.000000005122 Rises=F Damp=F
 DIIS: error= 8.34D-07 at cycle   5 NSaved=   5.
 NSaved= 5 IEnMin= 5 EnMin= -306.087384945492     IErMin= 5 ErrMin= 8.34D-07
 ErrMax= 8.34D-07  0.00D+00 EMaxC= 1.00D-01 BMatC= 3.46D-11 BMatP= 2.69D-10
 IDIUse=1 WtCom= 1.00D+00 WtEn= 0.00D+00
 Coeff-Com:  0.586D-01 0.842D-01-0.241D+00-0.407D-01 0.114D+01
 Coeff:      0.586D-01 0.842D-01-0.241D+00-0.407D-01 0.114D+01
 Gap=     0.273 Goal=   None    Shift=    0.000
 RMSDP=2.66D-07 MaxDP=3.17D-06 DE=-5.12D-09 OVMax= 1.48D-05

 Cycle  16  Pass 1  IDiag  1:
 RMSU=  1.82D-07    CP:  1.00D+00  3.00D+00  3.00D+00  2.76D+00  1.05D+00
 E= -306.087384945690     Delta-E=       -0.000000000198 Rises=F Damp=F
 DIIS: error= 4.34D-07 at cycle   6 NSaved=   6.
 NSaved= 6 IEnMin= 6 EnMin= -306.087384945690     IErMin= 6 ErrMin= 4.34D-07
 ErrMax= 4.34D-07  0.00D+00 EMaxC= 1.00D-01 BMatC= 8.98D-12 BMatP= 3.46D-11
 IDIUse=1 WtCom= 1.00D+00 WtEn= 0.00D+00
 Coeff-Com: -0.283D-01 0.194D+00-0.887D-01-0.408D+00-0.122D+00 0.145D+01
 Coeff:     -0.283D-01 0.194D+00-0.887D-01-0.408D+00-0.122D+00 0.145D+01
 Gap=     0.273 Goal=   None    Shift=    0.000
 RMSDP=2.14D-07 MaxDP=2.38D-06 DE=-1.98D-10 OVMax= 1.13D-05

 Cycle  17  Pass 1  IDiag  1:
 RMSU=  5.99D-08    CP:  1.00D+00  3.00D+00  3.00D+00  2.86D+00  1.09D+00
                    CP:  1.86D+00
 E= -306.087384945762     Delta-E=       -0.000000000072 Rises=F Damp=F
 DIIS: error= 1.11D-07 at cycle   7 NSaved=   7.
 NSaved= 7 IEnMin= 7 EnMin= -306.087384945762     IErMin= 7 ErrMin= 1.11D-07
 ErrMax= 1.11D-07  0.00D+00 EMaxC= 1.00D-01 BMatC= 6.97D-13 BMatP= 8.98D-12
 IDIUse=1 WtCom= 1.00D+00 WtEn= 0.00D+00
 Coeff-Com: -0.327D-02-0.150D-01 0.204D-01 0.217D-01-0.994D-01-0.348D-01
 Coeff-Com:  0.111D+01
 Coeff:     -0.327D-02-0.150D-01 0.204D-01 0.217D-01-0.994D-01-0.348D-01
 Coeff:      0.111D+01
 Gap=     0.273 Goal=   None    Shift=    0.000
 RMSDP=4.36D-08 MaxDP=4.61D-07 DE=-7.16D-11 OVMax= 2.29D-06

 Cycle  18  Pass 1  IDiag  1:
 RMSU=  1.76D-08    CP:  1.00D+00  3.00D+00  3.00D+00  2.89D+00  1.10D+00
                    CP:  2.01D+00  1.15D+00
 E= -306.087384945769     Delta-E=       -0.000000000007 Rises=F Damp=F
 DIIS: error= 4.84D-08 at cycle   8 NSaved=   8.
 NSaved= 8 IEnMin= 8 EnMin= -306.087384945769     IErMin= 8 ErrMin= 4.84D-08
 ErrMax= 4.84D-08  0.00D+00 EMaxC= 1.00D-01 BMatC= 1.73D-13 BMatP= 6.97D-13
 IDIUse=1 WtCom= 1.00D+00 WtEn= 0.00D+00
 Coeff-Com:  0.674D-02-0.528D-01 0.271D-01 0.109D+00 0.714D-02-0.370D+00
 Coeff-Com:  0.237D+00 0.104D+01
 Coeff:      0.674D-02-0.528D-01 0.271D-01 0.109D+00 0.714D-02-0.370D+00
 Coeff:      0.237D+00 0.104D+01
 Gap=     0.273 Goal=   None    Shift=    0.000
 RMSDP=1.58D-08 MaxDP=2.25D-07 DE=-7.28D-12 OVMax= 7.55D-07

 Cycle  19  Pass 1  IDiag  1:
 RMSU=  7.09D-09    CP:  1.00D+00  3.00D+00  3.00D+00  2.89D+00  1.10D+00
                    CP:  2.05D+00  1.28D+00  1.44D+00
 E= -306.087384945772     Delta-E=       -0.000000000003 Rises=F Damp=F
 DIIS: error= 9.51D-09 at cycle   9 NSaved=   9.
 NSaved= 9 IEnMin= 9 EnMin= -306.087384945772     IErMin= 9 ErrMin= 9.51D-09
 ErrMax= 9.51D-09  0.00D+00 EMaxC= 1.00D-01 BMatC= 9.85D-15 BMatP= 1.73D-13
 IDIUse=1 WtCom= 1.00D+00 WtEn= 0.00D+00
 Coeff-Com:  0.834D-03-0.238D-02 0.209D-03 0.563D-02 0.101D-01-0.264D-01
 Coeff-Com: -0.928D-01 0.398D-01 0.107D+01
 Coeff:      0.834D-03-0.238D-02 0.209D-03 0.563D-02 0.101D-01-0.264D-01
 Coeff:     -0.928D-01 0.398D-01 0.107D+01
 Gap=     0.273 Goal=   None    Shift=    0.000
 RMSDP=3.96D-09 MaxDP=3.70D-08 DE=-3.18D-12 OVMax= 1.30D-07

 SCF Done:  E(RHF) =  -306.087384946     A.U. after   19 cycles
            NFock= 19  Conv=0.40D-08     -V/T= 2.0025
 KE= 3.053231884339D+02 PE=-1.366809642336D+03 EE= 4.219985350696D+02
 Leave Link  502 at Tue Jun 10 01:44:49 2025, MaxMem=  2013265920 cpu:              30.9 elap:               1.6
 (Enter /home/user/softwares/g16/g16/l601.exe)
 Copying SCF densities to generalized density rwf, IOpCl= 0 IROHF=0.

 **********************************************************************

            Population analysis using the SCF Density.

 **********************************************************************

 Orbital symmetries:
       Occupied  (A) (A) (A) (A) (A) (A) (A) (A) (A) (A) (A) (A)
                 (A) (A) (A) (A) (A) (A) (A) (A) (A) (A) (A) (A)
                 (A) (A) (A) (A)
       Virtual   (A) (A) (A) (A) (A) (A) (A) (A) (A) (A) (A) (A)
                 (A) (A) (A) (A) (A) (A) (A) (A) (A) (A) (A) (A)
                 (A) (A) (A) (A) (A) (A) (A) (A) (A) (A) (A) (A)
                 (A) (A) (A) (A) (A) (A) (A) (A) (A) (A) (A) (A)
                 (A) (A) (A) (A) (A) (A) (A) (A) (A) (A) (A) (A)
                 (A) (A)
 The electronic state is 1-A.
 Alpha  occ. eigenvalues --  -11.53676 -11.39134 -11.38425 -11.38420 -11.37975
 Alpha  occ. eigenvalues --  -11.36956 -11.35964 -11.34777  -1.35554  -1.27135
 Alpha  occ. eigenvalues --   -1.24305  -1.14681  -1.09146  -1.02463  -0.94928
 Alpha  occ. eigenvalues --   -0.90643  -0.87674  -0.84817  -0.81342  -0.79159
 Alpha  occ. eigenvalues --   -0.77881  -0.74425  -0.72227  -0.69555  -0.67191
 Alpha  occ. eigenvalues --   -0.63204  -0.56737  -0.46074
 Alpha virt. eigenvalues --   -0.18790  -0.09700   0.01376   0.08327   0.10824
 Alpha virt. eigenvalues --    0.11965   0.13325   0.14864   0.15718   0.17582
 Alpha virt. eigenvalues --    0.19344   0.22650   0.23370   0.25032   0.27730
 Alpha virt. eigenvalues --    0.28915   0.34926   0.39122   0.40165   0.48785
 Alpha virt. eigenvalues --    0.53913   0.67360   0.72134   0.73643   0.74851
 Alpha virt. eigenvalues --    0.77832   0.79985   0.80269   0.82686   0.87549
 Alpha virt. eigenvalues --    0.88507   0.89221   0.90878   0.91530   0.94414
 Alpha virt. eigenvalues --    0.95275   0.96211   1.01094   1.02919   1.05226
 Alpha virt. eigenvalues --    1.08239   1.13613   1.14849   1.15929   1.18880
 Alpha virt. eigenvalues --    1.22351   1.22908   1.27146   1.29418   1.32401
 Alpha virt. eigenvalues --    1.42578   1.46912   1.51901   1.55173   1.57388
 Alpha virt. eigenvalues --    1.65761   1.69603   1.80881   1.86022   1.92168
 Alpha virt. eigenvalues --    2.13556   2.43494
     Molecular Orbital Coefficients:
                           1         2         3         4         5
                           O         O         O         O         O
     Eigenvalues --   -11.53676 -11.39134 -11.38425 -11.38420 -11.37975
   1 1   C  1S         -0.00079  -0.00209   0.00972  -0.01435  -0.00368
   2        2S         -0.00089  -0.00014   0.00353  -0.00341  -0.00095
   3        2PX         0.00029  -0.00029   0.00086   0.00037   0.00017
   4        2PY         0.00080   0.00047  -0.00094   0.00087   0.00014
   5        2PZ        -0.00029   0.00024  -0.00007   0.00029   0.00002
   6        3S          0.00114  -0.00137  -0.02487   0.01271   0.00838
   7        3PX         0.00232   0.01133  -0.00299   0.00578  -0.00471
   8        3PY        -0.00009   0.00050   0.01618  -0.00639  -0.00442
   9        3PZ         0.00049  -0.00028   0.00250  -0.00132  -0.00083
  10 2   C  1S         -0.00069  -0.00014  -0.00507  -0.00589  -0.00277
  11        2S         -0.00094  -0.00043  -0.00336  -0.00273  -0.00024
  12        2PX         0.00006  -0.00001   0.00074  -0.00008   0.00056
  13        2PY         0.00084  -0.00014   0.00085   0.00091   0.00094
  14        2PZ        -0.00027  -0.00003   0.00008   0.00016   0.00026
  15        3S          0.00379   0.01021   0.02422   0.01657  -0.00918
  16        3PX        -0.00104   0.00439  -0.00554  -0.00323  -0.00354
  17        3PY        -0.00274  -0.00306  -0.01777  -0.00833   0.00475
  18        3PZ         0.00006   0.00068  -0.00225  -0.00093  -0.00077
  19 3   C  1S         -0.00126   0.00542   0.70955   0.68604   0.02035
  20        2S         -0.00158   0.00135   0.07167   0.06848  -0.00269
  21        2PX        -0.00075   0.00024   0.00074   0.00073  -0.00081
  22        2PY         0.00089   0.00008  -0.00067  -0.00049   0.00213
  23        2PZ        -0.00049   0.00020   0.00027   0.00031  -0.00032
  24        3S          0.00272  -0.00730  -0.06947  -0.05584   0.03295
  25        3PX        -0.00029  -0.00580  -0.01534  -0.00859   0.01113
  26        3PY        -0.00643   0.00393   0.00707   0.00528  -0.01857
  27        3PZ         0.00084  -0.00226  -0.00367  -0.00236   0.00403
  28 4   C  1S         -0.00150  -0.01250  -0.68610   0.70967  -0.01142
  29        2S         -0.00189  -0.00291  -0.06987   0.07163  -0.00035
  30        2PX         0.00146   0.00046   0.00032  -0.00002  -0.00063
  31        2PY         0.00102   0.00078   0.00029  -0.00011  -0.00002
  32        2PZ        -0.00049   0.00011  -0.00014   0.00013   0.00001
  33        3S          0.00061   0.01856   0.06466  -0.05966  -0.00330
  34        3PX        -0.01035  -0.01473  -0.00395  -0.00372   0.01034
  35        3PY        -0.00808  -0.02408   0.00560  -0.00237   0.00118
  36        3PZ         0.00119  -0.00294   0.00131  -0.00050   0.00020
  37 5   C  1S         -0.00038  -0.02703  -0.02289  -0.00646   0.98655
  38        2S         -0.00127  -0.00539  -0.00594  -0.00326   0.09949
  39        2PX        -0.00028  -0.00146  -0.00064  -0.00020   0.00188
  40        2PY         0.00028   0.00005  -0.00145  -0.00129   0.00027
  41        2PZ        -0.00017  -0.00027  -0.00014  -0.00013   0.00066
  42        3S          0.01357   0.01252   0.02723   0.02020  -0.08352
  43        3PX         0.01284   0.00640   0.00703   0.00271  -0.01158
  44        3PY        -0.00785   0.00364   0.01611   0.01079  -0.01344
  45        3PZ         0.00457   0.00376   0.00160   0.00097  -0.00533
  46 6   C  1S         -0.00010   0.98769  -0.01272   0.00487   0.02607
  47        2S         -0.00079   0.10646  -0.00018   0.00010  -0.00023
  48        2PX        -0.00005  -0.00104  -0.00046   0.00014   0.00180
  49        2PY         0.00023   0.00021   0.00013  -0.00018  -0.00059
  50        2PZ         0.00012   0.00075   0.00017  -0.00019   0.00008
  51        3S          0.01176  -0.10565  -0.00743   0.00635   0.00780
  52        3PX        -0.01134   0.00350  -0.00102   0.00325  -0.00807
  53        3PY        -0.00531  -0.01108  -0.00741   0.00576   0.00553
  54        3PZ         0.00234  -0.00682  -0.00069   0.00106   0.00156
  55 7   C  1S          0.98750  -0.00010   0.00001   0.00148   0.00017
  56        2S          0.09900  -0.00101   0.00059  -0.00199  -0.00088
  57        2PX         0.00041   0.00077   0.00154  -0.00004  -0.00029
  58        2PY         0.00106   0.00002  -0.00028  -0.00064  -0.00003
  59        2PZ        -0.00080   0.00011   0.00023   0.00004   0.00001
  60        3S         -0.07403   0.01741  -0.00510   0.00204   0.01351
  61        3PX         0.00059   0.01512  -0.00156   0.00192  -0.01212
  62        3PY        -0.00552  -0.00103  -0.00206  -0.00045   0.00619
  63        3PZ         0.01061  -0.00745   0.00062   0.00101  -0.00161
  64 8   H  1S         -0.00031  -0.00073   0.00001  -0.00067   0.00029
  65        2S         -0.00019  -0.00175  -0.00184   0.00048   0.00183
  66 9   H  1S         -0.00012  -0.00009   0.00030  -0.00038  -0.00029
  67        2S          0.00133   0.00079   0.00356   0.00223  -0.00004
  68 10  H  1S         -0.00012  -0.00052  -0.00151  -0.00131  -0.00018
  69        2S          0.00221  -0.00204   0.00467   0.00608   0.00497
  70 11  H  1S         -0.00080   0.00036   0.00009  -0.00038  -0.00215
  71        2S          0.00216   0.00190   0.00378   0.00197   0.00792
  72 12  H  1S         -0.00182  -0.00076   0.00024  -0.00041  -0.00116
  73        2S          0.01023   0.00177   0.00009  -0.00105   0.00127
  74 13  C  1S         -0.00037  -0.00399   0.00124  -0.00154  -0.00112
  75        2S         -0.00071  -0.00144   0.00260  -0.00281  -0.00014
  76        2PX        -0.00005   0.00026  -0.00116   0.00110   0.00034
  77        2PY         0.00001   0.00061  -0.00006   0.00017   0.00012
  78        2PZ         0.00024   0.00004   0.00002  -0.00001   0.00005
  79        3S          0.00777   0.00801  -0.01590   0.01986  -0.00564
  80        3PX        -0.00492  -0.00443   0.00812  -0.00968   0.00227
  81        3PY         0.00167   0.00330  -0.00112  -0.00069  -0.00058
  82        3PZ        -0.00104   0.00047  -0.00040   0.00006  -0.00024
  83 14  H  1S         -0.00038  -0.00055   0.00086  -0.00071   0.00019
  84        2S         -0.00016  -0.00057   0.00075  -0.00022   0.00041
  85 15  H  1S         -0.00019   0.00018   0.00048  -0.00077   0.00003
  86        2S          0.00169   0.00090  -0.00044  -0.00014  -0.00030
  87 16  H  1S         -0.00112   0.00124   0.00112  -0.00087  -0.00174
  88        2S         -0.00057   0.01451  -0.00220   0.00254   0.00177
  89 17  H  1S         -0.00055   0.00111   0.00023  -0.00041   0.00006
  90        2S          0.00012   0.01429  -0.00155   0.00045   0.00438
                           6         7         8         9        10
                           O         O         O         O         O
     Eigenvalues --   -11.36956 -11.35964 -11.34777  -1.35554  -1.27135
   1 1   C  1S          0.98698   0.01137   0.00986  -0.05717  -0.04712
   2        2S          0.09865   0.00029  -0.00310   0.06680   0.05272
   3        2PX        -0.00041  -0.00100   0.00183  -0.00526   0.05058
   4        2PY        -0.00090   0.00032   0.00037  -0.03301  -0.03712
   5        2PZ        -0.00014   0.00006   0.00023  -0.00498  -0.00471
   6        3S         -0.08502  -0.00155   0.03067   0.09189   0.09629
   7        3PX         0.00968   0.00589  -0.01635  -0.02108  -0.00909
   8        3PY         0.01320  -0.00240  -0.00789   0.00552  -0.00319
   9        3PZ         0.00338  -0.00007  -0.00268   0.00234  -0.00035
  10 2   C  1S         -0.01060  -0.00480   0.98710  -0.05016   0.03523
  11        2S         -0.00504  -0.00113   0.09858   0.05763  -0.03921
  12        2PX        -0.00143  -0.00023   0.00011   0.00464   0.04638
  13        2PY         0.00096   0.00019  -0.00105  -0.03104   0.02889
  14        2PZ         0.00005  -0.00001  -0.00002  -0.00207   0.00558
  15        3S          0.03011   0.00469  -0.08276   0.07831  -0.07936
  16        3PX         0.01539   0.00485  -0.00476  -0.00476  -0.00701
  17        3PY        -0.01262  -0.00130   0.01489  -0.00167   0.00541
  18        3PZ        -0.00064   0.00036   0.00148   0.00004  -0.00163
  19 3   C  1S          0.00334   0.00023   0.00713  -0.06900   0.10776
  20        2S          0.00082   0.00006  -0.00289   0.08059  -0.12224
  21        2PX        -0.00068  -0.00010  -0.00140   0.03030  -0.02124
  22        2PY        -0.00066  -0.00012  -0.00038  -0.03589   0.05569
  23        2PZ        -0.00008   0.00002  -0.00023   0.00906  -0.00930
  24        3S         -0.00834  -0.00056   0.02671   0.11612  -0.21674
  25        3PX        -0.00554  -0.00022   0.01811   0.00425   0.00012
  26        3PY         0.00440   0.00240   0.00269   0.00627  -0.00276
  27        3PZ        -0.00068  -0.00007   0.00330  -0.00011   0.00047
  28 4   C  1S          0.01644   0.00171   0.00118  -0.08768  -0.12321
  29        2S         -0.00128  -0.00319   0.00064   0.09776   0.13238
  30        2PX         0.00144  -0.00228   0.00050  -0.01651   0.04000
  31        2PY        -0.00093  -0.00003  -0.00040  -0.01485   0.00569
  32        2PZ        -0.00007   0.00004   0.00010   0.00237   0.00134
  33        3S          0.02008   0.02206  -0.00789   0.16794   0.26383
  34        3PX        -0.02012   0.01518   0.00477   0.01721   0.01728
  35        3PY         0.01029  -0.00125  -0.00335   0.04249   0.01308
  36        3PZ         0.00107  -0.00049  -0.00088   0.00478   0.00664
  37 5   C  1S          0.00356   0.00107   0.00286  -0.09005   0.11453
  38        2S          0.00010  -0.00001   0.00009   0.09959  -0.12120
  39        2PX        -0.00033  -0.00017  -0.00018   0.04337  -0.01245
  40        2PY         0.00038   0.00003  -0.00117   0.02390  -0.05767
  41        2PZ        -0.00001  -0.00001  -0.00010   0.01557  -0.00913
  42        3S          0.00403   0.00066  -0.00813   0.17137  -0.26376
  43        3PX         0.00043  -0.00068  -0.00464   0.00428  -0.02016
  44        3PY         0.00258   0.00145  -0.00161   0.01956  -0.01982
  45        3PZ        -0.00032  -0.00022  -0.00095   0.00310  -0.01417
  46 6   C  1S          0.00255   0.00392   0.00012  -0.11342  -0.06520
  47        2S          0.00065  -0.00030   0.00004   0.10657   0.05668
  48        2PX        -0.00007  -0.00068   0.00026  -0.03450   0.03662
  49        2PY        -0.00079  -0.00050   0.00008   0.02601   0.03141
  50        2PZ        -0.00022  -0.00012  -0.00005   0.02769   0.00514
  51        3S         -0.00574  -0.00125  -0.00061   0.30461   0.20832
  52        3PX         0.00372   0.00098  -0.00019   0.00532  -0.01531
  53        3PY        -0.00281   0.00071   0.00033   0.02218   0.01392
  54        3PZ        -0.00019   0.00012   0.00027   0.01933   0.01251
  55 7   C  1S          0.00065   0.00018   0.00049  -0.12284   0.03971
  56        2S         -0.00087  -0.00058  -0.00093   0.14117  -0.04199
  57        2PX         0.00017   0.00013  -0.00022   0.01507   0.07939
  58        2PY        -0.00063  -0.00008  -0.00049   0.02207  -0.02060
  59        2PZ         0.00007   0.00026   0.00010  -0.03984   0.00502
  60        3S          0.00338   0.00245   0.00438   0.27061  -0.11630
  61        3PX         0.00060  -0.00004  -0.00118  -0.00547  -0.00396
  62        3PY         0.00133   0.00086   0.00230   0.01216  -0.00542
  63        3PZ        -0.00208  -0.00195  -0.00199  -0.02266   0.01640
  64 8   H  1S         -0.00194  -0.00032  -0.00010   0.02213   0.02611
  65        2S          0.00856  -0.00052   0.00384  -0.00429   0.00565
  66 9   H  1S          0.00000  -0.00002  -0.00193   0.01722  -0.01446
  67        2S          0.00415   0.00097   0.00883  -0.00870   0.00078
  68 10  H  1S         -0.00046  -0.00014  -0.00005   0.02396  -0.04618
  69        2S         -0.00122  -0.00029   0.00446  -0.00962   0.00629
  70 11  H  1S         -0.00004  -0.00002  -0.00026   0.03351  -0.05008
  71        2S          0.00030   0.00017  -0.00004  -0.00400  -0.00491
  72 12  H  1S          0.00001   0.00005  -0.00001   0.05793  -0.02123
  73        2S          0.00078   0.00076   0.00071  -0.00179  -0.00205
  74 13  C  1S         -0.01166   0.98679   0.00450  -0.03877  -0.08871
  75        2S         -0.00234   0.09662  -0.00015   0.04733   0.10016
  76        2PX         0.00026  -0.00052   0.00022  -0.03764  -0.06898
  77        2PY        -0.00019   0.00001  -0.00034  -0.00525  -0.00595
  78        2PZ        -0.00001  -0.00007  -0.00011  -0.00005   0.00031
  79        3S          0.01048  -0.06972   0.00008   0.04830   0.17232
  80        3PX        -0.00469   0.00912  -0.00139   0.01131  -0.00732
  81        3PY        -0.00202   0.00088   0.00378  -0.01135  -0.00377
  82        3PZ        -0.00020   0.00018   0.00084   0.00006  -0.00162
  83 14  H  1S         -0.00000  -0.00143  -0.00060   0.01571   0.03873
  84        2S         -0.00010   0.01208  -0.00099   0.00081  -0.00037
  85 15  H  1S         -0.00043  -0.00144   0.00041   0.01542   0.03866
  86        2S         -0.00001   0.01228   0.00181  -0.00729  -0.00148
  87 16  H  1S          0.00042   0.00001  -0.00001   0.04907   0.02593
  88        2S          0.00048   0.00030   0.00037  -0.01331  -0.00746
  89 17  H  1S         -0.00018  -0.00023  -0.00002   0.04424   0.03499
  90        2S         -0.00047   0.00016   0.00033  -0.01678   0.00300
                          11        12        13        14        15
                           O         O         O         O         O
     Eigenvalues --    -1.24305  -1.14681  -1.09146  -1.02463  -0.94928
   1 1   C  1S          0.11186   0.08205   0.08815   0.06266   0.01104
   2        2S         -0.12232  -0.08757  -0.09601  -0.06808  -0.00977
   3        2PX         0.03032   0.08947  -0.03164  -0.07479   0.11649
   4        2PY         0.00871  -0.02549  -0.00064   0.06207  -0.12713
   5        2PZ         0.00571   0.00012  -0.00597   0.00691  -0.01016
   6        3S         -0.24307  -0.20959  -0.23200  -0.17499  -0.05445
   7        3PX        -0.00499   0.02838  -0.01245  -0.02665   0.04118
   8        3PY         0.00424   0.00188  -0.00003   0.02575  -0.04891
   9        3PZ        -0.00017  -0.00043  -0.00254   0.00144  -0.00281
  10 2   C  1S          0.11607   0.09955  -0.02659  -0.08699   0.05120
  11        2S         -0.12561  -0.10532   0.02933   0.09106  -0.05227
  12        2PX        -0.02047  -0.06340  -0.10604  -0.08059  -0.10371
  13        2PY         0.03026  -0.00986  -0.02438   0.01860  -0.07017
  14        2PZ         0.00356  -0.00611  -0.01589  -0.00228  -0.01773
  15        3S         -0.24956  -0.24678   0.05316   0.25718  -0.17347
  16        3PX        -0.00297  -0.01125  -0.02935  -0.03420  -0.03814
  17        3PY         0.00802   0.00509  -0.00044   0.00188  -0.02894
  18        3PZ        -0.00137  -0.00114  -0.00513  -0.00100  -0.00713
  19 3   C  1S          0.08261  -0.04120  -0.09889  -0.01477  -0.07586
  20        2S         -0.08998   0.04520   0.10345   0.01734   0.07985
  21        2PX        -0.03640  -0.04379  -0.00586   0.04837  -0.04923
  22        2PY        -0.02499  -0.10043   0.03960   0.14467   0.04308
  23        2PZ        -0.00668  -0.00617  -0.00820   0.01888  -0.00377
  24        3S         -0.18649   0.10121   0.29840   0.03792   0.26035
  25        3PX        -0.01143  -0.01279   0.02227   0.00833  -0.01787
  26        3PY         0.00785  -0.02023  -0.00406   0.05374   0.02147
  27        3PZ        -0.00453  -0.00345   0.00501   0.00950   0.00336
  28 4   C  1S          0.05295  -0.05262   0.00466   0.04939  -0.07342
  29        2S         -0.05349   0.05407  -0.00705  -0.04939   0.07589
  30        2PX        -0.01790   0.14344   0.01279   0.12858  -0.06092
  31        2PY        -0.08070   0.00371  -0.12015  -0.04352   0.05254
  32        2PZ        -0.00796  -0.00173  -0.02583   0.00182   0.02856
  33        3S         -0.13455   0.14935  -0.02688  -0.14770   0.25323
  34        3PX         0.01454   0.01603   0.00094   0.07361  -0.04503
  35        3PY         0.01185  -0.01749  -0.04365  -0.01123   0.03415
  36        3PZ        -0.00421  -0.00200  -0.01043  -0.00148   0.02176
  37 5   C  1S          0.00253  -0.09231   0.03496   0.07350   0.06229
  38        2S         -0.00202   0.09522  -0.03154  -0.07732  -0.06235
  39        2PX         0.03444  -0.02483  -0.05503   0.04404  -0.02198
  40        2PY        -0.06435   0.03946   0.10289  -0.03123   0.10281
  41        2PZ         0.01556  -0.00413  -0.04528   0.03883   0.01538
  42        3S         -0.00755   0.24910  -0.12367  -0.21872  -0.21370
  43        3PX        -0.00680   0.01086  -0.03180   0.01368  -0.01045
  44        3PY        -0.00222   0.01250   0.01028  -0.00530   0.05533
  45        3PZ        -0.00184   0.00821  -0.02305   0.01203   0.00634
  46 6   C  1S         -0.08951   0.05750  -0.11135   0.02945   0.03461
  47        2S          0.08144  -0.04764   0.09884  -0.02809  -0.03275
  48        2PX        -0.04680   0.03886   0.05549  -0.01119   0.01367
  49        2PY        -0.02501   0.01955  -0.00976  -0.05090   0.06487
  50        2PZ         0.02516  -0.01425  -0.03077   0.05289   0.09249
  51        3S          0.27138  -0.20991   0.40148  -0.10078  -0.13789
  52        3PX        -0.00572   0.02446  -0.00316  -0.00412   0.00560
  53        3PY         0.01048  -0.01378  -0.00406  -0.01325   0.04298
  54        3PZ         0.01832  -0.01366   0.00161   0.02243   0.05465
  55 7   C  1S         -0.10480   0.02279   0.10020  -0.07527  -0.02947
  56        2S          0.11621  -0.02496  -0.10892   0.08301   0.03327
  57        2PX         0.04303  -0.09064   0.11245   0.02191   0.08372
  58        2PY        -0.01619   0.02320   0.00405  -0.05909  -0.04832
  59        2PZ        -0.01667   0.00130  -0.06693   0.12042   0.17937
  60        3S          0.27287  -0.06934  -0.34972   0.27375   0.13253
  61        3PX         0.00321  -0.02099   0.02628   0.01597   0.04867
  62        3PY         0.00212   0.00411   0.00356  -0.03619  -0.03660
  63        3PZ        -0.01185  -0.00241  -0.01955   0.08230   0.13244
  64 8   H  1S         -0.05506  -0.03959  -0.06731  -0.03845  -0.03084
  65        2S          0.00001  -0.00342  -0.01716  -0.00724  -0.01810
  66 9   H  1S         -0.05253  -0.05750   0.01922   0.07909  -0.05812
  67        2S          0.00055  -0.01058   0.00483   0.02609  -0.02374
  68 10  H  1S         -0.03910   0.02620   0.07594   0.01499   0.09162
  69        2S         -0.00437   0.00381   0.02936   0.00184   0.03903
  70 11  H  1S          0.00218   0.05757  -0.02795  -0.06588  -0.07791
  71        2S         -0.00071   0.01587  -0.01494  -0.02266  -0.03295
  72 12  H  1S          0.06473  -0.01866  -0.10743   0.12893   0.12844
  73        2S          0.00416  -0.00330  -0.02790   0.03666   0.04923
  74 13  C  1S          0.04318  -0.12777   0.00498  -0.10192   0.06057
  75        2S         -0.04825   0.13889  -0.00574   0.10922  -0.06327
  76        2PX         0.03184  -0.05140   0.00332   0.03669  -0.08790
  77        2PY        -0.01172  -0.00600  -0.03623  -0.01364   0.01867
  78        2PZ        -0.00194  -0.00032  -0.00724   0.00068   0.00977
  79        3S         -0.09828   0.32760  -0.00652   0.28708  -0.20094
  80        3PX         0.01022  -0.02184  -0.00334   0.01790  -0.03539
  81        3PY        -0.00888   0.00491  -0.01503  -0.01368   0.00752
  82        3PZ         0.00137   0.00156  -0.00398   0.00263   0.00407
  83 14  H  1S         -0.02364   0.06929  -0.01761   0.07599  -0.05951
  84        2S         -0.00208   0.00442  -0.00872   0.02401  -0.02491
  85 15  H  1S         -0.01533   0.07198   0.01121   0.08923  -0.08374
  86        2S          0.00057   0.01244   0.00929   0.02675  -0.04153
  87 16  H  1S          0.04288  -0.02926   0.07607  -0.04275  -0.08039
  88        2S         -0.00194  -0.00294   0.01101  -0.01148  -0.03576
  89 17  H  1S          0.04531  -0.02875   0.08378   0.00446  -0.03116
  90        2S         -0.00315  -0.00334   0.01719   0.01478  -0.01157
                          16        17        18        19        20
                           O         O         O         O         O
     Eigenvalues --    -0.90643  -0.87674  -0.84817  -0.81342  -0.79159
   1 1   C  1S         -0.05962   0.02635   0.02633   0.00723   0.01516
   2        2S          0.05755  -0.02895  -0.02744  -0.00578  -0.01718
   3        2PX         0.05637  -0.09075   0.14488  -0.09260   0.07092
   4        2PY         0.13110   0.00539  -0.00999  -0.05914   0.14558
   5        2PZ         0.02898  -0.00616  -0.00639  -0.00647   0.05997
   6        3S          0.22820  -0.09383  -0.09132  -0.04599  -0.03511
   7        3PX         0.03924  -0.05052   0.06964  -0.06471   0.04702
   8        3PY         0.05538   0.00176   0.01783  -0.04660   0.11634
   9        3PZ         0.01529  -0.00310  -0.00549  -0.00544   0.04807
  10 2   C  1S          0.03243  -0.04500  -0.01557  -0.01176  -0.00241
  11        2S         -0.03590   0.04388   0.01348   0.01263   0.00184
  12        2PX         0.06931   0.02542  -0.17275   0.06218  -0.04461
  13        2PY         0.08173   0.07345   0.11589   0.05491   0.09086
  14        2PZ         0.01302   0.01495  -0.01454   0.00575   0.02917
  15        3S         -0.10722   0.16891   0.07506   0.03955   0.01799
  16        3PX         0.03212   0.00334  -0.10737   0.03087  -0.03648
  17        3PY         0.05410   0.03501   0.08249   0.04433   0.07009
  18        3PZ         0.00545   0.00634  -0.00953   0.00581   0.02266
  19 3   C  1S         -0.02547   0.04178   0.00259   0.01629   0.00288
  20        2S          0.02380  -0.04499  -0.00736  -0.02043   0.00019
  21        2PX        -0.17428  -0.00515  -0.09320  -0.10909   0.04447
  22        2PY        -0.06058   0.01261   0.22330   0.01977  -0.07437
  23        2PZ        -0.04251   0.01288  -0.03129  -0.05261   0.02181
  24        3S          0.11267  -0.14792   0.04417  -0.00899  -0.04674
  25        3PX        -0.10856  -0.01607  -0.07698  -0.06186   0.03899
  26        3PY        -0.02354   0.00007   0.11293   0.00724  -0.03770
  27        3PZ        -0.02251   0.01198  -0.02563  -0.03566   0.01092
  28 4   C  1S          0.05010  -0.05954  -0.03132  -0.00522  -0.00954
  29        2S         -0.04889   0.05695   0.03284   0.00528   0.01163
  30        2PX         0.03051   0.05679   0.04667  -0.10863   0.17855
  31        2PY         0.04418  -0.13871   0.08385  -0.06769  -0.04007
  32        2PZ         0.01787  -0.02526  -0.00880   0.03755   0.06909
  33        3S         -0.19527   0.22451   0.13593  -0.01045   0.04869
  34        3PX         0.05158   0.02824   0.04323  -0.09946   0.11848
  35        3PY         0.02618  -0.10415   0.06647  -0.03114  -0.00922
  36        3PZ         0.00536  -0.01560  -0.00455   0.03111   0.04486
  37 5   C  1S         -0.01475  -0.04239   0.00649  -0.00796  -0.01357
  38        2S          0.01382   0.03876  -0.00911   0.01048   0.01588
  39        2PX        -0.17433  -0.08624  -0.00524  -0.12355   0.08357
  40        2PY         0.02463  -0.11345  -0.22132  -0.08024   0.08423
  41        2PZ        -0.06320   0.00729  -0.01382  -0.10030   0.01538
  42        3S          0.08006   0.18080  -0.02578   0.02759   0.02491
  43        3PX        -0.08718  -0.04305  -0.03914  -0.12626   0.05725
  44        3PY        -0.01900  -0.08205  -0.15912  -0.09201   0.07864
  45        3PZ        -0.03858  -0.00290  -0.02483  -0.07580   0.02716
  46 6   C  1S         -0.03158   0.00478   0.00307   0.01716   0.00850
  47        2S          0.02316  -0.00291  -0.00358  -0.01409  -0.00549
  48        2PX         0.05025   0.20022  -0.09190  -0.11443  -0.00355
  49        2PY        -0.15530   0.06345   0.00208   0.14327  -0.04763
  50        2PZ         0.03203  -0.00018  -0.08354   0.20207   0.22285
  51        3S          0.16692  -0.01175  -0.01758  -0.11898  -0.06859
  52        3PX         0.01653   0.10619  -0.06639  -0.04757   0.04289
  53        3PY        -0.09303   0.02538   0.00289   0.12068  -0.04607
  54        3PZ         0.02434   0.01297  -0.07307   0.15897   0.20207
  55 7   C  1S          0.01290   0.02355  -0.02028  -0.00983  -0.01522
  56        2S         -0.01304  -0.02412   0.02017   0.00695   0.01572
  57        2PX         0.10130  -0.13553  -0.05087   0.20424   0.07571
  58        2PY        -0.11593  -0.02889  -0.00557   0.00528   0.06465
  59        2PZ         0.13161   0.16238  -0.10997  -0.09687  -0.16010
  60        3S         -0.06498  -0.09276   0.08533   0.06163   0.04872
  61        3PX         0.06619  -0.09144  -0.04116   0.14308   0.06183
  62        3PY        -0.09371  -0.03357   0.01448   0.02608   0.06010
  63        3PZ         0.13426   0.14858  -0.10015  -0.10367  -0.15861
  64 8   H  1S          0.12677  -0.05379   0.01842  -0.06809   0.09137
  65        2S          0.06780  -0.03129   0.01192  -0.03908   0.05433
[...]
 ,-4.7884169,0.3128312,-0.1693667,-1.3586545,2.7789736,0.6271312,1.8155
 313,-0.7720421,0.5187084,-0.3230477,-1.342518,0.8964848,3.2381548,-1.2
 345887,-0.1534612,1.8851267,3.9210673,1.014076,-1.0012319,9.3043856,3.
 5740746,1.4853204,1.6969413,1.0026935,0.7850614,1.2374105,7.7210562,9.
 8738698,-1.609919,4.7235288,1.0404621,-0.5388979,2.1491583,7.1414277,3
 .1577199,5.8964322,4.8839175,47.3533775,7.86095,0.0219825,3.2600436,-0
 .0484215,-0.0507896,-4.5218581,-0.9454649,-0.8572143,-3.951437,-1.6181
 245,-0.5386361,-10.5346296,-4.7659464,-2.2012756,3.0545751,2.1064273,-
 0.1506118,-3.8715368,1.1984342,14.213634,-2.2476018,9.4676602,3.533991
 ,6.4461015,-2.1642873,-18.6774655,-1.0923886,-8.2229014,-6.7763091,0.7
 403081,-4.280431,-5.9086263,-1.2921009,-7.1116174,-4.2448297,-1.136577
 6,-3.0642906,0.8378738,-0.4659333,1.5691692,-1.9898236,0.8920112,0.223
 289,-1.6010603,0.5570769,1.7695099,-0.370986,-2.9037313,2.8384885,4.27
 7564,-1.7495876,-3.0957086,1.1259431,3.4085536,2.0410183,-11.415494,2.
 3556292,-8.6412622,-4.6988406,-2.4936071,0.4223314,14.8318854,1.515840
 1,3.1949983,0.4205469,3.7994835,-0.2470262,-4.8248506,0.6552158,1.8150
 112,2.2389574,-1.2255057,-1.4336337,-1.5256458,-1.0617634,-1.0782315,-
 1.0266062,-0.5760467,-1.1242179,-5.81963,-1.0977917,-3.0958863,-2.1862
 943,1.4395303,-0.0102086,-1.7365596,-0.0812447,-1.9210117,-2.090705,3.
 5038366,-2.0719928,1.9417457,-1.7801709,1.3806309,1.2516831,-2.0068042
 ,2.8103791,-3.9584743,1.955251,-2.1799409,-1.4203622,-2.1684336,0.8543
 338,-1.872503,1.4676368,-2.4963346,-3.0507626,12.195425,-1.5918706,0.1
 796074,0.338022,-0.5226838,0.1597771,-1.3695457,1.6251115,-1.0696974,0
 .0538075,0.1304333,0.1262767,0.2973582,0.562464,1.0368067,1.6505182,0.
 2359843,0.2556486,4.452874,1.145838,1.145342,3.3430495,1.188731,2.8465
 347,0.3694939,1.5180265,2.0055177,0.6839404,1.8346094,1.0047568,3.6619
 766,0.8229024,-0.2534561,3.9527228,1.0221542,5.0500909,-0.731318,1.166
 74,-1.3977591,0.8778598,-0.8039585,-1.022034,0.1161141,-0.2525769,4.95
 78405,-0.0579489,3.6722551,2.5470852,-0.1582928,-0.0631235,3.3169712,-
 0.1519067,3.9911032,5.4364659,-37.1969712,-6.990264,0.4111948,-3.46087
 65,0.0413158,0.2988079,-7.8796554,-1.6587062,0.7802082,3.6852067,1.647
 8972,0.0894877,-0.5597434,4.258515,2.6910517,-9.9069609,-2.9845859,0.1
 145511,-4.0658597,-2.3513214,-1.3440529,0.0911454,-0.3301238,-0.138232
 5,-2.9933226,-4.2289704,-6.044507,-1.2132106,-0.9566677,-0.4809435,-0.
 249781,-1.3149992,-1.0049442,-0.0320733,-1.3490349,-1.0354945,-8.50613
 02,1.105272,-1.0355502,1.7194133,-0.1807692,-0.3941645,3.040845,-2.858
 4365,0.9318069,-1.0998483,0.2342638,0.4495874,3.8390685,-0.8126207,-0.
 2795283,-1.2072208,1.0519905,1.4582814,0.0474534,1.7594258,1.2880661,-
 1.4277653,-0.7824503,1.3180949,-0.3874176,0.607442,3.5374983,-0.317165
 4,-2.2791682,1.3370674,-0.0440874,-0.7093351,-3.1096804,1.1365058,3.54
 45139,-4.6173456,-3.2685769,2.6997734,-2.3436856,0.4214736,-0.3115384,
 0.0228954,1.7690588,-2.5666044,3.8614979,-0.1223885,0.2022756,0.393346
 8,0.6786002,-0.3369789,0.0645963,-0.9297976,1.5803111,0.4155421\HyperP
 olar=-22.435512,-58.7497999,-31.782701,-82.7863322,50.3336485,45.73105
 18,-58.9803979,82.1599178,-8.3976222,-0.5560235\Quadrupole=7.1311375,-
 1.2308898,-5.9002477,0.0407965,1.3932295,5.6461006\PG=C01 [X(C8H9)]\NI
 mag=0\\0.75836931,0.04425829,0.60197504,0.02702874,0.21946499,0.334466
 51,-0.36475552,-0.03690331,-0.02563243,0.75532173,0.03204522,-0.135733
 28,-0.03162898,-0.05942922,0.48954102,0.02600154,-0.03635489,-0.107489
 60,-0.00097640,0.29285354,0.42792063,-0.04143543,-0.03079574,-0.029531
 25,-0.19196411,-0.06820813,-0.09729312,0.74031318,-0.07274300,0.015714
 04,0.00834406,0.01496350,-0.17128662,-0.08599041,-0.05924689,0.4417910
 8,-0.06406897,0.00918315,0.00863343,-0.03180194,-0.11402971,-0.2021727
 7,0.07869359,0.22935418,0.48371688,-0.13488618,0.05741318,0.03062231,-
 0.06713228,0.00623564,0.00241735,0.00501457,0.02183695,0.02344714,0.80
 878376,0.07673132,-0.20515807,-0.06216345,-0.00621969,0.01367486,-0.00
 674151,-0.00021383,0.00476361,0.00993214,0.10569541,0.61739568,0.01466
 436,-0.05497114,-0.11449685,0.02250750,0.00993232,0.02212725,-0.002753
 25,-0.01107054,-0.01603804,-0.10593036,0.10420428,0.24823718,-0.041296
 76,0.00674247,0.00894567,0.07105412,0.00122406,0.01566860,-0.15805241,
 -0.00067203,-0.02363757,0.01197443,0.00968582,-0.00909432,0.74855942,0
 .03717029,-0.00956812,-0.00598509,-0.04552771,-0.01845456,-0.03957465,
 0.06014131,-0.15375728,-0.06038456,-0.00559288,-0.00572007,0.00901452,
 -0.19585337,0.42200528,0.01381153,0.00015192,-0.00632445,-0.00960054,-
 0.02810414,-0.01851736,0.03901466,-0.09489834,-0.19310629,-0.00010232,
 -0.00249907,0.00817437,0.17676568,0.19332672,0.55229506,0.01478925,0.0
 2419020,0.00663704,-0.00460604,-0.00201513,-0.00254110,-0.00015983,0.0
 0055425,0.00440897,-0.11560185,-0.02215013,-0.00192562,-0.01583797,-0.
 00294674,-0.02974208,0.63417584,-0.01137035,-0.02659188,-0.00788230,0.
 00345097,0.00247921,0.00308876,-0.00300089,-0.00796158,-0.00044867,-0.
 03231222,-0.19689475,-0.01704595,0.00934808,0.01506038,0.02247832,-0.0
 7136259,0.54545901,-0.00330376,-0.01706813,-0.00010882,-0.00106524,-0.
 00117870,0.00303054,0.00292131,0.00190763,-0.00490486,0.00667778,-0.00
 614988,-0.08215548,-0.01022222,0.00273655,0.00206076,-0.06751423,-0.00
 165905,0.55222928,0.03096593,-0.00271425,-0.00648287,-0.03745042,-0.01
 228095,-0.01969120,-0.00907014,0.05373168,0.04902575,-0.01558257,-0.01
 429559,-0.00167093,-0.39976614,0.15042944,-0.05314989,-0.14992769,0.01
 501579,-0.05342863,0.68557115,-0.00854839,0.00130808,0.00158390,0.0087
 6086,0.00167593,0.00618010,0.03323508,-0.02355218,-0.01413225,-0.02537
 600,-0.00117620,-0.03341958,0.18986830,-0.20292684,-0.00992324,0.00871
 583,-0.09876974,-0.01335402,-0.26353658,0.51675242,0.01543910,-0.00233
 420,-0.00261320,-0.01460017,-0.00274165,-0.01108850,0.03466241,-0.0059
 9654,0.01829603,-0.01493748,-0.01150448,-0.00600850,-0.01938656,-0.025
 61125,-0.12949811,-0.06013284,-0.01021534,-0.16072520,0.05830161,0.191
 25885,0.54871045,-0.11370672,-0.09256916,-0.04738530,-0.01160564,-0.03
 118057,-0.01932691,-0.00631410,0.00049674,0.00110757,0.01107903,0.0228
 0104,0.01098327,0.00028809,-0.00007937,0.00011037,-0.00352687,0.002219
 55,0.00190432,-0.00054960,0.00004427,-0.00019436,0.12337216,-0.1008692
 4,-0.26321739,-0.11505680,0.00964512,0.00872938,-0.00281701,-0.0009496
 3,0.00009983,-0.00614323,-0.00415372,-0.01834789,-0.01540184,-0.002056
 55,0.00215921,0.00110128,0.00372002,0.00116749,-0.00194682,0.00119490,
 -0.00020131,0.00031507,0.09641457,0.27149959,-0.03961908,-0.11716773,-
 0.12900944,-0.00786411,-0.00911751,0.00991753,0.00190962,-0.00274945,0
 .00961773,-0.01457114,-0.01055378,0.00700072,0.00132281,-0.00162978,-0
 .00054496,0.00098281,-0.00291555,0.00042028,0.00022608,0.00020250,0.00
 050469,0.05416515,0.13472107,0.10790498,-0.02220039,0.02952286,0.02044
 016,-0.15657371,0.10988788,0.08497261,0.01287777,-0.01951879,-0.016163
 50,-0.00390355,-0.00328876,-0.00202767,-0.00197734,-0.00027060,-0.0028
 9190,0.00004716,-0.00011342,-0.00006283,-0.00069469,0.00015329,-0.0002
 6178,0.00057009,0.00026917,0.00023949,0.17102341,-0.00226706,0.0063615
 2,-0.00006737,0.10830283,-0.20623661,-0.12036558,0.01376587,-0.0114603
 7,-0.01211884,-0.00182740,0.00308503,-0.00481498,-0.00142179,0.0031490
 5,-0.00480118,-0.00021137,0.00067420,0.00002363,-0.00115681,0.00033536
 ,0.00017053,-0.00028087,-0.00068297,0.00419441,-0.11571935,0.20710588,
 -0.00771243,0.00289886,0.00789909,0.08685576,-0.11408799,-0.13768761,0
 .01015293,-0.02255072,-0.01275011,-0.00072010,-0.00296928,0.00529476,-
 0.00505632,-0.00310918,0.00373451,0.00012474,-0.00079483,-0.00003865,0
 .00080487,0.00005847,0.00011700,-0.00027105,0.00246431,-0.00339419,-0.
 08450168,0.13499025,0.14028977,0.00004972,-0.00034826,-0.00315958,-0.0
 1456335,0.00589983,-0.00315897,-0.36010998,0.06302170,-0.01391409,0.00
 078128,-0.00020258,-0.00001053,-0.00452684,0.00266716,-0.00418340,0.00
 015060,0.00007738,0.00009448,-0.00000212,0.00130523,0.00096965,-0.0005
 0440,-0.00031766,0.00079433,0.00121082,-0.00079172,0.00111911,0.377164
 26,0.00118859,0.00320562,-0.00690584,-0.02443220,0.00868436,-0.0142453
 4,0.06554115,-0.07802062,0.00424663,-0.00070839,-0.00123916,0.00087618
 ,0.03166548,0.00178802,-0.00459304,-0.00030164,0.00089019,-0.00015086,
 0.00050829,0.00060969,-0.00676682,-0.00020788,-0.00105001,0.00190313,-
 0.00157134,-0.00173672,0.00319475,-0.07052198,0.07023084,-0.00614069,-
 0.00801694,0.00149512,-0.02434187,0.00327651,0.01169368,-0.01519325,-0
 .00371552,-0.07669990,0.00165214,0.00104436,-0.00136048,0.01992526,-0.
 01030662,0.01026011,-0.00011721,-0.00053212,-0.00025586,0.00229011,-0.
 00621837,-0.00077263,-0.00145006,0.00040523,-0.00102412,0.00004460,0.0
 0296664,-0.00273425,0.02103774,0.01970413,0.06023385,-0.00219605,0.000
 42318,0.00050402,0.00114584,0.00423585,0.00040532,0.01161311,0.0046874
 9,0.01207465,0.00162698,0.00071688,0.00028576,-0.19612744,-0.03410892,
 -0.14738683,0.00008254,0.00597531,0.00023628,-0.01881922,-0.00676663,-
 0.02884253,0.00012430,-0.00027770,0.00023302,0.00035146,0.00065067,0.0
 0010712,0.00105516,-0.00125394,0.00153076,0.20347900,-0.00096672,0.000
 54996,0.00036686,0.00568914,0.00111996,-0.00280272,-0.01566953,-0.0081
 9658,-0.02708544,0.00069992,0.00043173,0.00058353,-0.04084705,-0.06565
 371,-0.05360902,0.00598773,0.00330391,-0.00489803,0.02058935,0.0072424
 0,0.01532950,-0.00002764,-0.00021721,0.00031608,-0.00052934,-0.0006358
 9,-0.00038663,-0.00053689,-0.00163093,0.00166290,0.02882083,0.06759546
 ,0.00230343,-0.00014346,-0.00030066,0.00081633,-0.00378789,-0.00036373
 ,-0.01791814,-0.00525127,-0.01424109,-0.00145612,-0.00079897,-0.000240
 33,-0.14482582,-0.05659690,-0.23659038,-0.00252330,-0.00433174,0.00447
 863,-0.00124767,-0.00159913,0.00521962,-0.00010263,0.00026137,-0.00026
 937,-0.00067947,-0.00074657,-0.00028328,0.00021126,0.00120108,-0.00013
 017,0.16111279,0.06737032,0.24305006,-0.00084887,-0.00001203,-0.000060
 33,0.00052837,0.00016660,0.00056253,-0.00209612,0.00586588,-0.00465637
 ,0.00030656,0.00101720,-0.00170801,-0.00242101,0.02854849,0.02129212,0
 .00759132,-0.01070738,-0.02178494,-0.08005469,0.04011268,0.04275185,0.
 00001690,-0.00017452,0.00033343,0.00003543,-0.00017643,0.00036026,-0.0
 0061580,-0.00047168,0.00162451,-0.00059094,-0.00258036,0.00280014,0.07
 991432,0.00032516,0.00003464,-0.00021036,-0.00040169,0.00001453,0.0006
 6247,0.00776579,0.00634688,-0.00448906,0.00211734,0.00038392,0.0013782
 9,0.00299358,-0.00038135,-0.02098555,0.00373136,0.00949032,-0.00428681
 ,0.04781201,-0.19606925,-0.14683180,-0.00008569,-0.00012120,0.00035026
 ,-0.00013424,-0.00035752,0.00040079,-0.00022439,-0.00225281,0.00045291
 ,-0.00248465,-0.00389719,0.00405300,-0.05909662,0.18738759,-0.00170436
 ,0.00023553,0.00053541,0.00192323,0.00089832,0.00056853,-0.00451949,-0
 .00535942,0.00250984,-0.00284208,0.00128300,-0.00298698,-0.00590103,0.
 00032389,0.01149855,0.00403445,-0.01939652,-0.00904859,0.04728258,-0.1
 5193704,-0.23631246,0.00003294,-0.00003342,-0.00013279,0.00015504,0.00
 029801,-0.00032775,0.00006809,0.00128382,-0.00059265,0.00158498,0.0036
 1022,-0.00135590,-0.03983613,0.16907357,0.23595402,-0.07488393,0.00700
 319,0.01822950,0.01668302,0.01143888,0.00948805,-0.00111943,-0.0093731
 9,-0.00875432,-0.48621162,-0.14069039,0.06278707,-0.00544333,0.0034901
 7,-0.00023332,-0.00810447,-0.00497390,-0.00087045,0.00320681,-0.001956
 82,0.00422710,0.00100722,-0.00277955,0.00148039,-0.00057021,0.00091263
 ,-0.00114550,-0.00016995,0.00028975,-0.00055834,-0.00033803,-0.0000129
 3,0.00033819,-0.00070102,-0.00068166,0.00039072,0.87030142,0.01372726,
 0.01593298,0.00056477,0.01982481,0.00292927,0.00478639,-0.00263600,-0.
 01257490,-0.01236507,-0.12121886,-0.17480673,-0.00878052,-0.00927405,0
 .00833597,0.00234067,-0.04050303,-0.01296973,0.00185410,0.00736254,-0.
 00722361,0.00558919,0.00197464,-0.00065587,0.00261745,0.00148525,0.000
 36567,-0.00007783,-0.00004207,0.00050478,-0.00069874,-0.00057647,-0.00
 005507,0.00051213,-0.00084558,-0.00003865,-0.00088281,0.08774813,0.699
 08430,0.02062699,0.00599019,0.00231085,0.00488013,-0.00313565,0.003865
 51,-0.00067081,-0.00393763,-0.00404673,0.06950768,-0.00310004,-0.09678
 294,-0.00361329,0.00379775,0.00246007,-0.00733646,-0.00392218,0.008647
 73,0.00360009,-0.00081613,0.00119674,0.00023898,0.00239427,-0.00160146
 ,0.00050115,0.00003295,0.00013503,0.00016892,0.00049349,-0.00045870,-0
 .00014024,-0.00008775,0.00014916,0.00012618,0.00006560,-0.00033974,-0.
 15789840,0.16399035,0.27814368,-0.00170235,-0.00061011,-0.00288106,0.0
 0190062,0.00096697,0.00165579,-0.00004037,-0.00143367,-0.00124966,-0.0
 0500869,-0.03646810,-0.00937948,-0.00096369,0.00080337,0.00011805,-0.0
 0300139,0.00070384,0.00420684,0.00084573,-0.00025067,0.00046026,-0.001
 00743,0.00057454,0.00078546,-0.00000446,-0.00001800,0.00003910,0.00002
 617,0.00012116,-0.00007591,-0.00007965,-0.00001394,0.00007279,-0.00014
 570,-0.00007760,-0.00003896,-0.09632301,-0.07669328,-0.01769209,0.0944
 7283,0.00216481,-0.00010028,0.00296417,0.00113598,0.00069497,0.0001166
 9,-0.00012356,-0.00106869,-0.00098711,-0.00051040,-0.00502242,-0.00502
 268,-0.00100149,0.00101556,0.00053003,-0.00164779,0.00150782,-0.004244
 49,0.00062632,-0.00135316,0.00055675,0.00011229,0.00126089,0.00005693,
 0.00001721,0.00010649,-0.00010779,0.00001615,0.00002599,-0.00002327,-0
 .00004206,-0.00000427,0.00002385,0.00001518,0.00014775,-0.00018232,-0.
 08536089,-0.33157867,-0.07856355,0.09239190,0.34479044,-0.00442346,0.0
 0412075,-0.00674181,-0.00014634,0.00007624,0.00206480,0.00009653,0.000
 67975,0.00062814,0.00788697,0.00290158,0.00906046,0.00116412,-0.001528
 51,-0.00131374,0.00456616,-0.00045187,0.01212709,-0.00122101,0.0029497
 2,-0.00086620,0.00000525,-0.00043280,0.00015370,-0.00016425,-0.0003076
 5,0.00024482,-0.00000884,0.00015223,-0.00009154,-0.00000544,0.00001293
 ,0.00002145,-0.00015061,-0.00050594,0.00055688,-0.02013371,-0.08188072
 ,-0.08044454,0.01693710,0.08985627,0.05947811,-0.00261742,-0.00423835,
 0.00267216,-0.00132627,0.00094523,-0.00086309,0.00004678,0.00089644,0.
 00115695,-0.01813576,0.02291726,0.01772694,0.00090659,-0.00056653,-0.0
 0022607,0.00029039,0.00172206,-0.00233488,-0.00056037,-0.00012829,-0.0
 0026850,0.00023929,0.00004894,0.00010771,-0.00029197,0.00015059,-0.000
 28676,-0.00003497,-0.00016033,0.00012059,0.00007915,-0.00001421,-0.000
 06714,-0.00000812,-0.00001205,-0.00003594,-0.21793820,0.12313622,0.088
 50541,0.01138303,-0.00794708,-0.00345288,0.22719566,-0.00446416,0.0005
 5519,-0.00385156,-0.00023200,0.00072489,0.00158240,0.00020813,0.000162
 88,0.00002581,-0.01185553,0.01226386,0.00270145,0.00036519,-0.00037678
 ,-0.00011526,0.00006611,0.00151981,0.00353525,-0.00028730,0.00055213,-
 0.00032353,-0.00038511,0.00020795,0.00008040,-0.00030152,-0.00019350,0
 .00014293,0.00001488,0.00009355,-0.00005532,0.00002563,0.00001056,-0.0
 0000679,-0.00005276,-0.00009960,0.00008868,0.13174237,-0.18441647,-0.0
 8131982,0.02135668,-0.01154241,-0.01368328,-0.13559325,0.18117580,0.00
 830115,-0.00557677,0.01020501,-0.00204373,-0.00049482,-0.00459627,-0.0
 0004146,0.00074435,0.00131470,-0.00222864,-0.00517890,0.01363346,0.000
 19182,0.00040906,0.00007682,-0.00281861,-0.00024064,-0.00767885,-0.000
 05769,-0.00095155,0.00057329,0.00022063,0.00036410,0.00040672,0.000319
 04,0.00057590,-0.00050592,-0.00003781,-0.00033665,0.00030649,0.0000048
 4,-0.00000524,-0.00004638,0.00004441,0.00024603,-0.00024997,0.09256978
 ,-0.07713858,-0.11300863,0.00748831,-0.00523168,0.00609843,-0.10284121
 ,0.09132553,0.09247761,-0.00141511,0.00162774,0.00020331,0.00199496,-0
 .00045118,0.00210552,0.00029821,-0.00140395,-0.00464463,-0.00494796,-0
 .00577357,0.00860722,-0.00420712,0.00226811,0.00040520,-0.10701483,-0.
 03782968,0.09766028,0.01338536,0.01017235,-0.02412476,0.00002889,-0.00
 008776,0.00003958,0.00005211,-0.00000982,0.00014277,0.00008046,0.00025
 816,-0.00028200,-0.00065255,-0.00121955,0.00117742,-0.00208419,-0.0014
 8587,-0.00060402,-0.00066820,-0.00214863,-0.00018061,-0.00055645,0.000
 09578,-0.00104054,0.00064673,-0.00026424,0.00090390,0.11799492,-0.0024
 9523,0.00113747,0.00166516,0.00098572,0.00094919,-0.00074645,0.0005073
 4,0.00013966,0.00040978,-0.01955902,-0.01985213,0.03026364,0.00069220,
 0.00095025,0.00002448,-0.03716564,-0.08491053,0.07754477,0.00175893,0.
 00087673,-0.00224234,-0.00036036,-0.00000229,0.00060405,0.00004293,0.0
 0005757,-0.00005898,-0.00006369,-0.00013083,0.00007069,0.00004069,-0.0
 0012463,0.00000545,-0.00081426,-0.00128664,0.00042517,0.00028238,-0.00
 473221,-0.00172465,-0.00143490,0.00068813,-0.00225741,0.00035750,-0.00
 049847,0.00119910,0.04777363,0.09782477,-0.00076603,0.00068348,0.00073
 506,0.00022902,0.00106331,0.00013961,0.00034144,0.00174464,0.00012334,
 -0.00380799,-0.00415648,0.00982440,0.00076107,-0.00303991,0.00040118,0
 .10262101,0.08122224,-0.24767990,0.00672536,0.00897715,-0.03150803,-0.
 00017182,-0.00002223,0.00018819,0.00003400,-0.00008411,0.00001516,-0.0
 0001027,-0.00011288,0.00012161,-0.00058781,-0.00098318,0.00091486,-0.0
 0212560,-0.00012168,-0.00140628,-0.00009391,-0.00106720,-0.00053557,-0
 .00039428,0.00024909,-0.00091405,0.00014903,-0.00021832,0.00047282,-0.
 10586104,-0.08585999,0.27400936,-0.00222948,-0.00298992,-0.00015008,0.
 00134865,0.00051900,0.00057349,0.00019830,-0.00166313,-0.00102357,0.01
 184386,-0.01026228,-0.00306193,-0.00216257,-0.00057221,-0.00400125,-0.
 24934618,0.13315747,0.04688589,-0.02149733,0.01419550,0.00593699,0.000
 48879,-0.00020095,-0.00056555,0.00004807,0.00009803,-0.00001280,0.0000
 0894,0.00005681,-0.00006638,-0.00075365,0.00063118,-0.00001206,0.00117
 356,-0.00006078,0.00000997,0.00127294,-0.00132087,-0.00062362,0.000204
 80,0.00005764,0.00009094,0.00012547,-0.00034314,0.00002527,-0.01293523
 ,0.00945181,0.00295780,0.27221103,-0.00388679,-0.00640554,-0.00120217,
 0.00038687,0.00049350,0.00036822,-0.00032047,-0.00113914,-0.00096773,0
 .02911598,-0.02378126,-0.00842697,-0.00145883,0.00237501,-0.00042457,0
 .13133854,-0.15345414,-0.03266514,-0.00475777,0.00191955,0.00134807,0.
 00111354,-0.00062820,-0.00091248,0.00006879,0.00006281,-0.00000710,0.0
 0004691,0.00002805,-0.00001649,-0.00006616,0.00016151,-0.00016448,-0.0
 0079442,0.00069858,0.00027129,0.00292183,0.00189893,-0.00015720,0.0000
 8179,0.00043184,0.00029874,-0.00151415,-0.00013939,0.00029077,-0.01152
 151,0.00891394,0.00172608,-0.14075415,0.16856394,-0.00043807,-0.001095
 61,0.00080435,0.00086081,0.00020680,0.00058775,0.00012829,-0.00125475,
 -0.00088028,0.00438485,-0.00354951,-0.00328300,-0.00300790,-0.00184204
 ,-0.00506614,0.05127626,-0.03695256,-0.07039811,-0.03130656,0.02114062
 ,0.00477501,0.00013366,-0.00017254,-0.00013822,0.00004700,0.00005397,-
 0.00000839,0.00001992,0.00005601,0.00000943,-0.00111667,0.00060567,-0.
 00001251,0.00042656,0.00074829,0.00112987,0.00017715,0.00063642,0.0003
 0954,-0.00005227,0.00000910,-0.00006200,-0.00006233,0.00009143,0.00052
 066,0.02549241,-0.01932246,-0.00490177,-0.04696311,0.04064115,0.076613
 84\\-0.00006762,0.00001612,-0.00000905,0.00005969,0.00001542,-0.000061
 68,0.00004452,0.00002218,0.00004477,-0.00000897,-0.00003409,0.00000584
 ,-0.00003677,-0.00003087,-0.00001386,0.00000541,0.00010186,-0.00008144
 ,-0.00003675,-0.00002125,0.00007885,-0.00001985,0.00001024,-0.00000205
 ,0.00002029,-0.00000207,0.00003399,-0.00000535,-0.00000678,-0.00000380
 ,0.00003561,0.00000540,-0.00002689,0.00000064,-0.00000234,-0.00001527,
 0.00004889,-0.00006976,0.00018155,-0.00003130,0.00002385,-0.00007003,-
 0.00002279,0.00002194,-0.00006581,-0.00001508,-0.00003177,0.00001130,0
 .00002944,-0.00001808,-0.00000641\\\@


 DESK:  A WASTEBASKET WITH DRAWERS.
 Job cpu time:       0 days  0 hours  2 minutes  7.0 seconds.
 Elapsed time:       0 days  0 hours  0 minutes  6.5 seconds.
 File lengths (MBytes):  RWF=     25 Int=      0 D2E=      0 Chk=      2 Scr=      1
 Normal termination of Gaussian 16 at Tue Jun 10 01:45:28 2025.
