 Entering Gaussian System, Link 0=g16
 Initial command:
 /home/user/softwares/g16/g16/l1.exe "/home/user/scratch/Gau-331254.inp" -scrdir="/home/user/scratch/"
 Entering Link 1 = /home/user/softwares/g16/g16/l1.exe PID=    331256.
  
 Copyright (c) 1988-2017, Gaussian, Inc.  All Rights Reserved.
  
 This is part of the Gaussian(R) 16 program.  It is based on
 the Gaussian(R) 09 system (copyright 2009, Gaussian, Inc.),
 the Gaussian(R) 03 system (copyright 2003, Gaussian, Inc.),
 the Gaussian(R) 98 system (copyright 1998, Gaussian, Inc.),
 the Gaussian(R) 94 system (copyright 1995, Gaussian, Inc.),
 the Gaussian 92(TM) system (copyright 1992, Gaussian, Inc.),
 the Gaussian 90(TM) system (copyright 1990, Gaussian, Inc.),
 the Gaussian 88(TM) system (copyright 1988, Gaussian, Inc.),
 the Gaussian 86(TM) system (copyright 1986, Carnegie Mellon
 University), and the Gaussian 82(TM) system (copyright 1983,
 Carnegie Mellon University). Gaussian is a federally registered
 trademark of Gaussian, Inc.
  
 This software contains proprietary and confidential information,
 including trade secrets, belonging to Gaussian, Inc.
  
 This software is provided under written license and may be
 used, copied, transmitted, or stored only in accord with that
 written license.
  
 The following legend is applicable only to US Government
 contracts under FAR:
  
                    RESTRICTED RIGHTS LEGEND
  
 Use, reproduction and disclosure by the US Government is
 subject to restrictions as set forth in subparagraphs (a)
 and (c) of the Commercial Computer Software - Restricted
 Rights clause in FAR 52.227-19.
  
 Gaussian, Inc.
 340 Quinnipiac St., Bldg. 40, Wallingford CT 06492
  
  
 ---------------------------------------------------------------
 Warning -- This program may not be used in any manner that
 competes with the business of Gaussian, Inc. or will provide
 assistance to any competitor of Gaussian, Inc.  The licensee
 of this program is prohibited from giving any competitor of
 Gaussian, Inc. access to this program.  By using this program,
 the user acknowledges that Gaussian, Inc. is engaged in the
 business of creating and licensing software in the field of
 computational chemistry and represents and warrants to the
 licensee that it is not a competitor of Gaussian, Inc. and that
 it will not use this program in any manner prohibited above.
 ---------------------------------------------------------------
  

 Cite this work as:
 Gaussian 16, Revision B.01,
 M. J. Frisch, G. W. Trucks, H. B. Schlegel, G. E. Scuseria, 
 M. A. Robb, J. R. Cheeseman, G. Scalmani, V. Barone, 
 G. A. Petersson, H. Nakatsuji, X. Li, M. Caricato, A. V. Marenich, 
 J. Bloino, B. G. Janesko, R. Gomperts, B. Mennucci, H. P. Hratchian, 
 J. V. Ortiz, A. F. Izmaylov, J. L. Sonnenberg, D. Williams-Young, 
 F. Ding, F. Lipparini, F. Egidi, J. Goings, B. Peng, A. Petrone, 
 T. Henderson, D. Ranasinghe, V. G. Zakrzewski, J. Gao, N. Rega, 
 G. Zheng, W. Liang, M. Hada, M. Ehara, K. Toyota, R. Fukuda, 
 J. Hasegawa, M. Ishida, T. Nakajima, Y. Honda, O. Kitao, H. Nakai, 
 T. Vreven, K. Throssell, J. A. Montgomery, Jr., J. E. Peralta, 
 F. Ogliaro, M. J. Bearpark, J. J. Heyd, E. N. Brothers, K. N. Kudin, 
 V. N. Staroverov, T. A. Keith, R. Kobayashi, J. Normand, 
 K. Raghavachari, A. P. Rendell, J. C. Burant, S. S. Iyengar, 
 J. Tomasi, M. Cossi, J. M. Millam, M. Klene, C. Adamo, R. Cammi, 
 J. W. Ochterski, R. L. Martin, K. Morokuma, O. Farkas, 
 J. B. Foresman, and D. J. Fox, Gaussian, Inc., Wallingford CT, 2016.
 
 ******************************************
 Gaussian 16:  EM64L-G16RevB.01 20-Dec-2017
                10-Jun-2025 
 ******************************************
 %nproc=20
 Will use up to   20 processors via shared memory.
 %mem=15GB
 %chk=meth_napthalene.chk
 ---------------------------------------------
 #p hf/3-21g opt freq gfinput gfprint pop=full
 ---------------------------------------------
 1/18=20,19=15,38=1/1,3;
 2/9=110,12=2,17=6,18=5,40=1/2;
 3/5=5,11=9,24=110,25=1,30=1,71=1/1,2,3;
 4//1;
 5/5=2,38=5/2;
 6/7=3,28=1/1;
 7//1,2,3,16;
 1/18=20,19=15/3(2);
 2/9=110/2;
 99//99;
 2/9=110/2;
 3/5=5,11=9,25=1,30=1,71=1/1,2,3;
 4/5=5,16=3,69=1/1;
 5/5=2,38=5/2;
 7//1,2,3,16;
 1/18=20,19=15/3(-5);
 2/9=110/2;
 6/7=3,19=2,28=1/1;
 99/9=1/99;
 Leave Link    1 at Tue Jun 10 01:15:36 2025, MaxMem=  2013265920 cpu:               1.3 elap:               0.1
 (Enter /home/user/softwares/g16/g16/l101.exe)
 --------------------------
 Methyl Napthalene opt+Freq
 --------------------------
 Symbolic Z-matrix:
 Charge =  0 Multiplicity = 1
 C                    -3.458    -0.04151   0.02432 
 C                    -2.05665  -0.03011   0.02906 
 C                    -1.36578   1.18902   0.01097 
 C                    -2.07625   2.39676  -0.01185 
 C                    -3.4776    2.38536  -0.01659 
 C                    -4.16847   1.16623   0.00149 
 H                     0.57803   0.27829   0.03314 
 H                    -3.98549  -0.97235   0.03812 
 H                    -1.51419  -0.95225   0.04648 
 C                     0.03557   1.20042   0.01571 
 C                    -1.38538   3.6159   -0.02993 
 H                    -4.02006   3.30749  -0.03402 
 H                    -5.23843   1.15752  -0.00213 
 C                     0.01596   3.62729  -0.02519 
 C                     0.72644   2.41956  -0.00237 
 H                    -1.92784   4.53803  -0.04736 
 H                     0.54346   4.55813  -0.039 
 C                     2.26638   2.43208   0.00284 
 H                     2.61775   3.3      -0.51501 
 H                     2.61948   2.45196   1.0127 
 H                     2.63186   1.553    -0.48556 
 
 ITRead=  0  0  0  0  0  0  0  0  0  0  0  0  0  0  0  0  0  0  0  0
 ITRead=  0
 MicOpt= -1 -1 -1 -1 -1 -1 -1 -1 -1 -1 -1 -1 -1 -1 -1 -1 -1 -1 -1 -1
 MicOpt= -1
 NAtoms=     21 NQM=       21 NQMF=       0 NMMI=      0 NMMIF=      0
                NMic=       0 NMicF=      0.
                    Isotopes and Nuclear Properties:
 (Nuclear quadrupole moments (NQMom) in fm**2, nuclear magnetic moments (NMagM)
  in nuclear magnetons)

  Atom         1           2           3           4           5           6           7           8           9          10
 IAtWgt=          12          12          12          12          12          12           1           1           1          12
 AtmWgt=  12.0000000  12.0000000  12.0000000  12.0000000  12.0000000  12.0000000   1.0078250   1.0078250   1.0078250  12.0000000
 NucSpn=           0           0           0           0           0           0           1           1           1           0
 AtZEff=  -0.0000000  -0.0000000  -0.0000000  -0.0000000  -0.0000000  -0.0000000  -0.0000000  -0.0000000  -0.0000000  -0.0000000
 NQMom=    0.0000000   0.0000000   0.0000000   0.0000000   0.0000000   0.0000000   0.0000000   0.0000000   0.0000000   0.0000000
 NMagM=    0.0000000   0.0000000   0.0000000   0.0000000   0.0000000   0.0000000   2.7928460   2.7928460   2.7928460   0.0000000
 AtZNuc=   6.0000000   6.0000000   6.0000000   6.0000000   6.0000000   6.0000000   1.0000000   1.0000000   1.0000000   6.0000000

  Atom        11          12          13          14          15          16          17          18          19          20
 IAtWgt=          12           1           1          12          12           1           1          12           1           1
 AtmWgt=  12.0000000   1.0078250   1.0078250  12.0000000  12.0000000   1.0078250   1.0078250  12.0000000   1.0078250   1.0078250
 NucSpn=           0           1           1           0           0           1           1           0           1           1
 AtZEff=  -0.0000000  -0.0000000  -0.0000000  -0.0000000  -0.0000000  -0.0000000  -0.0000000  -0.0000000  -0.0000000  -0.0000000
 NQMom=    0.0000000   0.0000000   0.0000000   0.0000000   0.0000000   0.0000000   0.0000000   0.0000000   0.0000000   0.0000000
 NMagM=    0.0000000   2.7928460   2.7928460   0.0000000   0.0000000   2.7928460   2.7928460   0.0000000   2.7928460   2.7928460
 AtZNuc=   6.0000000   1.0000000   1.0000000   6.0000000   6.0000000   1.0000000   1.0000000   6.0000000   1.0000000   1.0000000

  Atom        21
 IAtWgt=           1
 AtmWgt=   1.0078250
 NucSpn=           1
 AtZEff=  -0.0000000
 NQMom=    0.0000000
 NMagM=    2.7928460
 AtZNuc=   1.0000000
 Leave Link  101 at Tue Jun 10 01:15:37 2025, MaxMem=  2013265920 cpu:              11.8 elap:               0.6
 (Enter /home/user/softwares/g16/g16/l103.exe)

 GradGradGradGradGradGradGradGradGradGradGradGradGradGradGradGradGradGrad
 Berny optimization.
 Initialization pass.
                           ----------------------------
                           !    Initial Parameters    !
                           ! (Angstroms and Degrees)  !
 --------------------------                            --------------------------
 ! Name  Definition              Value          Derivative Info.                !
 --------------------------------------------------------------------------------
 ! R1    R(1,2)                  1.4014         estimate D2E/DX2                !
 ! R2    R(1,6)                  1.4014         estimate D2E/DX2                !
 ! R3    R(1,8)                  1.07           estimate D2E/DX2                !
 ! R4    R(2,3)                  1.4014         estimate D2E/DX2                !
 ! R5    R(2,9)                  1.07           estimate D2E/DX2                !
 ! R6    R(3,4)                  1.4014         estimate D2E/DX2                !
 ! R7    R(3,10)                 1.4014         estimate D2E/DX2                !
 ! R8    R(4,5)                  1.4014         estimate D2E/DX2                !
 ! R9    R(4,11)                 1.4014         estimate D2E/DX2                !
 ! R10   R(5,6)                  1.4014         estimate D2E/DX2                !
 ! R11   R(5,12)                 1.07           estimate D2E/DX2                !
 ! R12   R(6,13)                 1.07           estimate D2E/DX2                !
 ! R13   R(7,10)                 1.07           estimate D2E/DX2                !
 ! R14   R(10,15)                1.4014         estimate D2E/DX2                !
 ! R15   R(11,14)                1.4014         estimate D2E/DX2                !
 ! R16   R(11,16)                1.07           estimate D2E/DX2                !
 ! R17   R(14,15)                1.4014         estimate D2E/DX2                !
 ! R18   R(14,17)                1.07           estimate D2E/DX2                !
 ! R19   R(15,18)                1.54           estimate D2E/DX2                !
 ! R20   R(18,19)                1.07           estimate D2E/DX2                !
 ! R21   R(18,20)                1.07           estimate D2E/DX2                !
 ! R22   R(18,21)                1.07           estimate D2E/DX2                !
 ! A1    A(2,1,6)              120.0            estimate D2E/DX2                !
 ! A2    A(2,1,8)              120.0            estimate D2E/DX2                !
 ! A3    A(6,1,8)              120.0            estimate D2E/DX2                !
 ! A4    A(1,2,3)              120.0            estimate D2E/DX2                !
 ! A5    A(1,2,9)              120.0            estimate D2E/DX2                !
 ! A6    A(3,2,9)              120.0            estimate D2E/DX2                !
 ! A7    A(2,3,4)              120.0            estimate D2E/DX2                !
 ! A8    A(2,3,10)             120.0            estimate D2E/DX2                !
 ! A9    A(4,3,10)             120.0            estimate D2E/DX2                !
 ! A10   A(3,4,5)              120.0            estimate D2E/DX2                !
 ! A11   A(3,4,11)             120.0            estimate D2E/DX2                !
 ! A12   A(5,4,11)             120.0            estimate D2E/DX2                !
 ! A13   A(4,5,6)              120.0            estimate D2E/DX2                !
 ! A14   A(4,5,12)             120.0            estimate D2E/DX2                !
 ! A15   A(6,5,12)             120.0            estimate D2E/DX2                !
 ! A16   A(1,6,5)              120.0            estimate D2E/DX2                !
 ! A17   A(1,6,13)             120.0            estimate D2E/DX2                !
 ! A18   A(5,6,13)             120.0            estimate D2E/DX2                !
 ! A19   A(3,10,7)             120.0            estimate D2E/DX2                !
 ! A20   A(3,10,15)            120.0            estimate D2E/DX2                !
 ! A21   A(7,10,15)            120.0            estimate D2E/DX2                !
 ! A22   A(4,11,14)            120.0            estimate D2E/DX2                !
 ! A23   A(4,11,16)            120.0            estimate D2E/DX2                !
 ! A24   A(14,11,16)           120.0            estimate D2E/DX2                !
 ! A25   A(11,14,15)           120.0            estimate D2E/DX2                !
 ! A26   A(11,14,17)           120.0            estimate D2E/DX2                !
 ! A27   A(15,14,17)           120.0            estimate D2E/DX2                !
 ! A28   A(10,15,14)           120.0            estimate D2E/DX2                !
 ! A29   A(10,15,18)           120.0            estimate D2E/DX2                !
 ! A30   A(14,15,18)           120.0            estimate D2E/DX2                !
 ! A31   A(15,18,19)           109.4712         estimate D2E/DX2                !
 ! A32   A(15,18,20)           109.4712         estimate D2E/DX2                !
 ! A33   A(15,18,21)           109.4712         estimate D2E/DX2                !
 ! A34   A(19,18,20)           109.4712         estimate D2E/DX2                !
 ! A35   A(19,18,21)           109.4712         estimate D2E/DX2                !
 ! A36   A(20,18,21)           109.4712         estimate D2E/DX2                !
 ! D1    D(6,1,2,3)              0.0            estimate D2E/DX2                !
 ! D2    D(6,1,2,9)           -179.9999         estimate D2E/DX2                !
 ! D3    D(8,1,2,3)            179.9998         estimate D2E/DX2                !
 ! D4    D(8,1,2,9)              0.0            estimate D2E/DX2                !
 ! D5    D(2,1,6,5)              0.0            estimate D2E/DX2                !
 ! D6    D(2,1,6,13)           180.0            estimate D2E/DX2                !
 ! D7    D(8,1,6,5)           -179.9998         estimate D2E/DX2                !
 ! D8    D(8,1,6,13)             0.0001         estimate D2E/DX2                !
 ! D9    D(1,2,3,4)              0.0            estimate D2E/DX2                !
 ! D10   D(1,2,3,10)          -179.9999         estimate D2E/DX2                !
 ! D11   D(9,2,3,4)            179.9999         estimate D2E/DX2                !
 ! D12   D(9,2,3,10)            -0.0001         estimate D2E/DX2                !
 ! D13   D(2,3,4,5)              0.0            estimate D2E/DX2                !
 ! D14   D(2,3,4,11)          -180.0            estimate D2E/DX2                !
 ! D15   D(10,3,4,5)           179.9999         estimate D2E/DX2                !
 ! D16   D(10,3,4,11)            0.0            estimate D2E/DX2                !
 ! D17   D(2,3,10,7)             0.0            estimate D2E/DX2                !
 ! D18   D(2,3,10,15)          180.0            estimate D2E/DX2                !
 ! D19   D(4,3,10,7)          -180.0            estimate D2E/DX2                !
 ! D20   D(4,3,10,15)            0.0            estimate D2E/DX2                !
 ! D21   D(3,4,5,6)              0.0            estimate D2E/DX2                !
 ! D22   D(3,4,5,12)           180.0            estimate D2E/DX2                !
 ! D23   D(11,4,5,6)           180.0            estimate D2E/DX2                !
 ! D24   D(11,4,5,12)           -0.0001         estimate D2E/DX2                !
 ! D25   D(3,4,11,14)            0.0            estimate D2E/DX2                !
 ! D26   D(3,4,11,16)          179.9999         estimate D2E/DX2                !
 ! D27   D(5,4,11,14)         -179.9999         estimate D2E/DX2                !
 ! D28   D(5,4,11,16)            0.0            estimate D2E/DX2                !
 ! D29   D(4,5,6,1)             -0.0001         estimate D2E/DX2                !
 ! D30   D(4,5,6,13)          -180.0            estimate D2E/DX2                !
 ! D31   D(12,5,6,1)           180.0            estimate D2E/DX2                !
 ! D32   D(12,5,6,13)            0.0001         estimate D2E/DX2                !
 ! D33   D(3,10,15,14)           0.0            estimate D2E/DX2                !
 ! D34   D(3,10,15,18)         180.0            estimate D2E/DX2                !
 ! D35   D(7,10,15,14)         180.0            estimate D2E/DX2                !
 ! D36   D(7,10,15,18)           0.0            estimate D2E/DX2                !
 ! D37   D(4,11,14,15)           0.0            estimate D2E/DX2                !
 ! D38   D(4,11,14,17)         180.0            estimate D2E/DX2                !
 ! D39   D(16,11,14,15)       -179.9999         estimate D2E/DX2                !
 ! D40   D(16,11,14,17)          0.0001         estimate D2E/DX2                !
 ! D41   D(11,14,15,10)          0.0            estimate D2E/DX2                !
 ! D42   D(11,14,15,18)       -180.0            estimate D2E/DX2                !
 ! D43   D(17,14,15,10)        180.0            estimate D2E/DX2                !
 ! D44   D(17,14,15,18)          0.0            estimate D2E/DX2                !
 ! D45   D(10,15,18,19)        150.0            estimate D2E/DX2                !
 ! D46   D(10,15,18,20)        -90.0            estimate D2E/DX2                !
 ! D47   D(10,15,18,21)         30.0            estimate D2E/DX2                !
 ! D48   D(14,15,18,19)        -30.0            estimate D2E/DX2                !
 ! D49   D(14,15,18,20)         90.0            estimate D2E/DX2                !
 ! D50   D(14,15,18,21)       -150.0            estimate D2E/DX2                !
 --------------------------------------------------------------------------------
 Trust Radius=3.00D-01 FncErr=1.00D-07 GrdErr=1.00D-07 EigMax=2.50D+02 EigMin=1.00D-04
 Number of steps in this run=    118 maximum allowed number of steps=    126.
 GradGradGradGradGradGradGradGradGradGradGradGradGradGradGradGradGradGrad

 Leave Link  103 at Tue Jun 10 01:15:37 2025, MaxMem=  2013265920 cpu:               0.3 elap:               0.0
 (Enter /home/user/softwares/g16/g16/l202.exe)
                          Input orientation:                          
 ---------------------------------------------------------------------
 Center     Atomic      Atomic             Coordinates (Angstroms)
 Number     Number       Type             X           Y           Z
 ---------------------------------------------------------------------
      1          6           0       -3.457996   -0.041511    0.024316
      2          6           0       -2.056651   -0.030112    0.029058
      3          6           0       -1.365779    1.189023    0.010974
      4          6           0       -2.076253    2.396760   -0.011850
      5          6           0       -3.477599    2.385361   -0.016592
      6          6           0       -4.168471    1.166225    0.001491
      7          1           0        0.578029    0.278289    0.033141
      8          1           0       -3.985492   -0.972349    0.038120
      9          1           0       -1.514188   -0.952246    0.046483
     10          6           0        0.035566    1.200422    0.015715
     11          6           0       -1.385382    3.615895   -0.029934
     12          1           0       -4.020062    3.307494   -0.034020
     13          1           0       -5.238429    1.157522   -0.002130
     14          6           0        0.015964    3.627294   -0.025194
     15          6           0        0.726438    2.419558   -0.002369
     16          1           0       -1.927845    4.538029   -0.047362
     17          1           0        0.543459    4.558131   -0.039002
     18          6           0        2.266378    2.432084    0.002840
     19          1           0        2.617750    3.299997   -0.515006
     20          1           0        2.619481    2.451959    1.012703
     21          1           0        2.631862    1.553000   -0.485557
 ---------------------------------------------------------------------
                    Distance matrix (angstroms):
                    1          2          3          4          5
     1  C    0.000000
     2  C    1.401400   0.000000
     3  C    2.427296   1.401400   0.000000
     4  C    2.802800   2.427296   1.401400   0.000000
     5  C    2.427296   2.802800   2.427296   1.401400   0.000000
     6  C    1.401400   2.427296   2.802800   2.427296   1.401400
     7  H    4.048685   2.652671   2.146700   3.396345   4.570596
     8  H    1.070000   2.146700   3.396345   3.872800   3.396345
     9  H    2.146700   1.070000   2.146700   3.396345   3.872800
    10  C    3.707756   2.427296   1.401400   2.427296   3.707756
    11  C    4.204200   3.707756   2.427296   1.401400   2.427296
    12  H    3.396345   3.872800   3.396345   2.146700   1.070000
    13  H    2.146700   3.396345   3.872800   3.396345   2.146700
    14  C    5.052820   4.204200   2.802800   2.427296   3.707756
    15  C    4.854592   3.707756   2.427296   2.802800   4.204200
    16  H    4.828943   4.570596   3.396345   2.146700   2.652671
    17  H    6.096915   5.274200   3.872800   3.396345   4.570596
    18  C    6.235992   4.975106   3.838989   4.342800   5.744200
    19  H    6.954944   5.765038   4.538874   4.806524   6.183709
    20  H    6.643044   5.384649   4.298926   4.806524   6.183710
    21  H    6.315759   4.975261   4.044769   4.806524   6.183709
                    6          7          8          9         10
     6  C    0.000000
     7  H    4.828943   0.000000
     8  H    2.146700   4.731791   0.000000
     9  H    3.396345   2.427296   2.471400   0.000000
    10  C    4.204200   1.070000   4.570596   2.652671   0.000000
    11  C    3.707756   3.872800   5.274200   4.570596   2.802800
    12  H    2.146700   5.506636   4.280590   4.942800   4.570596
    13  H    1.070000   5.882642   2.471400   4.280590   5.274200
    14  C    4.854592   3.396345   6.096915   4.828943   2.427296
    15  C    5.052820   2.146700   5.805941   4.048685   1.401400
    16  H    4.048685   4.942800   5.882642   5.506636   3.872800
    17  H    5.805941   4.280590   7.148675   5.882642   3.396345
    18  C    6.558176   2.736837   7.118798   5.074276   2.548270
    19  H    7.132499   3.686686   7.884269   5.955649   3.370097
    20  H    6.982259   3.138775   7.503423   5.441453   3.039234
    21  H    6.828713   2.472279   7.102182   4.873300   2.667646
                   11         12         13         14         15
    11  C    0.000000
    12  H    2.652671   0.000000
    13  H    4.570596   2.471400   0.000000
    14  C    1.401400   4.048685   5.805941   0.000000
    15  C    2.427296   4.828943   6.096915   1.401400   0.000000
    16  H    1.070000   2.427296   4.731791   2.146700   3.396345
    17  H    2.146700   4.731791   6.707886   1.070000   2.146700
    18  C    3.838989   6.347206   7.612271   2.548270   1.540000
    19  H    4.044769   6.655220   8.159216   2.667646   2.148263
    20  H    4.298926   6.775772   8.028213   3.039234   2.148263
    21  H    4.538874   6.894217   7.895035   3.370097   2.148263
                   16         17         18         19         20
    16  H    0.000000
    17  H    2.471400   0.000000
    18  C    4.693509   2.736837   0.000000
    19  H    4.734327   2.472279   1.070000   0.000000
    20  H    5.114058   3.138775   1.070000   1.747303   0.000000
    21  H    5.467480   3.686686   1.070000   1.747303   1.747303
                   21
    21  H    0.000000
 Stoichiometry    C11H10
 Framework group  C1[X(C11H10)]
 Deg. of freedom    57
 Full point group                 C1      NOp   1
 Largest Abelian subgroup         C1      NOp   1
 Largest concise Abelian subgroup C1      NOp   1
                         Standard orientation:                         
 ---------------------------------------------------------------------
 Center     Atomic      Atomic             Coordinates (Angstroms)
 Number     Number       Type             X           Y           Z
 ---------------------------------------------------------------------
      1          6           0       -2.694391   -1.047414   -0.000000
      2          6           0       -1.372863   -1.513767    0.000001
      3          6           0       -0.308225   -0.602467    0.000001
      4          6           0       -0.565115    0.775186    0.000001
      5          6           0       -1.886643    1.241540   -0.000000
      6          6           0       -2.951281    0.330240   -0.000000
      7          1           0        1.209444   -2.120690    0.000000
      8          1           0       -3.507266   -1.743212   -0.000003
      9          1           0       -1.176722   -2.565636   -0.000001
     10          6           0        1.013303   -1.068821    0.000000
     11          6           0        0.499523    1.686486    0.000000
     12          1           0       -2.082785    2.293409   -0.000000
     13          1           0       -3.960297    0.686311   -0.000002
     14          6           0        1.821051    1.220133   -0.000000
     15          6           0        2.077941   -0.157521   -0.000000
     16          1           0        0.303381    2.738356   -0.000001
     17          1           0        2.633925    1.915931   -0.000001
     18          6           0        3.530169   -0.669997   -0.000001
     19          1           0        4.157239    0.035171   -0.504404
     20          1           0        3.866508   -0.788687    1.008805
     21          1           0        3.575777   -1.612546   -0.504403
 ---------------------------------------------------------------------
 Rotational constants (GHZ):           2.8165711           0.8316160           0.6445661
 Leave Link  202 at Tue Jun 10 01:15:37 2025, MaxMem=  2013265920 cpu:               0.1 elap:               0.0
 (Enter /home/user/softwares/g16/g16/l301.exe)
 Standard basis: 3-21G (6D, 7F)
 Ernie: Thresh=  0.10000D-02 Tol=  0.10000D-05 Strict=F.
 AO basis set in the form of general basis input (Overlap normalization):
      1 0
 S   3 1.00       0.000000000000
      0.1722560000D+03  0.6176690738D-01
      0.2591090000D+02  0.3587940429D+00
      0.5533350000D+01  0.7007130837D+00
 SP   2 1.00       0.000000000000
      0.3664980000D+01 -0.3958951621D+00  0.2364599466D+00
      0.7705450000D+00  0.1215834356D+01  0.8606188057D+00
 SP   1 1.00       0.000000000000
      0.1958570000D+00  0.1000000000D+01  0.1000000000D+01
 ****
      2 0
 S   3 1.00       0.000000000000
      0.1722560000D+03  0.6176690738D-01
      0.2591090000D+02  0.3587940429D+00
      0.5533350000D+01  0.7007130837D+00
 SP   2 1.00       0.000000000000
      0.3664980000D+01 -0.3958951621D+00  0.2364599466D+00
      0.7705450000D+00  0.1215834356D+01  0.8606188057D+00
 SP   1 1.00       0.000000000000
      0.1958570000D+00  0.1000000000D+01  0.1000000000D+01
 ****
      3 0
 S   3 1.00       0.000000000000
      0.1722560000D+03  0.6176690738D-01
      0.2591090000D+02  0.3587940429D+00
      0.5533350000D+01  0.7007130837D+00
 SP   2 1.00       0.000000000000
      0.3664980000D+01 -0.3958951621D+00  0.2364599466D+00
      0.7705450000D+00  0.1215834356D+01  0.8606188057D+00
 SP   1 1.00       0.000000000000
      0.1958570000D+00  0.1000000000D+01  0.1000000000D+01
 ****
      4 0
 S   3 1.00       0.000000000000
      0.1722560000D+03  0.6176690738D-01
      0.2591090000D+02  0.3587940429D+00
      0.5533350000D+01  0.7007130837D+00
 SP   2 1.00       0.000000000000
      0.3664980000D+01 -0.3958951621D+00  0.2364599466D+00
      0.7705450000D+00  0.1215834356D+01  0.8606188057D+00
 SP   1 1.00       0.000000000000
      0.1958570000D+00  0.1000000000D+01  0.1000000000D+01
 ****
      5 0
 S   3 1.00       0.000000000000
      0.1722560000D+03  0.6176690738D-01
      0.2591090000D+02  0.3587940429D+00
      0.5533350000D+01  0.7007130837D+00
 SP   2 1.00       0.000000000000
      0.3664980000D+01 -0.3958951621D+00  0.2364599466D+00
      0.7705450000D+00  0.1215834356D+01  0.8606188057D+00
 SP   1 1.00       0.000000000000
      0.1958570000D+00  0.1000000000D+01  0.1000000000D+01
 ****
      6 0
 S   3 1.00       0.000000000000
      0.1722560000D+03  0.6176690738D-01
      0.2591090000D+02  0.3587940429D+00
      0.5533350000D+01  0.7007130837D+00
 SP   2 1.00       0.000000000000
      0.3664980000D+01 -0.3958951621D+00  0.2364599466D+00
      0.7705450000D+00  0.1215834356D+01  0.8606188057D+00
 SP   1 1.00       0.000000000000
      0.1958570000D+00  0.1000000000D+01  0.1000000000D+01
 ****
      7 0
 S   2 1.00       0.000000000000
      0.5447178000D+01  0.1562849787D+00
      0.8245472400D+00  0.9046908767D+00
 S   1 1.00       0.000000000000
      0.1831915800D+00  0.1000000000D+01
 ****
      8 0
 S   2 1.00       0.000000000000
      0.5447178000D+01  0.1562849787D+00
      0.8245472400D+00  0.9046908767D+00
 S   1 1.00       0.000000000000
      0.1831915800D+00  0.1000000000D+01
 ****
      9 0
 S   2 1.00       0.000000000000
      0.5447178000D+01  0.1562849787D+00
      0.8245472400D+00  0.9046908767D+00
 S   1 1.00       0.000000000000
      0.1831915800D+00  0.1000000000D+01
 ****
     10 0
 S   3 1.00       0.000000000000
      0.1722560000D+03  0.6176690738D-01
      0.2591090000D+02  0.3587940429D+00
      0.5533350000D+01  0.7007130837D+00
 SP   2 1.00       0.000000000000
      0.3664980000D+01 -0.3958951621D+00  0.2364599466D+00
      0.7705450000D+00  0.1215834356D+01  0.8606188057D+00
 SP   1 1.00       0.000000000000
      0.1958570000D+00  0.1000000000D+01  0.1000000000D+01
 ****
     11 0
 S   3 1.00       0.000000000000
      0.1722560000D+03  0.6176690738D-01
      0.2591090000D+02  0.3587940429D+00
      0.5533350000D+01  0.7007130837D+00
 SP   2 1.00       0.000000000000
      0.3664980000D+01 -0.3958951621D+00  0.2364599466D+00
      0.7705450000D+00  0.1215834356D+01  0.8606188057D+00
 SP   1 1.00       0.000000000000
      0.1958570000D+00  0.1000000000D+01  0.1000000000D+01
 ****
     12 0
 S   2 1.00       0.000000000000
      0.5447178000D+01  0.1562849787D+00
      0.8245472400D+00  0.9046908767D+00
 S   1 1.00       0.000000000000
      0.1831915800D+00  0.1000000000D+01
 ****
     13 0
 S   2 1.00       0.000000000000
      0.5447178000D+01  0.1562849787D+00
      0.8245472400D+00  0.9046908767D+00
 S   1 1.00       0.000000000000
      0.1831915800D+00  0.1000000000D+01
 ****
     14 0
 S   3 1.00       0.000000000000
      0.1722560000D+03  0.6176690738D-01
      0.2591090000D+02  0.3587940429D+00
      0.5533350000D+01  0.7007130837D+00
 SP   2 1.00       0.000000000000
      0.3664980000D+01 -0.3958951621D+00  0.2364599466D+00
      0.7705450000D+00  0.1215834356D+01  0.8606188057D+00
 SP   1 1.00       0.000000000000
      0.1958570000D+00  0.1000000000D+01  0.1000000000D+01
 ****
     15 0
 S   3 1.00       0.000000000000
      0.1722560000D+03  0.6176690738D-01
      0.2591090000D+02  0.3587940429D+00
      0.5533350000D+01  0.7007130837D+00
 SP   2 1.00       0.000000000000
      0.3664980000D+01 -0.3958951621D+00  0.2364599466D+00
      0.7705450000D+00  0.1215834356D+01  0.8606188057D+00
 SP   1 1.00       0.000000000000
      0.1958570000D+00  0.1000000000D+01  0.1000000000D+01
 ****
     16 0
 S   2 1.00       0.000000000000
      0.5447178000D+01  0.1562849787D+00
      0.8245472400D+00  0.9046908767D+00
 S   1 1.00       0.000000000000
      0.1831915800D+00  0.1000000000D+01
 ****
     17 0
 S   2 1.00       0.000000000000
      0.5447178000D+01  0.1562849787D+00
      0.8245472400D+00  0.9046908767D+00
 S   1 1.00       0.000000000000
      0.1831915800D+00  0.1000000000D+01
 ****
     18 0
 S   3 1.00       0.000000000000
      0.1722560000D+03  0.6176690738D-01
      0.2591090000D+02  0.3587940429D+00
      0.5533350000D+01  0.7007130837D+00
 SP   2 1.00       0.000000000000
      0.3664980000D+01 -0.3958951621D+00  0.2364599466D+00
      0.7705450000D+00  0.1215834356D+01  0.8606188057D+00
 SP   1 1.00       0.000000000000
      0.1958570000D+00  0.1000000000D+01  0.1000000000D+01
 ****
     19 0
 S   2 1.00       0.000000000000
      0.5447178000D+01  0.1562849787D+00
      0.8245472400D+00  0.9046908767D+00
 S   1 1.00       0.000000000000
      0.1831915800D+00  0.1000000000D+01
 ****
     20 0
 S   2 1.00       0.000000000000
      0.5447178000D+01  0.1562849787D+00
      0.8245472400D+00  0.9046908767D+00
 S   1 1.00       0.000000000000
      0.1831915800D+00  0.1000000000D+01
 ****
     21 0
 S   2 1.00       0.000000000000
      0.5447178000D+01  0.1562849787D+00
      0.8245472400D+00  0.9046908767D+00
 S   1 1.00       0.000000000000
      0.1831915800D+00  0.1000000000D+01
 ****

 AO basis set (Overlap normalization):
 Atom C1       Shell     1 S   3     bf    1 -     1         -5.091661787066         -1.979325150775         -0.000000469802
      0.1722560000D+03  0.6176690738D-01
      0.2591090000D+02  0.3587940429D+00
      0.5533350000D+01  0.7007130837D+00
 Atom C1       Shell     2 SP   2    bf    2 -     5         -5.091661787066         -1.979325150775         -0.000000469802
      0.3664980000D+01 -0.3958951621D+00  0.2364599466D+00
      0.7705450000D+00  0.1215834356D+01  0.8606188057D+00
 Atom C1       Shell     3 SP   1    bf    6 -     9         -5.091661787066         -1.979325150775         -0.000000469802
      0.1958570000D+00  0.1000000000D+01  0.1000000000D+01
 Atom C2       Shell     4 S   3     bf   10 -    10         -2.594335750424         -2.860605604495          0.000001113008
      0.1722560000D+03  0.6176690738D-01
      0.2591090000D+02  0.3587940429D+00
      0.5533350000D+01  0.7007130837D+00
 Atom C2       Shell     5 SP   2    bf   11 -    14         -2.594335750424         -2.860605604495          0.000001113008
      0.3664980000D+01 -0.3958951621D+00  0.2364599466D+00
      0.7705450000D+00  0.1215834356D+01  0.8606188057D+00
 Atom C2       Shell     6 SP   1    bf   15 -    18         -2.594335750424         -2.860605604495          0.000001113008
      0.1958570000D+00  0.1000000000D+01  0.1000000000D+01
 Atom C3       Shell     7 S   3     bf   19 -    19         -0.582461459721         -1.138498021906          0.000001765521
      0.1722560000D+03  0.6176690738D-01
      0.2591090000D+02  0.3587940429D+00
      0.5533350000D+01  0.7007130837D+00
 Atom C3       Shell     8 SP   2    bf   20 -    23         -0.582461459721         -1.138498021906          0.000001765521
      0.3664980000D+01 -0.3958951621D+00  0.2364599466D+00
      0.7705450000D+00  0.1215834356D+01  0.8606188057D+00
 Atom C3       Shell     9 SP   1    bf   24 -    27         -0.582461459721         -1.138498021906          0.000001765521
      0.1958570000D+00  0.1000000000D+01  0.1000000000D+01
 Atom C4       Shell    10 S   3     bf   28 -    28         -1.067913248956          1.464890000176          0.000001382979
      0.1722560000D+03  0.6176690738D-01
      0.2591090000D+02  0.3587940429D+00
      0.5533350000D+01  0.7007130837D+00
 Atom C4       Shell    11 SP   2    bf   29 -    32         -1.067913248956          1.464890000176          0.000001382979
      0.3664980000D+01 -0.3958951621D+00  0.2364599466D+00
      0.7705450000D+00  0.1215834356D+01  0.8606188057D+00
 Atom C4       Shell    12 SP   1    bf   33 -    36         -1.067913248956          1.464890000176          0.000001382979
      0.1958570000D+00  0.1000000000D+01  0.1000000000D+01
 Atom C5       Shell    13 S   3     bf   37 -    37         -3.565239291254          2.346170441598         -0.000000521355
      0.1722560000D+03  0.6176690738D-01
      0.2591090000D+02  0.3587940429D+00
      0.5533350000D+01  0.7007130837D+00
 Atom C5       Shell    14 SP   2    bf   38 -    41         -3.565239291254          2.346170441598         -0.000000521355
      0.3664980000D+01 -0.3958951621D+00  0.2364599466D+00
      0.7705450000D+00  0.1215834356D+01  0.8606188057D+00
 Atom C5       Shell    15 SP   1    bf   42 -    45         -3.565239291254          2.346170441598         -0.000000521355
      0.1958570000D+00  0.1000000000D+01  0.1000000000D+01
 Atom C6       Shell    16 S   3     bf   46 -    46         -5.577113577535          0.624062862623         -0.000000342193
      0.1722560000D+03  0.6176690738D-01
      0.2591090000D+02  0.3587940429D+00
      0.5533350000D+01  0.7007130837D+00
 Atom C6       Shell    17 SP   2    bf   47 -    50         -5.577113577535          0.624062862623         -0.000000342193
      0.3664980000D+01 -0.3958951621D+00  0.2364599466D+00
      0.7705450000D+00  0.1215834356D+01  0.8606188057D+00
 Atom C6       Shell    18 SP   1    bf   51 -    54         -5.577113577535          0.624062862623         -0.000000342193
      0.1958570000D+00  0.1000000000D+01  0.1000000000D+01
 Atom H7       Shell    19 S   2     bf   55 -    55          2.285517793885         -4.007522997605          0.000000056982
      0.5447178000D+01  0.1562849787D+00
      0.8245472400D+00  0.9046908767D+00
 Atom H7       Shell    20 S   1     bf   56 -    56          2.285517793885         -4.007522997605          0.000000056982
      0.1831915800D+00  0.1000000000D+01
 Atom H8       Shell    21 S   2     bf   57 -    57         -6.627772466018         -3.294192510141         -0.000005565863
      0.5447178000D+01  0.1562849787D+00
      0.8245472400D+00  0.9046908767D+00
 Atom H8       Shell    22 S   1     bf   58 -    58         -6.627772466018         -3.294192510141         -0.000005565863
      0.1831915800D+00  0.1000000000D+01
 Atom H9       Shell    23 S   2     bf   59 -    59         -2.223682539709         -4.848350142954         -0.000002254237
      0.5447178000D+01  0.1562849787D+00
      0.8245472400D+00  0.9046908767D+00
 Atom H9       Shell    24 S   1     bf   60 -    60         -2.223682539709         -4.848350142954         -0.000002254237
      0.1831915800D+00  0.1000000000D+01
 Atom C10      Shell    25 S   3     bf   61 -    61          1.914864594289         -2.019778457372          0.000000853877
      0.1722560000D+03  0.6176690738D-01
      0.2591090000D+02  0.3587940429D+00
      0.5533350000D+01  0.7007130837D+00
 Atom C10      Shell    26 SP   2    bf   62 -    65          1.914864594289         -2.019778457372          0.000000853877
      0.3664980000D+01 -0.3958951621D+00  0.2364599466D+00
      0.7705450000D+00  0.1215834356D+01  0.8606188057D+00
 Atom C10      Shell    27 SP   1    bf   66 -    69          1.914864594289         -2.019778457372          0.000000853877
      0.1958570000D+00  0.1000000000D+01  0.1000000000D+01
 Atom C11      Shell    28 S   3     bf   70 -    70          0.943961038147          3.186997584939          0.000000863717
      0.1722560000D+03  0.6176690738D-01
      0.2591090000D+02  0.3587940429D+00
      0.5533350000D+01  0.7007130837D+00
 Atom C11      Shell    29 SP   2    bf   71 -    74          0.943961038147          3.186997584939          0.000000863717
      0.3664980000D+01 -0.3958951621D+00  0.2364599466D+00
      0.7705450000D+00  0.1215834356D+01  0.8606188057D+00
 Atom C11      Shell    30 SP   1    bf   75 -    78          0.943961038147          3.186997584939          0.000000863717
      0.1958570000D+00  0.1000000000D+01  0.1000000000D+01
 Atom H12      Shell    31 S   2     bf   79 -    79         -3.935892494678          4.333914982396         -0.000000801763
      0.5447178000D+01  0.1562849787D+00
      0.8245472400D+00  0.9046908767D+00
 Atom H12      Shell    32 S   1     bf   80 -    80         -3.935892494678          4.333914982396         -0.000000801763
      0.1831915800D+00  0.1000000000D+01
 Atom H13      Shell    33 S   2     bf   81 -    81         -7.483877429700          1.296940042680         -0.000002883605
      0.5447178000D+01  0.1562849787D+00
      0.8245472400D+00  0.9046908767D+00
 Atom H13      Shell    34 S   1     bf   82 -    82         -7.483877429700          1.296940042680         -0.000002883605
      0.1831915800D+00  0.1000000000D+01
 Atom C14      Shell    35 S   3     bf   83 -    83          3.441287087187          2.305717141998         -0.000000652868
      0.1722560000D+03  0.6176690738D-01
      0.2591090000D+02  0.3587940429D+00
      0.5533350000D+01  0.7007130837D+00
 Atom C14      Shell    36 SP   2    bf   84 -    87          3.441287087187          2.305717141998         -0.000000652868
      0.3664980000D+01 -0.3958951621D+00  0.2364599466D+00
      0.7705450000D+00  0.1215834356D+01  0.8606188057D+00
 Atom C14      Shell    37 SP   1    bf   88 -    91          3.441287087187          2.305717141998         -0.000000652868
      0.1958570000D+00  0.1000000000D+01  0.1000000000D+01
 Atom C15      Shell    38 S   3     bf   92 -    92          3.926738858562         -0.297670874295         -0.000000232471
      0.1722560000D+03  0.6176690738D-01
      0.2591090000D+02  0.3587940429D+00
      0.5533350000D+01  0.7007130837D+00
 Atom C15      Shell    39 SP   2    bf   93 -    96          3.926738858562         -0.297670874295         -0.000000232471
      0.3664980000D+01 -0.3958951621D+00  0.2364599466D+00
      0.7705450000D+00  0.1215834356D+01  0.8606188057D+00
 Atom C15      Shell    40 SP   1    bf   97 -   100          3.926738858562         -0.297670874295         -0.000000232471
      0.1958570000D+00  0.1000000000D+01  0.1000000000D+01
 Atom H16      Shell    41 S   2     bf  101 -   101          0.573307825651          5.174742116899         -0.000000985568
      0.5447178000D+01  0.1562849787D+00
      0.8245472400D+00  0.9046908767D+00
 Atom H16      Shell    42 S   1     bf  102 -   102          0.573307825651          5.174742116899         -0.000000985568
      0.1831915800D+00  0.1000000000D+01
 Atom H17      Shell    43 S   2     bf  103 -   103          4.977397747367          3.620584506765         -0.000001094477
      0.5447178000D+01  0.1562849787D+00
      0.8245472400D+00  0.9046908767D+00
 Atom H17      Shell    44 S   1     bf  104 -   104          4.977397747367          3.620584506765         -0.000001094477
      0.1831915800D+00  0.1000000000D+01
 Atom C18      Shell    45 S   3     bf  105 -   105          6.671053215965         -1.266110927863         -0.000000952242
      0.1722560000D+03  0.6176690738D-01
      0.2591090000D+02  0.3587940429D+00
      0.5533350000D+01  0.7007130837D+00
 Atom C18      Shell    46 SP   2    bf  106 -   109          6.671053215965         -1.266110927863         -0.000000952242
      0.3664980000D+01 -0.3958951621D+00  0.2364599466D+00
      0.7705450000D+00  0.1215834356D+01  0.8606188057D+00
 Atom C18      Shell    47 SP   1    bf  110 -   113          6.671053215965         -1.266110927863         -0.000000952242
      0.1958570000D+00  0.1000000000D+01  0.1000000000D+01
 Atom H19      Shell    48 S   2     bf  114 -   114          7.856042740185          0.066462631313         -0.953184865722
      0.5447178000D+01  0.1562849787D+00
      0.8245472400D+00  0.9046908767D+00
 Atom H19      Shell    49 S   1     bf  115 -   115          7.856042740185          0.066462631313         -0.953184865722
      0.1831915800D+00  0.1000000000D+01
 Atom H20      Shell    50 S   2     bf  116 -   116          7.306641816735         -1.490402888785          1.906365330417
      0.5447178000D+01  0.1562849787D+00
      0.8245472400D+00  0.9046908767D+00
 Atom H20      Shell    51 S   1     bf  117 -   117          7.306641816735         -1.490402888785          1.906365330417
      0.1831915800D+00  0.1000000000D+01
 Atom H21      Shell    52 S   2     bf  118 -   118          6.757238931109         -3.047269708337         -0.953183785185
      0.5447178000D+01  0.1562849787D+00
      0.8245472400D+00  0.9046908767D+00
 Atom H21      Shell    53 S   1     bf  119 -   119          6.757238931109         -3.047269708337         -0.953183785185
      0.1831915800D+00  0.1000000000D+01
 There are   119 symmetry adapted cartesian basis functions of A   symmetry.
 There are   119 symmetry adapted basis functions of A   symmetry.
   119 basis functions,   195 primitive gaussians,   119 cartesian basis functions
    38 alpha electrons       38 beta electrons
       nuclear repulsion energy       543.2671280354 Hartrees.
 IExCor=    0 DFT=F Ex=HF Corr=None ExCW=0 ScaHFX=  1.000000
 ScaDFX=  1.000000  1.000000  1.000000  1.000000 ScalE2=  1.000000  1.000000
 IRadAn=      5 IRanWt=     -1 IRanGd=            0 ICorTp=0 IEmpDi=  4
 NAtoms=   21 NActive=   21 NUniq=   21 SFac= 1.00D+00 NAtFMM=   60 NAOKFM=F Big=F
 Integral buffers will be    131072 words long.
 Raffenetti 1 integral format.
 Two-electron integral symmetry is turned on.
 Leave Link  301 at Tue Jun 10 01:15:37 2025, MaxMem=  2013265920 cpu:               1.9 elap:               0.1
 (Enter /home/user/softwares/g16/g16/l302.exe)
 NPDir=0 NMtPBC=     1 NCelOv=     1 NCel=       1 NClECP=     1 NCelD=      1
         NCelK=      1 NCelE2=     1 NClLst=     1 CellRange=     0.0.
 One-electron integrals computed using PRISM.
 One-electron integral symmetry used in STVInt
 NBasis=   119 RedAO= T EigKep=  9.94D-04  NBF=   119
 NBsUse=   119 1.00D-06 EigRej= -1.00D+00 NBFU=   119
 Leave Link  302 at Tue Jun 10 01:15:37 2025, MaxMem=  2013265920 cpu:               5.5 elap:               0.3
 (Enter /home/user/softwares/g16/g16/l303.exe)
 DipDrv:  MaxL=1.
 Leave Link  303 at Tue Jun 10 01:15:38 2025, MaxMem=  2013265920 cpu:               1.4 elap:               0.1
 (Enter /home/user/softwares/g16/g16/l401.exe)
 ExpMin= 1.83D-01 ExpMax= 1.72D+02 ExpMxC= 1.72D+02 IAcc=3 IRadAn=         5 AccDes= 0.00D+00
 Harris functional with IExCor=  205 and IRadAn=       5 diagonalized for initial guess.
 HarFok:  IExCor=  205 AccDes= 0.00D+00 IRadAn=         5 IDoV= 1 UseB2=F ITyADJ=14
 ICtDFT=  3500011 ScaDFX=  1.000000  1.000000  1.000000  1.000000
 FoFCou: FMM=F IPFlag=           0 FMFlag=      100000 FMFlg1=           0
         NFxFlg=           0 DoJE=T BraDBF=F KetDBF=T FulRan=T
         wScrn=  0.000000 ICntrl=       500 IOpCl=  0 I1Cent=   200000004 NGrid=           0
         NMat0=    1 NMatS0=      1 NMatT0=    0 NMatD0=    1 NMtDS0=    0 NMtDT0=    0
 Petite list used in FoFCou.
 Harris En= -420.668170890476    
 JPrj=0 DoOrth=F DoCkMO=F.
 Leave Link  401 at Tue Jun 10 01:15:38 2025, MaxMem=  2013265920 cpu:              12.2 elap:               0.6
 (Enter /home/user/softwares/g16/g16/l502.exe)
 Integral symmetry usage will be decided dynamically.
 Closed shell SCF:
 Using DIIS extrapolation, IDIIS=  1040.
 NGot=  2013265920 LenX=  2013233515 LenY=  2013218913
 Requested convergence on RMS density matrix=1.00D-08 within 128 cycles.
 Requested convergence on MAX density matrix=1.00D-06.
 Requested convergence on             energy=1.00D-06.
 No special actions if energy rises.
 Fock matrices will be formed incrementally for  20 cycles.
 Integral accuracy reduced to 1.0D-05 until final iterations.

 Cycle   1  Pass 0  IDiag  1:
 FoFJK:  IHMeth= 1 ICntrl=       0 DoSepK=F KAlg= 0 I1Cent=           0 FoldK=F
 IRaf= 880000000 NMat=       1 IRICut=       1 DoRegI=T DoRafI=F ISym2E= 0 IDoP0=0 IntGTp=1.
 FoFCou: FMM=F IPFlag=           0 FMFlag=      100000 FMFlg1=           0
         NFxFlg=           0 DoJE=F BraDBF=F KetDBF=F FulRan=T
         wScrn=  0.000000 ICntrl=         0 IOpCl=  0 I1Cent=           0 NGrid=           0
         NMat0=    1 NMatS0=      1 NMatT0=    0 NMatD0=    1 NMtDS0=    0 NMtDT0=    0
 Symmetry not used in FoFCou.
 E= -419.682507884934    
 DIIS: error= 5.58D-02 at cycle   1 NSaved=   1.
 NSaved= 1 IEnMin= 1 EnMin= -419.682507884934     IErMin= 1 ErrMin= 5.58D-02
 ErrMax= 5.58D-02  0.00D+00 EMaxC= 1.00D-01 BMatC= 4.30D-01 BMatP= 4.30D-01
 IDIUse=3 WtCom= 4.42D-01 WtEn= 5.58D-01
 Coeff-Com:  0.100D+01
 Coeff-En:   0.100D+01
 Coeff:      0.100D+01
 Gap=     0.370 Goal=   None    Shift=    0.000
 GapD=    0.370 DampG=1.000 DampE=0.500 DampFc=0.5000 IDamp=-1.
 Damping current iteration by 5.00D-01
 RMSDP=7.18D-03 MaxDP=9.75D-02              OVMax= 1.01D-01

 Cycle   2  Pass 0  IDiag  1:
 RMSU=  3.47D-03    CP:  9.76D-01
 E= -419.865550117653     Delta-E=       -0.183042232719 Rises=F Damp=T
 DIIS: error= 2.88D-02 at cycle   2 NSaved=   2.
 NSaved= 2 IEnMin= 2 EnMin= -419.865550117653     IErMin= 2 ErrMin= 2.88D-02
 ErrMax= 2.88D-02  0.00D+00 EMaxC= 1.00D-01 BMatC= 8.93D-02 BMatP= 4.30D-01
 IDIUse=3 WtCom= 7.12D-01 WtEn= 2.88D-01
 Coeff-Com: -0.713D+00 0.171D+01
 Coeff-En:   0.000D+00 0.100D+01
 Coeff:     -0.507D+00 0.151D+01
 Gap=     0.365 Goal=   None    Shift=    0.000
 RMSDP=3.56D-03 MaxDP=4.82D-02 DE=-1.83D-01 OVMax= 2.33D-02

 Cycle   3  Pass 0  IDiag  1:
 RMSU=  1.79D-03    CP:  9.57D-01  1.86D+00
 E= -420.027245668331     Delta-E=       -0.161695550678 Rises=F Damp=F
 DIIS: error= 1.89D-03 at cycle   3 NSaved=   3.
 NSaved= 3 IEnMin= 3 EnMin= -420.027245668331     IErMin= 3 ErrMin= 1.89D-03
 ErrMax= 1.89D-03  0.00D+00 EMaxC= 1.00D-01 BMatC= 3.52D-04 BMatP= 8.93D-02
 IDIUse=3 WtCom= 9.81D-01 WtEn= 1.89D-02
 Coeff-Com:  0.557D-01-0.149D+00 0.109D+01
 Coeff-En:   0.000D+00 0.000D+00 0.100D+01
 Coeff:      0.547D-01-0.146D+00 0.109D+01
 Gap=     0.366 Goal=   None    Shift=    0.000
 RMSDP=3.83D-04 MaxDP=5.93D-03 DE=-1.62D-01 OVMax= 8.39D-03

 Cycle   4  Pass 0  IDiag  1:
 RMSU=  2.68D-04    CP:  9.56D-01  1.91D+00  1.12D+00
 E= -420.027634259122     Delta-E=       -0.000388590791 Rises=F Damp=F
 DIIS: error= 1.05D-03 at cycle   4 NSaved=   4.
 NSaved= 4 IEnMin= 4 EnMin= -420.027634259122     IErMin= 4 ErrMin= 1.05D-03
 ErrMax= 1.05D-03  0.00D+00 EMaxC= 1.00D-01 BMatC= 4.09D-05 BMatP= 3.52D-04
 IDIUse=3 WtCom= 9.89D-01 WtEn= 1.05D-02
 Coeff-Com:  0.205D-01-0.513D-01 0.242D+00 0.789D+00
 Coeff-En:   0.000D+00 0.000D+00 0.000D+00 0.100D+01
 Coeff:      0.203D-01-0.508D-01 0.239D+00 0.791D+00
 Gap=     0.366 Goal=   None    Shift=    0.000
 RMSDP=9.45D-05 MaxDP=1.81D-03 DE=-3.89D-04 OVMax= 3.50D-03

 Cycle   5  Pass 0  IDiag  1:
 RMSU=  7.24D-05    CP:  9.56D-01  1.92D+00  1.15D+00  9.40D-01
 E= -420.027689164149     Delta-E=       -0.000054905027 Rises=F Damp=F
 DIIS: error= 4.97D-04 at cycle   5 NSaved=   5.
 NSaved= 5 IEnMin= 5 EnMin= -420.027689164149     IErMin= 5 ErrMin= 4.97D-04
 ErrMax= 4.97D-04  0.00D+00 EMaxC= 1.00D-01 BMatC= 4.44D-06 BMatP= 4.09D-05
 IDIUse=3 WtCom= 9.95D-01 WtEn= 4.97D-03
 Coeff-Com: -0.399D-02 0.118D-01-0.113D+00 0.672D-01 0.104D+01
 Coeff-En:   0.000D+00 0.000D+00 0.000D+00 0.000D+00 0.100D+01
 Coeff:     -0.397D-02 0.117D-01-0.113D+00 0.669D-01 0.104D+01
 Gap=     0.366 Goal=   None    Shift=    0.000
 RMSDP=4.39D-05 MaxDP=6.56D-04 DE=-5.49D-05 OVMax= 2.12D-03

 Cycle   6  Pass 0  IDiag  1:
 RMSU=  2.30D-05    CP:  9.56D-01  1.92D+00  1.16D+00  1.06D+00  1.15D+00
 E= -420.027700844161     Delta-E=       -0.000011680012 Rises=F Damp=F
 DIIS: error= 1.73D-04 at cycle   6 NSaved=   6.
 NSaved= 6 IEnMin= 6 EnMin= -420.027700844161     IErMin= 6 ErrMin= 1.73D-04
 ErrMax= 1.73D-04  0.00D+00 EMaxC= 1.00D-01 BMatC= 5.44D-07 BMatP= 4.44D-06
 IDIUse=3 WtCom= 9.98D-01 WtEn= 1.73D-03
 Coeff-Com: -0.236D-02 0.633D-02-0.443D-01-0.353D-01 0.246D+00 0.830D+00
 Coeff-En:   0.000D+00 0.000D+00 0.000D+00 0.000D+00 0.000D+00 0.100D+01
 Coeff:     -0.236D-02 0.632D-02-0.442D-01-0.352D-01 0.245D+00 0.830D+00
 Gap=     0.367 Goal=   None    Shift=    0.000
 RMSDP=1.32D-05 MaxDP=2.16D-04 DE=-1.17D-05 OVMax= 6.82D-04

 Cycle   7  Pass 0  IDiag  1:
 RMSU=  8.01D-06    CP:  9.56D-01  1.92D+00  1.16D+00  1.07D+00  1.28D+00
                    CP:  1.05D+00
 E= -420.027702401864     Delta-E=       -0.000001557702 Rises=F Damp=F
 DIIS: error= 7.91D-05 at cycle   7 NSaved=   7.
 NSaved= 7 IEnMin= 7 EnMin= -420.027702401864     IErMin= 7 ErrMin= 7.91D-05
 ErrMax= 7.91D-05  0.00D+00 EMaxC= 1.00D-01 BMatC= 8.11D-08 BMatP= 5.44D-07
 IDIUse=1 WtCom= 1.00D+00 WtEn= 0.00D+00
 Coeff-Com:  0.107D-02-0.314D-02 0.290D-01-0.852D-02-0.251D+00-0.954D-01
 Coeff-Com:  0.133D+01
 Coeff:      0.107D-02-0.314D-02 0.290D-01-0.852D-02-0.251D+00-0.954D-01
 Coeff:      0.133D+01
 Gap=     0.367 Goal=   None    Shift=    0.000
 RMSDP=8.77D-06 MaxDP=1.87D-04 DE=-1.56D-06 OVMax= 5.25D-04

 Initial convergence to 1.0D-05 achieved.  Increase integral accuracy.
 Cycle   8  Pass 1  IDiag  1:
 E= -420.027699029319     Delta-E=        0.000003372545 Rises=F Damp=F
 DIIS: error= 1.31D-05 at cycle   1 NSaved=   1.
 NSaved= 1 IEnMin= 1 EnMin= -420.027699029319     IErMin= 1 ErrMin= 1.31D-05
 ErrMax= 1.31D-05  0.00D+00 EMaxC= 1.00D-01 BMatC= 1.42D-08 BMatP= 1.42D-08
 IDIUse=1 WtCom= 1.00D+00 WtEn= 0.00D+00
 Coeff-Com:  0.100D+01
 Coeff:      0.100D+01
 Gap=     0.367 Goal=   None    Shift=    0.000
 RMSDP=8.77D-06 MaxDP=1.87D-04 DE= 3.37D-06 OVMax= 5.36D-05

 Cycle   9  Pass 1  IDiag  1:
 RMSU=  6.73D-06    CP:  1.00D+00
 E= -420.027699049874     Delta-E=       -0.000000020555 Rises=F Damp=F
 DIIS: error= 6.77D-06 at cycle   2 NSaved=   2.
 NSaved= 2 IEnMin= 2 EnMin= -420.027699049874     IErMin= 2 ErrMin= 6.77D-06
 ErrMax= 6.77D-06  0.00D+00 EMaxC= 1.00D-01 BMatC= 8.63D-10 BMatP= 1.42D-08
 IDIUse=1 WtCom= 1.00D+00 WtEn= 0.00D+00
 Coeff-Com: -0.125D-01 0.101D+01
 Coeff:     -0.125D-01 0.101D+01
 Gap=     0.367 Goal=   None    Shift=    0.000
 RMSDP=6.57D-07 MaxDP=9.13D-06 DE=-2.06D-08 OVMax= 2.80D-05

 Cycle  10  Pass 1  IDiag  1:
 RMSU=  5.10D-07    CP:  1.00D+00  1.06D+00
 E= -420.027699052820     Delta-E=       -0.000000002946 Rises=F Damp=F
 DIIS: error= 4.01D-06 at cycle   3 NSaved=   3.
 NSaved= 3 IEnMin= 3 EnMin= -420.027699052820     IErMin= 3 ErrMin= 4.01D-06
 ErrMax= 4.01D-06  0.00D+00 EMaxC= 1.00D-01 BMatC= 2.40D-10 BMatP= 8.63D-10
 IDIUse=1 WtCom= 1.00D+00 WtEn= 0.00D+00
 Coeff-Com: -0.496D-01 0.179D+00 0.871D+00
 Coeff:     -0.496D-01 0.179D+00 0.871D+00
 Gap=     0.367 Goal=   None    Shift=    0.000
 RMSDP=2.64D-07 MaxDP=4.61D-06 DE=-2.95D-09 OVMax= 1.53D-05

 Cycle  11  Pass 1  IDiag  1:
 RMSU=  2.39D-07    CP:  1.00D+00  1.07D+00  1.19D+00
 E= -420.027699053624     Delta-E=       -0.000000000804 Rises=F Damp=F
 DIIS: error= 2.02D-06 at cycle   4 NSaved=   4.
 NSaved= 4 IEnMin= 4 EnMin= -420.027699053624     IErMin= 4 ErrMin= 2.02D-06
 ErrMax= 2.02D-06  0.00D+00 EMaxC= 1.00D-01 BMatC= 5.56D-11 BMatP= 2.40D-10
 IDIUse=1 WtCom= 1.00D+00 WtEn= 0.00D+00
 Coeff-Com:  0.809D-02-0.294D+00-0.438D-01 0.133D+01
 Coeff:      0.809D-02-0.294D+00-0.438D-01 0.133D+01
 Gap=     0.367 Goal=   None    Shift=    0.000
 RMSDP=2.35D-07 MaxDP=4.82D-06 DE=-8.04D-10 OVMax= 1.36D-05

 Cycle  12  Pass 1  IDiag  1:
 RMSU=  7.04D-08    CP:  1.00D+00  1.07D+00  1.59D+00  1.38D+00
 E= -420.027699053921     Delta-E=       -0.000000000297 Rises=F Damp=F
 DIIS: error= 3.82D-07 at cycle   5 NSaved=   5.
 NSaved= 5 IEnMin= 5 EnMin= -420.027699053921     IErMin= 5 ErrMin= 3.82D-07
 ErrMax= 3.82D-07  0.00D+00 EMaxC= 1.00D-01 BMatC= 3.77D-12 BMatP= 5.56D-11
 IDIUse=1 WtCom= 1.00D+00 WtEn= 0.00D+00
 Coeff-Com:  0.630D-02-0.103D+00-0.786D-01 0.393D+00 0.782D+00
 Coeff:      0.630D-02-0.103D+00-0.786D-01 0.393D+00 0.782D+00
 Gap=     0.367 Goal=   None    Shift=    0.000
 RMSDP=3.87D-08 MaxDP=6.37D-07 DE=-2.97D-10 OVMax= 2.21D-06

 Cycle  13  Pass 1  IDiag  1:
 RMSU=  2.24D-08    CP:  1.00D+00  1.07D+00  1.63D+00  1.49D+00  9.58D-01
 E= -420.027699053923     Delta-E=       -0.000000000002 Rises=F Damp=F
 DIIS: error= 6.05D-08 at cycle   6 NSaved=   6.
 NSaved= 6 IEnMin= 6 EnMin= -420.027699053923     IErMin= 6 ErrMin= 6.05D-08
 ErrMax= 6.05D-08  0.00D+00 EMaxC= 1.00D-01 BMatC= 1.71D-13 BMatP= 3.77D-12
 IDIUse=1 WtCom= 1.00D+00 WtEn= 0.00D+00
 Coeff-Com: -0.103D-02 0.267D-01 0.115D-01-0.123D+00-0.419D-01 0.113D+01
 Coeff:     -0.103D-02 0.267D-01 0.115D-01-0.123D+00-0.419D-01 0.113D+01
 Gap=     0.367 Goal=   None    Shift=    0.000
 RMSDP=1.01D-08 MaxDP=1.73D-07 DE=-1.71D-12 OVMax= 3.75D-07

 Cycle  14  Pass 1  IDiag  1:
 RMSU=  5.71D-09    CP:  1.00D+00  1.07D+00  1.63D+00  1.50D+00  1.05D+00
                    CP:  1.20D+00
 E= -420.027699053930     Delta-E=       -0.000000000007 Rises=F Damp=F
 DIIS: error= 2.92D-08 at cycle   7 NSaved=   7.
 NSaved= 7 IEnMin= 7 EnMin= -420.027699053930     IErMin= 7 ErrMin= 2.92D-08
 ErrMax= 2.92D-08  0.00D+00 EMaxC= 1.00D-01 BMatC= 3.03D-14 BMatP= 1.71D-13
 IDIUse=1 WtCom= 1.00D+00 WtEn= 0.00D+00
 Coeff-Com: -0.709D-03 0.130D-01 0.101D-01-0.559D-01-0.702D-01 0.162D+00
 Coeff-Com:  0.942D+00
 Coeff:     -0.709D-03 0.130D-01 0.101D-01-0.559D-01-0.702D-01 0.162D+00
 Coeff:      0.942D+00
 Gap=     0.367 Goal=   None    Shift=    0.000
 RMSDP=3.41D-09 MaxDP=5.90D-08 DE=-6.59D-12 OVMax= 1.86D-07

 SCF Done:  E(RHF) =  -420.027699054     A.U. after   14 cycles
            NFock= 14  Conv=0.34D-08     -V/T= 2.0021
 KE= 4.191666855025D+02 PE=-2.063043882491D+03 EE= 6.805823698990D+02
 Leave Link  502 at Tue Jun 10 01:15:40 2025, MaxMem=  2013265920 cpu:              27.1 elap:               1.4
 (Enter /home/user/softwares/g16/g16/l601.exe)
 Copying SCF densities to generalized density rwf, IOpCl= 0 IROHF=0.

 **********************************************************************

            Population analysis using the SCF Density.

 **********************************************************************

 Orbital symmetries:
       Occupied  (A) (A) (A) (A) (A) (A) (A) (A) (A) (A) (A) (A)
                 (A) (A) (A) (A) (A) (A) (A) (A) (A) (A) (A) (A)
                 (A) (A) (A) (A) (A) (A) (A) (A) (A) (A) (A) (A)
                 (A) (A)
       Virtual   (A) (A) (A) (A) (A) (A) (A) (A) (A) (A) (A) (A)
                 (A) (A) (A) (A) (A) (A) (A) (A) (A) (A) (A) (A)
                 (A) (A) (A) (A) (A) (A) (A) (A) (A) (A) (A) (A)
                 (A) (A) (A) (A) (A) (A) (A) (A) (A) (A) (A) (A)
                 (A) (A) (A) (A) (A) (A) (A) (A) (A) (A) (A) (A)
                 (A) (A) (A) (A) (A) (A) (A) (A) (A) (A) (A) (A)
                 (A) (A) (A) (A) (A) (A) (A) (A) (A)
 The electronic state is 1-A.
 Alpha  occ. eigenvalues --  -11.19150 -11.18458 -11.18306 -11.18198 -11.18061
 Alpha  occ. eigenvalues --  -11.17994 -11.17873 -11.17819 -11.17772 -11.17458
 Alpha  occ. eigenvalues --  -11.16112  -1.18175  -1.11306  -1.05425  -1.02907
 Alpha  occ. eigenvalues --   -0.98169  -0.93665  -0.85415  -0.82264  -0.81630
 Alpha  occ. eigenvalues --   -0.70679  -0.69781  -0.66770  -0.62957  -0.61810
 Alpha  occ. eigenvalues --   -0.59094  -0.58542  -0.58221  -0.55388  -0.53991
 Alpha  occ. eigenvalues --   -0.53333  -0.51764  -0.48204  -0.47146  -0.43765
 Alpha  occ. eigenvalues --   -0.38530  -0.31941  -0.27552
 Alpha virt. eigenvalues --    0.09129   0.13872   0.19337   0.26710   0.27796
 Alpha virt. eigenvalues --    0.28786   0.29301   0.31464   0.33889   0.35336
 Alpha virt. eigenvalues --    0.35902   0.36722   0.37322   0.39278   0.42719
 Alpha virt. eigenvalues --    0.43540   0.46564   0.48350   0.52168   0.53472
 Alpha virt. eigenvalues --    0.54931   0.56419   0.60357   0.75037   0.76629
 Alpha virt. eigenvalues --    0.80418   0.86748   0.87939   0.89271   0.93605
 Alpha virt. eigenvalues --    0.95585   0.96119   0.98385   1.00047   1.00277
 Alpha virt. eigenvalues --    1.02986   1.03240   1.05284   1.06498   1.08204
 Alpha virt. eigenvalues --    1.09037   1.09738   1.11833   1.13282   1.13489
 Alpha virt. eigenvalues --    1.16467   1.19484   1.20787   1.21664   1.27336
 Alpha virt. eigenvalues --    1.28384   1.29860   1.32571   1.34422   1.36021
 Alpha virt. eigenvalues --    1.36990   1.37683   1.41564   1.46626   1.47049
 Alpha virt. eigenvalues --    1.52912   1.53115   1.59063   1.63977   1.64271
 Alpha virt. eigenvalues --    1.70336   1.71836   1.77973   1.79302   1.79985
 Alpha virt. eigenvalues --    1.80872   1.85699   1.86622   1.88923   2.07507
 Alpha virt. eigenvalues --    2.19718   2.22102   2.23554   2.25076   2.72023
 Alpha virt. eigenvalues --    2.81038
     Molecular Orbital Coefficients:
                           1         2         3         4         5
                           O         O         O         O         O
     Eigenvalues --   -11.19150 -11.18458 -11.18306 -11.18198 -11.18061
   1 1   C  1S         -0.00121  -0.00694  -0.01317  -0.01162  -0.03588
   2        2S         -0.00040  -0.00035  -0.00182  -0.00139  -0.00274
   3        2PX         0.00005  -0.00064  -0.00018  -0.00021   0.00010
   4        2PY         0.00003   0.00020   0.00005  -0.00003  -0.00093
   5        2PZ         0.00000  -0.00000   0.00000  -0.00000  -0.00000
   6        3S          0.00473  -0.00950   0.00989   0.00276  -0.01605
   7        3PX         0.00273  -0.00527   0.00442   0.00085  -0.00878
   8        3PY        -0.00048  -0.00476   0.00192   0.00133  -0.00751
   9        3PZ        -0.00000   0.00000   0.00000  -0.00000   0.00000
  10 2   C  1S         -0.00218  -0.03401  -0.01308  -0.01958  -0.03789
  11        2S         -0.00044  -0.00698  -0.00164  -0.00256  -0.00477
  12        2PX        -0.00047  -0.00083  -0.00038  -0.00023  -0.00010
  13        2PY        -0.00001  -0.00117  -0.00047  -0.00047  -0.00032
  14        2PZ        -0.00000   0.00000   0.00000   0.00000   0.00000
  15        3S         -0.00372   0.02880   0.00179  -0.00171   0.01701
  16        3PX         0.00443   0.00530   0.00796   0.00021  -0.00085
  17        3PY        -0.00251   0.01576  -0.00378  -0.00015   0.00974
  18        3PZ         0.00000  -0.00000  -0.00000   0.00000  -0.00000
  19 3   C  1S         -0.00599   0.97844   0.12171   0.03046   0.01486
  20        2S         -0.00040   0.10128   0.00869   0.00278   0.00170
  21        2PX        -0.00045  -0.00012   0.00034   0.00001   0.00021
  22        2PY        -0.00013   0.00061  -0.00178  -0.00105  -0.00090
  23        2PZ         0.00000  -0.00000  -0.00000   0.00000  -0.00000
  24        3S         -0.00872  -0.11351   0.02330  -0.01030  -0.01486
  25        3PX        -0.00849   0.00295  -0.00381  -0.01147   0.01168
  26        3PY        -0.00088  -0.01609   0.02789  -0.00132  -0.00102
  27        3PZ         0.00004  -0.00000  -0.00000  -0.00002   0.00000
  28 4   C  1S         -0.00499  -0.12801   0.95792   0.17995   0.08899
  29        2S         -0.00090  -0.01700   0.09902   0.01480   0.00484
  30        2PX        -0.00046  -0.00039   0.00024  -0.00218   0.00199
  31        2PY         0.00005   0.00207   0.00007  -0.00081  -0.00013
  32        2PZ         0.00001  -0.00000  -0.00000  -0.00000  -0.00000
  33        3S          0.00563   0.04823  -0.11043   0.01491   0.03115
  34        3PX         0.00971   0.00553  -0.00540   0.03468  -0.02988
  35        3PY         0.00148  -0.03068   0.00787   0.00671  -0.00669
  36        3PZ        -0.00004   0.00001   0.00000   0.00001   0.00000
  37 5   C  1S         -0.00189  -0.00478  -0.07835  -0.08683   0.97519
  38        2S         -0.00051  -0.00007  -0.01132  -0.01024   0.09890
  39        2PX         0.00009  -0.00025  -0.00124  -0.00038  -0.00000
  40        2PY         0.00004   0.00016   0.00095   0.00006  -0.00140
  41        2PZ        -0.00000   0.00000  -0.00000   0.00000   0.00000
  42        3S          0.00581  -0.00497   0.03095   0.02336  -0.09771
  43        3PX         0.00122   0.00322   0.01107   0.00734  -0.00514
  44        3PY        -0.00310   0.00887  -0.01162  -0.00798   0.02855
  45        3PZ         0.00001  -0.00000  -0.00000  -0.00000  -0.00000
  46 6   C  1S          0.00034  -0.00599  -0.00527  -0.00653  -0.09022
  47        2S          0.00015  -0.00117  -0.00002  -0.00062  -0.01333
  48        2PX         0.00000  -0.00005  -0.00043  -0.00029  -0.00149
  49        2PY        -0.00005   0.00005  -0.00039  -0.00024  -0.00037
  50        2PZ         0.00000   0.00000   0.00000  -0.00000  -0.00000
  51        3S         -0.00204   0.01081  -0.00921  -0.00468   0.04534
  52        3PX        -0.00208   0.00573  -0.00676  -0.00217   0.02611
  53        3PY        -0.00004  -0.00069   0.00231   0.00106   0.00153
  54        3PZ        -0.00000   0.00000   0.00000   0.00000  -0.00000
  55 7   H  1S         -0.00038  -0.00016  -0.00072   0.00020   0.00013
  56        2S          0.00249   0.00247  -0.00202   0.00185   0.00063
  57 8   H  1S         -0.00006  -0.00038   0.00003   0.00004  -0.00043
  58        2S          0.00026  -0.00122   0.00095   0.00036  -0.00233
  59 9   H  1S         -0.00047  -0.00014  -0.00067   0.00006   0.00037
  60        2S         -0.00049   0.00259  -0.00174   0.00017   0.00203
  61 10  C  1S         -0.01174  -0.02059  -0.00697  -0.00924  -0.01055
  62        2S         -0.00522  -0.00577  -0.00107  -0.00183  -0.00173
  63        2PX        -0.00113   0.00120   0.00052   0.00014   0.00034
  64        2PY        -0.00118  -0.00080  -0.00032  -0.00029  -0.00034
  65        2PZ         0.00001   0.00000   0.00000  -0.00001   0.00000
  66        3S          0.03634   0.02951   0.00022   0.01375  -0.00100
  67        3PX         0.00748  -0.00982  -0.00515  -0.00377   0.00070
  68        3PY         0.01741   0.01302  -0.00726   0.00738   0.00130
  69        3PZ        -0.00014   0.00002   0.00000   0.00005   0.00000
  70 11  C  1S         -0.00444  -0.00858  -0.19076   0.96469   0.06742
  71        2S         -0.00015  -0.00048  -0.02285   0.09752   0.00582
  72        2PX        -0.00067   0.00019   0.00080   0.00048   0.00030
  73        2PY         0.00031   0.00027   0.00149  -0.00113  -0.00016
  74        2PZ         0.00000   0.00000   0.00000  -0.00000  -0.00000
  75        3S         -0.01131  -0.00450   0.04379  -0.09480   0.00527
  76        3PX         0.00137  -0.00631  -0.00598  -0.00500  -0.00398
  77        3PY         0.00847   0.00666  -0.01898   0.02752  -0.00401
  78        3PZ         0.00004  -0.00002  -0.00000  -0.00000  -0.00000
  79 12  H  1S          0.00011  -0.00059  -0.00017   0.00024  -0.00265
  80        2S          0.00082  -0.00216   0.00181   0.00053   0.00454
  81 13  H  1S         -0.00014   0.00008  -0.00038  -0.00005   0.00038
  82        2S         -0.00045   0.00120  -0.00131  -0.00006   0.00497
  83 14  C  1S         -0.01607  -0.00478  -0.00086  -0.05276  -0.01859
  84        2S         -0.00553  -0.00096   0.00088  -0.00970  -0.00254
  85        2PX         0.00001   0.00002   0.00040   0.00154   0.00050
  86        2PY         0.00148   0.00009  -0.00020   0.00018  -0.00003
  87        2PZ         0.00001  -0.00001  -0.00000   0.00000  -0.00000
  88        3S          0.03312   0.00942  -0.01451   0.04343   0.00315
  89        3PX        -0.00386  -0.00514   0.00833  -0.02304  -0.00243
  90        3PY        -0.01956  -0.00191   0.00575  -0.00821   0.00000
  91        3PZ        -0.00014   0.00005   0.00001   0.00001   0.00000
  92 15  C  1S          0.98728   0.00511   0.00425   0.00460   0.00215
  93        2S          0.10038   0.00089  -0.00013   0.00111   0.00017
  94        2PX        -0.00048   0.00048   0.00018   0.00033   0.00024
  95        2PY         0.00027   0.00027   0.00013  -0.00069  -0.00012
  96        2PZ        -0.00002   0.00001   0.00000   0.00001   0.00000
  97        3S         -0.09498  -0.01085   0.01045  -0.01712  -0.00185
  98        3PX         0.01272   0.00641  -0.00623   0.00789   0.00016
  99        3PY        -0.00474  -0.00041   0.00162  -0.00560   0.00051
 100        3PZ         0.00048  -0.00009  -0.00002  -0.00010  -0.00001
 101 16  H  1S         -0.00045  -0.00055   0.00016  -0.00271  -0.00015
 102        2S         -0.00136  -0.00207   0.00141   0.00468   0.00094
 103 17  H  1S         -0.00032   0.00010  -0.00044   0.00021   0.00003
 104        2S          0.00297   0.00111  -0.00192   0.00480   0.00074
 105 18  C  1S         -0.00224  -0.00193  -0.00040  -0.00295  -0.00097
 106        2S         -0.00146  -0.00066  -0.00016  -0.00094  -0.00031
 107        2PX         0.00025   0.00026   0.00000   0.00023   0.00003
 108        2PY        -0.00007   0.00004   0.00010  -0.00024  -0.00002
 109        2PZ         0.00039  -0.00006  -0.00001  -0.00006  -0.00000
 110        3S          0.01038  -0.00020   0.00180  -0.00022   0.00087
 111        3PX        -0.00770  -0.00081  -0.00097  -0.00000  -0.00045
 112        3PY         0.00263  -0.00090  -0.00018   0.00153   0.00013
 113        3PZ        -0.00232   0.00036   0.00007   0.00038   0.00003
 114 19  H  1S         -0.00084   0.00006   0.00005  -0.00035  -0.00006
 115        2S         -0.00003   0.00057   0.00010   0.00003   0.00002
 116 20  H  1S         -0.00114  -0.00011  -0.00005  -0.00015  -0.00006
 117        2S          0.00373  -0.00019  -0.00004  -0.00024  -0.00005
 118 21  H  1S         -0.00088  -0.00029  -0.00015   0.00006  -0.00005
 119        2S         -0.00002   0.00015   0.00002   0.00065  -0.00003
                           6         7         8         9        10
                           O         O         O         O         O
     Eigenvalues --   -11.17994 -11.17873 -11.17819 -11.17772 -11.17458
   1 1   C  1S          0.96181   0.14540   0.16404   0.00738   0.00857
   2        2S          0.09857   0.01131   0.01165   0.00055   0.00036
   3        2PX         0.00122  -0.00114  -0.00037  -0.00008  -0.00039
   4        2PY         0.00115   0.00020  -0.00138  -0.00002   0.00002
   5        2PZ         0.00000  -0.00000  -0.00000   0.00000  -0.00000
   6        3S         -0.10357   0.01572   0.02641  -0.00061  -0.00080
   7        3PX        -0.02497   0.01782   0.00972  -0.00148   0.00100
   8        3PY        -0.02167  -0.00006   0.01944   0.00004  -0.00040
   9        3PZ        -0.00000  -0.00000   0.00000   0.00000  -0.00000
  10 2   C  1S         -0.17621   0.95485   0.16643   0.02927   0.02230
  11        2S         -0.02235   0.09592   0.01641   0.00251   0.00127
  12        2PX         0.00125  -0.00026   0.00098   0.00015  -0.00014
  13        2PY        -0.00110   0.00117  -0.00045  -0.00001   0.00011
  14        2PZ         0.00000   0.00000   0.00000   0.00000  -0.00000
  15        3S          0.06150  -0.08468  -0.02516   0.00411   0.01004
  16        3PX        -0.01210   0.00189  -0.00147   0.00014   0.00308
  17        3PY         0.02680  -0.02210  -0.01141   0.00334   0.00548
  18        3PZ         0.00000   0.00000   0.00000  -0.00000   0.00000
  19 3   C  1S          0.00195   0.03398   0.01500   0.00760   0.02206
  20        2S          0.00127  -0.00016   0.00048   0.00021  -0.00195
  21        2PX         0.00018   0.00206   0.00118  -0.00031  -0.00214
  22        2PY        -0.00018   0.00077  -0.00005  -0.00031  -0.00004
  23        2PZ         0.00000   0.00000   0.00000  -0.00000   0.00000
  24        3S         -0.02146   0.02744   0.00622   0.00661   0.03678
  25        3PX         0.01897  -0.02761  -0.01675   0.01104   0.03257
  26        3PY         0.00556  -0.00355  -0.00184   0.00192   0.00837
  27        3PZ        -0.00001  -0.00001  -0.00001   0.00001  -0.00000
  28 4   C  1S          0.01199   0.01439   0.01850   0.01281   0.00781
  29        2S          0.00054   0.00132   0.00166   0.00139   0.00095
  30        2PX         0.00048   0.00003   0.00089  -0.00064  -0.00024
  31        2PY         0.00015   0.00074   0.00040  -0.00002   0.00071
  32        2PZ        -0.00000  -0.00000  -0.00000   0.00000   0.00000
  33        3S          0.01007  -0.00813  -0.01161  -0.01393  -0.01412
  34        3PX        -0.01632   0.00524   0.00972  -0.01056  -0.01228
  35        3PY        -0.00438   0.00530   0.00006  -0.00488   0.00330
  36        3PZ         0.00000   0.00001   0.00001  -0.00000  -0.00000
  37 5   C  1S          0.01490   0.02053   0.09581   0.01852   0.01121
  38        2S          0.00268   0.00205   0.00521   0.00129   0.00044
  39        2PX         0.00047  -0.00014   0.00101  -0.00048  -0.00031
  40        2PY         0.00048   0.00009   0.00138  -0.00015   0.00031
  41        2PZ         0.00000   0.00000   0.00000  -0.00000   0.00000
  42        3S         -0.02622   0.00067   0.03165  -0.00352  -0.00356
  43        3PX        -0.00368   0.00178  -0.00440   0.00398  -0.00109
  44        3PY         0.01504  -0.00182  -0.02007   0.00454  -0.00111
  45        3PZ        -0.00000  -0.00000  -0.00000   0.00000   0.00000
  46 6   C  1S         -0.13762  -0.19651   0.95256   0.04021   0.00967
  47        2S         -0.01828  -0.02023   0.09517   0.00364   0.00064
  48        2PX        -0.00095  -0.00070   0.00087   0.00009  -0.00025
  49        2PY         0.00109   0.00124  -0.00019  -0.00001   0.00006
  50        2PZ        -0.00000  -0.00000   0.00000   0.00000  -0.00000
  51        3S          0.05334   0.01018  -0.08310   0.00241  -0.00020
  52        3PX         0.02248  -0.00139  -0.02041   0.00208   0.00031
  53        3PY        -0.01863  -0.00170   0.00670   0.00218  -0.00069
  54        3PZ         0.00000   0.00000   0.00000  -0.00000   0.00000
  55 7   H  1S         -0.00054  -0.00003   0.00013  -0.00062  -0.00280
  56        2S         -0.00116  -0.00009   0.00107  -0.00263   0.00411
  57 8   H  1S         -0.00262  -0.00027  -0.00035  -0.00020  -0.00003
  58        2S          0.00354   0.00518   0.00712  -0.00012   0.00079
  59 9   H  1S          0.00057  -0.00249  -0.00094   0.00002   0.00002
  60        2S          0.00427   0.00585   0.00012   0.00134   0.00085
  61 10  C  1S         -0.00349  -0.02200  -0.01550  -0.02147   0.98644
  62        2S         -0.00044  -0.00315  -0.00237  -0.00202   0.10029
  63        2PX         0.00048   0.00033   0.00005  -0.00060  -0.00027
  64        2PY         0.00011   0.00020  -0.00003  -0.00076   0.00134
  65        2PZ        -0.00000  -0.00000  -0.00000   0.00001   0.00000
  66        3S         -0.00718   0.01116   0.01184  -0.01226  -0.10283
  67        3PX        -0.00295  -0.00554  -0.00379   0.00614   0.00596
  68        3PY        -0.00612   0.00268   0.00514  -0.00985  -0.03108
  69        3PZ         0.00002   0.00002   0.00002  -0.00002   0.00001
  70 11  C  1S          0.00610   0.01626   0.01372   0.05256   0.00957
  71        2S          0.00029   0.00110   0.00099   0.00065  -0.00012
  72        2PX        -0.00026   0.00011   0.00061  -0.00120  -0.00002
  73        2PY        -0.00007   0.00032   0.00003   0.00090   0.00020
  74        2PZ        -0.00000  -0.00000   0.00000   0.00000  -0.00000
  75        3S          0.00868  -0.00236  -0.00553   0.03886   0.01525
  76        3PX         0.00024   0.00157  -0.00622   0.01093   0.00256
  77        3PY        -0.00469  -0.00133   0.00316  -0.02031  -0.00916
  78        3PZ         0.00000  -0.00000  -0.00001  -0.00000   0.00001
  79 12  H  1S         -0.00059   0.00012  -0.00027  -0.00063   0.00011
  80        2S         -0.00270   0.00109   0.00546  -0.00072   0.00097
  81 13  H  1S          0.00057   0.00005  -0.00260  -0.00022  -0.00004
  82        2S          0.00501  -0.00162   0.00650   0.00063   0.00049
  83 14  C  1S          0.00281  -0.02377  -0.04852   0.98400   0.01944
  84        2S          0.00043  -0.00259  -0.00532   0.09950   0.00218
  85        2PX         0.00004   0.00025   0.00009  -0.00096  -0.00011
  86        2PY        -0.00010   0.00011  -0.00002  -0.00092   0.00098
  87        2PZ         0.00000  -0.00000  -0.00000   0.00000   0.00001
  88        3S         -0.00283   0.00136   0.01025  -0.09498  -0.01571
  89        3PX         0.00278   0.00051  -0.00427   0.01925   0.01110
  90        3PY         0.00069  -0.00084  -0.00027   0.01978   0.00581
  91        3PZ         0.00000   0.00001   0.00002   0.00001  -0.00003
  92 15  C  1S          0.00085   0.00205  -0.00022   0.01546   0.01149
  93        2S         -0.00019   0.00001   0.00025  -0.00240  -0.00306
  94        2PX        -0.00012   0.00033  -0.00003   0.00103   0.00190
  95        2PY         0.00004   0.00012   0.00015  -0.00178   0.00053
  96        2PZ         0.00000   0.00000   0.00000   0.00000  -0.00000
  97        3S          0.00590  -0.00137  -0.00442   0.03463   0.03844
  98        3PX        -0.00296  -0.00168   0.00348  -0.01925  -0.03143
  99        3PY        -0.00220  -0.00096  -0.00106   0.02296  -0.00397
 100        3PZ        -0.00002  -0.00004  -0.00005  -0.00000   0.00001
 101 16  H  1S          0.00016   0.00021  -0.00053  -0.00008   0.00020
 102        2S          0.00106   0.00106  -0.00075   0.00549   0.00245
 103 17  H  1S         -0.00018   0.00000   0.00003  -0.00272  -0.00078
 104        2S         -0.00060  -0.00010   0.00013   0.00514  -0.00242
 105 18  C  1S         -0.00003  -0.00121  -0.00071  -0.00622  -0.00745
 106        2S          0.00004  -0.00042  -0.00016  -0.00168  -0.00179
 107        2PX         0.00005   0.00004   0.00013  -0.00003   0.00004
 108        2PY         0.00002   0.00006  -0.00001  -0.00021   0.00014
 109        2PZ        -0.00001  -0.00003  -0.00003  -0.00000   0.00000
 110        3S         -0.00006   0.00157  -0.00088   0.00949   0.01017
 111        3PX         0.00012  -0.00093   0.00010  -0.00487  -0.00374
 112        3PY         0.00037   0.00024  -0.00022  -0.00027   0.00347
 113        3PZ         0.00009   0.00019   0.00020   0.00003  -0.00001
 114 19  H  1S         -0.00000  -0.00005   0.00001  -0.00022  -0.00052
 115        2S         -0.00005   0.00009   0.00025   0.00025  -0.00039
 116 20  H  1S          0.00001  -0.00010  -0.00001  -0.00037  -0.00038
 117        2S         -0.00004  -0.00013  -0.00011  -0.00005  -0.00006
 118 21  H  1S          0.00003  -0.00017  -0.00004  -0.00048  -0.00019
 119        2S          0.00024   0.00024   0.00015  -0.00029   0.00020
                          11        12        13        14        15
                           O         O         O         O         O
     Eigenvalues --   -11.16112  -1.18175  -1.11306  -1.05425  -1.02907
   1 1   C  1S          0.00035  -0.05288   0.08978   0.05623  -0.07314
   2        2S          0.00003   0.06027  -0.09866  -0.06135   0.07898
   3        2PX        -0.00009   0.02936  -0.02849  -0.03798  -0.02138
   4        2PY         0.00005   0.02057  -0.03631   0.01744   0.05469
   5        2PZ         0.00000   0.00000  -0.00000  -0.00000  -0.00000
   6        3S         -0.00110   0.09068  -0.17918  -0.11459   0.17135
   7        3PX        -0.00046   0.00232  -0.00892   0.00277   0.00523
   8        3PY        -0.00123   0.00584  -0.00541  -0.00278   0.01073
   9        3PZ        -0.00002   0.00001   0.00002  -0.00002   0.00003
  10 2   C  1S          0.00134  -0.06848   0.06536   0.09378   0.02881
  11        2S         -0.00025   0.07814  -0.07076  -0.10107  -0.03038
  12        2PX        -0.00002   0.01161   0.03230  -0.00815  -0.07668
  13        2PY        -0.00002   0.04261  -0.03319  -0.02168  -0.01410
  14        2PZ        -0.00000   0.00000   0.00000  -0.00000   0.00001
  15        3S          0.00439   0.11311  -0.14293  -0.20609  -0.07275
  16        3PX         0.00155  -0.00985  -0.00294   0.00925  -0.00746
  17        3PY         0.00310   0.00518  -0.01937  -0.01432  -0.01079
  18        3PZ         0.00008  -0.00003  -0.00006   0.00005  -0.00009
  19 3   C  1S          0.00218  -0.11333   0.01052   0.06439   0.10721
  20        2S         -0.00034   0.12668  -0.01075  -0.07123  -0.11500
  21        2PX        -0.00061  -0.00321   0.07339  -0.00744  -0.01226
  22        2PY        -0.00008   0.02605   0.00779   0.08877  -0.00218
  23        2PZ         0.00005  -0.00001  -0.00002   0.00002  -0.00005
  24        3S          0.00136   0.21515  -0.03266  -0.11989  -0.24954
  25        3PX         0.00749  -0.00599  -0.01139   0.00188  -0.01800
  26        3PY         0.00176  -0.00760  -0.00174   0.03767   0.00639
  27        3PZ        -0.00031   0.00011   0.00018  -0.00016   0.00030
  28 4   C  1S          0.00089  -0.11346   0.01501  -0.09665   0.05500
  29        2S         -0.00001   0.12609  -0.01655   0.10553  -0.05890
  30        2PX        -0.00006   0.00615   0.06917   0.00076  -0.04390
[...]
 .00155592,-0.00010554,0.00000443,-0.00111561,0.00118144,0.00008410,-0.
 00105341,0.87533402,0.00010779,-0.00026860,0.00626458,-0.00072513,-0.0
 0011526,0.00726862,0.00124493,-0.00076851,-0.09021646,0.00084901,0.000
 16774,0.01094175,-0.00004879,-0.00029207,0.00721096,-0.00002639,0.0001
 3035,-0.00057341,0.00235035,-0.00430351,-0.04982030,-0.00002581,-0.000
 00069,-0.00005003,-0.00003563,0.00007389,-0.00391538,-0.00182890,0.010
 90214,0.18345824,0.02263787,-0.01521658,-0.00031901,-0.02466611,-0.010
 14714,-0.00005118,0.07666021,0.00661828,-0.00012005,-0.15330411,-0.031
 52036,-0.00028290,-0.05550277,-0.05926880,-0.00072244,-0.00618004,0.03
 327530,0.00056718,-0.00037919,-0.00086180,-0.00001481,0.00043580,-0.00
 014333,-0.00000708,0.00042924,0.00147926,0.00002122,-0.06288076,-0.036
 96441,-0.00039184,0.84536510,0.01714476,-0.01016651,-0.00020949,-0.010
 26419,-0.01389957,-0.00029644,0.02085330,-0.04427243,-0.00094221,-0.06
 538215,-0.26012270,-0.00244633,-0.02832357,-0.00595340,-0.00009537,0.0
 0309876,0.02332359,0.00025526,-0.00075721,0.00037297,0.00002026,0.0001
 9737,-0.00003199,0.00001423,-0.00089859,-0.00059692,-0.00000345,-0.033
 55182,-0.02294987,-0.00013203,-0.07604774,0.75014753,0.00019069,-0.000
 09889,-0.00058520,-0.00005295,-0.00029685,0.00714659,0.00010402,-0.000
 89311,0.01099677,-0.00081584,-0.00256215,-0.09068678,-0.00023510,0.000
 01013,0.00625616,0.00009191,0.00015220,0.00644337,-0.00001320,0.000020
 61,-0.00074795,-0.00000173,0.00001539,-0.00097827,-0.00001625,-0.00001
 159,-0.00018261,-0.00033833,-0.00012043,-0.00727609,-0.00345098,0.0091
 4042,0.18653201,-0.00166352,-0.00336282,-0.00001174,-0.00044589,-0.000
 92901,-0.00001576,-0.00607446,-0.00225273,0.00000540,-0.01403613,0.034
 94489,0.00061877,-0.14871274,0.12967553,0.00237734,0.01439044,-0.01962
 208,-0.00033017,-0.00056656,-0.00001357,0.00000241,0.00047456,-0.00080
 293,-0.00001448,0.00005734,0.00012048,-0.00000275,-0.00004767,0.001737
 29,0.00002694,0.00168248,0.00175872,0.00000846,0.15388525,-0.00442234,
 -0.00316387,-0.00019832,-0.00074214,0.00042662,0.00002150,-0.00101890,
 0.00099017,-0.00007376,-0.00362478,0.00350274,-0.00002649,0.12927559,-
 0.29645301,-0.00431184,0.02090968,-0.02248013,-0.00055489,-0.00000854,
 -0.00000046,-0.00000314,0.00085075,-0.00116737,-0.00002031,0.00010129,
 -0.00006749,0.00001911,-0.00052351,-0.00002518,0.00000403,-0.00117772,
 0.00100414,0.00008203,-0.13999821,0.31536444,-0.00002844,-0.00020192,0
 .01038645,-0.00001282,0.00002212,-0.00077741,0.00002479,-0.00006952,0.
 00589240,0.00001117,-0.00015820,0.00596628,0.00237117,-0.00431363,-0.0
 5082766,0.00030817,-0.00041607,0.00820201,0.00000248,-0.00000312,0.000
 20051,0.00001157,-0.00001467,-0.00006225,-0.00000304,0.00001903,-0.001
 30223,-0.00000865,-0.00000369,-0.00016729,-0.00003780,0.00007199,-0.00
 394617,-0.00261926,0.00493050,0.03280129,-0.01295525,-0.00477285,-0.00
 001215,0.00042444,0.00323202,0.00007016,0.00087936,0.00002708,-0.00000
 479,0.00095201,-0.00282586,-0.00001096,-0.01331835,0.00400144,0.000135
 12,-0.37585729,-0.00567478,0.00101939,-0.00000663,0.00002200,0.0000005
 3,0.00092600,0.00056694,-0.00000627,-0.00075480,-0.00011368,0.00000069
 ,0.00006741,0.00003077,-0.00000307,-0.00064335,0.00054528,0.00001095,0
 .00108839,-0.00049452,-0.00003521,0.39941556,0.03481281,0.00603683,-0.
 00011055,0.00234487,-0.00586309,-0.00019579,-0.00049772,-0.00091655,-0
 .00000258,-0.00193926,-0.00583085,-0.00025475,-0.03668851,0.00505652,0
 .00008195,-0.00411664,-0.07399905,-0.00034501,-0.00010279,0.00002777,0
 .00000005,-0.00067030,0.00098522,0.00007327,0.00153583,0.00006140,-0.0
 0000382,0.00035968,0.00029726,0.00001877,-0.00102039,0.00086595,0.0000
 1635,0.00046969,0.00106191,0.00012443,0.00597874,0.07283630,0.00061150
 ,0.00002459,0.00550453,0.00005616,-0.00019887,0.00605774,-0.00001305,-
 0.00000436,-0.00064489,0.00000298,-0.00025168,0.01076322,-0.00050538,-
 0.00005691,0.00780987,0.00104347,-0.00033972,-0.05120865,-0.00000144,-
 0.00000038,0.00004715,-0.00002577,0.00006903,-0.00352096,0.00002668,0.
 00000182,-0.00002919,0.00000211,0.00001988,-0.00097241,-0.00001371,0.0
 0001098,0.00004933,-0.00002006,0.00012774,-0.00693907,-0.00115603,0.00
 060180,0.03334009,-0.02401616,0.01428479,0.00030847,0.02211403,0.01663
 290,0.00018459,-0.06275777,0.00462934,0.00025293,-0.06313385,-0.070672
 57,-0.00085177,0.03134092,0.01182208,0.00009953,0.00025290,-0.02984871
 ,-0.00047226,-0.00171042,-0.00427178,-0.00002841,-0.00029528,0.0000485
 5,0.00000216,0.00040152,-0.00017720,-0.00000468,0.07790144,0.02676730,
 0.00020562,-0.44886929,0.03590025,0.00179886,0.00015305,0.00053491,0.0
 0000810,-0.00020081,-0.00042325,-0.00000813,0.83879737,0.01457363,-0.0
 1029616,-0.00021862,-0.01519567,-0.01000334,-0.00009726,0.03851304,-0.
 00161248,0.00000131,-0.02448980,0.03729252,0.00046271,-0.01864166,-0.0
 1494038,-0.00026616,-0.00007465,0.01790955,0.00028823,-0.00358440,-0.0
 0326437,-0.00019127,0.00026894,-0.00001582,-0.00000291,-0.00016554,0.0
 0007146,0.00000401,-0.02525043,-0.07395853,-0.00131085,-0.03735642,-0.
 16456863,-0.00107262,-0.00017460,0.00002543,0.00000021,-0.00031952,-0.
 00025136,0.00000715,0.08066220,0.74586195,0.00031321,-0.00021765,0.000
 41643,-0.00031686,-0.00020617,-0.00053380,0.00078714,0.00011706,-0.010
 05395,-0.00012483,0.00062046,0.01325763,-0.00038036,-0.00037035,0.0059
 9830,-0.00000342,0.00039019,-0.00037033,-0.00001759,-0.00018910,0.0096
 6335,0.00000563,-0.00000217,0.00011118,-0.00000448,0.00000406,-0.00014
 649,-0.00061377,-0.00148916,0.01475162,0.00064435,-0.00132293,-0.08840
 444,-0.00000310,-0.00000223,0.00005046,-0.00000651,0.00000749,-0.00063
 511,-0.00096487,0.00856684,0.18467393,0.00083562,-0.00135066,-0.000024
 47,-0.00648984,0.00287287,0.00008786,-0.02754735,-0.04449932,-0.000568
 96,0.00470958,0.00307755,-0.00000366,-0.00281156,-0.00155295,-0.000016
 77,-0.00020220,0.00216710,0.00003632,0.01178543,0.02073461,0.00031572,
 -0.00051483,-0.00003961,-0.00000107,0.00018001,-0.00018746,-0.00000367
 ,-0.22950664,-0.15561254,-0.00197420,-0.03561045,0.03953152,0.00078942
 ,0.00013528,-0.00003942,-0.00000157,0.00008622,0.00009089,0.00000146,-
 0.17825347,0.08630977,0.00164908,0.71403871,-0.03163560,0.01795952,0.0
 0039262,0.03450962,0.02405548,0.00016702,-0.09290923,0.00205443,0.0001
 7446,-0.03330462,-0.07016632,-0.00082592,0.03147502,0.01470033,0.00013
 340,0.00183804,-0.03465628,-0.00055904,-0.01870944,-0.02451351,-0.0004
 5556,-0.00021479,0.00014228,0.00001303,0.00047786,-0.00000767,-0.00000
 128,-0.07505812,-0.36270540,-0.00403835,0.09482711,0.04555638,0.000183
 74,0.00007997,0.00043922,0.00000889,-0.00011514,-0.00036998,-0.0000070
 1,0.00834678,-0.23712058,-0.00229292,0.07520847,0.75248522,-0.00050147
 ,0.00028899,-0.00010273,0.00058597,0.00027508,0.00597107,-0.00133105,0
 .00000865,0.01113600,-0.00057624,-0.00094976,-0.01053253,0.00050313,0.
 00024639,-0.00060128,0.00003134,-0.00056016,0.00043401,-0.00030580,-0.
 00059030,0.00847060,-0.00000380,0.00001245,-0.00063861,0.00000680,0.00
 000100,-0.00003089,-0.00070612,-0.00376291,-0.09009743,0.00166105,0.00
 037291,0.01332201,0.00000034,0.00000927,-0.00014216,-0.00000176,-0.000
 00773,0.00010118,0.00042075,-0.00255970,-0.09332733,-0.00049224,0.0080
 9529,0.22229201,0.00037432,-0.00016498,-0.00000443,0.00046509,-0.00085
 756,-0.00001568,-0.00216753,-0.00318935,-0.00002390,0.01270281,-0.0187
 7110,-0.00031835,0.00141583,-0.00100666,-0.00003346,0.00020717,0.00051
 550,0.00000749,0.00002207,0.00011287,-0.00000244,-0.00001667,0.0000276
 3,0.00000066,-0.00014482,-0.00025846,-0.00000290,-0.00053380,-0.000689
 83,-0.00001157,-0.14884862,0.12930263,0.00237101,-0.00018493,0.0002426
 3,0.00000583,0.00001502,0.00004704,0.00000144,-0.01327097,0.03653019,0
 .00064969,-0.00585313,-0.00212058,0.00002382,0.15543671,-0.00023192,0.
 00012847,0.00000531,0.00152918,-0.00056042,-0.00001131,-0.00455059,-0.
 00307720,-0.00012010,0.01978221,-0.02303942,-0.00052607,0.00187178,0.0
 0125886,0.00007224,-0.00018328,-0.00001781,-0.00000001,0.00012712,-0.0
 0006236,0.00001765,-0.00009495,0.00003684,0.00000015,-0.00025357,-0.00
 042001,-0.00000885,-0.00084308,0.00055347,0.00002325,0.12986523,-0.296
 03538,-0.00430237,-0.00142817,0.00050175,0.00000646,-0.00006523,-0.000
 02798,-0.00000367,-0.00422992,0.00479417,-0.00004354,-0.00098431,0.001
 25101,-0.00014863,-0.14082950,0.31353703,-0.00000546,0.00000507,-0.000
 15871,0.00002191,-0.00000319,-0.00017293,-0.00004538,-0.00012473,0.005
 53054,0.00028898,-0.00039434,0.00606246,0.00001186,0.00008205,-0.00373
 217,-0.00000349,-0.00000237,0.00002314,-0.00000221,0.00001770,-0.00121
 043,-0.00000127,-0.00000027,0.00004812,-0.00000283,-0.00000883,0.00019
 662,-0.00001406,0.00002271,-0.00073860,0.00237949,-0.00430030,-0.05115
 826,-0.00002049,0.00000075,0.00040138,-0.00000033,-0.00000406,0.000219
 44,0.00000808,-0.00018311,0.00847678,0.00004188,-0.00014458,0.01089468
 ,-0.00263761,0.00490366,0.03287122,-0.00028450,0.00025331,0.00000536,0
 .00040821,0.00018638,-0.00000158,-0.00066013,0.00026733,0.00000444,-0.
 00614026,0.00226400,0.00009454,0.00030004,-0.00156918,-0.00002573,-0.0
 0055307,-0.00022901,-0.00000406,0.00062528,0.00085575,0.00001112,-0.00
 001205,-0.00002798,-0.00000020,-0.00001549,-0.00009796,-0.00000133,-0.
 00205042,0.00385028,0.00008605,-0.01382845,-0.03674387,-0.00050413,-0.
 00002441,0.00007128,0.00000203,-0.00009252,-0.00015312,-0.00000210,-0.
 14868920,-0.12885234,-0.00169818,0.01263012,0.01889625,0.00027393,0.00
 104471,0.00046006,-0.00002086,0.15565792,0.00008177,-0.00001729,-0.000
 00238,-0.00017875,-0.00005015,0.00001420,0.00098969,0.00064084,0.00001
 608,0.00117437,0.00138871,-0.00015684,-0.00000451,-0.00008608,-0.00000
 125,-0.00012300,0.00011916,0.00001307,-0.00076586,-0.00124474,-0.00001
 623,-0.00002836,-0.00001626,-0.00000108,0.00002840,0.00003874,-0.00000
 021,0.00444799,-0.00347952,-0.00015494,0.00419757,0.00481714,-0.000066
 09,-0.00003970,0.00001515,-0.00000343,-0.00001431,0.00000234,0.0000000
 6,-0.12997178,-0.29593136,-0.00340896,-0.02022507,-0.02300680,-0.00038
 215,-0.00044306,0.00114373,0.00013277,0.14039856,0.31393723,0.00000268
 ,-0.00000301,0.00011570,-0.00000737,0.00001293,-0.00091239,0.00001592,
 0.00001853,-0.00059488,0.00007752,-0.00016048,0.01108491,-0.00000116,0
 .00000410,-0.00000555,-0.00000235,0.00001345,-0.00068302,-0.00001438,-
 0.00002177,-0.00004779,-0.00000021,-0.00000108,0.00005814,0.00000066,0
 .00000022,0.00004574,0.00009528,-0.00015303,0.00539176,0.00014131,0.00
 007407,0.00809549,0.00000029,-0.00000381,0.00024121,0.00000010,0.00000
 054,0.00000161,-0.00171620,-0.00341344,-0.05146524,-0.00034222,-0.0005
 1515,0.00562176,-0.00003512,0.00012963,-0.00718399,0.00179340,0.003947
 18,0.03306212,-0.00075979,0.00038166,0.00000594,0.00048381,0.00048293,
 0.00000571,0.00044363,-0.00040791,0.00003368,-0.00183838,-0.00163791,-
 0.00002177,0.00130389,0.00069066,0.00000366,-0.00007645,-0.00111895,-0
 .00001695,0.00155483,0.00173648,-0.00000405,-0.00000716,0.00002343,0.0
 0000041,-0.00001937,-0.00004265,0.00000023,-0.02068916,-0.00092555,0.0
 0008785,0.00355463,0.00221099,0.00003793,-0.00000596,-0.00000508,0.000
 00007,0.00001336,-0.00001126,-0.00000005,-0.02500208,0.00191331,0.0001
 3171,-0.20587386,-0.00644925,0.00029457,-0.00011322,-0.00009140,-0.000
 00172,0.00132073,-0.00120040,-0.00003012,0.51617001,-0.00004267,0.0000
 2022,0.00001286,-0.00126042,0.00034461,0.00001055,-0.00030074,-0.00511
 442,-0.00027067,-0.00133159,-0.00044573,0.00000815,0.00057346,0.000216
 72,0.00001363,-0.00044055,-0.00016470,-0.00000299,-0.00131121,0.000714
 17,0.00013450,-0.00014503,-0.00001515,0.00000021,0.00006889,0.00003987
 ,-0.00000346,-0.03689717,0.00313694,0.00002606,0.00251251,-0.00701184,
 -0.00018732,-0.00016252,0.00005185,0.00000077,-0.00000269,0.00001535,-
 0.00000048,0.03630114,0.00619975,-0.00009947,0.00080890,-0.10773823,-0
 .00029177,0.00165601,0.00001918,-0.00000270,0.00025942,0.00146902,0.00
 005110,-0.01386055,0.65597583,-0.00000069,0.00001164,-0.00078226,-0.00
 002173,0.00000445,-0.00005083,0.00003583,-0.00026894,0.01206476,-0.000
 01766,0.00000899,-0.00067020,0.00000231,0.00001317,-0.00077268,-0.0000
 0662,-0.00000078,0.00012024,-0.00005167,0.00012283,-0.00748842,-0.0000
 0225,-0.00000039,0.00000318,0.00000198,-0.00000305,0.00024386,-0.00047
 827,-0.00009584,0.00942002,0.00004324,-0.00018741,0.00438229,-0.000002
 45,0.00000027,0.00003739,0.00000007,-0.00000045,0.00004626,0.00067367,
 0.00001746,0.00469058,0.00041210,-0.00026816,-0.08936384,0.00002600,0.
 00000337,-0.00017352,-0.00000692,0.00005728,-0.00186961,0.00009511,0.0
 0077112,0.61007954,-0.00002013,0.00014813,0.00016979,-0.00027420,0.000
 16517,-0.00008695,-0.00031843,-0.00073008,-0.00227536,-0.00017808,-0.0
 0014337,0.00022918,0.00013343,-0.00006021,0.00007905,-0.00025795,-0.00
 002619,-0.00003331,0.00001955,-0.00011672,0.00106844,-0.00005125,-0.00
 002328,0.00001485,0.00002997,0.00001287,-0.00004322,-0.00364322,0.0020
 9438,-0.00022523,-0.00006003,-0.00029714,-0.00091098,-0.00006900,0.000
 03290,0.00000299,-0.00001628,-0.00000078,-0.00000285,0.00144879,-0.001
 10490,-0.00079288,-0.01757296,-0.02292503,0.03325212,-0.00000275,0.000
 07548,0.00010229,0.00012070,0.00087908,0.00061318,-0.08506590,-0.04145
 278,0.07255780,0.09626195,0.00028491,-0.00028186,0.,-0.00034078,-0.000
 12189,0.00002590,0.00046191,-0.00000196,-0.00045591,0.00062916,0.00073
 709,0.00000732,-0.00048780,-0.00017792,0.00011762,0.00009353,0.0004047
 1,0.00000792,0.00001570,0.00029665,0.00059701,-0.00000991,-0.00000521,
 -0.00000109,0.00000717,-0.00000623,0.00001264,-0.00125466,-0.00015433,
 0.00009802,-0.00128748,-0.00026350,-0.00031349,0.00000349,-0.00000299,
 0.00000172,-0.00001055,0.00000286,-0.00001529,0.00197636,-0.00021832,-
 0.00023784,-0.00129052,-0.00042768,-0.00096813,-0.00006055,0.00000123,
 0.00001252,0.00004578,-0.00004345,0.00025505,-0.04255042,-0.12614417,0
 .11167407,0.04895367,0.13355712,-0.00014915,0.00005160,0.00002294,0.00
 015229,0.00007448,0.00002820,-0.00037104,-0.00000957,-0.00038633,-0.00
 027161,-0.00025369,-0.00003715,0.00019150,0.00008111,-0.00000383,0.000
 02127,-0.00018677,-0.00000538,-0.00001534,-0.00006094,0.00020096,0.000
 00508,0.00000500,-0.00000243,-0.00000683,-0.00001392,-0.00001246,-0.00
 015537,-0.00020751,-0.00036306,0.00052065,-0.00010993,0.00019656,0.000
 01309,-0.00000463,-0.00000535,0.00000496,-0.00000371,0.00000387,-0.000
 04306,0.00031553,0.00067430,-0.00141429,-0.00182988,0.00399225,0.00005
 378,-0.00000078,-0.00001299,0.00024528,-0.00043311,-0.00034179,0.07267
 759,0.11166863,-0.23776893,-0.08003902,-0.12527465,0.25925679,-0.00002
 027,0.00015318,-0.00016477,-0.00027444,0.00016177,0.00009412,-0.000300
 49,-0.00080053,0.00225115,-0.00017792,-0.00013432,-0.00023257,0.000131
 59,-0.00005834,-0.00008190,-0.00025795,-0.00002599,0.00003424,0.000012
 35,-0.00008281,-0.00107069,-0.00005138,-0.00002285,-0.00001524,0.00003
 032,0.00001160,0.00004331,-0.00363703,0.00208705,0.00031415,-0.0000576
 1,-0.00032505,0.00090341,-0.00006911,0.00003301,-0.00000151,-0.0000163
 0,-0.00000086,0.00000296,0.00145365,-0.00113100,0.00075271,-0.01779289
 ,-0.02183889,-0.03381852,-0.00000389,0.00007868,-0.00009995,0.00011497
 ,0.00090049,-0.00058832,-0.08607201,-0.03984329,-0.07491938,0.00443728
 ,0.00720421,0.01017703,0.09737017,0.00028023,-0.00027997,-0.00001150,-
 0.00033624,-0.00011879,-0.00002825,0.00045370,-0.00001710,0.00046520,0
 .00062047,0.00072905,0.00001253,-0.00048249,-0.00017168,-0.00011957,0.
 00009407,0.00039889,0.00000417,0.00001103,0.00031304,-0.00059406,-0.00
 000973,-0.00000509,0.00000108,0.00000686,-0.00000628,-0.00001248,-0.00
 126073,-0.00015819,-0.00008213,-0.00126877,-0.00027702,0.00030681,0.00
 000389,-0.00000309,-0.00000167,-0.00001028,0.00000226,0.00001530,0.001
 97537,-0.00021545,0.00019579,-0.00133185,-0.00051298,0.00082947,-0.000
 05886,0.00000158,-0.00001160,0.00005174,-0.00004970,-0.00024579,-0.040
 93396,-0.11912401,-0.10760559,0.00764282,0.01034871,0.01718148,0.04718
 934,0.12568254,0.00015819,-0.00006222,0.00002107,-0.00016075,-0.000080
 04,0.00002540,0.00038403,0.00002663,-0.00038926,0.00029247,0.00027859,
 -0.00002907,-0.00020780,-0.00008601,-0.00000832,-0.00001644,0.00019962
 ,0.00000055,0.00001692,0.00006524,0.00019113,-0.00000506,-0.00000493,-
 0.00000243,0.00000676,0.00001402,-0.00001277,0.00013852,0.00020006,-0.
 00036227,-0.00055923,0.00009722,0.00020724,-0.00001253,0.00000447,-0.0
 0000516,-0.00000515,0.00000366,0.00000448,0.00009997,-0.00033578,0.000
 66476,0.00151946,0.00183530,0.00429945,-0.00005576,0.00000070,-0.00001
 225,-0.00024671,0.00043580,-0.00033046,-0.07507028,-0.10760772,-0.2437
 7800,-0.01015483,-0.01603176,-0.02715258,0.08270874,0.12068670,0.26601
 712,-0.00020147,0.00020171,0.00000390,0.00025019,0.00007929,0.00000022
 ,-0.00011986,-0.00022917,-0.00000418,0.00003328,-0.00015867,-0.0000024
 9,0.00027796,-0.00008319,-0.00000226,-0.00012207,-0.00025797,-0.000003
 64,-0.00013158,-0.00147381,-0.00002073,0.00000496,-0.00001043,-0.00000
 014,-0.00002476,-0.00005331,-0.00000067,0.00228117,0.00207246,0.000023
 86,0.00006545,0.00204774,0.00003282,0.00003358,0.00000313,-0.00000008,
 -0.00000617,-0.00001468,-0.00000020,-0.00766437,-0.00243016,-0.0000066
 8,-0.01637179,0.03962158,0.00068316,-0.00054343,-0.00000381,0.00000119
 ,0.00012781,-0.00010313,-0.00000290,-0.09932156,0.09487089,0.00165951,
 0.00507851,-0.01238321,-0.00159680,0.00518095,-0.01263662,0.00116949,0
 .11117320,0.00009661,-0.00004494,-0.00000114,0.00003331,-0.00010245,-0
 .00000095,0.00023935,0.00045870,0.00000972,0.00010076,0.00016472,0.000
 00196,-0.00013514,0.00007324,0.00000162,0.00006308,0.00010665,0.000001
 42,-0.00015068,0.00075953,0.00000431,0.00001876,0.00001422,0.,-0.00001
 121,0.00001988,0.,-0.00168036,0.00089817,0.00002268,-0.00049433,0.0000
 6207,-0.00000276,-0.00000762,-0.00001981,-0.00000021,0.00001514,0.0000
 0691,0.00000004,-0.00028677,0.00024196,-0.00001939,-0.00368797,0.00258
 156,0.00008175,0.00001597,0.00001327,0.00000286,-0.00018669,0.00035329
 ,0.00001073,0.10179582,-0.30244525,-0.00425405,0.00687598,-0.01749885,
 -0.00098876,0.00644459,-0.01653671,0.00036045,-0.10905862,0.33089385,0
 .00000233,-0.00000161,0.00000627,-0.00000057,-0.00000116,-0.00005033,0
 .00000365,0.00001110,-0.00018659,0.00000177,0.00000311,0.00001913,-0.0
 0000328,0.00000146,-0.00000295,0.00000149,0.00000266,0.00000300,-0.000
 00007,0.00000949,0.00049169,0.00000032,0.00000010,0.00001048,-0.000000
 01,0.00000015,0.00002233,-0.00003484,0.00000954,-0.00015481,-0.0000074
 6,-0.00001145,0.00033795,-0.00000025,-0.00000026,-0.00000459,0.0000002
 7,0.00000014,0.00000152,0.00002666,-0.00001174,0.00150737,-0.00001018,
 -0.00006590,-0.00169823,0.00000149,0.00000291,-0.00017053,-0.00000437,
 0.00001024,-0.00028372,0.00177051,-0.00423100,-0.05836985,-0.01352506,
 0.03048837,0.00171643,0.01371100,-0.03098590,0.00065137,-0.00193338,0.
 00476975,0.05615408\\-0.00000738,0.00000545,-0.00000173,0.00000800,-0.
 00000023,0.,-0.00001468,0.00000867,0.00000082,0.00000343,-0.00001470,-
 0.00000050,0.00000270,0.00000721,-0.00000146,0.00000100,-0.00000947,0.
 00000179,0.00000006,0.00000065,0.00000019,0.00000074,-0.00000039,0.000
 00045,-0.00000145,0.00000020,0.00000043,0.00001001,-0.00000029,-0.0000
 0051,-0.00000053,0.00000927,0.00000189,-0.00000018,-0.00000132,0.00000
 028,-0.00000002,0.00000068,-0.00000026,0.00000106,0.00000527,-0.000003
 04,-0.00001109,-0.00001003,0.00000008,0.00000027,-0.00000105,-0.000000
 03,-0.00000017,-0.00000095,0.00000081,0.00001521,0.00000392,0.00000130
 ,-0.00000469,-0.00000142,0.00000099,-0.00000357,-0.00000173,-0.0000010
 5,0.00000129,0.00000026,-0.00000045\\\@


 IT'S WHAT A FELLER THINKS HE KNOWS THAT HURTS HIM...
                    ------
           KIN HUBBARD
 Job cpu time:       0 days  0 hours  3 minutes 35.2 seconds.
 Elapsed time:       0 days  0 hours  0 minutes 10.9 seconds.
 File lengths (MBytes):  RWF=     48 Int=      0 D2E=      0 Chk=      3 Scr=      1
 Normal termination of Gaussian 16 at Tue Jun 10 01:16:23 2025.
