 Entering Gaussian System, Link 0=g16
 Initial command:
 /home/user/softwares/g16/g16/l1.exe "/home/user/scratch/Gau-347811.inp" -scrdir="/home/user/scratch/"
 Entering Link 1 = /home/user/softwares/g16/g16/l1.exe PID=    347813.
  
 Copyright (c) 1988-2017, Gaussian, Inc.  All Rights Reserved.
  
 This is part of the Gaussian(R) 16 program.  It is based on
 the Gaussian(R) 09 system (copyright 2009, Gaussian, Inc.),
 the Gaussian(R) 03 system (copyright 2003, Gaussian, Inc.),
 the Gaussian(R) 98 system (copyright 1998, Gaussian, Inc.),
 the Gaussian(R) 94 system (copyright 1995, Gaussian, Inc.),
 the Gaussian 92(TM) system (copyright 1992, Gaussian, Inc.),
 the Gaussian 90(TM) system (copyright 1990, Gaussian, Inc.),
 the Gaussian 88(TM) system (copyright 1988, Gaussian, Inc.),
 the Gaussian 86(TM) system (copyright 1986, Carnegie Mellon
 University), and the Gaussian 82(TM) system (copyright 1983,
 Carnegie Mellon University). Gaussian is a federally registered
 trademark of Gaussian, Inc.
  
 This software contains proprietary and confidential information,
 including trade secrets, belonging to Gaussian, Inc.
  
 This software is provided under written license and may be
 used, copied, transmitted, or stored only in accord with that
 written license.
  
 The following legend is applicable only to US Government
 contracts under FAR:
  
                    RESTRICTED RIGHTS LEGEND
  
 Use, reproduction and disclosure by the US Government is
 subject to restrictions as set forth in subparagraphs (a)
 and (c) of the Commercial Computer Software - Restricted
 Rights clause in FAR 52.227-19.
  
 Gaussian, Inc.
 340 Quinnipiac St., Bldg. 40, Wallingford CT 06492
  
  
 ---------------------------------------------------------------
 Warning -- This program may not be used in any manner that
 competes with the business of Gaussian, Inc. or will provide
 assistance to any competitor of Gaussian, Inc.  The licensee
 of this program is prohibited from giving any competitor of
 Gaussian, Inc. access to this program.  By using this program,
 the user acknowledges that Gaussian, Inc. is engaged in the
 business of creating and licensing software in the field of
 computational chemistry and represents and warrants to the
 licensee that it is not a competitor of Gaussian, Inc. and that
 it will not use this program in any manner prohibited above.
 ---------------------------------------------------------------
  

 Cite this work as:
 Gaussian 16, Revision B.01,
 M. J. Frisch, G. W. Trucks, H. B. Schlegel, G. E. Scuseria, 
 M. A. Robb, J. R. Cheeseman, G. Scalmani, V. Barone, 
 G. A. Petersson, H. Nakatsuji, X. Li, M. Caricato, A. V. Marenich, 
 J. Bloino, B. G. Janesko, R. Gomperts, B. Mennucci, H. P. Hratchian, 
 J. V. Ortiz, A. F. Izmaylov, J. L. Sonnenberg, D. Williams-Young, 
 F. Ding, F. Lipparini, F. Egidi, J. Goings, B. Peng, A. Petrone, 
 T. Henderson, D. Ranasinghe, V. G. Zakrzewski, J. Gao, N. Rega, 
 G. Zheng, W. Liang, M. Hada, M. Ehara, K. Toyota, R. Fukuda, 
 J. Hasegawa, M. Ishida, T. Nakajima, Y. Honda, O. Kitao, H. Nakai, 
 T. Vreven, K. Throssell, J. A. Montgomery, Jr., J. E. Peralta, 
 F. Ogliaro, M. J. Bearpark, J. J. Heyd, E. N. Brothers, K. N. Kudin, 
 V. N. Staroverov, T. A. Keith, R. Kobayashi, J. Normand, 
 K. Raghavachari, A. P. Rendell, J. C. Burant, S. S. Iyengar, 
 J. Tomasi, M. Cossi, J. M. Millam, M. Klene, C. Adamo, R. Cammi, 
 J. W. Ochterski, R. L. Martin, K. Morokuma, O. Farkas, 
 J. B. Foresman, and D. J. Fox, Gaussian, Inc., Wallingford CT, 2016.
 
 ******************************************
 Gaussian 16:  EM64L-G16RevB.01 20-Dec-2017
                10-Jun-2025 
 ******************************************
 %nproc=20
 Will use up to   20 processors via shared memory.
 %mem=15GB
 %chk=meth_cyclobutadiene.chk
 ---------------------------------------------
 #p hf/3-21g opt freq gfinput gfprint pop=full
 ---------------------------------------------
 1/18=20,19=15,38=1/1,3;
 2/9=110,12=2,17=6,18=5,40=1/2;
 3/5=5,11=9,24=110,25=1,30=1,71=1/1,2,3;
 4//1;
 5/5=2,38=5/2;
 6/7=3,28=1/1;
 7//1,2,3,16;
 1/18=20,19=15/3(2);
 2/9=110/2;
 99//99;
 2/9=110/2;
 3/5=5,11=9,25=1,30=1,71=1/1,2,3;
 4/5=5,16=3,69=1/1;
 5/5=2,38=5/2;
 7//1,2,3,16;
 1/18=20,19=15/3(-5);
 2/9=110/2;
 6/7=3,19=2,28=1/1;
 99/9=1/99;
 Leave Link    1 at Tue Jun 10 01:38:35 2025, MaxMem=  2013265920 cpu:               1.3 elap:               0.1
 (Enter /home/user/softwares/g16/g16/l101.exe)
 ------------
 Optimisation
 ------------
 Symbolic Z-matrix:
 Charge =  0 Multiplicity = 1
 C                     0.1694    1.05464   0. 
 C                     1.71265   1.05464   0. 
 C                     1.71258   2.59783   0. 
 C                     0.16936   2.59783  -0.00027 
 H                    -0.2836    0.60153  -0.90642 
 H                     2.16555   0.60183  -0.90662 
 H                     2.16551   3.05059  -0.90666 
 C                    -0.45866   3.22561  -1.25848 
 H                    -1.51324   3.0446   -1.25896 
 H                    -0.27779   4.28022  -1.25911 
 H                    -0.0213    2.78821  -2.13157 
 
 ITRead=  0  0  0  0  0  0  0  0  0  0  0
 MicOpt= -1 -1 -1 -1 -1 -1 -1 -1 -1 -1 -1
 NAtoms=     11 NQM=       11 NQMF=       0 NMMI=      0 NMMIF=      0
                NMic=       0 NMicF=      0.
                    Isotopes and Nuclear Properties:
 (Nuclear quadrupole moments (NQMom) in fm**2, nuclear magnetic moments (NMagM)
  in nuclear magnetons)

  Atom         1           2           3           4           5           6           7           8           9          10
 IAtWgt=          12          12          12          12           1           1           1          12           1           1
 AtmWgt=  12.0000000  12.0000000  12.0000000  12.0000000   1.0078250   1.0078250   1.0078250  12.0000000   1.0078250   1.0078250
 NucSpn=           0           0           0           0           1           1           1           0           1           1
 AtZEff=  -0.0000000  -0.0000000  -0.0000000  -0.0000000  -0.0000000  -0.0000000  -0.0000000  -0.0000000  -0.0000000  -0.0000000
 NQMom=    0.0000000   0.0000000   0.0000000   0.0000000   0.0000000   0.0000000   0.0000000   0.0000000   0.0000000   0.0000000
 NMagM=    0.0000000   0.0000000   0.0000000   0.0000000   2.7928460   2.7928460   2.7928460   0.0000000   2.7928460   2.7928460
 AtZNuc=   6.0000000   6.0000000   6.0000000   6.0000000   1.0000000   1.0000000   1.0000000   6.0000000   1.0000000   1.0000000

  Atom        11
 IAtWgt=           1
 AtmWgt=   1.0078250
 NucSpn=           1
 AtZEff=  -0.0000000
 NQMom=    0.0000000
 NMagM=    2.7928460
 AtZNuc=   1.0000000
 Leave Link  101 at Tue Jun 10 01:38:36 2025, MaxMem=  2013265920 cpu:              11.7 elap:               0.6
 (Enter /home/user/softwares/g16/g16/l103.exe)

 GradGradGradGradGradGradGradGradGradGradGradGradGradGradGradGradGradGrad
 Berny optimization.
 Initialization pass.
                           ----------------------------
                           !    Initial Parameters    !
                           ! (Angstroms and Degrees)  !
 --------------------------                            --------------------------
 ! Name  Definition              Value          Derivative Info.                !
 --------------------------------------------------------------------------------
 ! R1    R(1,2)                  1.5432         estimate D2E/DX2                !
 ! R2    R(1,4)                  1.5432         estimate D2E/DX2                !
 ! R3    R(1,5)                  1.11           estimate D2E/DX2                !
 ! R4    R(2,3)                  1.5432         estimate D2E/DX2                !
 ! R5    R(2,6)                  1.11           estimate D2E/DX2                !
 ! R6    R(3,4)                  1.5432         estimate D2E/DX2                !
 ! R7    R(3,7)                  1.11           estimate D2E/DX2                !
 ! R8    R(4,8)                  1.54           estimate D2E/DX2                !
 ! R9    R(8,9)                  1.07           estimate D2E/DX2                !
 ! R10   R(8,10)                 1.07           estimate D2E/DX2                !
 ! R11   R(8,11)                 1.07           estimate D2E/DX2                !
 ! A1    A(2,1,4)               90.0016         estimate D2E/DX2                !
 ! A2    A(2,1,5)              114.0856         estimate D2E/DX2                !
 ! A3    A(4,1,5)              114.0826         estimate D2E/DX2                !
 ! A4    A(1,2,3)               89.9977         estimate D2E/DX2                !
 ! A5    A(1,2,6)              114.0807         estimate D2E/DX2                !
 ! A6    A(3,2,6)              114.0763         estimate D2E/DX2                !
 ! A7    A(2,3,4)               90.0022         estimate D2E/DX2                !
 ! A8    A(2,3,7)              114.0706         estimate D2E/DX2                !
 ! A9    A(4,3,7)              114.0724         estimate D2E/DX2                !
 ! A10   A(1,4,3)               89.9985         estimate D2E/DX2                !
 ! A11   A(1,4,8)              114.067          estimate D2E/DX2                !
 ! A12   A(3,4,8)              114.0758         estimate D2E/DX2                !
 ! A13   A(4,8,9)              109.4712         estimate D2E/DX2                !
 ! A14   A(4,8,10)             109.4712         estimate D2E/DX2                !
 ! A15   A(4,8,11)             109.4712         estimate D2E/DX2                !
 ! A16   A(9,8,10)             109.4713         estimate D2E/DX2                !
 ! A17   A(9,8,11)             109.4712         estimate D2E/DX2                !
 ! A18   A(10,8,11)            109.4712         estimate D2E/DX2                !
 ! D1    D(4,1,2,3)              0.01           estimate D2E/DX2                !
 ! D2    D(4,1,2,6)           -116.53           estimate D2E/DX2                !
 ! D3    D(5,1,2,3)            116.5601         estimate D2E/DX2                !
 ! D4    D(5,1,2,6)              0.0201         estimate D2E/DX2                !
 ! D5    D(2,1,4,3)             -0.01           estimate D2E/DX2                !
 ! D6    D(2,1,4,8)            116.5268         estimate D2E/DX2                !
 ! D7    D(5,1,4,3)           -116.5628         estimate D2E/DX2                !
 ! D8    D(5,1,4,8)             -0.026          estimate D2E/DX2                !
 ! D9    D(1,2,3,4)             -0.01           estimate D2E/DX2                !
 ! D10   D(1,2,3,7)           -116.5456         estimate D2E/DX2                !
 ! D11   D(6,2,3,4)            116.5339         estimate D2E/DX2                !
 ! D12   D(6,2,3,7)             -0.0017         estimate D2E/DX2                !
 ! D13   D(2,3,4,1)              0.01           estimate D2E/DX2                !
 ! D14   D(2,3,4,8)           -116.5189         estimate D2E/DX2                !
 ! D15   D(7,3,4,1)            116.544          estimate D2E/DX2                !
 ! D16   D(7,3,4,8)              0.0151         estimate D2E/DX2                !
 ! D17   D(1,4,8,9)             69.2439         estimate D2E/DX2                !
 ! D18   D(1,4,8,10)          -170.7561         estimate D2E/DX2                !
 ! D19   D(1,4,8,11)           -50.7561         estimate D2E/DX2                !
 ! D20   D(3,4,8,9)            170.7534         estimate D2E/DX2                !
 ! D21   D(3,4,8,10)           -69.2466         estimate D2E/DX2                !
 ! D22   D(3,4,8,11)            50.7534         estimate D2E/DX2                !
 --------------------------------------------------------------------------------
 Trust Radius=3.00D-01 FncErr=1.00D-07 GrdErr=1.00D-07 EigMax=2.50D+02 EigMin=1.00D-04
 Number of steps in this run=     61 maximum allowed number of steps=    100.
 GradGradGradGradGradGradGradGradGradGradGradGradGradGradGradGradGradGrad

 Leave Link  103 at Tue Jun 10 01:38:36 2025, MaxMem=  2013265920 cpu:               0.4 elap:               0.0
 (Enter /home/user/softwares/g16/g16/l202.exe)
                          Input orientation:                          
 ---------------------------------------------------------------------
 Center     Atomic      Atomic             Coordinates (Angstroms)
 Number     Number       Type             X           Y           Z
 ---------------------------------------------------------------------
      1          6           0        0.169399    1.054645    0.000000
      2          6           0        1.712646    1.054645    0.000000
      3          6           0        1.712585    2.597835    0.000000
      4          6           0        0.169356    2.597832   -0.000270
      5          1           0       -0.283595    0.601532   -0.906420
      6          1           0        2.165554    0.601832   -0.906615
      7          1           0        2.165511    3.050589   -0.906656
      8          6           0       -0.458661    3.225613   -1.258477
      9          1           0       -1.513239    3.044601   -1.258962
     10          1           0       -0.277794    4.280215   -1.259109
     11          1           0       -0.021299    2.788207   -2.131570
 ---------------------------------------------------------------------
                    Distance matrix (angstroms):
                    1          2          3          4          5
     1  C    0.000000
     2  C    1.543247   0.000000
     3  C    2.182397   1.543190   0.000000
     4  C    1.543187   2.182469   1.543229   0.000000
     5  H    1.110005   2.238724   2.965056   2.238635   0.000000
     6  H    2.238666   1.110007   2.238562   2.964841   2.449149
     7  H    2.964841   2.238505   1.110024   2.238562   3.463524
     8  C    2.586760   3.318349   2.586925   1.540000   2.653374
     9  H    2.894163   3.993900   3.491493   2.148263   2.757697
    10  H    3.491367   3.993934   2.894368   2.148263   3.695556
    11  H    2.754124   3.248907   2.754304   2.148263   2.520187
                    6          7          8          9         10
     6  H    0.000000
     7  H    2.448757   0.000000
     8  C    3.727538   2.653430   0.000000
     9  H    4.429987   3.695586   1.070000   0.000000
    10  H    4.429978   2.757887   1.070000   1.747303   0.000000
    11  H    3.326121   2.520198   1.070000   1.747303   1.747303
                   11
    11  H    0.000000
 Stoichiometry    C5H6
 Framework group  C1[X(C5H6)]
 Deg. of freedom    27
 Full point group                 C1      NOp   1
 Largest Abelian subgroup         C1      NOp   1
 Largest concise Abelian subgroup C1      NOp   1
                         Standard orientation:                         
 ---------------------------------------------------------------------
 Center     Atomic      Atomic             Coordinates (Angstroms)
 Number     Number       Type             X           Y           Z
 ---------------------------------------------------------------------
      1          6           0        0.582087    1.091211   -0.219025
      2          6           0        1.599817    0.000089    0.175046
      3          6           0        0.582340   -1.091187   -0.219026
      4          6           0       -0.435474   -0.000076   -0.612839
      5          1           0        0.254763    1.731887    0.626259
      6          1           0        1.869642    0.000054    1.251758
      7          1           0        0.255115   -1.731638    0.626492
      8          6           0       -1.717900   -0.000059    0.239793
      9          1           0       -2.294198    0.873567    0.017179
     10          1           0       -2.294159   -0.873736    0.017273
     11          1           0       -1.456380    0.000002    1.277342
 ---------------------------------------------------------------------
 Rotational constants (GHZ):          10.8284928           4.8946109           3.9206441
 Leave Link  202 at Tue Jun 10 01:38:36 2025, MaxMem=  2013265920 cpu:               0.1 elap:               0.0
 (Enter /home/user/softwares/g16/g16/l301.exe)
 Standard basis: 3-21G (6D, 7F)
 Ernie: Thresh=  0.10000D-02 Tol=  0.10000D-05 Strict=F.
 AO basis set in the form of general basis input (Overlap normalization):
      1 0
 S   3 1.00       0.000000000000
      0.1722560000D+03  0.6176690738D-01
      0.2591090000D+02  0.3587940429D+00
      0.5533350000D+01  0.7007130837D+00
 SP   2 1.00       0.000000000000
      0.3664980000D+01 -0.3958951621D+00  0.2364599466D+00
      0.7705450000D+00  0.1215834356D+01  0.8606188057D+00
 SP   1 1.00       0.000000000000
      0.1958570000D+00  0.1000000000D+01  0.1000000000D+01
 ****
      2 0
 S   3 1.00       0.000000000000
      0.1722560000D+03  0.6176690738D-01
      0.2591090000D+02  0.3587940429D+00
      0.5533350000D+01  0.7007130837D+00
 SP   2 1.00       0.000000000000
      0.3664980000D+01 -0.3958951621D+00  0.2364599466D+00
      0.7705450000D+00  0.1215834356D+01  0.8606188057D+00
 SP   1 1.00       0.000000000000
      0.1958570000D+00  0.1000000000D+01  0.1000000000D+01
 ****
      3 0
 S   3 1.00       0.000000000000
      0.1722560000D+03  0.6176690738D-01
      0.2591090000D+02  0.3587940429D+00
      0.5533350000D+01  0.7007130837D+00
 SP   2 1.00       0.000000000000
      0.3664980000D+01 -0.3958951621D+00  0.2364599466D+00
      0.7705450000D+00  0.1215834356D+01  0.8606188057D+00
 SP   1 1.00       0.000000000000
      0.1958570000D+00  0.1000000000D+01  0.1000000000D+01
 ****
      4 0
 S   3 1.00       0.000000000000
      0.1722560000D+03  0.6176690738D-01
      0.2591090000D+02  0.3587940429D+00
      0.5533350000D+01  0.7007130837D+00
 SP   2 1.00       0.000000000000
      0.3664980000D+01 -0.3958951621D+00  0.2364599466D+00
      0.7705450000D+00  0.1215834356D+01  0.8606188057D+00
 SP   1 1.00       0.000000000000
      0.1958570000D+00  0.1000000000D+01  0.1000000000D+01
 ****
      5 0
 S   2 1.00       0.000000000000
      0.5447178000D+01  0.1562849787D+00
      0.8245472400D+00  0.9046908767D+00
 S   1 1.00       0.000000000000
      0.1831915800D+00  0.1000000000D+01
 ****
      6 0
 S   2 1.00       0.000000000000
      0.5447178000D+01  0.1562849787D+00
      0.8245472400D+00  0.9046908767D+00
 S   1 1.00       0.000000000000
      0.1831915800D+00  0.1000000000D+01
 ****
      7 0
 S   2 1.00       0.000000000000
      0.5447178000D+01  0.1562849787D+00
      0.8245472400D+00  0.9046908767D+00
 S   1 1.00       0.000000000000
      0.1831915800D+00  0.1000000000D+01
 ****
      8 0
 S   3 1.00       0.000000000000
      0.1722560000D+03  0.6176690738D-01
      0.2591090000D+02  0.3587940429D+00
      0.5533350000D+01  0.7007130837D+00
 SP   2 1.00       0.000000000000
      0.3664980000D+01 -0.3958951621D+00  0.2364599466D+00
      0.7705450000D+00  0.1215834356D+01  0.8606188057D+00
 SP   1 1.00       0.000000000000
      0.1958570000D+00  0.1000000000D+01  0.1000000000D+01
 ****
      9 0
 S   2 1.00       0.000000000000
      0.5447178000D+01  0.1562849787D+00
      0.8245472400D+00  0.9046908767D+00
 S   1 1.00       0.000000000000
      0.1831915800D+00  0.1000000000D+01
 ****
     10 0
 S   2 1.00       0.000000000000
      0.5447178000D+01  0.1562849787D+00
      0.8245472400D+00  0.9046908767D+00
 S   1 1.00       0.000000000000
      0.1831915800D+00  0.1000000000D+01
 ****
     11 0
 S   2 1.00       0.000000000000
      0.5447178000D+01  0.1562849787D+00
      0.8245472400D+00  0.9046908767D+00
 S   1 1.00       0.000000000000
      0.1831915800D+00  0.1000000000D+01
 ****

 AO basis set (Overlap normalization):
 Atom C1       Shell     1 S   3     bf    1 -     1          1.099984999586          2.062089046065         -0.413897028478
      0.1722560000D+03  0.6176690738D-01
      0.2591090000D+02  0.3587940429D+00
      0.5533350000D+01  0.7007130837D+00
 Atom C1       Shell     2 SP   2    bf    2 -     5          1.099984999586          2.062089046065         -0.413897028478
      0.3664980000D+01 -0.3958951621D+00  0.2364599466D+00
      0.7705450000D+00  0.1215834356D+01  0.8606188057D+00
 Atom C1       Shell     3 SP   1    bf    6 -     9          1.099984999586          2.062089046065         -0.413897028478
      0.1958570000D+00  0.1000000000D+01  0.1000000000D+01
 Atom C2       Shell     4 S   3     bf   10 -    10          3.023215801000          0.000168710591          0.330788252502
      0.1722560000D+03  0.6176690738D-01
      0.2591090000D+02  0.3587940429D+00
      0.5533350000D+01  0.7007130837D+00
 Atom C2       Shell     5 SP   2    bf   11 -    14          3.023215801000          0.000168710591          0.330788252502
      0.3664980000D+01 -0.3958951621D+00  0.2364599466D+00
      0.7705450000D+00  0.1215834356D+01  0.8606188057D+00
 Atom C2       Shell     6 SP   1    bf   15 -    18          3.023215801000          0.000168710591          0.330788252502
      0.1958570000D+00  0.1000000000D+01  0.1000000000D+01
 Atom C3       Shell     7 S   3     bf   19 -    19          1.100462734754         -2.062044305136         -0.413898422518
      0.1722560000D+03  0.6176690738D-01
      0.2591090000D+02  0.3587940429D+00
      0.5533350000D+01  0.7007130837D+00
 Atom C3       Shell     8 SP   2    bf   20 -    23          1.100462734754         -2.062044305136         -0.413898422518
      0.3664980000D+01 -0.3958951621D+00  0.2364599466D+00
      0.7705450000D+00  0.1215834356D+01  0.8606188057D+00
 Atom C3       Shell     9 SP   1    bf   24 -    27          1.100462734754         -2.062044305136         -0.413898422518
      0.1958570000D+00  0.1000000000D+01  0.1000000000D+01
 Atom C4       Shell    10 S   3     bf   28 -    28         -0.822926150481         -0.000144031675         -1.158097774686
      0.1722560000D+03  0.6176690738D-01
      0.2591090000D+02  0.3587940429D+00
      0.5533350000D+01  0.7007130837D+00
 Atom C4       Shell    11 SP   2    bf   29 -    32         -0.822926150481         -0.000144031675         -1.158097774686
      0.3664980000D+01 -0.3958951621D+00  0.2364599466D+00
      0.7705450000D+00  0.1215834356D+01  0.8606188057D+00
 Atom C4       Shell    12 SP   1    bf   33 -    36         -0.822926150481         -0.000144031675         -1.158097774686
      0.1958570000D+00  0.1000000000D+01  0.1000000000D+01
 Atom H5       Shell    13 S   2     bf   37 -    37          0.481431827932          3.272791609887          1.183458195603
      0.5447178000D+01  0.1562849787D+00
      0.8245472400D+00  0.9046908767D+00
 Atom H5       Shell    14 S   1     bf   38 -    38          0.481431827932          3.272791609887          1.183458195603
      0.1831915800D+00  0.1000000000D+01
 Atom H6       Shell    15 S   2     bf   39 -    39          3.533112217801          0.000101714569          2.365480329303
      0.5447178000D+01  0.1562849787D+00
      0.8245472400D+00  0.9046908767D+00
 Atom H6       Shell    16 S   1     bf   40 -    40          3.533112217801          0.000101714569          2.365480329303
      0.1831915800D+00  0.1000000000D+01
 Atom H7       Shell    17 S   2     bf   41 -    41          0.482097922876         -3.272320658030          1.183898571544
      0.5447178000D+01  0.1562849787D+00
      0.8245472400D+00  0.9046908767D+00
 Atom H7       Shell    18 S   1     bf   42 -    42          0.482097922876         -3.272320658030          1.183898571544
      0.1831915800D+00  0.1000000000D+01
 Atom C8       Shell    19 S   3     bf   43 -    43         -3.246361297232         -0.000112354155          0.453143788071
      0.1722560000D+03  0.6176690738D-01
      0.2591090000D+02  0.3587940429D+00
      0.5533350000D+01  0.7007130837D+00
 Atom C8       Shell    20 SP   2    bf   44 -    47         -3.246361297232         -0.000112354155          0.453143788071
      0.3664980000D+01 -0.3958951621D+00  0.2364599466D+00
      0.7705450000D+00  0.1215834356D+01  0.8606188057D+00
 Atom C8       Shell    21 SP   1    bf   48 -    51         -3.246361297232         -0.000112354155          0.453143788071
      0.1958570000D+00  0.1000000000D+01  0.1000000000D+01
 Atom H9       Shell    22 S   2     bf   52 -    52         -4.335406759806          1.650802503545          0.032463095149
      0.5447178000D+01  0.1562849787D+00
      0.8245472400D+00  0.9046908767D+00
 Atom H9       Shell    23 S   1     bf   53 -    53         -4.335406759806          1.650802503545          0.032463095149
      0.1831915800D+00  0.1000000000D+01
 Atom H10      Shell    24 S   2     bf   54 -    54         -4.335332073575         -1.651121636705          0.032640368201
      0.5447178000D+01  0.1562849787D+00
      0.8245472400D+00  0.9046908767D+00
 Atom H10      Shell    25 S   1     bf   55 -    55         -4.335332073575         -1.651121636705          0.032640368201
      0.1831915800D+00  0.1000000000D+01
 Atom H11      Shell    26 S   2     bf   56 -    56         -2.752159660985          0.000004072588          2.413826550858
      0.5447178000D+01  0.1562849787D+00
      0.8245472400D+00  0.9046908767D+00
 Atom H11      Shell    27 S   1     bf   57 -    57         -2.752159660985          0.000004072588          2.413826550858
      0.1831915800D+00  0.1000000000D+01
 There are    57 symmetry adapted cartesian basis functions of A   symmetry.
 There are    57 symmetry adapted basis functions of A   symmetry.
    57 basis functions,    93 primitive gaussians,    57 cartesian basis functions
    18 alpha electrons       18 beta electrons
       nuclear repulsion energy       148.4282849705 Hartrees.
 IExCor=    0 DFT=F Ex=HF Corr=None ExCW=0 ScaHFX=  1.000000
 ScaDFX=  1.000000  1.000000  1.000000  1.000000 ScalE2=  1.000000  1.000000
 IRadAn=      5 IRanWt=     -1 IRanGd=            0 ICorTp=0 IEmpDi=  4
 NAtoms=   11 NActive=   11 NUniq=   11 SFac= 1.00D+00 NAtFMM=   60 NAOKFM=F Big=F
 Integral buffers will be    131072 words long.
 Raffenetti 1 integral format.
 Two-electron integral symmetry is turned on.
 Leave Link  301 at Tue Jun 10 01:38:36 2025, MaxMem=  2013265920 cpu:               1.9 elap:               0.1
 (Enter /home/user/softwares/g16/g16/l302.exe)
 NPDir=0 NMtPBC=     1 NCelOv=     1 NCel=       1 NClECP=     1 NCelD=      1
         NCelK=      1 NCelE2=     1 NClLst=     1 CellRange=     0.0.
 One-electron integrals computed using PRISM.
 One-electron integral symmetry used in STVInt
 NBasis=    57 RedAO= T EigKep=  6.47D-03  NBF=    57
 NBsUse=    57 1.00D-06 EigRej= -1.00D+00 NBFU=    57
 Leave Link  302 at Tue Jun 10 01:38:36 2025, MaxMem=  2013265920 cpu:               4.4 elap:               0.2
 (Enter /home/user/softwares/g16/g16/l303.exe)
 DipDrv:  MaxL=1.
 Leave Link  303 at Tue Jun 10 01:38:36 2025, MaxMem=  2013265920 cpu:               1.4 elap:               0.1
 (Enter /home/user/softwares/g16/g16/l401.exe)
 ExpMin= 1.83D-01 ExpMax= 1.72D+02 ExpMxC= 1.72D+02 IAcc=3 IRadAn=         5 AccDes= 0.00D+00
 Harris functional with IExCor=  205 and IRadAn=       5 diagonalized for initial guess.
 HarFok:  IExCor=  205 AccDes= 0.00D+00 IRadAn=         5 IDoV= 1 UseB2=F ITyADJ=14
 ICtDFT=  3500011 ScaDFX=  1.000000  1.000000  1.000000  1.000000
 FoFCou: FMM=F IPFlag=           0 FMFlag=      100000 FMFlg1=           0
         NFxFlg=           0 DoJE=T BraDBF=F KetDBF=T FulRan=T
         wScrn=  0.000000 ICntrl=       500 IOpCl=  0 I1Cent=   200000004 NGrid=           0
         NMat0=    1 NMatS0=      1 NMatT0=    0 NMatD0=    1 NMtDS0=    0 NMtDT0=    0
 Petite list used in FoFCou.
 Harris En= -191.765341317313    
 JPrj=0 DoOrth=F DoCkMO=F.
 Leave Link  401 at Tue Jun 10 01:38:37 2025, MaxMem=  2013265920 cpu:               7.3 elap:               0.4
 (Enter /home/user/softwares/g16/g16/l502.exe)
 Keep R1 ints in memory in canonical form, NReq=5410974.
 FoFCou: FMM=F IPFlag=           0 FMFlag=           0 FMFlg1=           0
         NFxFlg=           0 DoJE=F BraDBF=F KetDBF=F FulRan=T
         wScrn=  0.000000 ICntrl=       600 IOpCl=  0 I1Cent=           0 NGrid=           0
         NMat0=    1 NMatS0=   1653 NMatT0=    0 NMatD0=    1 NMtDS0=    0 NMtDT0=    0
 Symmetry not used in FoFCou.
 Two-electron integral symmetry not used.
 Closed shell SCF:
 Using DIIS extrapolation, IDIIS=  1040.
 NGot=  2013265920 LenX=  2011890318 LenY=  2011886628
 Requested convergence on RMS density matrix=1.00D-08 within 128 cycles.
 Requested convergence on MAX density matrix=1.00D-06.
 Requested convergence on             energy=1.00D-06.
 No special actions if energy rises.

 Cycle   1  Pass 1  IDiag  1:
 E= -191.194939894226    
 DIIS: error= 5.13D-02 at cycle   1 NSaved=   1.
 NSaved= 1 IEnMin= 1 EnMin= -191.194939894226     IErMin= 1 ErrMin= 5.13D-02
 ErrMax= 5.13D-02  0.00D+00 EMaxC= 1.00D-01 BMatC= 2.30D-01 BMatP= 2.30D-01
 IDIUse=3 WtCom= 4.87D-01 WtEn= 5.13D-01
 Coeff-Com:  0.100D+01
 Coeff-En:   0.100D+01
 Coeff:      0.100D+01
 Gap=     0.163 Goal=   None    Shift=    0.000
 GapD=    0.163 DampG=1.000 DampE=0.500 DampFc=0.5000 IDamp=-1.
 Damping current iteration by 5.00D-01
 RMSDP=9.48D-03 MaxDP=9.84D-02              OVMax= 1.02D-01

 Cycle   2  Pass 1  IDiag  1:
 E= -191.298055815540     Delta-E=       -0.103115921314 Rises=F Damp=T
 DIIS: error= 2.05D-02 at cycle   2 NSaved=   2.
 NSaved= 2 IEnMin= 2 EnMin= -191.298055815540     IErMin= 2 ErrMin= 2.05D-02
 ErrMax= 2.05D-02  0.00D+00 EMaxC= 1.00D-01 BMatC= 3.96D-02 BMatP= 2.30D-01
 IDIUse=3 WtCom= 7.95D-01 WtEn= 2.05D-01
 Coeff-Com: -0.542D+00 0.154D+01
 Coeff-En:   0.000D+00 0.100D+01
 Coeff:     -0.430D+00 0.143D+01
 Gap=     0.241 Goal=   None    Shift=    0.000
 RMSDP=3.35D-03 MaxDP=4.28D-02 DE=-1.03D-01 OVMax= 5.63D-02

 Cycle   3  Pass 1  IDiag  1:
 E= -191.387679713181     Delta-E=       -0.089623897640 Rises=F Damp=F
 DIIS: error= 4.58D-03 at cycle   3 NSaved=   3.
 NSaved= 3 IEnMin= 3 EnMin= -191.387679713181     IErMin= 3 ErrMin= 4.58D-03
 ErrMax= 4.58D-03  0.00D+00 EMaxC= 1.00D-01 BMatC= 6.53D-04 BMatP= 3.96D-02
 IDIUse=3 WtCom= 9.54D-01 WtEn= 4.58D-02
 Coeff-Com: -0.252D-01 0.157D-01 0.101D+01
 Coeff-En:   0.000D+00 0.000D+00 0.100D+01
 Coeff:     -0.240D-01 0.150D-01 0.101D+01
 Gap=     0.238 Goal=   None    Shift=    0.000
 RMSDP=8.06D-04 MaxDP=1.15D-02 DE=-8.96D-02 OVMax= 9.90D-03

 Cycle   4  Pass 1  IDiag  1:
 E= -191.388893791676     Delta-E=       -0.001214078495 Rises=F Damp=F
 DIIS: error= 2.28D-03 at cycle   4 NSaved=   4.
 NSaved= 4 IEnMin= 4 EnMin= -191.388893791676     IErMin= 4 ErrMin= 2.28D-03
 ErrMax= 2.28D-03  0.00D+00 EMaxC= 1.00D-01 BMatC= 8.75D-05 BMatP= 6.53D-04
 IDIUse=3 WtCom= 9.77D-01 WtEn= 2.28D-02
 Coeff-Com:  0.108D-01-0.374D-01 0.112D+00 0.914D+00
 Coeff-En:   0.000D+00 0.000D+00 0.000D+00 0.100D+01
 Coeff:      0.106D-01-0.366D-01 0.110D+00 0.916D+00
 Gap=     0.246 Goal=   None    Shift=    0.000
 RMSDP=2.87D-04 MaxDP=2.03D-03 DE=-1.21D-03 OVMax= 1.04D-02

 Cycle   5  Pass 1  IDiag  1:
 E= -191.389162046651     Delta-E=       -0.000268254975 Rises=F Damp=F
 DIIS: error= 8.51D-04 at cycle   5 NSaved=   5.
 NSaved= 5 IEnMin= 5 EnMin= -191.389162046651     IErMin= 5 ErrMin= 8.51D-04
 ErrMax= 8.51D-04  0.00D+00 EMaxC= 1.00D-01 BMatC= 2.29D-05 BMatP= 8.75D-05
 IDIUse=3 WtCom= 9.91D-01 WtEn= 8.51D-03
 Coeff-Com: -0.683D-02 0.260D-01-0.255D+00-0.254D+00 0.149D+01
 Coeff-En:   0.000D+00 0.000D+00 0.000D+00 0.000D+00 0.100D+01
 Coeff:     -0.677D-02 0.258D-01-0.253D+00-0.252D+00 0.149D+01
 Gap=     0.248 Goal=   None    Shift=    0.000
 RMSDP=2.86D-04 MaxDP=2.92D-03 DE=-2.68D-04 OVMax= 8.04D-03

 Cycle   6  Pass 1  IDiag  1:
 E= -191.389258709068     Delta-E=       -0.000096662417 Rises=F Damp=F
 DIIS: error= 1.65D-04 at cycle   6 NSaved=   6.
 NSaved= 6 IEnMin= 6 EnMin= -191.389258709068     IErMin= 6 ErrMin= 1.65D-04
 ErrMax= 1.65D-04  0.00D+00 EMaxC= 1.00D-01 BMatC= 7.87D-07 BMatP= 2.29D-05
 IDIUse=3 WtCom= 9.98D-01 WtEn= 1.65D-03
 Coeff-Com: -0.120D-02 0.265D-02 0.142D-02-0.244D-01-0.754D-01 0.110D+01
 Coeff-En:   0.000D+00 0.000D+00 0.000D+00 0.000D+00 0.000D+00 0.100D+01
 Coeff:     -0.120D-02 0.264D-02 0.142D-02-0.244D-01-0.752D-01 0.110D+01
 Gap=     0.249 Goal=   None    Shift=    0.000
 RMSDP=4.31D-05 MaxDP=4.62D-04 DE=-9.67D-05 OVMax= 1.25D-03

 Cycle   7  Pass 1  IDiag  1:
 E= -191.389261611284     Delta-E=       -0.000002902216 Rises=F Damp=F
 DIIS: error= 5.85D-05 at cycle   7 NSaved=   7.
 NSaved= 7 IEnMin= 7 EnMin= -191.389261611284     IErMin= 7 ErrMin= 5.85D-05
 ErrMax= 5.85D-05  0.00D+00 EMaxC= 1.00D-01 BMatC= 1.18D-07 BMatP= 7.87D-07
 IDIUse=1 WtCom= 1.00D+00 WtEn= 0.00D+00
 Coeff-Com:  0.570D-03-0.287D-02 0.366D-01 0.374D-01-0.227D+00 0.109D+00
 Coeff-Com:  0.105D+01
 Coeff:      0.570D-03-0.287D-02 0.366D-01 0.374D-01-0.227D+00 0.109D+00
 Coeff:      0.105D+01
 Gap=     0.249 Goal=   None    Shift=    0.000
 RMSDP=1.72D-05 MaxDP=1.39D-04 DE=-2.90D-06 OVMax= 4.98D-04

 Cycle   8  Pass 1  IDiag  1:
 E= -191.389262079444     Delta-E=       -0.000000468160 Rises=F Damp=F
 DIIS: error= 2.59D-05 at cycle   8 NSaved=   8.
 NSaved= 8 IEnMin= 8 EnMin= -191.389262079444     IErMin= 8 ErrMin= 2.59D-05
 ErrMax= 2.59D-05  0.00D+00 EMaxC= 1.00D-01 BMatC= 2.13D-08 BMatP= 1.18D-07
 IDIUse=1 WtCom= 1.00D+00 WtEn= 0.00D+00
 Coeff-Com:  0.998D-04-0.364D-03 0.286D-02 0.520D-02-0.141D-01-0.737D-01
 Coeff-Com:  0.100D+00 0.980D+00
 Coeff:      0.998D-04-0.364D-03 0.286D-02 0.520D-02-0.141D-01-0.737D-01
 Coeff:      0.100D+00 0.980D+00
 Gap=     0.249 Goal=   None    Shift=    0.000
 RMSDP=7.95D-06 MaxDP=8.99D-05 DE=-4.68D-07 OVMax= 2.42D-04

 Cycle   9  Pass 1  IDiag  1:
 E= -191.389262196299     Delta-E=       -0.000000116855 Rises=F Damp=F
 DIIS: error= 2.77D-05 at cycle   9 NSaved=   9.
 NSaved= 9 IEnMin= 9 EnMin= -191.389262196299     IErMin= 8 ErrMin= 2.59D-05
 ErrMax= 2.77D-05  0.00D+00 EMaxC= 1.00D-01 BMatC= 7.67D-09 BMatP= 2.13D-08
 IDIUse=1 WtCom= 1.00D+00 WtEn= 0.00D+00
 Coeff-Com: -0.145D-03 0.777D-03-0.105D-01-0.100D-01 0.666D-01-0.518D-01
 Coeff-Com: -0.282D+00 0.113D+00 0.117D+01
 Coeff:     -0.145D-03 0.777D-03-0.105D-01-0.100D-01 0.666D-01-0.518D-01
 Coeff:     -0.282D+00 0.113D+00 0.117D+01
 Gap=     0.249 Goal=   None    Shift=    0.000
 RMSDP=8.48D-06 MaxDP=7.68D-05 DE=-1.17D-07 OVMax= 3.52D-04

 Cycle  10  Pass 1  IDiag  1:
 E= -191.389262310983     Delta-E=       -0.000000114683 Rises=F Damp=F
 DIIS: error= 3.05D-05 at cycle  10 NSaved=  10.
 NSaved=10 IEnMin=10 EnMin= -191.389262310983     IErMin= 8 ErrMin= 2.59D-05
 ErrMax= 3.05D-05  0.00D+00 EMaxC= 1.00D-01 BMatC= 5.36D-09 BMatP= 7.67D-09
 IDIUse=1 WtCom= 1.00D+00 WtEn= 0.00D+00
 Coeff-Com:  0.186D-04-0.634D-04 0.629D-03 0.444D-03-0.418D-02 0.972D-02
 Coeff-Com:  0.163D-01-0.157D+00 0.644D-01 0.107D+01
 Coeff:      0.186D-04-0.634D-04 0.629D-03 0.444D-03-0.418D-02 0.972D-02
 Coeff:      0.163D-01-0.157D+00 0.644D-01 0.107D+01
 Gap=     0.249 Goal=   None    Shift=    0.000
 RMSDP=6.66D-06 MaxDP=6.18D-05 DE=-1.15D-07 OVMax= 3.15D-04

 Cycle  11  Pass 1  IDiag  1:
 E= -191.389262401427     Delta-E=       -0.000000090444 Rises=F Damp=F
 DIIS: error= 3.30D-05 at cycle  11 NSaved=  11.
 NSaved=11 IEnMin=11 EnMin= -191.389262401427     IErMin= 8 ErrMin= 2.59D-05
 ErrMax= 3.30D-05  0.00D+00 EMaxC= 1.00D-01 BMatC= 5.65D-09 BMatP= 5.36D-09
 IDIUse=1 WtCom= 1.00D+00 WtEn= 0.00D+00
 Coeff-Com:  0.397D-03-0.184D-02 0.232D-01 0.206D-01-0.149D+00 0.171D+00
 Coeff-Com:  0.611D+00-0.135D+01-0.184D+01 0.973D+01-0.621D+01
 Coeff:      0.397D-03-0.184D-02 0.232D-01 0.206D-01-0.149D+00 0.171D+00
 Coeff:      0.611D+00-0.135D+01-0.184D+01 0.973D+01-0.621D+01
 Gap=     0.249 Goal=   None    Shift=    0.000
 RMSDP=2.49D-05 MaxDP=2.26D-04 DE=-9.04D-08 OVMax= 1.20D-03

 Cycle  12  Pass 1  IDiag  1:
 E= -191.389262104371     Delta-E=        0.000000297056 Rises=F Damp=F
 DIIS: error= 2.34D-05 at cycle  12 NSaved=  12.
 NSaved=12 IEnMin=11 EnMin= -191.389262401427     IErMin=12 ErrMin= 2.34D-05
 ErrMax= 2.34D-05  0.00D+00 EMaxC= 1.00D-01 BMatC= 3.20D-09 BMatP= 5.36D-09
 IDIUse=1 WtCom= 1.00D+00 WtEn= 0.00D+00
 Coeff-Com: -0.486D-04 0.294D-04 0.132D-02 0.207D-02-0.917D-02-0.543D-02
 Coeff-Com:  0.500D-01 0.854D-01-0.268D-01-0.214D+01-0.305D+00 0.335D+01
 Coeff:     -0.486D-04 0.294D-04 0.132D-02 0.207D-02-0.917D-02-0.543D-02
 Coeff:      0.500D-01 0.854D-01-0.268D-01-0.214D+01-0.305D+00 0.335D+01
 Gap=     0.249 Goal=   None    Shift=    0.000
 RMSDP=4.56D-05 MaxDP=4.12D-04 DE= 2.97D-07 OVMax= 2.20D-03

 Cycle  13  Pass 1  IDiag  1:
 E= -191.389261822165     Delta-E=        0.000000282206 Rises=F Damp=F
 DIIS: error= 6.24D-06 at cycle  13 NSaved=  13.
 NSaved=13 IEnMin=11 EnMin= -191.389262401427     IErMin=13 ErrMin= 6.24D-06
 ErrMax= 6.24D-06  0.00D+00 EMaxC= 1.00D-01 BMatC= 5.07D-10 BMatP= 3.20D-09
 IDIUse=1 WtCom= 1.00D+00 WtEn= 0.00D+00
 Coeff-Com: -0.135D-03 0.559D-03-0.642D-02-0.539D-02 0.412D-01-0.540D-01
 Coeff-Com: -0.163D+00 0.428D+00 0.581D+00-0.381D+01 0.178D+01 0.128D+01
 Coeff-Com:  0.927D+00
 Coeff:     -0.135D-03 0.559D-03-0.642D-02-0.539D-02 0.412D-01-0.540D-01
 Coeff:     -0.163D+00 0.428D+00 0.581D+00-0.381D+01 0.178D+01 0.128D+01
 Coeff:      0.927D+00
 Gap=     0.249 Goal=   None    Shift=    0.000
 RMSDP=1.33D-05 MaxDP=1.23D-04 DE= 2.82D-07 OVMax= 6.42D-04

 Cycle  14  Pass 1  IDiag  1:
 E= -191.389261803267     Delta-E=        0.000000018899 Rises=F Damp=F
 DIIS: error= 9.10D-07 at cycle  14 NSaved=  14.
 NSaved=14 IEnMin=11 EnMin= -191.389262401427     IErMin=14 ErrMin= 9.10D-07
 ErrMax= 9.10D-07  0.00D+00 EMaxC= 1.00D-01 BMatC= 4.08D-11 BMatP= 5.07D-10
 IDIUse=1 WtCom= 1.00D+00 WtEn= 0.00D+00
 Coeff-Com:  0.127D-04-0.880D-05-0.323D-03-0.520D-03 0.258D-02-0.258D-03
 Coeff-Com: -0.118D-01-0.115D-01 0.259D-01 0.297D+00 0.796D-01-0.558D+00
 Coeff-Com:  0.328D-01 0.114D+01
 Coeff:      0.127D-04-0.880D-05-0.323D-03-0.520D-03 0.258D-02-0.258D-03
 Coeff:     -0.118D-01-0.115D-01 0.259D-01 0.297D+00 0.796D-01-0.558D+00
 Coeff:      0.328D-01 0.114D+01
 Gap=     0.249 Goal=   None    Shift=    0.000
 RMSDP=2.38D-06 MaxDP=2.14D-05 DE= 1.89D-08 OVMax= 1.14D-04

 Cycle  15  Pass 1  IDiag  1:
 E= -191.389261802880     Delta-E=        0.000000000387 Rises=F Damp=F
 DIIS: error= 2.51D-07 at cycle  15 NSaved=  15.
 NSaved=15 IEnMin=11 EnMin= -191.389262401427     IErMin=15 ErrMin= 2.51D-07
 ErrMax= 2.51D-07  0.00D+00 EMaxC= 1.00D-01 BMatC= 1.99D-12 BMatP= 4.08D-11
 IDIUse=1 WtCom= 1.00D+00 WtEn= 0.00D+00
 Coeff-Com: -0.327D-05-0.509D-05 0.237D-03 0.312D-03-0.183D-02 0.123D-02
 Coeff-Com:  0.804D-02-0.870D-02-0.173D-01-0.103D-01-0.679D-01 0.158D+00
 Coeff-Com: -0.505D-01-0.428D+00 0.142D+01
 Coeff:     -0.327D-05-0.509D-05 0.237D-03 0.312D-03-0.183D-02 0.123D-02
 Coeff:      0.804D-02-0.870D-02-0.173D-01-0.103D-01-0.679D-01 0.158D+00
 Coeff:     -0.505D-01-0.428D+00 0.142D+01
 Gap=     0.249 Goal=   None    Shift=    0.000
 RMSDP=1.82D-07 MaxDP=1.24D-06 DE= 3.87D-10 OVMax= 6.51D-06

 Cycle  16  Pass 1  IDiag  1:
 E= -191.389261802886     Delta-E=       -0.000000000006 Rises=F Damp=F
 DIIS: error= 7.79D-08 at cycle  16 NSaved=  16.
 NSaved=16 IEnMin=11 EnMin= -191.389262401427     IErMin=16 ErrMin= 7.79D-08
 ErrMax= 7.79D-08  0.00D+00 EMaxC= 1.00D-01 BMatC= 1.24D-13 BMatP= 1.99D-12
 IDIUse=1 WtCom= 1.00D+00 WtEn= 0.00D+00
 Coeff-Com:  0.480D-08 0.464D-05-0.951D-04-0.116D-03 0.718D-03-0.660D-03
 Coeff-Com: -0.281D-02 0.458D-02 0.846D-02-0.273D-01 0.272D-01-0.220D-01
 Coeff-Com:  0.187D-01 0.817D-01-0.501D+00 0.141D+01
 Coeff:      0.480D-08 0.464D-05-0.951D-04-0.116D-03 0.718D-03-0.660D-03
 Coeff:     -0.281D-02 0.458D-02 0.846D-02-0.273D-01 0.272D-01-0.220D-01
 Coeff:      0.187D-01 0.817D-01-0.501D+00 0.141D+01
 Gap=     0.249 Goal=   None    Shift=    0.000
 RMSDP=3.10D-08 MaxDP=2.11D-07 DE=-6.37D-12 OVMax= 7.07D-07

 Cycle  17  Pass 1  IDiag  1:
 E= -191.389261802888     Delta-E=       -0.000000000002 Rises=F Damp=F
 DIIS: error= 1.97D-08 at cycle  17 NSaved=  17.
 NSaved=17 IEnMin=11 EnMin= -191.389262401427     IErMin=17 ErrMin= 1.97D-08
 ErrMax= 1.97D-08  0.00D+00 EMaxC= 1.00D-01 BMatC= 1.17D-14 BMatP= 1.24D-13
 IDIUse=1 WtCom= 1.00D+00 WtEn= 0.00D+00
 Large coefficients: NSaved= 17 BigCof=    0.00 CofMax=   10.00 Det=-7.73D-15
 Inversion failed.  Reducing to 16 matrices.
 Large coefficients: NSaved= 16 BigCof=    0.00 CofMax=   10.00 Det=-7.79D-15
 Inversion failed.  Reducing to 15 matrices.
 Coeff-Com: -0.856D-06 0.319D-05-0.124D-04 0.212D-04 0.826D-05-0.495D-03
 Coeff-Com:  0.368D-03 0.326D-02-0.463D-03-0.325D-02-0.152D-02 0.144D-02
 Coeff-Com:  0.882D-01-0.555D+00 0.147D+01
 Coeff:     -0.856D-06 0.319D-05-0.124D-04 0.212D-04 0.826D-05-0.495D-03
 Coeff:      0.368D-03 0.326D-02-0.463D-03-0.325D-02-0.152D-02 0.144D-02
 Coeff:      0.882D-01-0.555D+00 0.147D+01
 Gap=     0.249 Goal=   None    Shift=    0.000
 RMSDP=7.80D-09 MaxDP=5.57D-08 DE=-1.88D-12 OVMax= 1.48D-07

 SCF Done:  E(RHF) =  -191.389261803     A.U. after   17 cycles
            NFock= 17  Conv=0.78D-08     -V/T= 2.0043
 KE= 1.905665518164D+02 PE=-7.409298525330D+02 EE= 2.105457539431D+02
 Leave Link  502 at Tue Jun 10 01:38:37 2025, MaxMem=  2013265920 cpu:               5.6 elap:               0.3
 (Enter /home/user/softwares/g16/g16/l601.exe)
 Copying SCF densities to generalized density rwf, IOpCl= 0 IROHF=0.

 **********************************************************************

            Population analysis using the SCF Density.

 **********************************************************************

 Orbital symmetries:
       Occupied  (A) (A) (A) (A) (A) (A) (A) (A) (A) (A) (A) (A)
                 (A) (A) (A) (A) (A) (A)
       Virtual   (A) (A) (A) (A) (A) (A) (A) (A) (A) (A) (A) (A)
                 (A) (A) (A) (A) (A) (A) (A) (A) (A) (A) (A) (A)
                 (A) (A) (A) (A) (A) (A) (A) (A) (A) (A) (A) (A)
                 (A) (A) (A)
 The electronic state is 1-A.
 Alpha  occ. eigenvalues --  -11.28555 -11.27390 -11.20218 -11.17007 -11.16995
 Alpha  occ. eigenvalues --   -1.15933  -1.01856  -0.85893  -0.84496  -0.66451
 Alpha  occ. eigenvalues --   -0.64832  -0.61643  -0.60717  -0.49654  -0.49351
 Alpha  occ. eigenvalues --   -0.46904  -0.42382  -0.23312
 Alpha virt. eigenvalues --    0.01557   0.08958   0.24159   0.28216   0.30601
 Alpha virt. eigenvalues --    0.32779   0.33794   0.35803   0.37082   0.37319
 Alpha virt. eigenvalues --    0.43835   0.48237   0.64290   0.89633   0.90033
 Alpha virt. eigenvalues --    0.93787   0.95493   0.97389   0.99744   1.01247
 Alpha virt. eigenvalues --    1.04146   1.05878   1.10225   1.10470   1.16578
 Alpha virt. eigenvalues --    1.18227   1.22849   1.25411   1.27360   1.33131
 Alpha virt. eigenvalues --    1.34382   1.35990   1.38132   1.46154   1.73830
 Alpha virt. eigenvalues --    1.96834   2.09815   2.35888   2.82772
     Molecular Orbital Coefficients:
                           1         2         3         4         5
                           O         O         O         O         O
     Eigenvalues --   -11.28555 -11.27390 -11.20218 -11.17007 -11.16995
   1 1   C  1S         -0.00255  -0.00260  -0.00689   0.79922   0.58043
   2        2S         -0.00447  -0.00367  -0.00253   0.08197   0.05929
   3        2PX        -0.00087   0.00037   0.00076  -0.00082  -0.00065
   4        2PY        -0.00120  -0.00057   0.00041  -0.00247  -0.00136
   5        2PZ        -0.00052   0.00000  -0.00013   0.00194   0.00149
   6        3S          0.03616   0.02816   0.00654  -0.06259  -0.05439
   7        3PX        -0.01059   0.00644  -0.00067   0.00302   0.00263
   8        3PY        -0.01293  -0.01118  -0.00365   0.01339   0.01388
   9        3PZ         0.00250   0.00588  -0.00003  -0.00741  -0.00682
  10 2   C  1S         -0.00103   0.98788  -0.00093   0.00034   0.00215
  11        2S          0.00001   0.10060   0.00110  -0.00070  -0.00445
  12        2PX         0.00049  -0.00175  -0.00000  -0.00010  -0.00063
  13        2PY         0.00000  -0.00000  -0.00000   0.00051  -0.00008
  14        2PZ         0.00033   0.00142   0.00033  -0.00008  -0.00050
  15        3S         -0.01090  -0.08287  -0.00640   0.00620   0.03915
  16        3PX         0.00498   0.02056   0.00314  -0.00256  -0.01615
  17        3PY         0.00000   0.00000   0.00000   0.01127  -0.00179
  18        3PZ        -0.00048  -0.00331  -0.00065  -0.00021  -0.00135
  19 3   C  1S         -0.00255  -0.00260  -0.00688  -0.58043   0.79922
  20        2S         -0.00447  -0.00367  -0.00253  -0.05960   0.08174
  21        2PX        -0.00087   0.00037   0.00076   0.00058  -0.00087
  22        2PY         0.00120   0.00057  -0.00041  -0.00193   0.00206
  23        2PZ        -0.00052   0.00000  -0.00013  -0.00139   0.00202
  24        3S          0.03616   0.02816   0.00654   0.04270  -0.07109
  25        3PX        -0.01060   0.00644  -0.00067  -0.00206   0.00343
  26        3PY         0.01293   0.01119   0.00365   0.00844  -0.01734
  27        3PZ         0.00250   0.00588  -0.00003   0.00494  -0.00878
  28 4   C  1S          0.98866   0.00116   0.00082   0.00030   0.00191
  29        2S          0.10599  -0.00007  -0.00101  -0.00066  -0.00415
  30        2PX         0.00049  -0.00046  -0.00034   0.00016   0.00101
  31        2PY         0.00000   0.00000  -0.00000   0.00047  -0.00008
  32        2PZ         0.00324   0.00001   0.00003  -0.00001  -0.00007
  33        3S         -0.10396  -0.00728   0.01264   0.00586   0.03701
  34        3PX        -0.01071  -0.00291  -0.01283   0.00218   0.01378
  35        3PY        -0.00000  -0.00000  -0.00000   0.01105  -0.00175
  36        3PZ        -0.02718  -0.00230   0.00542   0.00141   0.00893
  37 5   H  1S         -0.00237  -0.00206  -0.00064   0.00032   0.00081
  38        2S         -0.00257  -0.00000   0.00084   0.01175   0.00834
  39 6   H  1S          0.00075   0.00068   0.00063  -0.00046  -0.00290
  40        2S          0.00026   0.01493   0.00045  -0.00000  -0.00001
  41 7   H  1S         -0.00237  -0.00206  -0.00064  -0.00005   0.00087
  42        2S         -0.00257  -0.00000   0.00084  -0.00859   0.01157
  43 8   C  1S         -0.00157   0.00116   0.98742   0.00147   0.00920
  44        2S         -0.00310   0.00076   0.10198  -0.00015  -0.00092
  45        2PX         0.00075   0.00030   0.00055  -0.00032  -0.00201
  46        2PY         0.00000   0.00000   0.00000  -0.00091   0.00014
  47        2PZ        -0.00068  -0.00001  -0.00020   0.00007   0.00042
  48        3S          0.02743  -0.00102  -0.08187  -0.00025  -0.00158
  49        3PX         0.01642  -0.00030  -0.00433   0.00039   0.00246
  50        3PY        -0.00000  -0.00000  -0.00000   0.00295  -0.00047
  51        3PZ        -0.00238  -0.00011   0.00294  -0.00013  -0.00081
  52 9   H  1S         -0.00120  -0.00000   0.00001  -0.00009  -0.00010
  53        2S          0.00148   0.00025   0.01470  -0.00236   0.00173
  54 10  H  1S         -0.00120  -0.00000   0.00001   0.00005  -0.00012
  55        2S          0.00148   0.00025   0.01470   0.00278   0.00092
  56 11  H  1S         -0.00232   0.00018   0.00007  -0.00013  -0.00083
  57        2S         -0.00234   0.00006   0.01452   0.00022   0.00138
                           6         7         8         9        10
                           O         O         O         O         O
     Eigenvalues --    -1.15933  -1.01856  -0.85893  -0.84496  -0.66451
   1 1   C  1S         -0.09656   0.04387  -0.14705   0.02378   0.06367
   2        2S          0.10063  -0.03865   0.12986  -0.02293  -0.05071
   3        2PX        -0.01363  -0.03821  -0.02570   0.09179  -0.02857
   4        2PY        -0.07967   0.03619  -0.00977   0.02141  -0.00855
   5        2PZ         0.01962  -0.01565   0.05520   0.04515  -0.02361
   6        3S          0.15456  -0.11763   0.47503  -0.06105  -0.27913
   7        3PX        -0.00129   0.00900  -0.02503   0.01262   0.00924
   8        3PY        -0.02085   0.02751  -0.05594   0.01051   0.02277
   9        3PZ         0.01419  -0.00801   0.05957   0.00462  -0.05408
  10 2   C  1S         -0.10270   0.09627   0.00010  -0.14173  -0.04399
  11        2S          0.10748  -0.09840  -0.00010   0.13661   0.04126
  12        2PX        -0.07320   0.04022  -0.00004   0.03437   0.11772
  13        2PY        -0.00001   0.00002   0.14688   0.00010   0.00001
  14        2PZ        -0.01374  -0.00295  -0.00006   0.09877   0.18854
  15        3S          0.23401  -0.25585  -0.00032   0.49596   0.21353
  16        3PX        -0.04359   0.03345   0.00001  -0.02956   0.04943
  17        3PY        -0.00001   0.00001   0.04279   0.00002  -0.00001
  18        3PZ         0.00874  -0.00711  -0.00005   0.07188   0.15693
  19 3   C  1S         -0.09655   0.04389   0.14700   0.02399   0.06368
  20        2S          0.10062  -0.03867  -0.12980  -0.02311  -0.05072
  21        2PX        -0.01364  -0.03820   0.02557   0.09183  -0.02856
  22        2PY         0.07967  -0.03620  -0.00976  -0.02141   0.00851
  23        2PZ         0.01963  -0.01565  -0.05528   0.04505  -0.02360
  24        3S          0.15456  -0.11767  -0.47492  -0.06177  -0.27915
  25        3PX        -0.00130   0.00901   0.02502   0.01265   0.00923
  26        3PY         0.02085  -0.02751  -0.05595  -0.01060  -0.02280
  27        3PZ         0.01420  -0.00802  -0.05959   0.00452  -0.05410
  28 4   C  1S         -0.13036  -0.05308  -0.00008   0.12651  -0.10226
  29        2S          0.12793   0.05156   0.00007  -0.11273   0.09305
  30        2PX         0.04402  -0.12011   0.00004  -0.06683  -0.16205
  31        2PY         0.00002   0.00001   0.16145   0.00011   0.00002
  32        2PZ         0.05014   0.03769  -0.00001  -0.00659   0.03400
  33        3S          0.32276   0.15051   0.00032  -0.47639   0.45206
  34        3PX         0.03375  -0.00676   0.00003  -0.05006  -0.09202
  35        3PY         0.00001   0.00001   0.05258   0.00003   0.00003
  36        3PZ         0.06168   0.02642   0.00004  -0.06298   0.08786
  37 5   H  1S          0.04017  -0.01317   0.11512  -0.00416  -0.05996
  38        2S         -0.00271   0.00342   0.04129   0.00245  -0.02863
  39 6   H  1S          0.04200  -0.05508  -0.00011   0.15350   0.17317
  40        2S         -0.01017  -0.00405  -0.00004   0.06012   0.12176
  41 7   H  1S          0.04017  -0.01318  -0.11509  -0.00433  -0.05994
  42        2S         -0.00272   0.00343  -0.04128   0.00239  -0.02860
  43 8   C  1S         -0.06835  -0.17919   0.00007  -0.08094   0.02154
  44        2S          0.07269   0.17006  -0.00006   0.06874  -0.01860
  45        2PX         0.03971   0.01027   0.00007  -0.09260   0.14294
  46        2PY         0.00000   0.00000   0.04467   0.00003   0.00000
  47        2PZ        -0.01201  -0.00855  -0.00004   0.04965  -0.18882
  48        3S          0.14516   0.52579  -0.00028   0.32193  -0.13139
  49        3PX        -0.02142   0.00836  -0.00000  -0.00747   0.06577
  50        3PY         0.00000   0.00001   0.02727   0.00002   0.00000
  51        3PZ        -0.00992  -0.01164  -0.00002   0.03093  -0.13719
  52 9   H  1S          0.02878   0.09996   0.01764   0.07394  -0.04328
  53        2S         -0.01213   0.00518   0.01180   0.03102  -0.03753
  54 10  H  1S          0.02878   0.09996  -0.01776   0.07392  -0.04328
  55        2S         -0.01213   0.00519  -0.01185   0.03100  -0.03753
  56 11  H  1S          0.04018   0.10177  -0.00005   0.06423  -0.11559
  57        2S          0.00517   0.01022  -0.00001   0.01508  -0.08060
                          11        12        13        14        15
                           O         O         O         O         O
     Eigenvalues --    -0.64832  -0.61643  -0.60717  -0.49654  -0.49351
   1 1   C  1S          0.03658   0.02477   0.04385   0.00713  -0.00475
   2        2S         -0.02900  -0.01862  -0.03641  -0.00483   0.00341
   3        2PX         0.07120  -0.07826  -0.00101   0.21110  -0.14126
   4        2PY        -0.15189  -0.01651  -0.09003  -0.02406   0.00438
   5        2PZ        -0.12629  -0.04286  -0.03544   0.06823  -0.06917
   6        3S         -0.19269  -0.09942  -0.20210  -0.03163   0.01741
   7        3PX         0.04915  -0.03651   0.01115   0.13823  -0.09454
   8        3PY        -0.06008   0.00056  -0.04245  -0.01523   0.00260
   9        3PZ        -0.10303  -0.02783  -0.03019   0.04146  -0.04953
  10 2   C  1S         -0.04616   0.00000  -0.01730   0.00000   0.05001
  11        2S          0.04255  -0.00000   0.01486  -0.00001  -0.04518
  12        2PX        -0.06487   0.00001  -0.00462  -0.00007   0.13008
  13        2PY         0.00003  -0.11728   0.00001   0.29650   0.00006
  14        2PZ        -0.14006  -0.00002   0.01987   0.00002   0.23213
  15        3S          0.21296  -0.00002   0.09069  -0.00003  -0.23385
  16        3PX        -0.07423   0.00001  -0.02606  -0.00006   0.12617
  17        3PY         0.00001  -0.08790  -0.00001   0.26496   0.00005
  18        3PZ        -0.10117  -0.00001   0.02853   0.00002   0.19598
  19 3   C  1S          0.03660  -0.02479   0.04385  -0.00711  -0.00474
  20        2S         -0.02901   0.01863  -0.03641   0.00481   0.00339
  21        2PX         0.07115   0.07827  -0.00103  -0.21109  -0.14132
  22        2PY         0.15184  -0.01651   0.08998  -0.02405  -0.00447
  23        2PZ        -0.12630   0.04286  -0.03543  -0.06812  -0.06912
  24        3S         -0.19276   0.09949  -0.20211   0.03159   0.01737
  25        3PX         0.04911   0.03650   0.01113  -0.13821  -0.09456
  26        3PY         0.06001   0.00056   0.04240  -0.01519  -0.00265
  27        3PZ        -0.10304   0.02782  -0.03019  -0.04135  -0.04948
  28 4   C  1S         -0.02272   0.00001  -0.01981   0.00000  -0.03837
  29        2S          0.01896  -0.00001   0.01026  -0.00001   0.03138
  30        2PX         0.09617  -0.00001   0.05414  -0.00000   0.29105
  31        2PY         0.00003   0.13657   0.00004  -0.25115   0.00002
  32        2PZ        -0.06739  -0.00002   0.05516   0.00005  -0.12003
  33        3S          0.12548  -0.00005   0.13135  -0.00001   0.21308
  34        3PX         0.09289  -0.00001   0.05527   0.00000   0.24288
  35        3PY         0.00002   0.11189   0.00003  -0.23059   0.00000
  36        3PZ        -0.02412  -0.00003   0.07427   0.00005  -0.08580
  37 5   H  1S         -0.15897  -0.02798  -0.08609  -0.02287  -0.00033
  38        2S         -0.13129  -0.02144  -0.07117  -0.02096   0.00725
  39 6   H  1S         -0.05798  -0.00001   0.02753  -0.00001   0.15889
  40        2S         -0.06229  -0.00001   0.01513  -0.00002   0.18140
  41 7   H  1S         -0.15895   0.02800  -0.08605   0.02288  -0.00028
  42        2S         -0.13129   0.02145  -0.07114   0.02097   0.00732
  43 8   C  1S         -0.01493  -0.00000  -0.00138  -0.00000   0.02122
  44        2S          0.01422  -0.00000   0.00428   0.00000  -0.01453
  45        2PX        -0.13233  -0.00005   0.19709  -0.00000  -0.21111
  46        2PY        -0.00001   0.34634   0.00008   0.16322   0.00000
  47        2PZ        -0.06503  -0.00005   0.27745  -0.00005   0.11578
  48        3S          0.06009   0.00001  -0.01479   0.00000  -0.09695
  49        3PX        -0.12303  -0.00003   0.15117  -0.00000  -0.19159
  50        3PY        -0.00001   0.29284   0.00007   0.15033  -0.00000
  51        3PZ        -0.07212  -0.00004   0.23218  -0.00004   0.09093
  52 9   H  1S          0.06718   0.19559  -0.11315   0.10869   0.05459
  53        2S          0.04089   0.14808  -0.09461   0.10977   0.06825
  54 10  H  1S          0.06719  -0.19555  -0.11321  -0.10867   0.05459
  55        2S          0.04090  -0.14804  -0.09465  -0.10976   0.06825
  56 11  H  1S         -0.05717  -0.00003   0.22721  -0.00003   0.02940
  57        2S         -0.04705  -0.00003   0.18454  -0.00002   0.04512
                          16        17        18        19        20
                           O         O         O         V         V
     Eigenvalues --    -0.46904  -0.42382  -0.23312   0.01557   0.08958
   1 1   C  1S         -0.02763   0.02794   0.03362  -0.00317   0.06099
   2        2S          0.02664  -0.03043  -0.04565   0.00273  -0.06683
   3        2PX         0.04334  -0.06165  -0.09291  -0.10701  -0.06751
   4        2PY        -0.20706  -0.15359  -0.21752  -0.00278  -0.05987
   5        2PZ        -0.15441   0.15364   0.23049  -0.03416   0.16045
   6        3S          0.10084  -0.12055  -0.06697   0.02456  -0.20580
   7        3PX         0.04391  -0.07552  -0.14972  -0.06006  -0.09584
   8        3PY        -0.15654  -0.15955  -0.32465  -0.00019  -0.27596
   9        3PZ        -0.12449   0.18510   0.36489  -0.01598   0.22833
  10 2   C  1S          0.00001   0.02999   0.00002  -0.01728  -0.06123
  11        2S         -0.00002  -0.02978  -0.00003   0.02513   0.07014
  12        2PX        -0.00009  -0.18341  -0.00014   0.27195   0.14769
  13        2PY         0.19240  -0.00015   0.10582   0.00008   0.00001
  14        2PZ         0.00001   0.09387   0.00008  -0.11050  -0.14889
  15        3S         -0.00008  -0.16106  -0.00005   0.04325   0.24390
  16        3PX        -0.00008  -0.18990  -0.00022   0.50256   0.39767
  17        3PY         0.14895  -0.00015   0.03178   0.00008   0.00002
  18        3PZ         0.00003   0.13774   0.00012  -0.18596  -0.12809
  19 3   C  1S          0.02763   0.02794  -0.03366  -0.00319   0.06099
  20        2S         -0.02665  -0.03042   0.04568   0.00277  -0.06683
  21        2PX        -0.04332  -0.06155   0.09306  -0.10692  -0.06751
  22        2PY        -0.20698   0.15373  -0.21755   0.00257   0.05984
  23        2PZ         0.15457   0.15352  -0.23045  -0.03435   0.16039
  24        3S         -0.10080  -0.12054   0.06712   0.02464  -0.20578
  25        3PX        -0.04390  -0.07544   0.14983  -0.05991  -0.09590
  26        3PY        -0.15642   0.15966  -0.32471  -0.00016   0.27588
  27        3PZ         0.12465   0.18498  -0.36486  -0.01628   0.22821
  28 4   C  1S          0.00003   0.02351  -0.00001   0.02021  -0.05658
  29        2S         -0.00003  -0.02710   0.00001  -0.02837   0.06735
  30        2PX        -0.00004   0.07768  -0.00007   0.13194   0.00438
  31        2PY         0.23115  -0.00002   0.11768   0.00006   0.00003
  32        2PZ         0.00006   0.15632  -0.00014   0.29118  -0.18818
  33        3S         -0.00015  -0.11688  -0.00001  -0.05109   0.21404
  34        3PX        -0.00007   0.03969  -0.00006   0.22362  -0.20428
  35        3PY         0.20567  -0.00000   0.00942   0.00001   0.00003
  36        3PZ         0.00007   0.20888  -0.00024   0.51502  -0.32420
  37 5   H  1S         -0.17845  -0.00997   0.01078   0.00173   0.07872
  38        2S         -0.21748  -0.04153  -0.03267  -0.01888   0.25739
  39 6   H  1S         -0.00003  -0.00977   0.00001  -0.01371  -0.09307
  40        2S         -0.00004  -0.04014   0.00000  -0.01219  -0.28515
  41 7   H  1S          0.17848  -0.01010  -0.01081   0.00171   0.07873
  42        2S          0.21753  -0.04171   0.03263  -0.01888   0.25739
  43 8   C  1S         -0.00000   0.00566   0.00000  -0.00787   0.04491
  44        2S          0.00000   0.00342  -0.00001   0.01198  -0.03161
  45        2PX        -0.00001  -0.07181   0.00000   0.00465  -0.08580
  46        2PY        -0.03630  -0.00002  -0.01887  -0.00001   0.00000
  47        2PZ        -0.00004  -0.06436   0.00002  -0.03319   0.04278
  48        3S         -0.00002  -0.07033   0.00002   0.02333  -0.38951
  49        3PX        -0.00003  -0.10624   0.00002   0.00147  -0.12678
  50        3PY        -0.06369  -0.00002   0.05275   0.00005   0.00002
  51        3PZ        -0.00003  -0.06117  -0.00001   0.04298   0.04922
  52 9   H  1S         -0.02808   0.04304  -0.02890   0.03363  -0.00894
  53        2S         -0.02721   0.03735  -0.08475   0.07466   0.05894
  54 10  H  1S          0.02811   0.04306   0.02888   0.03366  -0.00893
  55        2S          0.02723   0.03736   0.08470   0.07476   0.05901
  56 11  H  1S         -0.00004  -0.07285   0.00003  -0.06929   0.02231
  57        2S         -0.00003  -0.05842   0.00007  -0.24596   0.22356
                          21        22        23        24        25
                           V         V         V         V         V
     Eigenvalues --     0.24159   0.28216   0.30601   0.32779   0.33794
   1 1   C  1S          0.03881   0.00769  -0.11449  -0.04010  -0.07280
   2        2S         -0.01909   0.00011   0.03975   0.01882   0.00722
   3        2PX         0.02553   0.04724  -0.02880  -0.01816   0.04243
   4        2PY        -0.06249  -0.01897  -0.08705   0.01695  -0.00956
   5        2PZ        -0.07913   0.05072   0.05418  -0.00029   0.02046
   6        3S         -0.48985  -0.10519   1.31988   0.42676   1.00619
   7        3PX         0.08030   0.34765  -0.08819   0.08147   0.04180
   8        3PY        -0.24386  -0.06653  -0.33178   0.01717  -0.21268
   9        3PZ        -0.24573   0.20590   0.23227   0.14120   0.13808
  10 2   C  1S          0.06026   0.07181   0.00002   0.03226   0.00002
  11        2S         -0.02939  -0.01438  -0.00002  -0.01453  -0.00001
  12        2PX        -0.04997   0.02581   0.00005   0.06056  -0.00002
  13        2PY         0.00000  -0.00002  -0.14197  -0.00003  -0.12204
  14        2PZ        -0.16872  -0.07478  -0.00002  -0.00984  -0.00005
  15        3S         -0.79989  -0.97449  -0.00021  -0.41858  -0.00017
  16        3PX        -0.19497   0.23377   0.00017   0.24290  -0.00002
  17        3PY        -0.00000  -0.00004  -0.72908  -0.00006  -0.59056
  18        3PZ        -0.58297  -0.26693  -0.00006  -0.01404  -0.00023
  19 3   C  1S          0.03882   0.00771   0.11446  -0.04009   0.07280
  20        2S         -0.01908   0.00011  -0.03973   0.01883  -0.00723
  21        2PX         0.02552   0.04721   0.02888  -0.01821  -0.04238
  22        2PY         0.06248   0.01899  -0.08708  -0.01690  -0.00958
  23        2PZ        -0.07917   0.05068  -0.05413  -0.00028  -0.02040
  24        3S         -0.48998  -0.10529  -1.31957   0.42655  -1.00600
  25        3PX         0.08030   0.34754   0.08846   0.08135  -0.04180
  26        3PY         0.24376   0.06663  -0.33190  -0.01706  -0.21277
  27        3PZ        -0.24588   0.20576  -0.23207   0.14115  -0.13792
  28 4   C  1S          0.03729  -0.04114  -0.00003  -0.01684  -0.00000
  29        2S         -0.01967   0.03125   0.00001  -0.01009   0.00001
  30        2PX         0.04664   0.05643  -0.00001  -0.03800  -0.00002
  31        2PY         0.00001   0.00002  -0.17188   0.00000  -0.09274
  32        2PZ         0.01186  -0.03559   0.00003   0.07977  -0.00003
  33        3S         -0.46268   0.43647   0.00035   0.32555  -0.00004
  34        3PX         0.16570   0.40900  -0.00002  -0.13773  -0.00007
  35        3PY        -0.00002   0.00008  -0.60179  -0.00007  -0.63193
  36        3PZ        -0.02791   0.00116   0.00013   0.39105  -0.00018
  37 5   H  1S          0.01939   0.05415   0.01405  -0.03122  -0.00327
  38        2S          0.69552   0.12857  -0.55477  -0.35258  -0.42047
  39 6   H  1S          0.04689  -0.00008  -0.00002  -0.02624   0.00001
  40        2S          1.18288   0.64020   0.00009   0.11896   0.00032
  41 7   H  1S          0.01939   0.05415  -0.01409  -0.03121   0.00327
  42        2S          0.69563   0.12870   0.55443  -0.35240   0.42022
  43 8   C  1S          0.02935  -0.13362   0.00004   0.05249   0.00001
  44        2S         -0.00387   0.03596  -0.00001  -0.00428  -0.00001
  45        2PX         0.07941  -0.09970  -0.00004  -0.14950   0.00007
  46        2PY        -0.00001   0.00001  -0.12176   0.00013   0.27276
  47        2PZ        -0.11523   0.01082  -0.00000  -0.20562   0.00012
  48        3S         -0.51215   1.97105  -0.00045  -0.80165  -0.00006
  49        3PX         0.36829  -0.50509  -0.00021  -0.92328   0.00043
  50        3PY        -0.00004   0.00004  -0.71382   0.00064   1.31787
  51        3PZ        -0.44262  -0.00193  -0.00004  -1.02361   0.00058
  52 9   H  1S          0.01116  -0.00385   0.08279  -0.03455  -0.01232
  53        2S          0.30215  -1.06167   0.83643  -0.56349  -1.28602
  54 10  H  1S          0.01116  -0.00385  -0.08280  -0.03451   0.01234
  55        2S          0.30210  -1.06156  -0.83638  -0.56203   1.28702
  56 11  H  1S         -0.01964  -0.00015   0.00000   0.06217  -0.00003
  57        2S          0.57410  -0.62944   0.00034   1.83699  -0.00089
                          26        27        28        29        30
                           V         V         V         V         V
     Eigenvalues --     0.35803   0.37082   0.37319   0.43835   0.48237
   1 1   C  1S          0.02342  -0.02933   0.00238   0.07203   0.00850
   2        2S          0.00277  -0.00204  -0.00413   0.02263   0.00434
   3        2PX        -0.11907  -0.14608  -0.05577   0.02103   0.23539
   4        2PY        -0.02261   0.01958   0.21025  -0.01461  -0.00930
   5        2PZ        -0.09722   0.02278   0.15102  -0.10894   0.09377
   6        3S         -0.40219   0.49219   0.10551  -1.28923  -0.15296
   7        3PX        -0.50265  -0.72980  -0.18191   0.22853   1.13549
   8        3PY        -0.08380   0.03383   0.85329   0.22596   0.00664
   9        3PZ        -0.43526   0.07152   0.61100  -0.62049   0.40577
  10 2   C  1S         -0.10048  -0.02216   0.00009  -0.05873  -0.00001
  11        2S          0.03833   0.03332  -0.00012   0.00280   0.00000
  12        2PX        -0.01321  -0.12227   0.00042  -0.05735   0.00002
  13        2PY        -0.00003   0.00025   0.06482   0.00004  -0.25693
  14        2PZ         0.09567  -0.22884   0.00074   0.02245  -0.00001
  15        3S          1.34509   0.05734  -0.00036   0.99226   0.00032
  16        3PX        -0.33116  -0.46400   0.00156  -0.57383  -0.00005
  17        3PY        -0.00031   0.00144   0.39072   0.00004  -1.07906
  18        3PZ         0.33420  -0.90663   0.00291   0.16201  -0.00004
  19 3   C  1S          0.02351  -0.02936  -0.00222   0.07204  -0.00849
  20        2S          0.00276  -0.00202   0.00415   0.02263  -0.00431
  21        2PX        -0.11905  -0.14566   0.05671   0.02112  -0.23543
  22        2PY         0.02260  -0.01822   0.21033   0.01465  -0.00932
  23        2PZ        -0.09731   0.02182  -0.15114  -0.10898  -0.09379
  24        3S         -0.40363   0.49167  -0.10833  -1.28947   0.15259
  25        3PX        -0.50245  -0.72836   0.18659   0.22885  -1.13570
  26        3PY         0.08355  -0.02832   0.85322  -0.22583   0.00636
  27        3PZ        -0.43566   0.06767  -0.61121  -0.62074  -0.40601
  28 4   C  1S          0.10562   0.05097  -0.00017  -0.11839   0.00000
  29        2S         -0.03725  -0.01650   0.00004   0.01287  -0.00002
  30        2PX         0.06032  -0.21083   0.00069  -0.19879  -0.00007
  31        2PY        -0.00006   0.00022   0.07742  -0.00002   0.29338
  32        2PZ        -0.05894  -0.01144   0.00002   0.17149   0.00001
  33        3S         -1.38585  -0.64574   0.00224   1.99198   0.00015
  34        3PX         0.23761  -0.91478   0.00308  -0.64085  -0.00032
  35        3PY        -0.00037   0.00158   0.51780  -0.00007   1.25858
  36        3PZ        -0.30614  -0.15678   0.00045   1.08590   0.00012
  37 5   H  1S          0.03062   0.00785  -0.01122  -0.02521   0.01370
  38        2S          0.45417  -0.50305  -1.26290   0.89857   0.09526
  39 6   H  1S          0.04377   0.03994  -0.00015   0.02727   0.00003
  40        2S         -0.83533   1.12805  -0.00360  -0.34692  -0.00004
  41 7   H  1S          0.03062   0.00792   0.01117  -0.02522  -0.01371
  42        2S          0.45513  -0.49487   1.26555   0.89906  -0.09504
  43 8   C  1S         -0.09588   0.00004   0.00001   0.05887   0.00001
  44        2S          0.01712  -0.01360   0.00004   0.00752   0.00001
  45        2PX        -0.04265  -0.09954   0.00036  -0.12377   0.00000
  46        2PY         0.00005   0.00005   0.02889   0.00004   0.00320
  47        2PZ        -0.13094   0.10116  -0.00031   0.04904   0.00001
  48        3S          1.38787   0.11341  -0.00053  -0.96129  -0.00022
  49        3PX         0.13897  -0.33930   0.00128  -1.27318  -0.00014
  50        3PY         0.00020  -0.00068  -0.15607   0.00018  -0.39538
  51        3PZ        -0.67197   0.46888  -0.00145   0.70724   0.00020
  52 9   H  1S          0.00690  -0.02805   0.00972  -0.04970   0.00034
  53        2S         -0.69370  -0.19663   0.03839  -0.21379   0.18915
  54 10  H  1S          0.00688  -0.02811  -0.00952  -0.04972  -0.00037
  55        2S         -0.69328  -0.19728  -0.03669  -0.21346  -0.18909
  56 11  H  1S          0.02179   0.00608  -0.00002  -0.08389  -0.00001
  57        2S          0.23907  -0.39389   0.00119  -0.09475  -0.00008
                          31        32        33        34        35
                           V         V         V         V         V
     Eigenvalues --     0.64290   0.89633   0.90033   0.93787   0.95493
   1 1   C  1S         -0.10531  -0.01691  -0.00744  -0.00773   0.01422
   2        2S          0.00022  -0.03369  -0.10675   0.05088  -0.04714
   3        2PX         0.05003   0.37731   0.18037  -0.09545  -0.24686
   4        2PY        -0.15808   0.04734   0.06649   0.09272  -0.15871
   5        2PZ        -0.08989   0.07125  -0.17040   0.06873  -0.17457
   6        3S          2.01516   0.32371   0.39843  -0.06053   0.01455
   7        3PX         0.12397  -0.37767  -0.20314   0.07959   0.24055
   8        3PY        -1.75780  -0.02777  -0.05909  -0.11376   0.23109
   9        3PZ        -0.37546   0.01888   0.20660  -0.05842   0.11601
  10 2   C  1S          0.10837  -0.00000  -0.00494   0.00877  -0.00938
  11        2S         -0.03260   0.00001  -0.04013   0.01949  -0.05110
  12        2PX         0.03530   0.00015  -0.04418  -0.29241  -0.66801
  13        2PY        -0.00002   0.16588  -0.00014   0.00017  -0.00010
  14        2PZ         0.15214   0.00016  -0.21158   0.10506  -0.09962
  15        3S         -2.01174   0.00016   0.00664  -0.20789   0.04421
  16        3PX         1.51088  -0.00036   0.24400   0.42538   0.76776
  17        3PY         0.00020  -0.23924   0.00012  -0.00020   0.00003
  18        3PZ         0.94197  -0.00030   0.34435   0.02391   0.41813
  19 3   C  1S         -0.10531   0.01692  -0.00741  -0.00773   0.01425
  20        2S          0.00021   0.03383  -0.10666   0.05089  -0.04711
  21        2PX         0.05001  -0.37752   0.17992  -0.09547  -0.24694
  22        2PY         0.15806   0.04735  -0.06646  -0.09252   0.15892
  23        2PZ        -0.08990  -0.07095  -0.17041   0.06885  -0.17447
  24        3S          2.01531  -0.32456   0.39817  -0.06078   0.01421
  25        3PX         0.12371   0.37794  -0.20268   0.07955   0.24061
  26        3PY         1.75776  -0.02798   0.05921   0.11337  -0.23144
  27        3PZ        -0.37544  -0.01923   0.20650  -0.05842   0.11590
  28 4   C  1S          0.09956   0.00000  -0.01013   0.00226  -0.00111
  29        2S         -0.03401  -0.00001   0.02986   0.00690  -0.06656
  30        2PX        -0.23465  -0.00002  -0.04550  -0.39140   0.06082
  31        2PY        -0.00002  -0.26508  -0.00021   0.00005  -0.00000
  32        2PZ         0.05342   0.00011  -0.14291  -0.39667  -0.33673
  33        3S         -1.92560   0.00050  -0.49495   0.35854   0.56694
  34        3PX        -1.85375   0.00014  -0.01448   0.45503   0.25325
  35        3PY        -0.00022  -0.14438  -0.00008  -0.00005  -0.00008
  36        3PZ        -0.32470   0.00020  -0.25320   0.28946   0.53016
  37 5   H  1S          0.01050  -0.15505  -0.29753   0.12905  -0.18643
  38        2S          0.58593  -0.11986  -0.01750  -0.08249   0.13373
  39 6   H  1S         -0.03966   0.00027  -0.32920   0.04448  -0.45338
  40        2S         -0.49000  -0.00003   0.02353  -0.07101  -0.02223
  41 7   H  1S          0.01059   0.15546  -0.29715   0.12888  -0.18645
  42        2S          0.58570   0.11985  -0.01740  -0.08254   0.13384
  43 8   C  1S          0.00554  -0.00001   0.00760  -0.01579  -0.00771
  44        2S         -0.02008   0.00004  -0.06142   0.04350   0.05998
  45        2PX        -0.03970   0.00049  -0.60360   0.37849   0.19385
  46        2PY        -0.00001  -0.53677  -0.00044   0.00004  -0.00011
  47        2PZ         0.06548   0.00005  -0.15550  -0.63765   0.22610
  48        3S         -0.18575  -0.00009   0.17576   0.12375  -0.15175
  49        3PX        -0.15275  -0.00078   0.95662  -0.31186  -0.40297
  50        3PY         0.00006   1.01646   0.00083  -0.00011   0.00021
  51        3PZ         0.61653  -0.00027   0.48461   0.84981  -0.55638
  52 9   H  1S         -0.04681  -0.44812   0.26232   0.05612  -0.09111
  53        2S          0.01304  -0.01520   0.02056  -0.01348  -0.05525
  54 10  H  1S         -0.04680   0.44775   0.26304   0.05597  -0.09095
  55        2S          0.01302   0.01514   0.02057  -0.01351  -0.05522
  56 11  H  1S         -0.02895   0.00020  -0.39066  -0.39426   0.25192
  57        2S         -0.47148   0.00006  -0.08235  -0.02578   0.07976
                          36        37        38        39        40
                           V         V         V         V         V
     Eigenvalues --     0.97389   0.99744   1.01247   1.04146   1.05878
   1 1   C  1S         -0.01192   0.03388   0.03236  -0.00770   0.00751
   2        2S          0.04532  -0.13976  -0.01094   0.07348  -0.06762
   3        2PX        -0.14941   0.07289   0.09703  -0.07796   0.01279
   4        2PY        -0.43839   0.20525  -0.35051  -0.19121  -0.50805
   5        2PZ         0.13696   0.10887   0.35462   0.13605   0.45739
   6        3S         -0.48884   0.29703  -0.32328  -0.56621  -0.20064
   7        3PX        -0.00043  -0.09886   0.19064   0.15747  -0.11304
   8        3PY         0.68529  -0.25304   0.53667   0.41154   0.67432
   9        3PZ         0.00411   0.05312  -0.27261  -0.12843  -0.30072
  10 2   C  1S         -0.00000   0.01272  -0.00000   0.03056   0.02880
  11        2S         -0.00002  -0.02921  -0.00002  -0.08104  -0.22134
  12        2PX         0.00036  -0.74221   0.00017   0.09909  -0.02924
  13        2PY        -0.71948  -0.00026   0.58144  -0.00010   0.00016
  14        2PZ        -0.00014   0.37011  -0.00017   0.27435   0.03211
  15        3S          0.00037  -0.26649   0.00009   0.18315   0.75972
  16        3PX        -0.00058   0.79400  -0.00009  -0.25806  -0.16468
  17        3PY         0.87755   0.00028  -0.72048   0.00018  -0.00017
  18        3PZ         0.00006  -0.34399   0.00022  -0.48957   0.00779
  19 3   C  1S          0.01189   0.03386  -0.03240  -0.00769   0.00750
  20        2S         -0.04515  -0.13981   0.01106   0.07349  -0.06754
  21        2PX         0.14920   0.07298  -0.09706  -0.07794   0.01267
  22        2PY        -0.43794  -0.20602  -0.35033   0.19140   0.50833
  23        2PZ        -0.13676   0.10831  -0.35478   0.13621   0.45718
  24        3S          0.48797   0.29790   0.32313  -0.56656  -0.20083
  25        3PX         0.00052  -0.09912  -0.19060   0.15781  -0.11293
  26        3PY         0.68443   0.25415   0.53642  -0.41176  -0.67476
  27        3PZ        -0.00443   0.05349   0.27256  -0.12850  -0.30037
  28 4   C  1S          0.00002  -0.02772  -0.00000  -0.04091   0.03730
  29        2S         -0.00010   0.09445   0.00001   0.18257  -0.26698
  30        2PX        -0.00003  -0.04785  -0.00004  -0.51556   0.00652
  31        2PY        -0.34626  -0.00040  -0.38997   0.00018   0.00000
  32        2PZ        -0.00038   0.50244  -0.00052  -0.53924   0.24983
  33        3S          0.00078  -0.53165   0.00018   0.12736   0.49302
  34        3PX         0.00009   0.28508  -0.00011   0.86517   0.18216
  35        3PY         0.33979   0.00064   0.91358  -0.00044   0.00003
  36        3PZ         0.00054  -0.54626   0.00059   0.74529  -0.22353
  37 5   H  1S         -0.27865   0.15552   0.08004   0.03724  -0.24285
  38        2S         -0.02351  -0.10189   0.05346  -0.01723   0.07165
  39 6   H  1S          0.00003   0.08922  -0.00008   0.30881  -0.09357
  40        2S          0.00001   0.02133  -0.00006   0.03794   0.03807
  41 7   H  1S          0.27850   0.15568  -0.08025   0.03733  -0.24301
  42        2S          0.02359  -0.10186  -0.05344  -0.01719   0.07158
  43 8   C  1S         -0.00003   0.02687   0.00000   0.04624  -0.01432
  44        2S          0.00009  -0.09048   0.00003  -0.02962   0.02968
  45        2PX         0.00043  -0.32436  -0.00006  -0.37926  -0.04935
  46        2PY        -0.05690   0.00006   0.33605  -0.00013   0.00007
  47        2PZ        -0.00021   0.07583   0.00009   0.32854  -0.25262
  48        3S         -0.00010   0.19900  -0.00031  -0.29359   0.12863
  49        3PX        -0.00063   0.54779  -0.00002   0.50041   0.12861
  50        3PY         0.16084  -0.00010  -0.69915   0.00031  -0.00015
  51        3PZ         0.00021  -0.19395  -0.00012  -0.75251   0.36020
  52 9   H  1S         -0.07806   0.08469   0.11608   0.20296  -0.03216
  53        2S         -0.05401   0.06000   0.09540   0.08652   0.02100
  54 10  H  1S          0.07786   0.08479  -0.11601   0.20301  -0.03226
  55        2S          0.05389   0.05998  -0.09539   0.08669   0.02095
  56 11  H  1S         -0.00004   0.05206   0.00006   0.25959  -0.08756
  57        2S         -0.00003   0.09825   0.00003   0.23982  -0.07696
                          41        42        43        44        45
                           V         V         V         V         V
     Eigenvalues --     1.10225   1.10470   1.16578   1.18227   1.22849
   1 1   C  1S         -0.00021  -0.01414   0.00632  -0.01783   0.00109
   2        2S         -0.01606   0.06271   0.06502   0.09446  -0.09177
   3        2PX        -0.43786   0.03528   0.42805  -0.12017  -0.66112
   4        2PY         0.03505   0.35259  -0.05290  -0.14018   0.16250
   5        2PZ        -0.07077   0.02118   0.11983  -0.61322   0.19841
   6        3S         -0.21838  -0.61817  -0.07819  -0.03101   0.23101
   7        3PX         0.50168   0.25894  -0.38251   0.58032   1.32102
   8        3PY         0.09426  -0.77410   0.00301   0.51562  -0.44868
   9        3PZ         0.19527  -0.12657  -0.34237   1.16536  -0.16725
  10 2   C  1S         -0.03182   0.00000   0.01300   0.00001   0.00002
  11        2S          0.11295   0.00005   0.06388  -0.00007   0.00004
  12        2PX         0.19155   0.00018  -0.20909  -0.00017  -0.00009
  13        2PY         0.00017  -0.31836  -0.00010   0.34865   0.32308
  14        2PZ        -0.25468  -0.00001  -0.75191  -0.00010  -0.00025
  15        3S         -0.24972  -0.00014   0.47114   0.00041  -0.00025
  16        3PX        -0.13137  -0.00007   0.61830   0.00020   0.00033
  17        3PY        -0.00032   0.32911   0.00030  -0.93603  -1.13679
  18        3PZ         0.54971  -0.00002   1.39373   0.00023   0.00028
  19 3   C  1S         -0.00021   0.01411   0.00633   0.01785  -0.00111
  20        2S         -0.01604  -0.06259   0.06501  -0.09453   0.09186
  21        2PX        -0.43781  -0.03538   0.42795   0.12052   0.66090
  22        2PY        -0.03544   0.35257   0.05298  -0.14007   0.16274
  23        2PZ        -0.07054  -0.02137   0.11959   0.61355  -0.19865
  24        3S         -0.21868   0.61779  -0.07834   0.03087  -0.23057
  25        3PX         0.50162  -0.25878  -0.38203  -0.58078  -1.32049
  26        3PY        -0.09352  -0.77408  -0.00321   0.51531  -0.44856
  27        3PZ         0.19479   0.12694  -0.34193  -1.16596   0.16747
  28 4   C  1S          0.01952   0.00000  -0.03254  -0.00001   0.00001
  29        2S         -0.10968  -0.00001   0.20118   0.00004  -0.00000
  30        2PX        -0.62703  -0.00028  -0.34472   0.00009   0.00012
  31        2PY         0.00005  -0.79992   0.00014  -0.39748  -0.15914
  32        2PZ         0.50441   0.00010   0.02703  -0.00008   0.00003
  33        3S          0.20669  -0.00005  -0.43555   0.00001   0.00006
  34        3PX         1.19994   0.00047   1.03371  -0.00014  -0.00048
  35        3PY        -0.00003   1.42664  -0.00039   1.22123   0.48734
  36        3PZ        -0.73607  -0.00023   0.12108   0.00026  -0.00010
  37 5   H  1S          0.01595   0.26149   0.17134  -0.23805  -0.06309
[...]
 ! A17   A(9,8,11)             107.5585         -DE/DX =    0.0                 !
 ! A18   A(10,8,11)            108.6378         -DE/DX =    0.0                 !
 ! D1    D(4,1,2,3)             -0.0028         -DE/DX =    0.0                 !
 ! D2    D(4,1,2,6)            180.0095         -DE/DX =    0.0                 !
 ! D3    D(5,1,2,3)            179.9915         -DE/DX =    0.0                 !
 ! D4    D(5,1,2,6)              0.0038         -DE/DX =    0.0                 !
 ! D5    D(2,1,4,3)              0.0033         -DE/DX =    0.0                 !
 ! D6    D(2,1,4,8)            179.9957         -DE/DX =    0.0                 !
 ! D7    D(5,1,4,3)           -179.991          -DE/DX =    0.0                 !
 ! D8    D(5,1,4,8)              0.0014         -DE/DX =    0.0                 !
 ! D9    D(1,2,3,4)              0.0033         -DE/DX =    0.0                 !
 ! D10   D(1,2,3,7)           -179.9927         -DE/DX =    0.0                 !
 ! D11   D(6,2,3,4)            179.9912         -DE/DX =    0.0                 !
 ! D12   D(6,2,3,7)             -0.0049         -DE/DX =    0.0                 !
 ! D13   D(2,3,4,1)             -0.0028         -DE/DX =    0.0                 !
 ! D14   D(2,3,4,8)           -179.9947         -DE/DX =    0.0                 !
 ! D15   D(7,3,4,1)            179.9933         -DE/DX =    0.0                 !
 ! D16   D(7,3,4,8)              0.0013         -DE/DX =    0.0                 !
 ! D17   D(1,4,8,9)             59.4982         -DE/DX =    0.0                 !
 ! D18   D(1,4,8,10)          -180.0096         -DE/DX =    0.0                 !
 ! D19   D(1,4,8,11)           -59.5153         -DE/DX =    0.0                 !
 ! D20   D(3,4,8,9)           -120.5128         -DE/DX =    0.0                 !
 ! D21   D(3,4,8,10)            -0.0207         -DE/DX =    0.0                 !
 ! D22   D(3,4,8,11)           120.4736         -DE/DX =    0.0                 !
 --------------------------------------------------------------------------------
 GradGradGradGradGradGradGradGradGradGradGradGradGradGradGradGradGradGrad

 Leave Link  103 at Tue Jun 10 01:39:14 2025, MaxMem=  2013265920 cpu:               0.3 elap:               0.0
 (Enter /home/user/softwares/g16/g16/l9999.exe)

 ----------------------------------------------------------------------

 Electric dipole moment (input orientation):
 (Debye = 10**-18 statcoulomb cm , SI units = C m)
                  (au)            (Debye)         (10**-30 SI)
   Tot        0.174344D+00      0.443138D+00      0.147815D+01
   x         -0.138260D+00     -0.351422D+00     -0.117222D+01
   y          0.863549D-01      0.219492D+00      0.732147D+00
   z         -0.618286D-01     -0.157153D+00     -0.524205D+00

 Dipole polarizability, Alpha (input orientation).
 (esu units = cm**3 , SI units = C**2 m**2 J**-1)
 Alpha(0;0):
               (au)            (10**-24 esu)      (10**-40 SI)
   iso        0.417248D+02      0.618298D+01      0.687950D+01
   aniso      0.333489D+02      0.494179D+01      0.549849D+01
   xx         0.545148D+02      0.807825D+01      0.898827D+01
   yx        -0.139968D+01     -0.207412D+00     -0.230776D+00
   yy         0.447962D+02      0.663812D+01      0.738590D+01
   zx         0.117403D+02      0.173973D+01      0.193571D+01
   zy        -0.431566D+01     -0.639514D+00     -0.711556D+00
   zz         0.258636D+02      0.383258D+01      0.426432D+01

 First dipole hyperpolarizability, Beta (input orientation).
 ||, _|_  parallel and perpendicular components, (z) with respect to z axis,
 vector components x,y,z.  Values do not include the 1/n! factor of 1/2.
 (esu units = statvolt**-1 cm**4 , SI units = C**3 m**3 J**-2)
 Beta(0;0,0):
               (au)            (10**-30 esu)      (10**-50 SI)
   || (z)    -0.975296D+00     -0.842580D-02     -0.312715D-02
   _|_(z)    -0.325099D+00     -0.280860D-02     -0.104238D-02
   x         -0.204451D+02     -0.176630D+00     -0.655544D-01
   y         -0.136357D+02     -0.117802D+00     -0.437209D-01
   z         -0.487648D+01     -0.421290D-01     -0.156358D-01
   ||         0.501084D+01      0.432898D-01      0.160666D-01
   xxx       -0.762879D+01     -0.659068D-01     -0.244606D-01
   xxy       -0.826931D+01     -0.714404D-01     -0.265144D-01
   yxy        0.181076D+02      0.156435D+00      0.580594D-01
   yyy        0.941912D+01      0.813739D-01      0.302011D-01
   xxz        0.186224D+02      0.160883D+00      0.597102D-01
   yxz       -0.105767D+02     -0.913742D-01     -0.339126D-01
   yyz        0.483574D+01      0.417771D-01      0.155051D-01
   zxz       -0.172938D+02     -0.149405D+00     -0.554503D-01
   zyz       -0.569504D+01     -0.492007D-01     -0.182603D-01
   zzz       -0.250836D+02     -0.216703D+00     -0.804272D-01

 ----------------------------------------------------------------------

 Dipole orientation:
     6          1.79192662         -1.04304993          0.57919665
     6          2.47125038         -2.23673511         -1.50988234
     6          3.71877930         -4.43942005          0.13111615
     6          3.04836877         -3.26177600          2.23557406
     1          0.82061130          0.66907081          1.00852744
     1          2.27346382         -1.88359031         -3.48347329
     1          4.69042080         -6.15132654         -0.29792871
     6          3.29797860         -3.70707014          4.99514959
     1          1.44781505         -3.80407087          5.88055290
     1          4.29145274         -5.46032433          5.36111252
     1          4.33006487         -2.17020316          5.88355084

 Electric dipole moment (dipole orientation):
 (Debye = 10**-18 statcoulomb cm , SI units = C m)
                  (au)            (Debye)         (10**-30 SI)
   Tot        0.174344D+00      0.443138D+00      0.147815D+01
   x          0.000000D+00      0.000000D+00      0.000000D+00
   y          0.000000D+00      0.000000D+00      0.000000D+00
   z          0.174344D+00      0.443138D+00      0.147815D+01

 Dipole polarizability, Alpha (dipole orientation).
 (esu units = cm**3 , SI units = C**2 m**2 J**-1)
 Alpha(0;0):
               (au)            (10**-24 esu)      (10**-40 SI)
   iso        0.417248D+02      0.618298D+01      0.687950D+01
   aniso      0.333489D+02      0.494179D+01      0.549849D+01
   xx         0.272529D+02      0.403846D+01      0.449339D+01
   yx        -0.108132D+02     -0.160235D+01     -0.178286D+01
   yy         0.401752D+02      0.595336D+01      0.662400D+01
   zx        -0.221134D+01     -0.327686D+00     -0.364600D+00
   zy         0.382555D+01      0.566888D+00      0.630748D+00
   zz         0.577464D+02      0.855714D+01      0.952110D+01

 First dipole hyperpolarizability, Beta (dipole orientation).
 ||, _|_  parallel and perpendicular components, (z) with respect to z axis,
 vector components x,y,z.  Values do not include the 1/n! factor of 1/2.
 (esu units = statvolt**-1 cm**4 , SI units = C**3 m**3 J**-2)
 Beta(0;0,0):
               (au)            (10**-30 esu)      (10**-50 SI)
   || (z)     0.223781D+01      0.193329D-01      0.717522D-02
   _|_(z)     0.745936D+00      0.644431D-02      0.239174D-02
   x         -0.110400D+02     -0.953772D-01     -0.353983D-01
   y          0.195099D+02      0.168551D+00      0.625559D-01
   z          0.111890D+02      0.966646D-01      0.358761D-01
   ||         0.501084D+01      0.432898D-01      0.160666D-01
   xxx       -0.145126D+02     -0.125378D+00     -0.465327D-01
   xxy       -0.630867D+00     -0.545020D-02     -0.202279D-02
   yxy        0.166821D+02      0.144121D+00      0.534890D-01
   yyy       -0.335134D+01     -0.289530D-01     -0.107456D-01
   xxz        0.220419D+02      0.190425D+00      0.706744D-01
   yxz        0.809304D+01      0.699176D-01      0.259492D-01
   yyz        0.123684D+02      0.106853D+00      0.396575D-01
   zxz       -0.584952D+01     -0.505353D-01     -0.187557D-01
   zyz        0.104855D+02      0.905867D-01      0.336204D-01
   zzz       -0.306806D+02     -0.265057D+00     -0.983732D-01

 ----------------------------------------------------------------------
 1\1\GINC-USER-HP-Z2-G9-WS\Freq\RHF\3-21G\C5H6\USER\10-Jun-2025\0\\#P G
 eom=AllCheck Guess=TCheck SCRF=Check GenChk RHF/3-21G Freq\\Optimisati
 on\\0,1\C,0.4250044619,0.8787662018,-0.5872918864\C,1.6774485355,0.952
 7091439,-0.1674501748\C,1.6804635894,2.5287634509,-0.421596598\C,0.426
 5540343,2.4671703836,-0.8438603541\H,-0.2932509732,0.1003265853,-0.709
 0074584\H,2.3954127507,0.2520337109,0.1933639689\H,2.3986586324,3.3072
 35224,-0.3001277265\C,-0.5924198922,3.4217428971,-1.349771224\H,-1.473
 6264179,3.4119531711,-0.7140775825\H,-0.1953188161,4.4298606061,-1.375
 8222742\H,-0.9084632848,3.1469828754,-2.3524381999\\Version=EM64L-G16R
 evB.01\State=1-A\HF=-191.5989082\RMSD=8.182e-10\RMSF=3.406e-05\ZeroPoi
 nt=0.0965772\Thermal=0.1014941\Dipole=-0.1382601,0.0863549,-0.0618286\
 DipoleDeriv=-0.1145206,-0.0636928,0.0637651,0.1075898,-0.0299663,-0.00
 16826,0.0360547,-0.0607134,-0.2472571,-0.0426777,0.06901,0.0409993,-0.
 050588,0.060818,-0.0586811,0.0603022,-0.0174574,-0.1705339,-0.208698,0
 .0087647,0.0263897,0.0741946,-0.0012828,-0.0210735,0.0157785,-0.043626
 6,-0.2768673,0.105923,0.060622,0.0618746,-0.1107819,0.171032,-0.082429
 6,0.0897087,-0.0233099,-0.0672727,0.068456,-0.0497337,-0.0476557,-0.09
 47937,-0.0581428,0.0139555,-0.0403745,0.02947,0.2113061,0.0687055,0.04
 21733,-0.0607798,0.1031562,-0.042863,0.0789664,-0.0706037,0.0579063,0.
 1915328,0.0716645,-0.0451463,-0.0501019,-0.1036386,-0.0617807,0.012853
 2,-0.0406235,0.0330273,0.2188878,0.0672283,-0.0063404,-0.0329909,0.043
 6249,-0.0321798,0.0471248,-0.0411777,0.0299007,0.1468786,-0.082228,0.0
 322815,0.0735517,0.0189229,0.0691467,0.0354217,0.1004285,0.0058931,0.0
 076256,0.0249473,-0.0631676,-0.0137271,-0.0031594,-0.1264118,0.0346115
 ,-0.0234234,0.0139242,0.0840088,0.0411996,0.0152294,-0.061325,0.015473
 3,0.0516305,-0.0590664,-0.0860699,-0.0250141,-0.0983087\Polar=54.51476
 18,-1.3996824,44.79623,11.7402748,-4.3156567,25.8635561\PolarDeriv=-5.
 7291931,1.5359586,2.5770409,-0.6394499,0.6282676,0.3544471,0.9701269,1
 .779602,-7.6258252,-0.6355732,1.5769376,-0.9703788,1.1654375,-0.046514
 2,1.6667472,-4.4100557,-1.6764802,-2.5635871,5.8525892,1.6290055,-2.46
 16863,0.0942494,1.0109362,-1.0024234,0.674554,-0.8919116,-4.8331297,1.
 2547134,0.4054938,0.490555,-1.5869743,1.6179495,-0.151191,4.2828319,0.
 3052205,3.1605932,9.8142829,-3.1904987,-1.7872423,1.8175214,-0.9043725
 ,-0.0090224,-1.2091717,-0.6185891,4.5276925,0.5515282,-0.8504246,1.014
 1694,-0.6328485,-0.0927554,-1.2722184,5.9346887,0.4010644,3.9666433,-1
 0.9843229,1.3994821,0.6658,-2.2061651,0.2411172,-0.3586223,2.3000851,-
 1.1150277,8.8569439,0.2640104,-1.8198627,-0.2238132,-0.6675989,-0.2623
 827,-1.104002,-5.247774,0.3916943,-3.6756778,-3.8184489,-3.1932525,-3.
 2454722,-0.6341442,-0.0601746,-0.3556454,-2.1256797,-3.6957169,-5.6653
 618,-0.0610176,-0.6706706,-0.2835497,-0.7138516,-0.0311888,-0.702358,-
 0.6260386,-1.4375655,0.1641507,4.7320578,-3.2041873,2.9065389,1.913196
 9,-1.0111122,0.791916,-2.3900073,3.8605952,-4.5345205,-1.2201154,1.744
 6727,-1.0292566,1.6298762,-1.0940518,1.2245007,1.2642156,-2.1357533,1.
 3370949,4.7924921,3.0910514,2.5540456,0.9987935,0.142957,0.4902863,2.7
 249611,3.8263229,4.6114424,0.2265287,0.8886509,0.3327125,0.9891957,-0.
 030879,0.6303899,0.6758397,1.416611,-0.1604555,7.686653,-1.9576059,-3.
 0395281,-0.6800755,0.5925454,2.6646282,-0.6259989,-0.7424248,-5.571389
 ,0.5042438,0.8015578,1.859473,-1.9043837,0.69482,-0.2956455,5.6076408,
 0.0062811,5.4234651,-9.4195078,1.7988331,-0.2581063,2.0720419,-0.30640
 81,-0.9704125,0.2198279,-2.0352568,1.2380458,-0.4139643,1.3712005,-0.5
 678075,2.6644022,-0.8999622,0.7487408,-3.5490567,0.2134894,2.2342376,0
 .9478947,1.972686,1.6217587,0.2888815,-0.4952541,-0.065654,0.1470625,0
 .0665142,9.2333194,-0.0861968,-1.0443666,0.2384123,0.5695052,-0.236949
 ,-0.1420732,-0.0905248,2.3600314,-1.1193345,-3.8744969,0.1185277,0.466
 8511,-3.0248497,0.1614982,-1.5394977,-0.6857599,-0.4341073,-0.2372179,
 -0.3841572,-2.4031889,-0.8605164,-1.5127599,0.3819137,-0.6028905,-3.84
 17669,0.155407,-8.7671299\HyperPolar=-7.6287871,-8.2693099,18.1075809,
 9.4191193,18.6224061,-10.5766744,4.8357445,-17.2938278,-5.695036,-25.0
 83644\Quadrupole=1.2158205,1.2199191,-2.4357397,0.0032475,1.4715662,-0
 .6906539\PG=C01 [X(C5H6)]\NImag=0\\0.89679078,0.23294733,0.53322739,0.
 22665133,0.01507934,0.20578545,-0.57974084,-0.00963701,-0.16726672,0.9
 0068391,-0.04278074,-0.04979421,-0.02127666,-0.14493570,0.49550327,-0.
 16189466,-0.00985285,-0.14429217,0.28638277,-0.10781026,0.25413144,-0.
 04704604,-0.04895664,-0.01805024,-0.05156336,0.02420067,-0.00396560,0.
 88676568,-0.05225545,-0.11871130,0.00578307,-0.03300121,-0.13690751,0.
 00246484,0.22762834,0.54665768,-0.01751479,0.00692387,0.02114078,0.005
 29417,0.02218653,-0.05316752,0.22387434,0.01105071,0.20574334,-0.05485
 971,-0.03875477,0.00595759,-0.05464496,0.04641190,-0.03543384,-0.56858
 241,-0.00460937,-0.16360774,0.88184912,0.02731790,-0.12704857,0.021249
 04,0.04414650,-0.10510046,0.03649665,-0.04445066,-0.05220356,-0.021727
 08,-0.08595436,0.46483861,-0.00473921,-0.00152894,-0.05534829,-0.03507
 269,0.03728528,0.00822628,-0.15716247,-0.00799016,-0.14467101,0.256949
 70,-0.07626560,0.27779996,-0.21892127,-0.15924172,-0.03566497,0.000979
 72,-0.02401432,-0.00092074,-0.00361628,-0.00018466,-0.00399629,0.00489
 685,0.00517322,0.00122679,0.21553875,-0.16582415,-0.24579342,-0.024003
 36,0.00411022,0.00436218,0.00312557,-0.00566450,-0.00481662,0.00013108
 ,-0.01022608,0.00694992,-0.00482816,0.17930166,0.24014800,-0.03460098,
 -0.02173604,-0.04918070,-0.00546872,-0.00657079,0.01409650,-0.00311033
 ,0.00202020,0.00666149,0.00371820,0.00048422,0.00011656,0.03678382,0.0
 2696864,0.03304385,0.00093067,0.02297343,-0.00910951,-0.21927954,0.139
 91390,-0.08275648,0.00594317,-0.00427907,0.00269831,-0.00441436,-0.001
 71666,-0.00432456,-0.00102281,-0.00002733,0.00195583,0.21603438,-0.005
 68928,0.00727763,-0.00045589,0.14653233,-0.21266762,0.07765913,0.01168
 427,0.00671936,0.00295756,0.00303015,-0.00497600,0.00329535,0.00060694
 ,0.00076482,-0.00099656,-0.15828971,0.20398863,-0.00447745,0.00942699,
 0.01351170,-0.08382037,0.07537100,-0.08594028,0.00011346,-0.00254162,0
 .00057359,-0.00509258,0.00166081,0.00691174,0.00185465,-0.00121513,-0.
 00584979,0.09112035,-0.08336144,0.07086242,-0.00386152,-0.00049058,-0.
 00396645,0.00562902,0.00568733,0.00158313,-0.21947139,-0.15940866,-0.0
 3598658,0.00004136,-0.02475437,-0.00099150,0.00154172,-0.00142415,0.00
 039768,0.00011017,0.00032371,-0.00004335,0.21638651,-0.00586759,-0.004
 02508,-0.00009554,-0.01006847,0.00591045,-0.00469160,-0.16490969,-0.24
 467841,-0.02372055,0.00375754,0.00306609,0.00315443,-0.00135809,0.0004
 8415,-0.00037558,-0.00032643,-0.00221870,0.00026005,0.17914491,0.23991
 223,-0.00309457,0.00175826,0.00652398,0.00413533,0.00073685,-0.0003311
 9,-0.03509523,-0.02182286,-0.04872738,-0.00561030,-0.00667367,0.013694
 29,0.00038615,-0.00039773,0.00125588,0.00006196,0.00048443,0.00002676,
 0.03715738,0.02684782,0.03287210,0.00776005,-0.00140599,0.00278591,-0.
 00199153,-0.00688083,-0.00284216,-0.00511612,0.02393511,-0.01184307,-0
 .17158091,0.05437010,-0.03767324,0.00087418,-0.00117440,0.00049354,0.0
 0192398,0.00139077,0.00043333,-0.00015084,0.00022869,0.00207590,0.5754
 3336,0.01445304,0.00303903,0.00454813,0.00186929,-0.00381406,0.0027976
 5,-0.00398263,0.00460990,0.00079143,0.06166270,-0.16600560,0.03391916,
 -0.00031101,-0.00146976,0.00012933,0.00169339,0.00174820,0.00030230,-0
 .00003611,0.00199893,-0.00135304,0.04953002,0.59676814,0.00021937,-0.0
 0092133,0.00056901,-0.00425944,-0.00022235,0.00805333,-0.00731910,0.01
 041608,0.01377240,-0.03885669,0.03140274,-0.10632180,0.00035391,-0.000
 16807,0.00014315,0.00038542,0.00019921,0.00011255,0.00211824,-0.001261
 32,-0.00534554,-0.01489100,0.01686093,0.58751713,0.00072321,0.00120450
 ,-0.00059750,0.00020643,0.00059124,-0.00149850,0.00172030,0.00122843,-
 0.00050046,-0.02948899,0.00037050,0.01254228,-0.00007913,0.00031839,0.
 00003261,0.00012948,0.00044996,0.00007649,-0.00026932,0.00016770,0.000
 74598,-0.23265915,-0.00414338,0.13281290,0.26065808,-0.00188352,-0.000
 56973,0.00034986,-0.00021639,0.00170733,0.00079527,0.00057971,-0.00082
 735,0.00236429,0.02572632,0.00025234,-0.01726729,0.00003367,-0.0001585
 2,-0.00028477,-0.00014845,-0.00045028,-0.00019700,0.00021861,-0.000339
 78,-0.00017606,-0.00303293,-0.05896167,0.00327750,0.00007759,0.0588433
 1,0.00096390,-0.00011035,-0.00008994,0.00031605,-0.00050758,-0.0008563
 1,-0.00047877,0.00101638,-0.00168029,-0.01707571,-0.00062014,0.0117748
 7,0.00002919,-0.00009696,0.00007727,0.00005493,0.00012411,0.00008722,-
 0.00011383,0.00005416,0.00031958,0.13171749,0.00379359,-0.15142299,-0.
 14525284,-0.00487658,0.16536222,-0.00232749,0.00033346,-0.00145603,0.0
 0040421,0.00100056,0.00002434,0.00063315,-0.00093136,0.00044606,0.0122
 1326,0.03291836,-0.00055552,-0.00020296,0.00045696,-0.00009280,-0.0005
 4543,-0.00039413,-0.00005786,-0.00022347,-0.00065271,0.00000444,-0.099
 08104,-0.10000425,0.00162170,-0.01116181,-0.02988638,-0.00106423,0.105
 28682,0.00102377,0.00305570,0.00013932,0.00072547,-0.00067747,0.000338
 21,0.00167241,0.00174432,0.00025845,-0.01088640,-0.02803531,0.00051970
 ,0.00016541,-0.00046582,0.00010843,0.00048606,0.00017178,0.00010860,0.
 00071285,0.00012499,0.00023643,-0.09705940,-0.30007433,0.00584556,-0.0
 0022151,0.00120244,0.00037545,0.10668291,0.33120927,-0.00156805,-0.000
 09804,0.00121286,0.00006910,0.00043318,-0.00018300,0.00002605,-0.00064
 016,-0.00011324,0.00652902,0.01563005,-0.00188885,-0.00004569,0.000209
 07,-0.00019762,-0.00020058,-0.00019486,-0.00022969,-0.00021683,-0.0002
 3390,0.00003432,0.00114530,0.00482899,-0.05728034,0.00770845,0.0226899
 0,-0.00056156,0.00002453,-0.00783607,0.05647691,0.00055215,0.00102799,
 0.00071658,-0.00068307,0.00080600,0.00132175,0.00033330,0.00187790,0.0
 0113605,-0.01542926,-0.00742053,-0.03019957,0.00001123,0.00015338,-0.0
 0010885,0.00019030,0.00035500,-0.00010669,0.00026776,-0.00011587,-0.00
 076705,-0.07541198,-0.02073108,-0.07218531,0.01022090,0.00853178,0.030
 90382,-0.00499524,-0.00330156,-0.01347130,0.08494391,-0.00144133,-0.00
 065744,-0.00131729,0.00047496,0.00147811,-0.00132260,0.00219872,-0.001
 58652,-0.00121629,0.00984239,0.00826254,0.02970622,-0.00017108,-0.0000
 0492,0.00025290,-0.00027913,-0.00035782,0.00018543,0.00002648,-0.00023
 487,0.00035957,-0.01990115,-0.07783879,-0.06542896,-0.00004341,-0.0006
 9809,0.00084793,-0.00952343,-0.00825558,-0.03478817,0.01881698,0.07989
 339,0.00005512,0.00105909,0.00016733,-0.00030948,0.00037478,0.00026293
 ,0.00116788,0.00024350,0.00046784,-0.00747766,-0.00163701,-0.01029375,
 -0.00000681,0.00027505,-0.00016658,0.00011433,0.00028897,-0.00006623,0
 .00006210,0.00006204,-0.00032281,-0.07140201,-0.06661848,-0.28979690,-
 0.00606942,-0.00667512,-0.02301008,0.00110537,-0.00009408,0.00273021,0
 .08276057,0.07272126,0.32002803\\-0.00000458,0.00008950,-0.00002143,-0
 .00001719,-0.00007592,0.00002324,-0.00000355,0.00010302,-0.00002518,0.
 00001121,-0.00009907,0.00003324,0.00001080,0.00000661,-0.00000101,0.00
 000963,-0.00001047,-0.00000065,-0.00000764,-0.00001359,-0.00000401,0.0
 0000305,0.00000765,-0.00001003,-0.00000024,-0.00000114,0.00000210,-0.0
 0000177,-0.00000827,0.00000228,0.00000028,0.00000168,0.00000145\\\@


 In the beginning the Universe was created.
 This has made a lot of people very angry
 and been widely regarded as a bad move.
                               -D.Adams
 Job cpu time:       0 days  0 hours  1 minutes 14.5 seconds.
 Elapsed time:       0 days  0 hours  0 minutes  3.8 seconds.
 File lengths (MBytes):  RWF=      9 Int=      0 D2E=      0 Chk=      2 Scr=      1
 Normal termination of Gaussian 16 at Tue Jun 10 01:39:14 2025.
