 Entering Gaussian System, Link 0=g16
 Initial command:
 /home/user/softwares/g16/g16/l1.exe "/home/user/scratch/Gau-352565.inp" -scrdir="/home/user/scratch/"
 Entering Link 1 = /home/user/softwares/g16/g16/l1.exe PID=    352567.
  
 Copyright (c) 1988-2017, Gaussian, Inc.  All Rights Reserved.
  
 This is part of the Gaussian(R) 16 program.  It is based on
 the Gaussian(R) 09 system (copyright 2009, Gaussian, Inc.),
 the Gaussian(R) 03 system (copyright 2003, Gaussian, Inc.),
 the Gaussian(R) 98 system (copyright 1998, Gaussian, Inc.),
 the Gaussian(R) 94 system (copyright 1995, Gaussian, Inc.),
 the Gaussian 92(TM) system (copyright 1992, Gaussian, Inc.),
 the Gaussian 90(TM) system (copyright 1990, Gaussian, Inc.),
 the Gaussian 88(TM) system (copyright 1988, Gaussian, Inc.),
 the Gaussian 86(TM) system (copyright 1986, Carnegie Mellon
 University), and the Gaussian 82(TM) system (copyright 1983,
 Carnegie Mellon University). Gaussian is a federally registered
 trademark of Gaussian, Inc.
  
 This software contains proprietary and confidential information,
 including trade secrets, belonging to Gaussian, Inc.
  
 This software is provided under written license and may be
 used, copied, transmitted, or stored only in accord with that
 written license.
  
 The following legend is applicable only to US Government
 contracts under FAR:
  
                    RESTRICTED RIGHTS LEGEND
  
 Use, reproduction and disclosure by the US Government is
 subject to restrictions as set forth in subparagraphs (a)
 and (c) of the Commercial Computer Software - Restricted
 Rights clause in FAR 52.227-19.
  
 Gaussian, Inc.
 340 Quinnipiac St., Bldg. 40, Wallingford CT 06492
  
  
 ---------------------------------------------------------------
 Warning -- This program may not be used in any manner that
 competes with the business of Gaussian, Inc. or will provide
 assistance to any competitor of Gaussian, Inc.  The licensee
 of this program is prohibited from giving any competitor of
 Gaussian, Inc. access to this program.  By using this program,
 the user acknowledges that Gaussian, Inc. is engaged in the
 business of creating and licensing software in the field of
 computational chemistry and represents and warrants to the
 licensee that it is not a competitor of Gaussian, Inc. and that
 it will not use this program in any manner prohibited above.
 ---------------------------------------------------------------
  

 Cite this work as:
 Gaussian 16, Revision B.01,
 M. J. Frisch, G. W. Trucks, H. B. Schlegel, G. E. Scuseria, 
 M. A. Robb, J. R. Cheeseman, G. Scalmani, V. Barone, 
 G. A. Petersson, H. Nakatsuji, X. Li, M. Caricato, A. V. Marenich, 
 J. Bloino, B. G. Janesko, R. Gomperts, B. Mennucci, H. P. Hratchian, 
 J. V. Ortiz, A. F. Izmaylov, J. L. Sonnenberg, D. Williams-Young, 
 F. Ding, F. Lipparini, F. Egidi, J. Goings, B. Peng, A. Petrone, 
 T. Henderson, D. Ranasinghe, V. G. Zakrzewski, J. Gao, N. Rega, 
 G. Zheng, W. Liang, M. Hada, M. Ehara, K. Toyota, R. Fukuda, 
 J. Hasegawa, M. Ishida, T. Nakajima, Y. Honda, O. Kitao, H. Nakai, 
 T. Vreven, K. Throssell, J. A. Montgomery, Jr., J. E. Peralta, 
 F. Ogliaro, M. J. Bearpark, J. J. Heyd, E. N. Brothers, K. N. Kudin, 
 V. N. Staroverov, T. A. Keith, R. Kobayashi, J. Normand, 
 K. Raghavachari, A. P. Rendell, J. C. Burant, S. S. Iyengar, 
 J. Tomasi, M. Cossi, J. M. Millam, M. Klene, C. Adamo, R. Cammi, 
 J. W. Ochterski, R. L. Martin, K. Morokuma, O. Farkas, 
 J. B. Foresman, and D. J. Fox, Gaussian, Inc., Wallingford CT, 2016.
 
 ******************************************
 Gaussian 16:  EM64L-G16RevB.01 20-Dec-2017
                10-Jun-2025 
 ******************************************
 %nproc=20
 Will use up to   20 processors via shared memory.
 %mem=15GB
 %chk=meth_cyclobutadiene_isomer.chk
 ---------------------------------------------
 #p hf/3-21g opt freq gfinput gfprint pop=full
 ---------------------------------------------
 1/18=20,19=15,38=1/1,3;
 2/9=110,12=2,17=6,18=5,40=1/2;
 3/5=5,11=9,24=110,25=1,30=1,71=1/1,2,3;
 4//1;
 5/5=2,38=5/2;
 6/7=3,28=1/1;
 7//1,2,3,16;
 1/18=20,19=15/3(2);
 2/9=110/2;
 99//99;
 2/9=110/2;
 3/5=5,11=9,25=1,30=1,71=1/1,2,3;
 4/5=5,16=3,69=1/1;
 5/5=2,38=5/2;
 7//1,2,3,16;
 1/18=20,19=15/3(-5);
 2/9=110/2;
 6/7=3,19=2,28=1/1;
 99/9=1/99;
 Leave Link    1 at Tue Jun 10 01:41:37 2025, MaxMem=  2013265920 cpu:               1.3 elap:               0.1
 (Enter /home/user/softwares/g16/g16/l101.exe)
 ------------
 Optimisation
 ------------
 Symbolic Z-matrix:
 Charge =  0 Multiplicity = 1
 C                     0.1694    1.05464   0. 
 C                     1.71265   1.05464   0. 
 C                     1.71258   2.59783   0. 
 C                     0.16936   2.59783  -0.00027 
 H                    -0.2836    0.60153  -0.90642 
 H                     2.16555   0.60183  -0.90662 
 H                     2.12656   3.01167  -0.89569 
 C                    -0.45866   3.22561  -1.25848 
 H                    -0.27779   4.28022  -1.25911 
 H                    -0.0213    2.78821  -2.13157 
 H                     2.12625   3.01167   0.89584 
 
 ITRead=  0  0  0  0  0  0  0  0  0  0  0
 MicOpt= -1 -1 -1 -1 -1 -1 -1 -1 -1 -1 -1
 NAtoms=     11 NQM=       11 NQMF=       0 NMMI=      0 NMMIF=      0
                NMic=       0 NMicF=      0.
                    Isotopes and Nuclear Properties:
 (Nuclear quadrupole moments (NQMom) in fm**2, nuclear magnetic moments (NMagM)
  in nuclear magnetons)

  Atom         1           2           3           4           5           6           7           8           9          10
 IAtWgt=          12          12          12          12           1           1           1          12           1           1
 AtmWgt=  12.0000000  12.0000000  12.0000000  12.0000000   1.0078250   1.0078250   1.0078250  12.0000000   1.0078250   1.0078250
 NucSpn=           0           0           0           0           1           1           1           0           1           1
 AtZEff=  -0.0000000  -0.0000000  -0.0000000  -0.0000000  -0.0000000  -0.0000000  -0.0000000  -0.0000000  -0.0000000  -0.0000000
 NQMom=    0.0000000   0.0000000   0.0000000   0.0000000   0.0000000   0.0000000   0.0000000   0.0000000   0.0000000   0.0000000
 NMagM=    0.0000000   0.0000000   0.0000000   0.0000000   2.7928460   2.7928460   2.7928460   0.0000000   2.7928460   2.7928460
 AtZNuc=   6.0000000   6.0000000   6.0000000   6.0000000   1.0000000   1.0000000   1.0000000   6.0000000   1.0000000   1.0000000

  Atom        11
 IAtWgt=           1
 AtmWgt=   1.0078250
 NucSpn=           1
 AtZEff=  -0.0000000
 NQMom=    0.0000000
 NMagM=    2.7928460
 AtZNuc=   1.0000000
 Leave Link  101 at Tue Jun 10 01:41:37 2025, MaxMem=  2013265920 cpu:              11.7 elap:               0.6
 (Enter /home/user/softwares/g16/g16/l103.exe)

 GradGradGradGradGradGradGradGradGradGradGradGradGradGradGradGradGradGrad
 Berny optimization.
 Initialization pass.
                           ----------------------------
                           !    Initial Parameters    !
                           ! (Angstroms and Degrees)  !
 --------------------------                            --------------------------
 ! Name  Definition              Value          Derivative Info.                !
 --------------------------------------------------------------------------------
 ! R1    R(1,2)                  1.5432         estimate D2E/DX2                !
 ! R2    R(1,4)                  1.5432         estimate D2E/DX2                !
 ! R3    R(1,5)                  1.11           estimate D2E/DX2                !
 ! R4    R(2,3)                  1.5432         estimate D2E/DX2                !
 ! R5    R(2,6)                  1.11           estimate D2E/DX2                !
 ! R6    R(3,4)                  1.5432         estimate D2E/DX2                !
 ! R7    R(3,7)                  1.07           estimate D2E/DX2                !
 ! R8    R(3,11)                 1.07           estimate D2E/DX2                !
 ! R9    R(4,8)                  1.54           estimate D2E/DX2                !
 ! R10   R(8,9)                  1.07           estimate D2E/DX2                !
 ! R11   R(8,10)                 1.07           estimate D2E/DX2                !
 ! A1    A(2,1,4)               90.0016         estimate D2E/DX2                !
 ! A2    A(2,1,5)              114.0856         estimate D2E/DX2                !
 ! A3    A(4,1,5)              114.0826         estimate D2E/DX2                !
 ! A4    A(1,2,3)               89.9977         estimate D2E/DX2                !
 ! A5    A(1,2,6)              114.0807         estimate D2E/DX2                !
 ! A6    A(3,2,6)              114.0763         estimate D2E/DX2                !
 ! A7    A(2,3,4)               90.0022         estimate D2E/DX2                !
 ! A8    A(2,3,7)              112.7523         estimate D2E/DX2                !
 ! A9    A(2,3,11)             112.7523         estimate D2E/DX2                !
 ! A10   A(4,3,7)              112.7523         estimate D2E/DX2                !
 ! A11   A(4,3,11)             112.7523         estimate D2E/DX2                !
 ! A12   A(7,3,11)             113.6834         estimate D2E/DX2                !
 ! A13   A(1,4,3)               89.9985         estimate D2E/DX2                !
 ! A14   A(1,4,8)              114.067          estimate D2E/DX2                !
 ! A15   A(3,4,8)              114.0758         estimate D2E/DX2                !
 ! A16   A(4,8,9)              109.4712         estimate D2E/DX2                !
 ! A17   A(4,8,10)             109.4712         estimate D2E/DX2                !
 ! A18   A(9,8,10)             109.4712         estimate D2E/DX2                !
 ! D1    D(4,1,2,3)              0.01           estimate D2E/DX2                !
 ! D2    D(4,1,2,6)           -116.53           estimate D2E/DX2                !
 ! D3    D(5,1,2,3)            116.5601         estimate D2E/DX2                !
 ! D4    D(5,1,2,6)              0.0201         estimate D2E/DX2                !
 ! D5    D(2,1,4,3)             -0.01           estimate D2E/DX2                !
 ! D6    D(2,1,4,8)            116.5268         estimate D2E/DX2                !
 ! D7    D(5,1,4,3)           -116.5628         estimate D2E/DX2                !
 ! D8    D(5,1,4,8)             -0.026          estimate D2E/DX2                !
 ! D9    D(1,2,3,4)             -0.01           estimate D2E/DX2                !
 ! D10   D(1,2,3,7)           -114.8066         estimate D2E/DX2                !
 ! D11   D(1,2,3,11)           114.7865         estimate D2E/DX2                !
 ! D12   D(6,2,3,4)            116.5339         estimate D2E/DX2                !
 ! D13   D(6,2,3,7)              1.7374         estimate D2E/DX2                !
 ! D14   D(6,2,3,11)          -128.6695         estimate D2E/DX2                !
 ! D15   D(2,3,4,1)              0.01           estimate D2E/DX2                !
 ! D16   D(2,3,4,8)           -116.5189         estimate D2E/DX2                !
 ! D17   D(7,3,4,1)            114.8066         estimate D2E/DX2                !
 ! D18   D(7,3,4,8)             -1.7224         estimate D2E/DX2                !
 ! D19   D(11,3,4,1)          -114.7865         estimate D2E/DX2                !
 ! D20   D(11,3,4,8)           128.6846         estimate D2E/DX2                !
 ! D21   D(1,4,8,9)           -170.7561         estimate D2E/DX2                !
 ! D22   D(1,4,8,10)           -50.7561         estimate D2E/DX2                !
 ! D23   D(3,4,8,9)            -69.2466         estimate D2E/DX2                !
 ! D24   D(3,4,8,10)            50.7534         estimate D2E/DX2                !
 --------------------------------------------------------------------------------
 Trust Radius=3.00D-01 FncErr=1.00D-07 GrdErr=1.00D-07 EigMax=2.50D+02 EigMin=1.00D-04
 Number of steps in this run=     63 maximum allowed number of steps=    100.
 GradGradGradGradGradGradGradGradGradGradGradGradGradGradGradGradGradGrad

 Leave Link  103 at Tue Jun 10 01:41:37 2025, MaxMem=  2013265920 cpu:               0.4 elap:               0.0
 (Enter /home/user/softwares/g16/g16/l202.exe)
                          Input orientation:                          
 ---------------------------------------------------------------------
 Center     Atomic      Atomic             Coordinates (Angstroms)
 Number     Number       Type             X           Y           Z
 ---------------------------------------------------------------------
      1          6           0        0.169399    1.054645    0.000000
      2          6           0        1.712646    1.054645    0.000000
      3          6           0        1.712585    2.597835    0.000000
      4          6           0        0.169356    2.597832   -0.000270
      5          1           0       -0.283595    0.601532   -0.906420
      6          1           0        2.165554    0.601832   -0.906615
      7          1           0        2.126561    3.011671   -0.895692
      8          6           0       -0.458661    3.225613   -1.258477
      9          1           0       -0.277794    4.280215   -1.259109
     10          1           0       -0.021299    2.788207   -2.131570
     11          1           0        2.126247    3.011671    0.895837
 ---------------------------------------------------------------------
                    Distance matrix (angstroms):
                    1          2          3          4          5
     1  C    0.000000
     2  C    1.543247   0.000000
     3  C    2.182397   1.543190   0.000000
     4  C    1.543187   2.182469   1.543229   0.000000
     5  H    1.110005   2.238724   2.965056   2.238635   0.000000
     6  H    2.238666   1.110007   2.238562   2.964841   2.449149
     7  H    2.909072   2.191698   1.070000   2.191733   3.408480
     8  C    2.586760   3.318349   2.586925   1.540000   2.653374
     9  H    3.491367   3.993934   2.894368   2.148263   3.695556
    10  H    2.754124   3.248907   2.754304   2.148263   2.520187
    11  H    2.908905   2.191698   1.070000   2.191733   3.855417
                    6          7          8          9         10
     6  H    0.000000
     7  H    2.410179   0.000000
     8  C    3.727538   2.619304   0.000000
     9  H    4.429978   2.742662   1.070000   0.000000
    10  H    3.326121   2.488098   1.070000   1.747303   0.000000
    11  H    3.009602   1.791528   3.371734   3.468776   3.718479
                   11
    11  H    0.000000
 Stoichiometry    C5H6
 Framework group  C1[X(C5H6)]
 Deg. of freedom    27
 Full point group                 C1      NOp   1
 Largest Abelian subgroup         C1      NOp   1
 Largest concise Abelian subgroup C1      NOp   1
                         Standard orientation:                         
 ---------------------------------------------------------------------
 Center     Atomic      Atomic             Coordinates (Angstroms)
 Number     Number       Type             X           Y           Z
 ---------------------------------------------------------------------
      1          6           0       -0.526430   -1.119519   -0.308512
      2          6           0       -1.508013   -0.056567    0.228366
      3          6           0       -0.470151    1.048112   -0.061398
      4          6           0        0.511521   -0.014861   -0.598021
      5          1           0       -0.200073   -1.859721    0.451557
      6          1           0       -1.757580   -0.172612    1.303710
      7          1           0       -0.116251    1.526909    0.827651
      8          6           0        1.809225   -0.142130    0.221348
      9          1           0        2.403663    0.737331    0.086842
     10          1           0        1.567225   -0.254014    1.257600
     11          1           0       -0.793901    1.731894   -0.818054
 ---------------------------------------------------------------------
 Rotational constants (GHZ):          10.2325923           5.0978021           4.0171199
 Leave Link  202 at Tue Jun 10 01:41:37 2025, MaxMem=  2013265920 cpu:               0.1 elap:               0.0
 (Enter /home/user/softwares/g16/g16/l301.exe)
 Standard basis: 3-21G (6D, 7F)
 Ernie: Thresh=  0.10000D-02 Tol=  0.10000D-05 Strict=F.
 AO basis set in the form of general basis input (Overlap normalization):
      1 0
 S   3 1.00       0.000000000000
      0.1722560000D+03  0.6176690738D-01
      0.2591090000D+02  0.3587940429D+00
      0.5533350000D+01  0.7007130837D+00
 SP   2 1.00       0.000000000000
      0.3664980000D+01 -0.3958951621D+00  0.2364599466D+00
      0.7705450000D+00  0.1215834356D+01  0.8606188057D+00
 SP   1 1.00       0.000000000000
      0.1958570000D+00  0.1000000000D+01  0.1000000000D+01
 ****
      2 0
 S   3 1.00       0.000000000000
      0.1722560000D+03  0.6176690738D-01
      0.2591090000D+02  0.3587940429D+00
      0.5533350000D+01  0.7007130837D+00
 SP   2 1.00       0.000000000000
      0.3664980000D+01 -0.3958951621D+00  0.2364599466D+00
      0.7705450000D+00  0.1215834356D+01  0.8606188057D+00
 SP   1 1.00       0.000000000000
      0.1958570000D+00  0.1000000000D+01  0.1000000000D+01
 ****
      3 0
 S   3 1.00       0.000000000000
      0.1722560000D+03  0.6176690738D-01
      0.2591090000D+02  0.3587940429D+00
      0.5533350000D+01  0.7007130837D+00
 SP   2 1.00       0.000000000000
      0.3664980000D+01 -0.3958951621D+00  0.2364599466D+00
      0.7705450000D+00  0.1215834356D+01  0.8606188057D+00
 SP   1 1.00       0.000000000000
      0.1958570000D+00  0.1000000000D+01  0.1000000000D+01
 ****
      4 0
 S   3 1.00       0.000000000000
      0.1722560000D+03  0.6176690738D-01
      0.2591090000D+02  0.3587940429D+00
      0.5533350000D+01  0.7007130837D+00
 SP   2 1.00       0.000000000000
      0.3664980000D+01 -0.3958951621D+00  0.2364599466D+00
      0.7705450000D+00  0.1215834356D+01  0.8606188057D+00
 SP   1 1.00       0.000000000000
      0.1958570000D+00  0.1000000000D+01  0.1000000000D+01
 ****
      5 0
 S   2 1.00       0.000000000000
      0.5447178000D+01  0.1562849787D+00
      0.8245472400D+00  0.9046908767D+00
 S   1 1.00       0.000000000000
      0.1831915800D+00  0.1000000000D+01
 ****
      6 0
 S   2 1.00       0.000000000000
      0.5447178000D+01  0.1562849787D+00
      0.8245472400D+00  0.9046908767D+00
 S   1 1.00       0.000000000000
      0.1831915800D+00  0.1000000000D+01
 ****
      7 0
 S   2 1.00       0.000000000000
      0.5447178000D+01  0.1562849787D+00
      0.8245472400D+00  0.9046908767D+00
 S   1 1.00       0.000000000000
      0.1831915800D+00  0.1000000000D+01
 ****
      8 0
 S   3 1.00       0.000000000000
      0.1722560000D+03  0.6176690738D-01
      0.2591090000D+02  0.3587940429D+00
      0.5533350000D+01  0.7007130837D+00
 SP   2 1.00       0.000000000000
      0.3664980000D+01 -0.3958951621D+00  0.2364599466D+00
      0.7705450000D+00  0.1215834356D+01  0.8606188057D+00
 SP   1 1.00       0.000000000000
      0.1958570000D+00  0.1000000000D+01  0.1000000000D+01
 ****
      9 0
 S   2 1.00       0.000000000000
      0.5447178000D+01  0.1562849787D+00
      0.8245472400D+00  0.9046908767D+00
 S   1 1.00       0.000000000000
      0.1831915800D+00  0.1000000000D+01
 ****
     10 0
 S   2 1.00       0.000000000000
      0.5447178000D+01  0.1562849787D+00
      0.8245472400D+00  0.9046908767D+00
 S   1 1.00       0.000000000000
      0.1831915800D+00  0.1000000000D+01
 ****
     11 0
 S   2 1.00       0.000000000000
      0.5447178000D+01  0.1562849787D+00
      0.8245472400D+00  0.9046908767D+00
 S   1 1.00       0.000000000000
      0.1831915800D+00  0.1000000000D+01
 ****

 AO basis set (Overlap normalization):
 Atom C1       Shell     1 S   3     bf    1 -     1         -0.994808055789         -2.115584557523         -0.583003726955
      0.1722560000D+03  0.6176690738D-01
      0.2591090000D+02  0.3587940429D+00
      0.5533350000D+01  0.7007130837D+00
 Atom C1       Shell     2 SP   2    bf    2 -     5         -0.994808055789         -2.115584557523         -0.583003726955
      0.3664980000D+01 -0.3958951621D+00  0.2364599466D+00
      0.7705450000D+00  0.1215834356D+01  0.8606188057D+00
 Atom C1       Shell     3 SP   1    bf    6 -     9         -0.994808055789         -2.115584557523         -0.583003726955
      0.1958570000D+00  0.1000000000D+01  0.1000000000D+01
 Atom C2       Shell     4 S   3     bf   10 -    10         -2.849731321639         -0.106895363259          0.431548268611
      0.1722560000D+03  0.6176690738D-01
      0.2591090000D+02  0.3587940429D+00
      0.5533350000D+01  0.7007130837D+00
 Atom C2       Shell     5 SP   2    bf   11 -    14         -2.849731321639         -0.106895363259          0.431548268611
      0.3664980000D+01 -0.3958951621D+00  0.2364599466D+00
      0.7705450000D+00  0.1215834356D+01  0.8606188057D+00
 Atom C2       Shell     6 SP   1    bf   15 -    18         -2.849731321639         -0.106895363259          0.431548268611
      0.1958570000D+00  0.1000000000D+01  0.1000000000D+01
 Atom C3       Shell     7 S   3     bf   19 -    19         -0.888456576208          1.980644997869         -0.116025227408
      0.1722560000D+03  0.6176690738D-01
      0.2591090000D+02  0.3587940429D+00
      0.5533350000D+01  0.7007130837D+00
 Atom C3       Shell     8 SP   2    bf   20 -    23         -0.888456576208          1.980644997869         -0.116025227408
      0.3664980000D+01 -0.3958951621D+00  0.2364599466D+00
      0.7705450000D+00  0.1215834356D+01  0.8606188057D+00
 Atom C3       Shell     9 SP   1    bf   24 -    27         -0.888456576208          1.980644997869         -0.116025227408
      0.1958570000D+00  0.1000000000D+01  0.1000000000D+01
 Atom C4       Shell    10 S   3     bf   28 -    28          0.966634292792         -0.028083266953         -1.130095660449
      0.1722560000D+03  0.6176690738D-01
      0.2591090000D+02  0.3587940429D+00
      0.5533350000D+01  0.7007130837D+00
 Atom C4       Shell    11 SP   2    bf   29 -    32          0.966634292792         -0.028083266953         -1.130095660449
      0.3664980000D+01 -0.3958951621D+00  0.2364599466D+00
      0.7705450000D+00  0.1215834356D+01  0.8606188057D+00
 Atom C4       Shell    12 SP   1    bf   33 -    36          0.966634292792         -0.028083266953         -1.130095660449
      0.1958570000D+00  0.1000000000D+01  0.1000000000D+01
 Atom H5       Shell    13 S   2     bf   37 -    37         -0.378082781958         -3.514363033186          0.853318363924
      0.5447178000D+01  0.1562849787D+00
      0.8245472400D+00  0.9046908767D+00
 Atom H5       Shell    14 S   1     bf   38 -    38         -0.378082781958         -3.514363033186          0.853318363924
      0.1831915800D+00  0.1000000000D+01
 Atom H6       Shell    15 S   2     bf   39 -    39         -3.321344561218         -0.326188810834          2.463654944910
      0.5447178000D+01  0.1562849787D+00
      0.8245472400D+00  0.9046908767D+00
 Atom H6       Shell    16 S   1     bf   40 -    40         -3.321344561218         -0.326188810834          2.463654944910
      0.1831915800D+00  0.1000000000D+01
 Atom H7       Shell    17 S   2     bf   41 -    41         -0.219682195847          2.885440266316          1.564033844105
      0.5447178000D+01  0.1562849787D+00
      0.8245472400D+00  0.9046908767D+00
 Atom H7       Shell    18 S   1     bf   42 -    42         -0.219682195847          2.885440266316          1.564033844105
      0.1831915800D+00  0.1000000000D+01
 Atom C8       Shell    19 S   3     bf   43 -    43          3.418940619254         -0.268586994129          0.418287019471
      0.1722560000D+03  0.6176690738D-01
      0.2591090000D+02  0.3587940429D+00
      0.5533350000D+01  0.7007130837D+00
 Atom C8       Shell    20 SP   2    bf   44 -    47          3.418940619254         -0.268586994129          0.418287019471
      0.3664980000D+01 -0.3958951621D+00  0.2364599466D+00
      0.7705450000D+00  0.1215834356D+01  0.8606188057D+00
 Atom C8       Shell    21 SP   1    bf   48 -    51          3.418940619254         -0.268586994129          0.418287019471
      0.1958570000D+00  0.1000000000D+01  0.1000000000D+01
 Atom H9       Shell    22 S   2     bf   52 -    52          4.542264768675          1.393354007684          0.164107770248
      0.5447178000D+01  0.1562849787D+00
      0.8245472400D+00  0.9046908767D+00
 Atom H9       Shell    23 S   1     bf   53 -    53          4.542264768675          1.393354007684          0.164107770248
      0.1831915800D+00  0.1000000000D+01
 Atom H10      Shell    24 S   2     bf   54 -    54          2.961626425783         -0.480016333828          2.376519265625
      0.5447178000D+01  0.1562849787D+00
      0.8245472400D+00  0.9046908767D+00
 Atom H10      Shell    25 S   1     bf   55 -    55          2.961626425783         -0.480016333828          2.376519265625
      0.1831915800D+00  0.1000000000D+01
 Atom H11      Shell    26 S   2     bf   56 -    56         -1.500255405891          3.272805007819         -1.545898228429
      0.5447178000D+01  0.1562849787D+00
      0.8245472400D+00  0.9046908767D+00
 Atom H11      Shell    27 S   1     bf   57 -    57         -1.500255405891          3.272805007819         -1.545898228429
      0.1831915800D+00  0.1000000000D+01
 There are    57 symmetry adapted cartesian basis functions of A   symmetry.
 There are    57 symmetry adapted basis functions of A   symmetry.
    57 basis functions,    93 primitive gaussians,    57 cartesian basis functions
    18 alpha electrons       18 beta electrons
       nuclear repulsion energy       149.1359036718 Hartrees.
 IExCor=    0 DFT=F Ex=HF Corr=None ExCW=0 ScaHFX=  1.000000
 ScaDFX=  1.000000  1.000000  1.000000  1.000000 ScalE2=  1.000000  1.000000
 IRadAn=      5 IRanWt=     -1 IRanGd=            0 ICorTp=0 IEmpDi=  4
 NAtoms=   11 NActive=   11 NUniq=   11 SFac= 1.00D+00 NAtFMM=   60 NAOKFM=F Big=F
 Integral buffers will be    131072 words long.
 Raffenetti 1 integral format.
 Two-electron integral symmetry is turned on.
 Leave Link  301 at Tue Jun 10 01:41:37 2025, MaxMem=  2013265920 cpu:               1.9 elap:               0.1
 (Enter /home/user/softwares/g16/g16/l302.exe)
 NPDir=0 NMtPBC=     1 NCelOv=     1 NCel=       1 NClECP=     1 NCelD=      1
         NCelK=      1 NCelE2=     1 NClLst=     1 CellRange=     0.0.
 One-electron integrals computed using PRISM.
 One-electron integral symmetry used in STVInt
 NBasis=    57 RedAO= T EigKep=  6.24D-03  NBF=    57
 NBsUse=    57 1.00D-06 EigRej= -1.00D+00 NBFU=    57
 Leave Link  302 at Tue Jun 10 01:41:38 2025, MaxMem=  2013265920 cpu:               4.7 elap:               0.2
 (Enter /home/user/softwares/g16/g16/l303.exe)
 DipDrv:  MaxL=1.
 Leave Link  303 at Tue Jun 10 01:41:38 2025, MaxMem=  2013265920 cpu:               1.4 elap:               0.1
 (Enter /home/user/softwares/g16/g16/l401.exe)
 ExpMin= 1.83D-01 ExpMax= 1.72D+02 ExpMxC= 1.72D+02 IAcc=3 IRadAn=         5 AccDes= 0.00D+00
 Harris functional with IExCor=  205 and IRadAn=       5 diagonalized for initial guess.
 HarFok:  IExCor=  205 AccDes= 0.00D+00 IRadAn=         5 IDoV= 1 UseB2=F ITyADJ=14
 ICtDFT=  3500011 ScaDFX=  1.000000  1.000000  1.000000  1.000000
 FoFCou: FMM=F IPFlag=           0 FMFlag=      100000 FMFlg1=           0
         NFxFlg=           0 DoJE=T BraDBF=F KetDBF=T FulRan=T
         wScrn=  0.000000 ICntrl=       500 IOpCl=  0 I1Cent=   200000004 NGrid=           0
         NMat0=    1 NMatS0=      1 NMatT0=    0 NMatD0=    1 NMtDS0=    0 NMtDT0=    0
 Petite list used in FoFCou.
 Harris En= -191.767967157839    
 JPrj=0 DoOrth=F DoCkMO=F.
 Leave Link  401 at Tue Jun 10 01:41:38 2025, MaxMem=  2013265920 cpu:               7.3 elap:               0.4
 (Enter /home/user/softwares/g16/g16/l502.exe)
 Keep R1 ints in memory in canonical form, NReq=5411128.
 FoFCou: FMM=F IPFlag=           0 FMFlag=           0 FMFlg1=           0
         NFxFlg=           0 DoJE=F BraDBF=F KetDBF=F FulRan=T
         wScrn=  0.000000 ICntrl=       600 IOpCl=  0 I1Cent=           0 NGrid=           0
         NMat0=    1 NMatS0=   1653 NMatT0=    0 NMatD0=    1 NMtDS0=    0 NMtDT0=    0
 Symmetry not used in FoFCou.
 Two-electron integral symmetry not used.
 Closed shell SCF:
 Using DIIS extrapolation, IDIIS=  1040.
 NGot=  2013265920 LenX=  2011890318 LenY=  2011886628
 Requested convergence on RMS density matrix=1.00D-08 within 128 cycles.
 Requested convergence on MAX density matrix=1.00D-06.
 Requested convergence on             energy=1.00D-06.
 No special actions if energy rises.

 Cycle   1  Pass 1  IDiag  1:
 E= -191.194818858683    
 DIIS: error= 4.60D-02 at cycle   1 NSaved=   1.
 NSaved= 1 IEnMin= 1 EnMin= -191.194818858683     IErMin= 1 ErrMin= 4.60D-02
 ErrMax= 4.60D-02  0.00D+00 EMaxC= 1.00D-01 BMatC= 2.24D-01 BMatP= 2.24D-01
 IDIUse=3 WtCom= 5.40D-01 WtEn= 4.60D-01
 Coeff-Com:  0.100D+01
 Coeff-En:   0.100D+01
 Coeff:      0.100D+01
 Gap=     0.173 Goal=   None    Shift=    0.000
 GapD=    0.173 DampG=1.000 DampE=0.500 DampFc=0.5000 IDamp=-1.
 Damping current iteration by 5.00D-01
 RMSDP=1.11D-02 MaxDP=1.22D-01              OVMax= 3.03D-01

 Cycle   2  Pass 1  IDiag  1:
 E= -191.296767924638     Delta-E=       -0.101949065955 Rises=F Damp=T
 DIIS: error= 1.59D-02 at cycle   2 NSaved=   2.
 NSaved= 2 IEnMin= 2 EnMin= -191.296767924638     IErMin= 2 ErrMin= 1.59D-02
 ErrMax= 1.59D-02  0.00D+00 EMaxC= 1.00D-01 BMatC= 3.75D-02 BMatP= 2.24D-01
 IDIUse=3 WtCom= 8.41D-01 WtEn= 1.59D-01
 Coeff-Com: -0.386D+00 0.139D+01
 Coeff-En:   0.000D+00 0.100D+01
 Coeff:     -0.325D+00 0.132D+01
 Gap=     0.298 Goal=   None    Shift=    0.000
 RMSDP=3.61D-03 MaxDP=2.51D-02 DE=-1.02D-01 OVMax= 1.55D-01

 Cycle   3  Pass 1  IDiag  1:
 E= -191.386592298205     Delta-E=       -0.089824373567 Rises=F Damp=F
 DIIS: error= 8.41D-03 at cycle   3 NSaved=   3.
 NSaved= 3 IEnMin= 3 EnMin= -191.386592298205     IErMin= 3 ErrMin= 8.41D-03
 ErrMax= 8.41D-03  0.00D+00 EMaxC= 1.00D-01 BMatC= 3.94D-03 BMatP= 3.75D-02
 IDIUse=3 WtCom= 9.16D-01 WtEn= 8.41D-02
 Coeff-Com: -0.157D+00 0.359D+00 0.797D+00
 Coeff-En:   0.000D+00 0.000D+00 0.100D+01
 Coeff:     -0.144D+00 0.329D+00 0.815D+00
 Gap=     0.278 Goal=   None    Shift=    0.000
 RMSDP=1.71D-03 MaxDP=1.84D-02 DE=-8.98D-02 OVMax= 5.50D-02

 Cycle   4  Pass 1  IDiag  1:
 E= -191.391516181246     Delta-E=       -0.004923883041 Rises=F Damp=F
 DIIS: error= 2.39D-03 at cycle   4 NSaved=   4.
 NSaved= 4 IEnMin= 4 EnMin= -191.391516181246     IErMin= 4 ErrMin= 2.39D-03
 ErrMax= 2.39D-03  0.00D+00 EMaxC= 1.00D-01 BMatC= 5.88D-04 BMatP= 3.94D-03
 IDIUse=3 WtCom= 9.76D-01 WtEn= 2.39D-02
 Coeff-Com:  0.863D-02-0.425D-01 0.247D+00 0.787D+00
 Coeff-En:   0.000D+00 0.000D+00 0.000D+00 0.100D+01
 Coeff:      0.843D-02-0.415D-01 0.241D+00 0.792D+00
 Gap=     0.286 Goal=   None    Shift=    0.000
 RMSDP=5.33D-04 MaxDP=4.44D-03 DE=-4.92D-03 OVMax= 1.24D-02

 Cycle   5  Pass 1  IDiag  1:
 E= -191.392385225522     Delta-E=       -0.000869044277 Rises=F Damp=F
 DIIS: error= 1.24D-03 at cycle   5 NSaved=   5.
 NSaved= 5 IEnMin= 5 EnMin= -191.392385225522     IErMin= 5 ErrMin= 1.24D-03
 ErrMax= 1.24D-03  0.00D+00 EMaxC= 1.00D-01 BMatC= 4.67D-05 BMatP= 5.88D-04
 IDIUse=3 WtCom= 9.88D-01 WtEn= 1.24D-02
 Coeff-Com:  0.152D-01-0.316D-01-0.160D-01-0.171D-01 0.105D+01
 Coeff-En:   0.000D+00 0.000D+00 0.000D+00 0.000D+00 0.100D+01
 Coeff:      0.150D-01-0.312D-01-0.158D-01-0.169D-01 0.105D+01
 Gap=     0.288 Goal=   None    Shift=    0.000
 RMSDP=3.19D-04 MaxDP=2.60D-03 DE=-8.69D-04 OVMax= 9.02D-03

 Cycle   6  Pass 1  IDiag  1:
 E= -191.392596676787     Delta-E=       -0.000211451264 Rises=F Damp=F
 DIIS: error= 8.66D-04 at cycle   6 NSaved=   6.
 NSaved= 6 IEnMin= 6 EnMin= -191.392596676787     IErMin= 6 ErrMin= 8.66D-04
 ErrMax= 8.66D-04  0.00D+00 EMaxC= 1.00D-01 BMatC= 2.24D-05 BMatP= 4.67D-05
 IDIUse=3 WtCom= 9.91D-01 WtEn= 8.66D-03
 Coeff-Com:  0.630D-02-0.395D-02-0.733D-01-0.309D+00 0.275D+00 0.111D+01
 Coeff-En:   0.000D+00 0.000D+00 0.000D+00 0.000D+00 0.000D+00 0.100D+01
 Coeff:      0.624D-02-0.392D-02-0.727D-01-0.306D+00 0.273D+00 0.110D+01
 Gap=     0.290 Goal=   None    Shift=    0.000
 RMSDP=3.10D-04 MaxDP=2.54D-03 DE=-2.11D-04 OVMax= 1.05D-02

 Cycle   7  Pass 1  IDiag  1:
 E= -191.392715120598     Delta-E=       -0.000118443811 Rises=F Damp=F
 DIIS: error= 4.01D-04 at cycle   7 NSaved=   7.
 NSaved= 7 IEnMin= 7 EnMin= -191.392715120598     IErMin= 7 ErrMin= 4.01D-04
 ErrMax= 4.01D-04  0.00D+00 EMaxC= 1.00D-01 BMatC= 6.04D-06 BMatP= 2.24D-05
 IDIUse=3 WtCom= 9.96D-01 WtEn= 4.01D-03
 Coeff-Com:  0.778D-03-0.178D-02 0.217D-01 0.947D-02-0.208D+00-0.464D-01
 Coeff-Com:  0.122D+01
 Coeff-En:   0.000D+00 0.000D+00 0.000D+00 0.000D+00 0.000D+00 0.000D+00
 Coeff-En:   0.100D+01
 Coeff:      0.775D-03-0.177D-02 0.216D-01 0.944D-02-0.207D+00-0.462D-01
 Coeff:      0.122D+01
 Gap=     0.291 Goal=   None    Shift=    0.000
 RMSDP=1.65D-04 MaxDP=1.49D-03 DE=-1.18D-04 OVMax= 4.61D-03

 Cycle   8  Pass 1  IDiag  1:
 E= -191.392744747124     Delta-E=       -0.000029626526 Rises=F Damp=F
 DIIS: error= 1.96D-04 at cycle   8 NSaved=   8.
 NSaved= 8 IEnMin= 8 EnMin= -191.392744747124     IErMin= 8 ErrMin= 1.96D-04
 ErrMax= 1.96D-04  0.00D+00 EMaxC= 1.00D-01 BMatC= 1.98D-06 BMatP= 6.04D-06
 IDIUse=3 WtCom= 9.98D-01 WtEn= 1.96D-03
 Coeff-Com: -0.206D-03-0.291D-02 0.390D-01 0.108D+00-0.128D+00-0.449D+00
 Coeff-Com:  0.178D+00 0.126D+01
 Coeff-En:   0.000D+00 0.000D+00 0.000D+00 0.000D+00 0.000D+00 0.000D+00
 Coeff-En:   0.000D+00 0.100D+01
 Coeff:     -0.205D-03-0.290D-02 0.389D-01 0.108D+00-0.127D+00-0.449D+00
 Coeff:      0.178D+00 0.125D+01
 Gap=     0.291 Goal=   None    Shift=    0.000
 RMSDP=1.29D-04 MaxDP=1.00D-03 DE=-2.96D-05 OVMax= 3.70D-03

 Cycle   9  Pass 1  IDiag  1:
 E= -191.392755718297     Delta-E=       -0.000010971173 Rises=F Damp=F
 DIIS: error= 8.98D-05 at cycle   9 NSaved=   9.
 NSaved= 9 IEnMin= 9 EnMin= -191.392755718297     IErMin= 9 ErrMin= 8.98D-05
 ErrMax= 8.98D-05  0.00D+00 EMaxC= 1.00D-01 BMatC= 3.87D-07 BMatP= 1.98D-06
 IDIUse=1 WtCom= 1.00D+00 WtEn= 0.00D+00
 Coeff-Com:  0.113D-02-0.126D-02-0.117D-01-0.411D-01 0.898D-01 0.129D+00
 Coeff-Com: -0.295D+00-0.332D+00 0.146D+01
 Coeff:      0.113D-02-0.126D-02-0.117D-01-0.411D-01 0.898D-01 0.129D+00
 Coeff:     -0.295D+00-0.332D+00 0.146D+01
 Gap=     0.291 Goal=   None    Shift=    0.000
 RMSDP=5.12D-05 MaxDP=5.45D-04 DE=-1.10D-05 OVMax= 1.51D-03

 Cycle  10  Pass 1  IDiag  1:
 E= -191.392757781119     Delta-E=       -0.000002062823 Rises=F Damp=F
 DIIS: error= 4.45D-05 at cycle  10 NSaved=  10.
 NSaved=10 IEnMin=10 EnMin= -191.392757781119     IErMin=10 ErrMin= 4.45D-05
 ErrMax= 4.45D-05  0.00D+00 EMaxC= 1.00D-01 BMatC= 6.13D-08 BMatP= 3.87D-07
 IDIUse=1 WtCom= 1.00D+00 WtEn= 0.00D+00
 Coeff-Com:  0.498D-03-0.891D-04-0.994D-02-0.334D-01 0.451D-01 0.127D+00
 Coeff-Com: -0.826D-01-0.332D+00 0.138D+00 0.115D+01
 Coeff:      0.498D-03-0.891D-04-0.994D-02-0.334D-01 0.451D-01 0.127D+00
 Coeff:     -0.826D-01-0.332D+00 0.138D+00 0.115D+01
 Gap=     0.291 Goal=   None    Shift=    0.000
 RMSDP=2.18D-05 MaxDP=1.79D-04 DE=-2.06D-06 OVMax= 7.17D-04

 Cycle  11  Pass 1  IDiag  1:
 E= -191.392758213996     Delta-E=       -0.000000432877 Rises=F Damp=F
 DIIS: error= 2.17D-05 at cycle  11 NSaved=  11.
 NSaved=11 IEnMin=11 EnMin= -191.392758213996     IErMin=11 ErrMin= 2.17D-05
 ErrMax= 2.17D-05  0.00D+00 EMaxC= 1.00D-01 BMatC= 1.07D-08 BMatP= 6.13D-08
 IDIUse=1 WtCom= 1.00D+00 WtEn= 0.00D+00
 Coeff-Com: -0.324D-03-0.134D-04 0.790D-02 0.245D-01-0.437D-01-0.856D-01
 Coeff-Com:  0.108D+00 0.226D+00-0.428D+00-0.396D+00 0.159D+01
 Coeff:     -0.324D-03-0.134D-04 0.790D-02 0.245D-01-0.437D-01-0.856D-01
 Coeff:      0.108D+00 0.226D+00-0.428D+00-0.396D+00 0.159D+01
 Gap=     0.291 Goal=   None    Shift=    0.000
 RMSDP=1.16D-05 MaxDP=8.62D-05 DE=-4.33D-07 OVMax= 4.10D-04

 Cycle  12  Pass 1  IDiag  1:
 E= -191.392758312062     Delta-E=       -0.000000098066 Rises=F Damp=F
 DIIS: error= 6.11D-06 at cycle  12 NSaved=  12.
 NSaved=12 IEnMin=12 EnMin= -191.392758312062     IErMin=12 ErrMin= 6.11D-06
 ErrMax= 6.11D-06  0.00D+00 EMaxC= 1.00D-01 BMatC= 1.19D-09 BMatP= 1.07D-08
 IDIUse=1 WtCom= 1.00D+00 WtEn= 0.00D+00
 Coeff-Com:  0.156D-03-0.377D-04-0.328D-02-0.104D-01 0.198D-01 0.335D-01
 Coeff-Com: -0.499D-01-0.102D+00 0.253D+00 0.762D-01-0.991D+00 0.177D+01
 Coeff:      0.156D-03-0.377D-04-0.328D-02-0.104D-01 0.198D-01 0.335D-01
 Coeff:     -0.499D-01-0.102D+00 0.253D+00 0.762D-01-0.991D+00 0.177D+01
 Gap=     0.291 Goal=   None    Shift=    0.000
 RMSDP=4.32D-06 MaxDP=3.07D-05 DE=-9.81D-08 OVMax= 1.40D-04

 Cycle  13  Pass 1  IDiag  1:
 E= -191.392758323069     Delta-E=       -0.000000011007 Rises=F Damp=F
 DIIS: error= 1.07D-06 at cycle  13 NSaved=  13.
 NSaved=13 IEnMin=13 EnMin= -191.392758323069     IErMin=13 ErrMin= 1.07D-06
 ErrMax= 1.07D-06  0.00D+00 EMaxC= 1.00D-01 BMatC= 7.84D-11 BMatP= 1.19D-09
 IDIUse=1 WtCom= 1.00D+00 WtEn= 0.00D+00
 Coeff-Com: -0.212D-04 0.182D-04 0.260D-03 0.105D-02-0.226D-02-0.236D-02
 Coeff-Com:  0.680D-02 0.993D-02-0.402D-01 0.186D-01 0.175D+00-0.588D+00
 Coeff-Com:  0.142D+01
 Coeff:     -0.212D-04 0.182D-04 0.260D-03 0.105D-02-0.226D-02-0.236D-02
 Coeff:      0.680D-02 0.993D-02-0.402D-01 0.186D-01 0.175D+00-0.588D+00
 Coeff:      0.142D+01
 Gap=     0.291 Goal=   None    Shift=    0.000
 RMSDP=7.41D-07 MaxDP=5.56D-06 DE=-1.10D-08 OVMax= 1.88D-05

 Cycle  14  Pass 1  IDiag  1:
 E= -191.392758323520     Delta-E=       -0.000000000450 Rises=F Damp=F
 DIIS: error= 3.92D-07 at cycle  14 NSaved=  14.
 NSaved=14 IEnMin=14 EnMin= -191.392758323520     IErMin=14 ErrMin= 3.92D-07
 ErrMax= 3.92D-07  0.00D+00 EMaxC= 1.00D-01 BMatC= 8.59D-12 BMatP= 7.84D-11
 IDIUse=1 WtCom= 1.00D+00 WtEn= 0.00D+00
 Coeff-Com: -0.609D-06-0.139D-05 0.416D-04 0.452D-04 0.140D-03-0.107D-02
 Coeff-Com:  0.189D-03-0.218D-03 0.639D-02-0.144D-01-0.308D-01 0.201D+00
 Coeff-Com: -0.793D+00 0.163D+01
 Coeff:     -0.609D-06-0.139D-05 0.416D-04 0.452D-04 0.140D-03-0.107D-02
 Coeff:      0.189D-03-0.218D-03 0.639D-02-0.144D-01-0.308D-01 0.201D+00
 Coeff:     -0.793D+00 0.163D+01
 Gap=     0.291 Goal=   None    Shift=    0.000
 RMSDP=2.18D-07 MaxDP=2.46D-06 DE=-4.50D-10 OVMax= 4.18D-06

 Cycle  15  Pass 1  IDiag  1:
 E= -191.392758323566     Delta-E=       -0.000000000046 Rises=F Damp=F
 DIIS: error= 1.33D-07 at cycle  15 NSaved=  15.
 NSaved=15 IEnMin=15 EnMin= -191.392758323566     IErMin=15 ErrMin= 1.33D-07
 ErrMax= 1.33D-07  0.00D+00 EMaxC= 1.00D-01 BMatC= 9.78D-13 BMatP= 8.59D-12
 IDIUse=1 WtCom= 1.00D+00 WtEn= 0.00D+00
 Coeff-Com:  0.795D-06 0.108D-05-0.368D-04-0.809D-04 0.113D-03 0.538D-03
 Coeff-Com: -0.289D-03-0.725D-03-0.525D-03 0.598D-02 0.401D-02-0.636D-01
 Coeff-Com:  0.323D+00-0.957D+00 0.169D+01
 Coeff:      0.795D-06 0.108D-05-0.368D-04-0.809D-04 0.113D-03 0.538D-03
 Coeff:     -0.289D-03-0.725D-03-0.525D-03 0.598D-02 0.401D-02-0.636D-01
 Coeff:      0.323D+00-0.957D+00 0.169D+01
 Gap=     0.291 Goal=   None    Shift=    0.000
 RMSDP=8.08D-08 MaxDP=6.83D-07 DE=-4.64D-11 OVMax= 1.63D-06

 Cycle  16  Pass 1  IDiag  1:
 E= -191.392758323573     Delta-E=       -0.000000000007 Rises=F Damp=F
 DIIS: error= 4.82D-08 at cycle  16 NSaved=  16.
 NSaved=16 IEnMin=16 EnMin= -191.392758323573     IErMin=16 ErrMin= 4.82D-08
 ErrMax= 4.82D-08  0.00D+00 EMaxC= 1.00D-01 BMatC= 9.31D-14 BMatP= 9.78D-13
 IDIUse=1 WtCom= 1.00D+00 WtEn= 0.00D+00
 Coeff-Com: -0.840D-06 0.204D-06 0.176D-04 0.516D-04-0.785D-04-0.253D-03
 Coeff-Com:  0.277D-03 0.484D-03-0.821D-03-0.128D-02 0.300D-02 0.441D-02
 Coeff-Com: -0.549D-01 0.235D+00-0.688D+00 0.150D+01
 Coeff:     -0.840D-06 0.204D-06 0.176D-04 0.516D-04-0.785D-04-0.253D-03
 Coeff:      0.277D-03 0.484D-03-0.821D-03-0.128D-02 0.300D-02 0.441D-02
 Coeff:     -0.549D-01 0.235D+00-0.688D+00 0.150D+01
 Gap=     0.291 Goal=   None    Shift=    0.000
 RMSDP=2.38D-08 MaxDP=1.91D-07 DE=-7.39D-12 OVMax= 6.21D-07

 Cycle  17  Pass 1  IDiag  1:
 E= -191.392758323574     Delta-E=       -0.000000000001 Rises=F Damp=F
 DIIS: error= 1.72D-08 at cycle  17 NSaved=  17.
 NSaved=17 IEnMin=17 EnMin= -191.392758323574     IErMin=17 ErrMin= 1.72D-08
 ErrMax= 1.72D-08  0.00D+00 EMaxC= 1.00D-01 BMatC= 1.43D-14 BMatP= 9.31D-14
 IDIUse=1 WtCom= 1.00D+00 WtEn= 0.00D+00
 Large coefficients: NSaved= 17 BigCof=    0.00 CofMax=   10.00 Det=-4.27D-15
 Inversion failed.  Reducing to 16 matrices.
 Large coefficients: NSaved= 16 BigCof=    0.00 CofMax=   10.00 Det=-4.98D-15
 Inversion failed.  Reducing to 15 matrices.
 Coeff-Com:  0.516D-06-0.119D-05 0.559D-05-0.114D-04 0.885D-05-0.597D-04
 Coeff-Com:  0.191D-03-0.314D-03-0.578D-03 0.300D-02-0.850D-02-0.761D-02
 Coeff-Com:  0.166D+00-0.827D+00 0.168D+01
 Coeff:      0.516D-06-0.119D-05 0.559D-05-0.114D-04 0.885D-05-0.597D-04
 Coeff:      0.191D-03-0.314D-03-0.578D-03 0.300D-02-0.850D-02-0.761D-02
 Coeff:      0.166D+00-0.827D+00 0.168D+01
 Gap=     0.291 Goal=   None    Shift=    0.000
 RMSDP=9.23D-09 MaxDP=7.05D-08 DE=-1.14D-12 OVMax= 2.28D-07

 SCF Done:  E(RHF) =  -191.392758324     A.U. after   17 cycles
            NFock= 17  Conv=0.92D-08     -V/T= 2.0044
 KE= 1.905601175100D+02 PE=-7.423813293562D+02 EE= 2.112925498508D+02
 Leave Link  502 at Tue Jun 10 01:41:38 2025, MaxMem=  2013265920 cpu:               5.7 elap:               0.3
 (Enter /home/user/softwares/g16/g16/l601.exe)
 Copying SCF densities to generalized density rwf, IOpCl= 0 IROHF=0.

 **********************************************************************

            Population analysis using the SCF Density.

 **********************************************************************

 Orbital symmetries:
       Occupied  (A) (A) (A) (A) (A) (A) (A) (A) (A) (A) (A) (A)
                 (A) (A) (A) (A) (A) (A)
       Virtual   (A) (A) (A) (A) (A) (A) (A) (A) (A) (A) (A) (A)
                 (A) (A) (A) (A) (A) (A) (A) (A) (A) (A) (A) (A)
                 (A) (A) (A) (A) (A) (A) (A) (A) (A) (A) (A) (A)
                 (A) (A) (A)
 The electronic state is 1-A.
 Alpha  occ. eigenvalues --  -11.24157 -11.23986 -11.23495 -11.22135 -11.16639
 Alpha  occ. eigenvalues --   -1.16993  -0.95763  -0.92230  -0.81513  -0.70140
 Alpha  occ. eigenvalues --   -0.65234  -0.60321  -0.56759  -0.52379  -0.49442
 Alpha  occ. eigenvalues --   -0.47454  -0.36160  -0.27007
 Alpha virt. eigenvalues --    0.02126   0.06988   0.24271   0.29438   0.31519
 Alpha virt. eigenvalues --    0.32639   0.34154   0.34900   0.37000   0.38495
 Alpha virt. eigenvalues --    0.46285   0.47659   0.61339   0.91003   0.93622
 Alpha virt. eigenvalues --    0.94886   0.95803   0.98065   1.00680   1.01264
 Alpha virt. eigenvalues --    1.03507   1.05859   1.08767   1.09034   1.16162
 Alpha virt. eigenvalues --    1.17992   1.19525   1.25210   1.28901   1.32540
 Alpha virt. eigenvalues --    1.33085   1.38591   1.42238   1.51008   1.76952
 Alpha virt. eigenvalues --    1.91221   2.14947   2.32154   2.86161
     Molecular Orbital Coefficients:
                           1         2         3         4         5
                           O         O         O         O         O
     Eigenvalues --   -11.24157 -11.23986 -11.23495 -11.22135 -11.16639
   1 1   C  1S         -0.02651  -0.04365   0.98652   0.00320   0.00254
   2        2S         -0.00617  -0.00863   0.10050  -0.00005  -0.00137
   3        2PX        -0.00039   0.00087   0.00063   0.00006  -0.00075
   4        2PY         0.00058   0.00119   0.00154  -0.00024  -0.00023
   5        2PZ         0.00004  -0.00050   0.00202   0.00006  -0.00002
   6        3S          0.03109   0.04016  -0.08049  -0.00598   0.00550
   7        3PX        -0.00586   0.01123  -0.00408   0.00005   0.00111
   8        3PY         0.01134   0.01331  -0.01640  -0.00330   0.00289
   9        3PZ         0.00771   0.00424  -0.01130  -0.00085  -0.00008
  10 2   C  1S          0.98750  -0.00578   0.02517   0.00805  -0.00083
  11        2S          0.10112  -0.00004  -0.00082  -0.00198   0.00109
  12        2PX         0.00244  -0.00052   0.00054   0.00067   0.00005
  13        2PY        -0.00032   0.00001  -0.00035   0.00055  -0.00006
  14        2PZ         0.00131   0.00035  -0.00034  -0.00025   0.00036
  15        3S         -0.08481  -0.01312   0.02564   0.02626  -0.00566
  16        3PX        -0.02189  -0.00602   0.01063   0.01056  -0.00317
  17        3PY         0.00110   0.00036  -0.00825   0.00849   0.00012
  18        3PZ        -0.00289  -0.00059  -0.00223  -0.00248  -0.00112
  19 3   C  1S         -0.00899  -0.01122  -0.00391   0.98790   0.00403
  20        2S         -0.00390  -0.00504  -0.00081   0.10461  -0.00166
  21        2PX        -0.00053   0.00063   0.00010   0.00018  -0.00114
  22        2PY        -0.00022  -0.00074   0.00029  -0.00116   0.00068
  23        2PZ        -0.00041  -0.00106   0.00008   0.00003  -0.00027
  24        3S          0.02779   0.03644  -0.00488  -0.09440   0.00487
  25        3PX        -0.00570   0.01131  -0.00012  -0.00011   0.00205
  26        3PY        -0.01364  -0.01568   0.00281   0.01391  -0.00448
  27        3PZ         0.00658   0.00301  -0.00069   0.00091   0.00112
  28 4   C  1S          0.00481   0.98767   0.04256   0.01029   0.00058
  29        2S          0.00066   0.10641   0.00134  -0.00151  -0.00102
  30        2PX         0.00047  -0.00114  -0.00077  -0.00072   0.00020
  31        2PY         0.00002  -0.00046  -0.00032   0.00039  -0.00008
  32        2PZ        -0.00001   0.00346   0.00012   0.00015   0.00002
  33        3S         -0.00951  -0.10616   0.02214   0.02423   0.01168
  34        3PX         0.00338   0.01174  -0.00945  -0.01081   0.01145
  35        3PY         0.00036   0.00308  -0.00845   0.00891   0.00042
  36        3PZ        -0.00314  -0.02819   0.00448   0.00518   0.00504
  37 5   H  1S         -0.00216  -0.00246   0.00061   0.00023  -0.00064
  38        2S         -0.00033  -0.00304   0.01431  -0.00030   0.00092
  39 6   H  1S          0.00084   0.00098  -0.00203  -0.00159   0.00067
  40        2S          0.01492   0.00034   0.00033   0.00060   0.00054
  41 7   H  1S         -0.00220  -0.00256   0.00036   0.00046  -0.00122
  42        2S         -0.00049  -0.00343  -0.00038   0.01442   0.00142
  43 8   C  1S          0.00120  -0.00110  -0.00277  -0.00442   0.98722
  44        2S          0.00080  -0.00300  -0.00142  -0.00211   0.09793
  45        2PX        -0.00041  -0.00102   0.00144   0.00101  -0.00169
  46        2PY         0.00003   0.00028   0.00047  -0.00032   0.00206
  47        2PZ        -0.00002  -0.00065   0.00028   0.00027   0.00071
  48        3S         -0.00054   0.02772  -0.00037   0.00294  -0.06875
  49        3PX         0.00034  -0.01612  -0.00264  -0.00127   0.00871
  50        3PY        -0.00018   0.00024  -0.00118  -0.00005  -0.00889
  51        3PZ        -0.00017  -0.00182  -0.00061  -0.00123  -0.00107
  52 9   H  1S         -0.00002  -0.00120  -0.00006  -0.00018  -0.00052
  53        2S          0.00026   0.00161   0.00258  -0.00050   0.01539
  54 10  H  1S          0.00022  -0.00230  -0.00061  -0.00038  -0.00048
  55        2S         -0.00009  -0.00242   0.00073   0.00013   0.01499
  56 11  H  1S         -0.00110  -0.00104  -0.00021   0.00026   0.00009
  57        2S          0.00374   0.00393   0.00004   0.01396   0.00160
                           6         7         8         9        10
                           O         O         O         O         O
     Eigenvalues --    -1.16993  -0.95763  -0.92230  -0.81513  -0.70140
   1 1   C  1S         -0.10172   0.01775   0.14280   0.04897  -0.08978
   2        2S          0.10793  -0.01247  -0.13431  -0.04737   0.08122
   3        2PX         0.00910   0.06922  -0.00965  -0.09775   0.03408
   4        2PY         0.07716  -0.01670  -0.01341  -0.02381  -0.19404
   5        2PZ         0.02269  -0.02370  -0.04784   0.05139   0.10782
   6        3S          0.18796  -0.07374  -0.43807  -0.16512   0.39238
   7        3PX         0.00178   0.00117  -0.01679  -0.03311   0.03884
   8        3PY         0.02640  -0.02158  -0.03802  -0.02305  -0.09231
   9        3PZ         0.01539  -0.00783  -0.05228   0.00754   0.11278
  10 2   C  1S         -0.10601   0.10136   0.03239  -0.12919   0.05827
  11        2S          0.10863  -0.09830  -0.02806   0.11821  -0.05183
  12        2PX         0.07967  -0.03074  -0.01498  -0.03275  -0.02434
  13        2PY         0.00419  -0.00642   0.11889   0.00144  -0.03357
  14        2PZ        -0.01726  -0.01275  -0.00155   0.10621   0.01512
  15        3S          0.22060  -0.28442  -0.11495   0.46912  -0.25010
  16        3PX         0.04144  -0.03537  -0.02520   0.03425  -0.04819
  17        3PY        -0.00421   0.00238   0.01668  -0.00273  -0.01485
  18        3PZ         0.00988  -0.01056   0.00141   0.07028  -0.00963
  19 3   C  1S         -0.12202   0.03927  -0.15675   0.02445  -0.05248
  20        2S          0.12222  -0.03247   0.13971  -0.02168   0.04869
  21        2PX         0.00204   0.07613   0.01178  -0.07345   0.01070
  22        2PY        -0.07122   0.00929   0.05917   0.00416   0.20880
  23        2PZ         0.00046  -0.01506   0.00621   0.08319   0.06806
  24        3S          0.26488  -0.14229   0.55070  -0.08296   0.25115
  25        3PX        -0.00785   0.00834   0.00493  -0.01661   0.02361
  26        3PY        -0.01915   0.02468  -0.01839   0.00835   0.11127
  27        3PZ        -0.01146  -0.00203   0.00525   0.03841   0.07645
  28 4   C  1S         -0.11412  -0.10336   0.00638   0.09008   0.07804
  29        2S          0.11035   0.09077  -0.00310  -0.07831  -0.06424
  30        2PX        -0.06053   0.09211   0.01213   0.10973   0.04610
  31        2PY         0.00298  -0.00945   0.11861   0.01301  -0.03405
  32        2PZ         0.04561   0.05973  -0.00240   0.01809   0.00212
  33        3S          0.25627   0.33484  -0.03616  -0.32595  -0.34000
  34        3PX        -0.02608  -0.00796   0.01519   0.07193   0.04521
  35        3PY        -0.00682  -0.00929   0.01401   0.00178  -0.01394
  36        3PZ         0.05149   0.06588  -0.01024  -0.03087  -0.05673
  37 5   H  1S          0.04052  -0.00165  -0.09984  -0.02128   0.19844
  38        2S         -0.00504   0.00487  -0.02126  -0.00051   0.12422
  39 6   H  1S          0.04077  -0.06476  -0.02534   0.14857  -0.03107
  40        2S         -0.01067  -0.01246  -0.00950   0.06891  -0.00173
  41 7   H  1S          0.05470  -0.01314   0.11725   0.01139   0.13671
  42        2S         -0.00300   0.00144   0.02872   0.00849   0.07909
  43 8   C  1S         -0.03773  -0.16050  -0.00277  -0.10822  -0.00989
  44        2S          0.04454   0.16080   0.00176   0.10001   0.00618
  45        2PX        -0.03615  -0.05623   0.00721   0.03927   0.02025
  46        2PY         0.00850   0.04320   0.02104   0.04442  -0.00752
  47        2PZ        -0.00515   0.00365   0.00160   0.05539   0.04681
  48        3S          0.05464   0.41661   0.00938   0.36303   0.07185
  49        3PX         0.01519  -0.02606  -0.00386  -0.02334  -0.01921
  50        3PY         0.01484   0.04576   0.01032   0.03521  -0.00359
  51        3PZ        -0.00072   0.00993   0.00427   0.04447   0.03551
  52 9   H  1S          0.01562   0.09809   0.01071   0.10062   0.00817
  53        2S         -0.01175   0.00998   0.01034   0.04567   0.00944
  54 10  H  1S          0.02486   0.10545  -0.00048   0.09479   0.03556
  55        2S          0.00430   0.02089  -0.00134   0.03148   0.02391
  56 11  H  1S          0.04555  -0.02609   0.11019  -0.03356   0.09386
  57        2S         -0.01784  -0.00706   0.02818  -0.01240   0.07226
                          11        12        13        14        15
                           O         O         O         O         O
     Eigenvalues --    -0.65234  -0.60321  -0.56759  -0.52379  -0.49442
   1 1   C  1S          0.03289   0.01188  -0.02298   0.02066  -0.03765
   2        2S         -0.02755  -0.00797   0.01854  -0.01867   0.03432
   3        2PX         0.08217   0.03794  -0.14916  -0.12364  -0.09252
   4        2PY        -0.02943  -0.10059  -0.00393  -0.01995   0.21361
   5        2PZ         0.02744   0.00099   0.05513   0.09562  -0.14705
   6        3S         -0.14600  -0.05534   0.10088  -0.09965   0.15756
   7        3PX         0.04461   0.00809  -0.09633  -0.09575  -0.08501
   8        3PY        -0.03879  -0.07844   0.00102  -0.02643   0.18773
   9        3PZ         0.01715  -0.02367   0.04247   0.08077  -0.13759
  10 2   C  1S          0.00805  -0.02379   0.00673   0.01066  -0.00671
  11        2S         -0.00915   0.02273  -0.00761  -0.01138   0.00423
  12        2PX        -0.04613  -0.15222   0.04595  -0.03439  -0.06358
  13        2PY         0.00302  -0.01715  -0.14438  -0.19396  -0.23174
  14        2PZ         0.18088   0.13928  -0.05042   0.07485  -0.01933
  15        3S         -0.00494   0.12354  -0.02727  -0.02981   0.04584
  16        3PX        -0.01952  -0.09950   0.03289  -0.01609  -0.04863
  17        3PY         0.00281  -0.01166  -0.10629  -0.15345  -0.17102
  18        3PZ         0.13032   0.11899  -0.04650   0.07429  -0.02693
  19 3   C  1S          0.01256   0.01306  -0.00177  -0.00022   0.02734
  20        2S         -0.00786  -0.00782  -0.00019   0.00079  -0.01751
  21        2PX         0.14532  -0.03011   0.15359   0.20664   0.07292
  22        2PY        -0.02460   0.12406  -0.02925  -0.01361   0.26832
  23        2PZ         0.23381  -0.20279   0.04664  -0.16847   0.05843
  24        3S         -0.08755  -0.06464   0.02105  -0.01663  -0.14413
  25        3PX         0.10409  -0.05268   0.13686   0.16743   0.05963
  26        3PY        -0.01517   0.12781  -0.02808  -0.00892   0.25928
  27        3PZ         0.20235  -0.21082   0.05038  -0.14461   0.04655
  28 4   C  1S         -0.06133  -0.06574   0.00886  -0.00942  -0.00748
  29        2S          0.04958   0.06095  -0.00134   0.00500   0.00588
  30        2PX         0.07010   0.12575  -0.00093  -0.07417   0.00767
  31        2PY        -0.00826   0.01289   0.16245   0.22679  -0.15301
  32        2PZ         0.07588  -0.04561  -0.01770   0.03616  -0.05534
  33        3S          0.28369   0.29027  -0.07264   0.05660   0.04589
  34        3PX         0.02463   0.08828   0.00402  -0.07645  -0.00208
  35        3PY        -0.00057   0.00750   0.12392   0.17012  -0.11367
  36        3PZ         0.08888  -0.00547  -0.04112   0.04295  -0.04752
  37 5   H  1S          0.00860   0.04397   0.01243   0.01458  -0.17303
  38        2S          0.00834   0.05045   0.00104   0.01963  -0.17663
  39 6   H  1S          0.10950   0.14294  -0.04033   0.06652   0.02631
  40        2S          0.09018   0.12391  -0.03864   0.06691   0.03487
  41 7   H  1S          0.13872  -0.09814   0.05553  -0.05720   0.13199
  42        2S          0.09755  -0.05785   0.03987  -0.04662   0.14475
  43 8   C  1S          0.04887   0.00453   0.00836   0.01877  -0.00899
  44        2S         -0.04367  -0.00545  -0.01051  -0.01804   0.00671
  45        2PX        -0.12220  -0.03386   0.13990  -0.07566  -0.00842
  46        2PY        -0.03978   0.01996   0.20379  -0.05729  -0.05251
  47        2PZ        -0.08236  -0.18362  -0.15166   0.17379   0.01033
  48        3S         -0.20197  -0.04122  -0.00659  -0.06879   0.04025
  49        3PX        -0.05375  -0.00533   0.08872  -0.06391  -0.00493
  50        3PY        -0.03114   0.00436   0.15800  -0.04309  -0.03653
  51        3PZ        -0.05083  -0.12474  -0.10667   0.12868   0.00259
  52 9   H  1S         -0.09724   0.01005   0.18033  -0.10355  -0.02768
  53        2S         -0.07092   0.00940   0.16404  -0.09967  -0.02687
  54 10  H  1S         -0.06800  -0.12749  -0.15992   0.12973   0.02312
  55        2S         -0.04111  -0.11222  -0.15742   0.13812   0.02346
  56 11  H  1S         -0.14864   0.14193  -0.06791   0.03511   0.05970
  57        2S         -0.08652   0.09092  -0.05426   0.03089   0.06526
                          16        17        18        19        20
                           O         O         O         V         V
     Eigenvalues --    -0.47454  -0.36160  -0.27007   0.02126   0.06988
   1 1   C  1S          0.01659   0.01311  -0.02756  -0.02638  -0.04903
   2        2S         -0.01464  -0.01612   0.02678   0.02662   0.06143
   3        2PX        -0.20319   0.08881   0.06569  -0.11409  -0.08190
   4        2PY        -0.00888   0.21455  -0.01667  -0.05347  -0.11360
   5        2PZ         0.11131   0.18087  -0.10388  -0.08346  -0.22741
   6        3S         -0.08005  -0.05060   0.13383   0.09596   0.14361
   7        3PX        -0.16062   0.13649   0.00862  -0.10392  -0.14822
   8        3PY        -0.01659   0.22350  -0.04613  -0.14254  -0.34469
   9        3PZ         0.08584   0.25882  -0.11462  -0.15336  -0.39404
  10 2   C  1S         -0.03772   0.03391  -0.01448   0.03124   0.04609
  11        2S          0.03327  -0.03655   0.01696  -0.03675  -0.04721
  12        2PX         0.09691   0.18107  -0.15785   0.23874   0.08326
  13        2PY        -0.04965  -0.09938   0.05530   0.01165   0.00941
  14        2PZ        -0.19406   0.11560  -0.05765   0.12444   0.11500
  15        3S          0.17609  -0.14405   0.07359  -0.09969  -0.20519
  16        3PX         0.09248   0.23929  -0.21453   0.46440   0.21398
  17        3PY        -0.04608  -0.07242   0.08414  -0.00019  -0.06349
  18        3PZ        -0.17143   0.17028  -0.10601   0.18947   0.10545
  19 3   C  1S          0.00073   0.00574   0.02294   0.01415  -0.04759
  20        2S          0.00100   0.00899  -0.01167  -0.00411   0.04436
  21        2PX        -0.08355  -0.06418  -0.01623  -0.15500   0.04045
  22        2PY         0.01181   0.08477   0.04111   0.00586  -0.08216
  23        2PZ         0.02035  -0.06995  -0.02470   0.03303  -0.03819
  24        3S         -0.00811  -0.12066  -0.19960  -0.15796   0.27994
  25        3PX        -0.07312  -0.05305  -0.04214  -0.14074   0.07436
  26        3PY         0.01935   0.11562   0.08852   0.03007  -0.09127
  27        3PZ         0.01318  -0.05212   0.00827   0.05973   0.02947
  28 4   C  1S          0.00886   0.02745   0.00828  -0.01734   0.05671
  29        2S         -0.00998  -0.03002  -0.01639   0.02049  -0.06381
  30        2PX         0.28595  -0.02298  -0.00669   0.12852  -0.01439
  31        2PY         0.03921  -0.13548  -0.04328   0.02791   0.02556
  32        2PZ         0.11310   0.15627   0.22157  -0.18161   0.22073
  33        3S         -0.02634  -0.12409   0.01297   0.06378  -0.20717
  34        3PX         0.24533  -0.01732  -0.11474   0.05846  -0.07306
  35        3PY         0.03002  -0.09048  -0.01442   0.05250  -0.06735
  36        3PZ         0.11257   0.21570   0.32650  -0.34486   0.39765
  37 5   H  1S         -0.00070  -0.04026  -0.01620  -0.03109  -0.08037
  38        2S         -0.00213  -0.11103  -0.06300  -0.07838  -0.19402
  39 6   H  1S         -0.13215   0.02074   0.00370   0.03157   0.07003
  40        2S         -0.15552  -0.00276   0.02803   0.06127   0.18001
  41 7   H  1S         -0.00924  -0.04758  -0.02620  -0.03079  -0.05184
  42        2S         -0.02018  -0.06941  -0.00888  -0.00921  -0.26494
  43 8   C  1S         -0.01839   0.00390   0.04129   0.02531  -0.05351
  44        2S          0.01511   0.00458  -0.04166  -0.02999   0.04495
  45        2PX        -0.21638  -0.00316  -0.18277  -0.13132   0.01090
  46        2PY        -0.07931   0.07452   0.26643   0.14612  -0.09735
  47        2PZ        -0.12753  -0.04182   0.07176   0.07033  -0.07738
  48        3S          0.05011  -0.05828  -0.17214  -0.06227   0.32195
  49        3PX        -0.16267   0.01013  -0.24776  -0.25609   0.09736
  50        3PY        -0.06830   0.08121   0.37635   0.28632  -0.14151
  51        3PZ        -0.07982  -0.01787   0.14775   0.04819  -0.06384
  52 9   H  1S         -0.12028   0.06170   0.05064  -0.01329  -0.01253
  53        2S         -0.13809   0.06910   0.04909  -0.06828  -0.09719
  54 10  H  1S         -0.03692  -0.05549  -0.00516   0.07130  -0.04974
  55        2S         -0.05709  -0.07242  -0.08196   0.16179  -0.21692
  56 11  H  1S          0.01555   0.12497   0.02585   0.02311   0.05095
  57        2S          0.01466   0.16251   0.05177   0.06757   0.06946
                          21        22        23        24        25
                           V         V         V         V         V
     Eigenvalues --     0.24271   0.29438   0.31519   0.32639   0.34154
   1 1   C  1S          0.04868  -0.00088   0.08540   0.09924  -0.00261
   2        2S         -0.02354  -0.00764  -0.02028  -0.04803   0.00137
   3        2PX        -0.04465   0.10785   0.03631  -0.03346   0.07516
   4        2PY         0.07266  -0.01870   0.03414  -0.09215  -0.19347
   5        2PZ        -0.07645  -0.08807  -0.09155  -0.02535   0.11873
   6        3S         -0.62379   0.05482  -1.13511  -1.13389   0.16857
   7        3PX        -0.17601   0.59860   0.16002  -0.25879   0.27574
   8        3PY         0.27372   0.00308   0.01649  -0.43118  -0.76577
   9        3PZ        -0.25202  -0.34631  -0.46849  -0.09652   0.43113
  10 2   C  1S          0.07243  -0.10805  -0.03396   0.01284  -0.00764
  11        2S         -0.03395   0.02600   0.01924  -0.00990   0.01298
  12        2PX         0.03807   0.08106   0.04327  -0.07216   0.00243
  13        2PY        -0.00048   0.02976  -0.09534  -0.16126  -0.08165
  14        2PZ        -0.14703   0.00336  -0.03077   0.05609  -0.01649
  15        3S         -0.92976   1.33882   0.44062  -0.19020   0.05831
  16        3PX         0.14290   0.46766   0.26392  -0.37065   0.01067
  17        3PY         0.00510   0.12601  -0.55450  -0.79259  -0.42517
  18        3PZ        -0.55309   0.00467  -0.02950   0.14978   0.00945
  19 3   C  1S          0.03991   0.04336  -0.13077  -0.03164  -0.02963
  20        2S         -0.01193  -0.01245   0.04304   0.00178   0.01120
  21        2PX        -0.03808   0.14998  -0.00955  -0.03330  -0.07456
  22        2PY        -0.07100  -0.05398   0.09170  -0.17597  -0.11793
  23        2PZ        -0.08638  -0.04785  -0.04358   0.13294  -0.20287
  24        3S         -0.62865  -0.64534   1.83671   0.36658   0.31707
  25        3PX        -0.18761   0.84225   0.07527  -0.14057  -0.29006
  26        3PY        -0.34358  -0.24192   0.40033  -0.95480  -0.55585
  27        3PZ        -0.29961  -0.20241  -0.36274   0.66939  -1.01726
  28 4   C  1S          0.02610   0.08840   0.03370  -0.04727   0.01720
  29        2S         -0.01883  -0.03587  -0.00183   0.01555   0.00481
  30        2PX        -0.03101   0.11469   0.03038  -0.04558   0.01097
  31        2PY        -0.01884  -0.01356  -0.10700  -0.14150  -0.09010
  32        2PZ         0.02847  -0.00169  -0.04362   0.00775  -0.03457
  33        3S         -0.28769  -1.06437  -0.42824   0.49828  -0.26623
  34        3PX        -0.14999   0.51911   0.12238  -0.17775   0.07065
  35        3PY        -0.03246   0.04839  -0.41887  -0.58964  -0.46745
  36        3PZ         0.04855  -0.16388  -0.08279  -0.02369  -0.10276
  37 5   H  1S          0.03345  -0.02498   0.00410  -0.03261  -0.02209
  38        2S          0.82258   0.00970   0.78690   0.31097  -1.16534
  39 6   H  1S          0.04625   0.00985   0.03139  -0.04139   0.01124
  40        2S          1.17739  -0.43362  -0.04354  -0.38760  -0.04097
  41 7   H  1S          0.03872  -0.02432   0.01671   0.01088   0.04991
  42        2S          0.89735   0.24280  -0.67658  -0.25491   1.32083
  43 8   C  1S         -0.00080   0.06684   0.00743   0.04053  -0.01416
  44        2S          0.00459  -0.03188  -0.00723  -0.01703  -0.00268
  45        2PX        -0.05153  -0.02026  -0.07920   0.00696  -0.02634
  46        2PY        -0.00627  -0.05196   0.03110   0.02520  -0.01736
  47        2PZ        -0.10330  -0.06972   0.02733  -0.01387   0.01806
  48        3S         -0.09631  -0.90475  -0.09336  -0.45500   0.20351
  49        3PX        -0.18083  -0.19492  -0.28577   0.04209  -0.09612
  50        3PY        -0.04712  -0.29625  -0.02771   0.03512   0.10741
  51        3PZ        -0.32302  -0.26427   0.10919  -0.08367   0.11860
  52 9   H  1S          0.01040  -0.01016   0.04426   0.04360  -0.00264
  53        2S          0.14250   0.67826   0.34610   0.23688  -0.00761
  54 10  H  1S         -0.03841  -0.00332   0.00897  -0.01236   0.00170
  55        2S          0.30150   0.63687  -0.13881   0.29598  -0.22276
  56 11  H  1S         -0.00004   0.02223  -0.00590   0.07050   0.00822
  57        2S          0.13231   0.60445  -1.32233   1.15019  -0.69015
                          26        27        28        29        30
                           V         V         V         V         V
     Eigenvalues --     0.34900   0.37000   0.38495   0.46285   0.47659
   1 1   C  1S          0.05225   0.01555  -0.01626   0.00420   0.06879
   2        2S         -0.01461  -0.00763  -0.02460   0.00422   0.01573
   3        2PX         0.05769  -0.14361   0.00522   0.21923  -0.05543
   4        2PY         0.02601   0.02400  -0.06949   0.00296   0.01219
   5        2PZ        -0.03802  -0.01296   0.08497  -0.10837  -0.02672
   6        3S         -0.70384  -0.22072   0.46157  -0.09389  -1.23537
   7        3PX         0.24816  -0.46643   0.22328   1.04363  -0.48935
   8        3PY         0.01493   0.07975  -0.19290  -0.02192  -0.40143
   9        3PZ        -0.29232  -0.12841   0.37728  -0.52893  -0.32582
  10 2   C  1S         -0.06570  -0.01263   0.03852  -0.01921  -0.04989
  11        2S          0.02330  -0.01462  -0.00106   0.00334   0.00157
  12        2PX         0.05673  -0.02815   0.08152   0.02183   0.07623
  13        2PY        -0.02589   0.04445   0.01824  -0.24403   0.07075
  14        2PZ         0.02830   0.15097  -0.18872  -0.03962  -0.05087
  15        3S          0.84742   0.38693  -0.67456   0.29225   0.86345
  16        3PX         0.29051  -0.02970   0.12197   0.17349   0.65461
  17        3PY        -0.08289   0.22647   0.10023  -0.99960   0.23105
  18        3PZ         0.03168   0.62459  -0.88614  -0.17179  -0.10238
  19 3   C  1S          0.04704   0.05426  -0.01824   0.03066   0.05116
  20        2S         -0.01891  -0.00590  -0.00817  -0.00040   0.00624
  21        2PX         0.06294  -0.06537   0.05349  -0.20500   0.02765
  22        2PY        -0.04683  -0.00280  -0.02803  -0.00974   0.00845
  23        2PZ         0.02115  -0.04834   0.13060   0.06401  -0.09273
  24        3S         -0.66293  -0.85415   0.32852  -0.51351  -0.90276
  25        3PX         0.38557  -0.34551   0.45232  -1.09877   0.07997
  26        3PY        -0.21308   0.28448  -0.16629   0.17799   0.49114
  27        3PZ        -0.01434  -0.33203   0.62645   0.25948  -0.55969
  28 4   C  1S          0.04767  -0.03756   0.00329  -0.03004  -0.13922
  29        2S         -0.00518   0.00092   0.01218  -0.00361   0.02550
  30        2PX        -0.02112  -0.10817   0.09282   0.05309   0.18795
  31        2PY        -0.01242   0.01945  -0.03750   0.30165  -0.09783
  32        2PZ        -0.07054   0.01938  -0.04379   0.07064   0.12402
  33        3S         -0.66963   0.54919  -0.15866   0.55300   2.24818
  34        3PX        -0.22180  -0.41270   0.35444   0.27601   0.71839
  35        3PY        -0.09961   0.20789  -0.02020   1.23258  -0.56335
  36        3PZ        -0.39106   0.13465  -0.36751   0.41128   0.97939
  37 5   H  1S          0.05698  -0.00917  -0.00426  -0.01661  -0.03011
  38        2S          0.54575   0.36531  -0.64450   0.05858   0.54996
  39 6   H  1S          0.02965  -0.00141   0.00255   0.00996   0.00837
  40        2S         -0.35526  -0.80587   1.24817   0.00192   0.02929
  41 7   H  1S          0.04981  -0.01072   0.00355  -0.00673  -0.04996
  42        2S          0.29999   0.65214  -0.76815   0.28009   0.57497
  43 8   C  1S         -0.13067   0.01482   0.01887   0.02289   0.07964
  44        2S          0.01334   0.00483  -0.02120   0.00535  -0.00573
  45        2PX        -0.00859  -0.14995  -0.04951   0.02832   0.13901
  46        2PY         0.06943  -0.17200  -0.10019  -0.01443   0.01801
  47        2PZ         0.11252   0.07154   0.19026   0.04825   0.11691
  48        3S          1.96919  -0.32846  -0.08647  -0.40564  -1.15427
  49        3PX        -0.27743  -0.62993  -0.35431   0.25732   1.29348
  50        3PY         0.35124  -0.78217  -0.48072  -0.35997   0.13119
  51        3PZ         0.51046   0.39233   0.76990   0.26243   0.83890
  52 9   H  1S          0.00296   0.02459   0.01043  -0.02749  -0.05281
  53        2S         -0.86645   1.45105   0.93111   0.19620  -0.26960
  54 10  H  1S         -0.02510  -0.03496   0.00481  -0.01592  -0.06076
  55        2S         -1.41697  -0.73244  -0.99215  -0.15823  -0.17451
  56 11  H  1S         -0.00392  -0.03138  -0.02180  -0.01865   0.01393
  57        2S          0.58137  -0.20193   0.59262  -0.04061  -0.24869
                          31        32        33        34        35
                           V         V         V         V         V
     Eigenvalues --     0.61339   0.91003   0.93622   0.94886   0.95803
   1 1   C  1S          0.10156   0.01027  -0.00108  -0.00369  -0.01488
   2        2S         -0.01280   0.09368   0.00125  -0.00127   0.01469
   3        2PX         0.05328   0.29493  -0.51432  -0.00825  -0.29757
   4        2PY        -0.17133  -0.04104  -0.17683  -0.30246  -0.42209
   5        2PZ         0.08103   0.17160   0.24990  -0.18308  -0.21817
   6        3S         -1.98020  -0.38598   0.13375   0.26100   0.24281
   7        3PX         0.09035  -0.37834   0.54496  -0.09365   0.30656
   8        3PY        -1.76443   0.12588   0.16717   0.67835   0.70190
   9        3PZ         0.17797  -0.19771  -0.23338   0.05886   0.13211
  10 2   C  1S         -0.09981   0.01449   0.00432   0.01401   0.00074
  11        2S          0.00337   0.02891   0.03750  -0.03308   0.01339
  12        2PX         0.05348  -0.04770  -0.13514   0.32268  -0.52221
  13        2PY         0.00899   0.03519  -0.34501  -0.38216  -0.01099
  14        2PZ        -0.12063   0.31864   0.12643   0.02900  -0.07456
  15        3S          1.98172  -0.07168  -0.10061  -0.09925   0.20425
  16        3PX         1.43296   0.24249   0.17954  -0.36778   0.58037
  17        3PY         0.01060  -0.01303   0.31323   0.34512   0.04563
  18        3PZ        -0.92432  -0.38419  -0.22280   0.13466  -0.12793
  19 3   C  1S          0.08511  -0.00600   0.00226  -0.03316  -0.01618
  20        2S          0.01161   0.08461   0.05329   0.09618   0.03654
  21        2PX         0.05214  -0.05352   0.31179   0.34570  -0.43563
  22        2PY         0.08699  -0.04444   0.20038  -0.64461  -0.27973
  23        2PZ         0.06154   0.31807   0.02870  -0.16234   0.10801
  24        3S         -1.85000  -0.21820  -0.26008  -0.04063   0.01964
  25        3PX         0.12116  -0.03503  -0.38541  -0.37505   0.49351
  26        3PY         1.77218   0.09109  -0.32168   1.11448   0.56989
  27        3PZ         0.48877  -0.50359  -0.13980   0.11827  -0.01411
  28 4   C  1S         -0.07966   0.00096  -0.01755   0.01193  -0.00177
  29        2S         -0.00678   0.01075   0.08115  -0.06075   0.06360
  30        2PX        -0.26430   0.10204   0.14939   0.10103  -0.17318
  31        2PY         0.00778  -0.16466   0.14879  -0.13815  -0.24010
  32        2PZ        -0.02493   0.20966   0.16117  -0.15152   0.28670
  33        3S          1.75580   0.30819  -0.20700   0.45762  -0.66413
  34        3PX        -1.97514  -0.01242   0.07625  -0.11770   0.33970
  35        3PY        -0.02314  -0.05190   0.08510   0.11537   0.25288
  36        3PZ         0.30616   0.13238  -0.11934   0.31520  -0.43588
  37 5   H  1S         -0.02797   0.38444   0.09763   0.16382   0.13570
  38        2S         -0.60453   0.01163  -0.10092   0.14254   0.01833
  39 6   H  1S          0.03707   0.43932   0.28891  -0.08197   0.17345
  40        2S          0.45409  -0.07944  -0.03708  -0.04260   0.01090
  41 7   H  1S         -0.04723   0.31141   0.28673  -0.23676  -0.16605
  42        2S         -0.53914   0.00011   0.03380  -0.07263  -0.13863
  43 8   C  1S         -0.01998   0.00349   0.02794   0.00669  -0.00230
  44        2S          0.03106   0.04899  -0.04202   0.06338  -0.05852
  45        2PX        -0.04651  -0.37027   0.00375  -0.18209   0.33322
  46        2PY         0.01018  -0.16325   0.36108   0.09895  -0.06736
  47        2PZ        -0.09347  -0.04256  -0.10442   0.03744   0.05769
  48        3S          0.31217  -0.19781  -0.11972  -0.22184   0.22248
  49        3PX        -0.24889   0.59811  -0.10505   0.28042  -0.37128
  50        3PY         0.07876   0.31023  -0.48487  -0.01600   0.03311
  51        3PZ        -0.78454  -0.10136   0.30716  -0.14591   0.04663
  52 9   H  1S          0.05568  -0.27944   0.30340   0.01367  -0.00369
  53        2S         -0.05750   0.01481   0.04919  -0.06127  -0.05640
  54 10  H  1S          0.03354   0.20480  -0.15880   0.14112  -0.05900
  55        2S          0.58522   0.10845   0.04565   0.06210  -0.06063
  56 11  H  1S         -0.11488  -0.16031  -0.01949  -0.29184  -0.08395
  57        2S         -0.03673  -0.02995   0.02579  -0.19828  -0.10013
                          36        37        38        39        40
                           V         V         V         V         V
     Eigenvalues --     0.98065   1.00680   1.01264   1.03507   1.05859
   1 1   C  1S         -0.00518  -0.03926  -0.02769   0.02317   0.01121
   2        2S          0.00921   0.19198  -0.02371  -0.08801  -0.03574
   3        2PX         0.09040   0.07209  -0.07451  -0.08831  -0.17235
   4        2PY        -0.48740   0.14068   0.18052   0.29861  -0.05669
   5        2PZ        -0.33382  -0.01795   0.14907   0.56673  -0.00842
   6        3S          0.19364  -0.51612   0.06145  -0.09186   0.46590
   7        3PX        -0.13335  -0.10023   0.31810   0.01306   0.24614
   8        3PY         0.63267  -0.18671  -0.19715  -0.35481   0.16487
   9        3PZ         0.30763  -0.10869   0.00280  -0.53909  -0.02930
  10 2   C  1S         -0.01212  -0.00199   0.04044   0.03194  -0.01538
  11        2S          0.08854   0.02494  -0.15790  -0.15049   0.03200
  12        2PX         0.33721  -0.67856   0.23007   0.03059   0.07809
  13        2PY         0.11308   0.16201   0.49886  -0.42090  -0.11724
  14        2PZ         0.04840  -0.20355   0.20222  -0.00441  -0.26193
  15        3S         -0.43342   0.28395   0.35359   0.49425   0.03361
  16        3PX        -0.54333   0.79887  -0.22290  -0.02709  -0.23340
  17        3PY        -0.06166  -0.17683  -0.61897   0.51593   0.13817
  18        3PZ         0.08973   0.10773  -0.11716   0.02575   0.44962
  19 3   C  1S          0.01701  -0.01956  -0.00850  -0.03854   0.00217
  20        2S         -0.03605   0.14598  -0.00349   0.03278  -0.02970
  21        2PX        -0.14614   0.11944  -0.24625  -0.32586  -0.19564
  22        2PY         0.25077  -0.29001  -0.35636  -0.16545   0.13471
  23        2PZ         0.10814   0.04476   0.22885   0.02414   0.01399
  24        3S          0.07080  -0.41592   0.18048   0.04276   0.18146
  25        3PX         0.15831  -0.19394   0.02856   0.61960   0.31897
  26        3PY        -0.25241   0.46440   0.62287   0.30287  -0.41563
  27        3PZ        -0.04408  -0.17818  -0.41842   0.16622  -0.00800
  28 4   C  1S         -0.02408   0.01571   0.01554   0.01747   0.03176
  29        2S          0.10748  -0.04589  -0.10340  -0.09368  -0.14206
  30        2PX         0.24663   0.16427   0.12100   0.10509  -0.45325
  31        2PY        -0.06003   0.13025  -0.06260   0.00283  -0.19157
  32        2PZ        -0.23200  -0.58083   0.09828  -0.05097   0.21452
  33        3S         -0.16042   0.67207   0.10113   0.01552  -0.02412
  34        3PX        -0.30767  -0.00539  -0.18412  -0.31105   0.66154
  35        3PY         0.07016  -0.12060   0.31161  -0.24702   0.23179
  36        3PZ         0.01896   0.64710  -0.03017  -0.06098  -0.29059
  37 5   H  1S          0.15221  -0.05281  -0.34182   0.05348  -0.01921
  38        2S         -0.05597   0.03800   0.00376   0.05587   0.00878
  39 6   H  1S         -0.03819   0.11536   0.01700  -0.00886  -0.23974
  40        2S         -0.05356  -0.05869  -0.02748   0.01036  -0.05289
  41 7   H  1S          0.06784   0.00265   0.07370  -0.32382  -0.05089
  42        2S         -0.06364   0.03076   0.01700  -0.17464   0.07173
  43 8   C  1S         -0.02325  -0.01441   0.01563  -0.03079  -0.02272
  44        2S          0.01066   0.08340  -0.04456  -0.00909  -0.08084
  45        2PX         0.00265  -0.35929   0.04781   0.11157  -0.66277
  46        2PY        -0.12196   0.10710   0.45048  -0.31509   0.37374
  47        2PZ        -0.50287  -0.22448  -0.09128  -0.39276  -0.11207
  48        3S          0.32829  -0.24978  -0.01016   0.39837   0.10218
  49        3PX        -0.08589   0.46584  -0.17561  -0.12890   0.79117
  50        3PY        -0.00279  -0.09841  -0.60493   0.39681  -0.21999
  51        3PZ         0.72347   0.39426   0.17199   0.47371   0.42883
  52 9   H  1S          0.07319   0.01927   0.20273  -0.12980  -0.33678
  53        2S         -0.03431  -0.02199   0.05984  -0.09208  -0.03165
  54 10  H  1S         -0.42661  -0.14764  -0.13776  -0.25738  -0.25717
  55        2S         -0.07053  -0.05906   0.06203  -0.04851  -0.06608
  56 11  H  1S          0.07682   0.06294  -0.38161  -0.08192   0.05740
  57        2S          0.01266  -0.11642  -0.10895   0.03310   0.11114
                          41        42        43        44        45
                           V         V         V         V         V
     Eigenvalues --     1.08767   1.09034   1.16162   1.17992   1.19525
   1 1   C  1S         -0.00225   0.00476  -0.00131   0.01871   0.00627
   2        2S         -0.03250   0.03945   0.13885  -0.11293   0.04453
   3        2PX         0.27492  -0.23984  -0.35829   0.07636  -0.55972
   4        2PY         0.26566   0.16717   0.22855  -0.24452   0.19739
   5        2PZ        -0.30193  -0.16885  -0.24538   0.51535   0.02154
   6        3S          0.40157   0.25223  -0.22052   0.24851   0.05849
   7        3PX        -0.21316   0.25140   0.17674   0.02849   1.39203
   8        3PY        -0.76152  -0.44405  -0.41431   0.63707  -0.27676
   9        3PZ         0.58400   0.17786   0.32252  -1.04784  -0.30625
  10 2   C  1S         -0.01310   0.02362   0.00443  -0.00489   0.00442
  11        2S          0.01035  -0.06496   0.09453   0.08839   0.00653
  12        2PX        -0.20678   0.16324   0.23513   0.05441   0.08510
  13        2PY        -0.38878  -0.32310  -0.03610   0.14060   0.44483
  14        2PZ        -0.14408   0.20052  -0.62907  -0.45243   0.00683
  15        3S         -0.00105   0.21363   0.42809  -0.08175   0.06568
  16        3PX         0.28515  -0.08567  -0.44595  -0.38160  -0.06909
  17        3PY         0.53562   0.52099   0.12898  -0.37055  -1.33855
  18        3PZ         0.23004  -0.44559   1.14216   1.04673  -0.16802
  19 3   C  1S         -0.02813   0.00291   0.02208   0.01430  -0.00231
  20        2S          0.08115   0.04690  -0.01045   0.01522  -0.01428
  21        2PX         0.18079  -0.31739  -0.15178  -0.07616   0.48900
  22        2PY         0.14561   0.07770  -0.19258   0.04136  -0.00785
  23        2PZ         0.11951   0.23447   0.38579  -0.03564  -0.09987
  24        3S         -0.63390  -0.49423   0.11431  -0.44918   0.16466
  25        3PX        -0.36819   0.30407   0.16749  -0.28416  -1.31675
  26        3PY        -0.20196  -0.23252   0.18453  -0.05910  -0.12005
  27        3PZ        -0.37846  -0.51144  -0.97966   0.23435   0.30477
  28 4   C  1S          0.02257  -0.04322  -0.02626  -0.03218   0.00368
  29        2S         -0.13548   0.20039   0.15092   0.14094  -0.00258
  30        2PX         0.26742  -0.25412   0.25104   0.39484  -0.19370
  31        2PY        -0.58994  -0.28851   0.28641  -0.50772  -0.49421
  32        2PZ         0.21201  -0.66301   0.15439  -0.15213  -0.05203
[...]
 ! A17   A(4,8,10)             121.58           -DE/DX =    0.0                 !
 ! A18   A(9,8,10)             116.9363         -DE/DX =    0.0                 !
 ! D1    D(4,1,2,3)              0.0041         -DE/DX =    0.0                 !
 ! D2    D(4,1,2,6)           -180.0035         -DE/DX =    0.0                 !
 ! D3    D(5,1,2,3)            180.0299         -DE/DX =    0.0                 !
 ! D4    D(5,1,2,6)              0.0222         -DE/DX =    0.0                 !
 ! D5    D(2,1,4,3)             -0.0041         -DE/DX =    0.0                 !
 ! D6    D(2,1,4,8)            179.9856         -DE/DX =    0.0                 !
 ! D7    D(5,1,4,3)           -180.0293         -DE/DX =    0.0                 !
 ! D8    D(5,1,4,8)             -0.0396         -DE/DX =    0.0                 !
 ! D9    D(1,2,3,4)             -0.004          -DE/DX =    0.0                 !
 ! D10   D(1,2,3,7)           -114.028          -DE/DX =    0.0                 !
 ! D11   D(1,2,3,11)           114.0133         -DE/DX =    0.0                 !
 ! D12   D(6,2,3,4)            180.0035         -DE/DX =    0.0                 !
 ! D13   D(6,2,3,7)             65.9795         -DE/DX =    0.0                 !
 ! D14   D(6,2,3,11)           -65.9793         -DE/DX =    0.0                 !
 ! D15   D(2,3,4,1)              0.0035         -DE/DX =    0.0                 !
 ! D16   D(2,3,4,8)           -179.9865         -DE/DX =    0.0                 !
 ! D17   D(7,3,4,1)            115.0485         -DE/DX =    0.0                 !
 ! D18   D(7,3,4,8)            -64.9415         -DE/DX =    0.0                 !
 ! D19   D(11,3,4,1)          -115.0506         -DE/DX =    0.0                 !
 ! D20   D(11,3,4,8)            64.9594         -DE/DX =    0.0                 !
 ! D21   D(1,4,8,9)           -179.9875         -DE/DX =    0.0                 !
 ! D22   D(1,4,8,10)             0.0174         -DE/DX =    0.0                 !
 ! D23   D(3,4,8,9)             -0.0021         -DE/DX =    0.0                 !
 ! D24   D(3,4,8,10)           180.0028         -DE/DX =    0.0                 !
 --------------------------------------------------------------------------------
 GradGradGradGradGradGradGradGradGradGradGradGradGradGradGradGradGradGrad

 Leave Link  103 at Tue Jun 10 01:42:14 2025, MaxMem=  2013265920 cpu:               0.3 elap:               0.0
 (Enter /home/user/softwares/g16/g16/l9999.exe)

 ----------------------------------------------------------------------

 Electric dipole moment (input orientation):
 (Debye = 10**-18 statcoulomb cm , SI units = C m)
                  (au)            (Debye)         (10**-30 SI)
   Tot        0.198175D+00      0.503711D+00      0.168020D+01
   x          0.152255D+00      0.386994D+00      0.129087D+01
   y         -0.100811D+00     -0.256237D+00     -0.854714D+00
   z          0.769993D-01      0.195713D+00      0.652827D+00

 Dipole polarizability, Alpha (input orientation).
 (esu units = cm**3 , SI units = C**2 m**2 J**-1)
 Alpha(0;0):
               (au)            (10**-24 esu)      (10**-40 SI)
   iso        0.459802D+02      0.681356D+01      0.758111D+01
   aniso      0.452386D+02      0.670367D+01      0.745884D+01
   xx         0.560073D+02      0.829943D+01      0.923436D+01
   yx        -0.101323D+02     -0.150145D+01     -0.167059D+01
   yy         0.532454D+02      0.789015D+01      0.877898D+01
   zx         0.178654D+02      0.264738D+01      0.294560D+01
   zy        -0.584520D+01     -0.866169D+00     -0.963743D+00
   zz         0.286878D+02      0.425109D+01      0.472998D+01

 First dipole hyperpolarizability, Beta (input orientation).
 ||, _|_  parallel and perpendicular components, (z) with respect to z axis,
 vector components x,y,z.  Values do not include the 1/n! factor of 1/2.
 (esu units = statvolt**-1 cm**4 , SI units = C**3 m**3 J**-2)
 Beta(0;0,0):
               (au)            (10**-30 esu)      (10**-50 SI)
   || (z)     0.100693D+02      0.869910D-01      0.322859D-01
   _|_(z)     0.335644D+01      0.289970D-01      0.107620D-01
   x          0.104053D+03      0.898936D+00      0.333631D+00
   y          0.106131D+02      0.916891D-01      0.340295D-01
   z          0.503466D+02      0.434955D+00      0.161429D+00
   ||         0.232159D+02      0.200567D+00      0.744385D-01
   xxx        0.152503D+02      0.131751D+00      0.488979D-01
   xxy       -0.183016D+02     -0.158111D+00     -0.586815D-01
   yxy        0.757253D+01      0.654208D-01      0.242803D-01
   yyy        0.124969D+02      0.107964D+00      0.400697D-01
   xxz       -0.165717D+02     -0.143167D+00     -0.531348D-01
   yxz       -0.168266D+02     -0.145369D+00     -0.539522D-01
   yyz        0.429238D+01      0.370828D-01      0.137629D-01
   zxz        0.118615D+02      0.102474D+00      0.380322D-01
   zyz        0.934234D+01      0.807105D-01      0.299549D-01
   zzz        0.290615D+02      0.251069D+00      0.931817D-01

 ----------------------------------------------------------------------

 Dipole orientation:
     6          2.13975233          1.19114440         -0.77872635
     6          2.59973997          2.39915323          1.38416950
     6          3.52759677          4.85186277          0.09146968
     6          2.95970573          3.35937160         -2.38878056
     1          1.44184336         -0.64755524         -1.22702315
     1          2.40880408          1.89024314          3.32581912
     1          5.49994651          5.30215529          0.37504643
     6          3.14422976          3.85171567         -4.80833188
     1          3.82254399          5.64291442         -5.47620290
     1          2.62434950          2.48365773         -6.21375513
     1          2.34924798          6.49587835          0.37785842

 Electric dipole moment (dipole orientation):
 (Debye = 10**-18 statcoulomb cm , SI units = C m)
                  (au)            (Debye)         (10**-30 SI)
   Tot        0.198175D+00      0.503711D+00      0.168020D+01
   x          0.000000D+00      0.000000D+00      0.000000D+00
   y          0.000000D+00      0.000000D+00      0.000000D+00
   z          0.198175D+00      0.503711D+00      0.168020D+01

 Dipole polarizability, Alpha (dipole orientation).
 (esu units = cm**3 , SI units = C**2 m**2 J**-1)
 Alpha(0;0):
               (au)            (10**-24 esu)      (10**-40 SI)
   iso        0.459802D+02      0.681356D+01      0.758111D+01
   aniso      0.452386D+02      0.670367D+01      0.745884D+01
   xx         0.231298D+02      0.342748D+01      0.381358D+01
   yx         0.868085D+01      0.128637D+01      0.143128D+01
   yy         0.427459D+02      0.633429D+01      0.704785D+01
   zx        -0.155495D+00     -0.230420D-01     -0.256377D-01
   zy        -0.538804D+00     -0.798425D-01     -0.888368D-01
   zz         0.720649D+02      0.106789D+02      0.118819D+02

 First dipole hyperpolarizability, Beta (dipole orientation).
 ||, _|_  parallel and perpendicular components, (z) with respect to z axis,
 vector components x,y,z.  Values do not include the 1/n! factor of 1/2.
 (esu units = statvolt**-1 cm**4 , SI units = C**3 m**3 J**-2)
 Beta(0;0,0):
               (au)            (10**-30 esu)      (10**-50 SI)
   || (z)     0.188210D+02      0.162599D+00      0.603470D-01
   _|_(z)     0.627368D+01      0.541997D-01      0.201157D-01
   x          0.241272D+02      0.208440D+00      0.773606D-01
   y          0.635336D+02      0.548881D+00      0.203712D+00
   z          0.941052D+02      0.812995D+00      0.301735D+00
   ||         0.232159D+02      0.200567D+00      0.744385D-01
   xxx        0.270478D+02      0.233672D+00      0.867250D-01
   xxy        0.169652D+02      0.146566D+00      0.543966D-01
   yxy       -0.165752D+02     -0.143197D+00     -0.531460D-01
   yyy        0.106552D+02      0.920522D-01      0.341643D-01
   xxz        0.108166D+02      0.934473D-01      0.346820D-01
   yxz       -0.113062D+02     -0.976765D-01     -0.362517D-01
   yyz       -0.146249D+02     -0.126348D+00     -0.468928D-01
   zxz       -0.243023D+01     -0.209953D-01     -0.779219D-02
   zyz       -0.644250D+01     -0.556582D-01     -0.206570D-01
   zzz        0.351767D+02      0.303899D+00      0.112789D+00

 ----------------------------------------------------------------------
 1\1\GINC-USER-HP-Z2-G9-WS\Freq\RHF\3-21G\C5H6\USER\10-Jun-2025\0\\#P G
 eom=AllCheck Guess=TCheck SCRF=Check GenChk RHF/3-21G Freq\\Optimisati
 on\\0,1\C,0.5117857813,1.0411874319,-0.7094016642\C,1.7109973911,1.047
 5850667,-0.1265212836\C,1.833035074,2.5898012402,-0.1092901994\C,0.429
 6009915,2.5302749072,-0.7901320103\H,-0.1566600898,0.2662486716,-1.012
 795488\H,2.3665053839,0.2773557782,0.213328468\H,2.6154355779,3.001112
 603,-0.7316465041\C,-0.4246203166,3.4210635313,-1.2300944371\H,-0.2229
 987721,4.4730945424,-1.1610132003\H,-1.3579339873,3.1329297864,-1.6759
 669122\H,1.835851166,3.0450430911,0.8712164011\\Version=EM64L-G16RevB.
 01\State=1-A\HF=-191.6646131\RMSD=2.057e-09\RMSF=3.676e-05\ZeroPoint=0
 .098487\Thermal=0.1028542\Dipole=0.1522551,-0.1008113,0.0769993\Dipole
 Deriv=-0.0881529,0.0844082,0.0542483,0.0899859,0.0014589,0.0380548,0.0
 539934,0.0352765,-0.179397,0.0079729,0.0245354,0.1374561,-0.0119426,-0
 .0235583,-0.0126674,0.1386118,0.0050204,-0.2087646,0.0172209,-0.037671
 3,-0.1238949,0.060912,0.0131244,0.0367465,-0.1266048,-0.0112654,0.2127
 939,0.0606637,-0.0679966,0.064817,-0.1668543,0.2889632,-0.0909265,0.06
 74554,-0.0428256,-0.034707,0.0686709,-0.0737494,-0.0701678,-0.0493016,
 -0.0595236,-0.0163661,-0.0707723,-0.0281919,0.1835904,0.0609485,0.0442
 892,-0.0666402,0.0677121,-0.052227,0.039689,-0.0673474,0.0283609,0.161
 969,-0.0593037,-0.0556824,0.058503,-0.1012901,-0.0015005,0.0146893,0.0
 798567,0.0328857,0.0166027,-0.1374248,0.1494338,0.1211533,0.2042038,-0
 .1011978,0.091192,0.1196462,0.0645929,-0.3386407,0.0556446,-0.0407747,
 -0.0551532,0.0042677,-0.0915282,0.0093114,-0.0563891,-0.0125973,0.1442
 996,-0.0398098,-0.0165564,-0.1090499,-0.0440722,0.0330807,-0.0172392,-
 0.1082626,-0.0038788,0.1328438,0.0535696,-0.0102359,-0.0112718,-0.0536
 207,-0.0070918,-0.092484,-0.0301871,-0.0673774,-0.09059\Polar=56.00732
 07,-10.1322839,53.2453741,17.8653888,-5.8451952,28.6878081\PolarDeriv=
 -12.9612546,4.9601335,-3.1192695,-2.6568177,2.4192646,0.6496343,6.6367
 932,-5.3942427,4.2974276,3.1361764,-2.737019,1.5372919,1.2124012,2.259
 8917,-1.6281352,-7.4190494,1.3103472,-7.4372782,14.1608685,-3.5897394,
 2.5879177,2.9423129,-0.4904829,-0.4675605,1.3043546,-0.0891414,-2.9700
 373,0.9099413,-0.0392771,0.4573016,-1.1643543,-0.1927472,1.1907303,7.6
 60689,-2.8482335,7.9233149,0.0255904,-1.7973689,-1.0437984,3.8079256,0
 .0697042,0.5162695,-2.2620013,-1.3991047,2.082681,0.1458094,-0.8682034
 ,-2.746327,5.1058801,0.0066494,-0.6761423,-2.1283274,-2.0339857,-4.594
 1729,4.7059922,-7.3269802,6.5897423,-0.2527931,-1.5532492,-2.0138788,-
 11.3247404,11.9451618,-9.9948938,-5.972746,5.9760406,-2.3581086,-3.311
 117,-1.520999,3.2311495,4.6198209,-5.3637493,5.2477792,-2.9362753,-2.8
 411369,-3.1731308,-1.2626749,-0.5035554,-0.7916081,-1.4096147,-3.18954
 12,-6.1484092,-0.4177582,-1.4356469,-0.5308929,-1.3825896,-0.4977371,-
 1.4619744,-0.6283736,-1.838292,-0.2832828,4.1454958,-3.1831853,2.97742
 77,1.8741673,-0.9230967,1.0739482,-2.1518677,4.0929068,-6.0171653,-0.9
 978122,2.1068901,-0.8543845,1.8279049,-0.9527728,1.5336568,1.1136397,-
 1.9424353,0.871464,7.12892,2.3114998,1.0720924,-2.1418412,-0.2631306,0
 .7359961,2.1803439,2.9367533,1.8951402,-0.4442157,-0.907381,0.8170676,
 -2.7603801,-1.0653873,-0.7713327,2.7857307,1.6270302,-1.6666903,-6.499
 8023,8.3830652,-6.5656828,0.3869155,0.7344135,2.0250885,6.8472081,-6.9
 26413,3.6647316,3.2771159,-3.2680274,1.6384018,4.1477104,0.5337622,-2.
 8957952,-5.6901768,7.5791004,-6.9574622,-0.8445863,1.6658221,1.0944902
 ,-1.008949,0.0751232,-0.3988593,0.5767642,-1.2224391,9.9133918,0.22878
 97,-0.8209617,0.3684246,-1.2619875,0.1551578,0.3401076,0.1780919,1.534
 5765,0.5503459,-8.1639246,0.1015942,-0.4446871,-3.3451888,0.6257174,-1
 .6030365,-1.3459377,-1.9024646,1.1101362,-0.4860892,-0.9961565,-0.5226
 644,-2.8733699,0.6413256,-0.3110821,-2.4601974,-0.8535531,-1.7589475,1
 .2389761,1.316296,0.0248983,1.6569434,-0.1907081,0.2740064,0.9486977,1
 .1485248,2.1669971,0.6207887,2.9897422,2.19389,0.4599016,0.6328567,1.4
 488178,1.9681524,2.8291945,8.10493\HyperPolar=15.2502798,-18.3015753,7
 .5725289,12.4969415,-16.5716913,-16.8266043,4.2923815,11.8614965,9.342
 34,29.0615012\Quadrupole=0.6869215,1.321833,-2.0087545,0.1043909,1.713
 6222,-0.0639855\PG=C01 [X(C5H6)]\NImag=0\\0.80900471,0.18695422,0.6312
 0947,0.31192298,0.07780811,0.30623639,-0.49012691,0.00901894,-0.200633
 84,0.80663265,-0.02097780,-0.10029126,-0.00957944,-0.16669162,0.592710
 66,-0.19983066,0.00500199,-0.17522002,0.30972874,-0.09239347,0.3321061
 4,-0.04725153,-0.05911251,-0.03236065,-0.07041417,0.00795909,0.0078239
 0,0.52345413,-0.05283953,-0.06866573,-0.02319270,-0.02798454,-0.162241
 71,-0.01154463,0.13375512,0.49772900,-0.03252947,-0.02624624,0.0075260
 8,0.00880560,0.00593032,-0.08283605,-0.06652263,0.06929883,0.61843937,
 -0.07586162,-0.02256741,0.00105168,-0.05703883,0.06523982,-0.03833286,
 -0.14460976,0.00785315,-0.02119343,0.65210204,0.01018974,-0.20968181,0
 .00860016,0.06808876,-0.06995430,0.03552245,-0.01909664,-0.06435067,-0
 .01030071,-0.28875777,0.74529389,0.00015930,-0.00732469,-0.07647117,-0
 .03841163,0.03412787,-0.00148326,-0.02045225,0.00280199,-0.11150050,0.
 23233906,-0.15566651,0.30793601,-0.19692247,-0.14111925,-0.06645789,0.
 00051729,-0.02303571,-0.00391138,0.00108946,-0.00054898,-0.00804942,0.
 00514826,0.00533707,0.00184656,0.19084920,-0.14579602,-0.24481190,-0.0
 6553328,0.00478578,0.00712288,0.00240326,-0.00144856,-0.00332229,-0.00
 012414,-0.01768470,0.00131440,-0.00860067,0.16149980,0.24045638,-0.066
 31245,-0.06324382,-0.08262510,-0.00469042,-0.01112523,0.00790232,-0.00
 803016,0.00030705,0.01377356,0.00248189,0.00258181,0.00217871,0.073455
 30,0.07268598,0.06420769,0.00202843,0.02302286,-0.00599440,-0.19347984
 ,0.13798462,-0.07214411,0.00654262,-0.00473457,0.00154039,-0.00130284,
 -0.00021350,-0.00759945,-0.00118146,-0.00052575,0.00182071,0.18686730,
 -0.00513670,0.00755270,-0.00234756,0.14531737,-0.24262182,0.07585572,0
 .01484523,0.00144284,0.00728060,0.00082386,-0.00451599,0.00091707,0.00
 066283,0.00033679,0.00017933,-0.15809429,0.23776887,-0.00522495,0.0113
 4580,0.01020459,-0.07234279,0.07229801,-0.09004753,0.00100615,-0.00224
 490,0.00419301,-0.00762849,0.00040989,0.01061856,0.00178570,-0.0003996
 6,-0.00401572,0.08076972,-0.08257331,0.07120787,-0.00172295,-0.0005785
 1,-0.00145195,0.00431452,0.00028056,-0.00492165,-0.21078172,-0.0769232
 0,0.12401926,-0.01761393,-0.01156737,0.02010504,0.00059169,-0.00096631
 ,-0.00075927,-0.00012190,-0.00034324,0.00021185,0.22343000,-0.00058715
 ,-0.00396571,-0.00104238,-0.02750659,-0.00878531,0.01993628,-0.0777167
 2,-0.09822252,0.06512915,0.00328916,-0.00035999,-0.00470542,0.00021107
 ,0.00004280,-0.00283007,0.00037399,-0.00065298,0.00001292,0.08907497,0
 .10256636,-0.00167653,-0.00103129,-0.00073750,-0.00103440,-0.00049995,
 0.00099649,0.12298301,0.06326953,-0.15768280,-0.01251211,-0.00672493,0
 .01198742,0.00052117,-0.00062964,-0.00130464,0.00018986,0.00058490,-0.
 00016634,-0.13503077,-0.06832910,0.16517704,0.00301062,0.00376924,-0.0
 0325704,0.00050072,-0.00111305,-0.00050096,-0.00350636,0.01935171,-0.0
 0605329,-0.35570524,0.22988341,-0.14563621,0.00109832,-0.00010232,0.00
 074189,0.00100986,0.00153195,0.00097783,0.00023028,0.00035915,0.000763
 60,0.72108791,0.02922586,-0.01046053,0.01476491,-0.00420054,-0.0057557
 8,-0.00184261,-0.00298975,0.00589187,-0.00140057,0.23368724,-0.3854907
 6,0.12234885,-0.00074700,-0.00062375,-0.00035708,0.00178796,0.00150850
 ,0.00079858,-0.00085549,0.00125697,-0.00075588,-0.12262885,0.84365544,
 -0.00395871,0.00237630,0.00751124,-0.00041576,-0.00033940,0.00139799,-
 0.00543637,0.00946396,0.00493860,-0.14573626,0.12050487,-0.14345032,0.
 00076167,-0.00004449,-0.00005417,0.00097020,0.00067371,-0.00063276,-0.
 00114046,0.00066399,-0.00001509,0.28507143,-0.07896207,0.28259999,0.00
 072995,0.00078368,-0.00616565,0.00032841,0.00062027,0.00052514,-0.0010
 0282,-0.00073036,0.00358334,0.01002363,0.03056280,-0.00029947,-0.00023
 373,0.00044047,-0.00007165,-0.00049405,-0.00023380,0.00018008,-0.00066
 855,0.00000085,-0.00006384,-0.07632214,-0.06239973,-0.01352654,0.06868
 387,0.00067672,0.00214205,0.00063973,0.00024911,-0.00040125,0.00011017
 ,0.00090892,0.00125103,0.00017813,-0.00851596,-0.02411139,-0.00323387,
 0.00010524,-0.00035123,0.00005761,0.00036740,0.00016446,0.00015064,0.0
 0069634,-0.00002871,0.00030592,-0.05535969,-0.35861681,-0.01828510,0.0
 6006833,0.38482228,-0.00616250,0.00068656,0.01034765,0.00053490,0.0002
 9106,-0.00053372,0.00353744,-0.00061807,-0.00659345,0.00077610,0.01577
 479,0.00885628,-0.00006235,0.00022040,-0.00014761,0.00016332,-0.000141
 71,-0.00076795,0.00090695,-0.00030902,0.00046565,-0.01371992,-0.021709
 90,-0.05104919,0.01801058,0.01939384,0.03647058,-0.00020115,0.00106375
 ,0.00424921,-0.00056594,0.00003067,-0.00057248,0.00432885,0.00141362,-
 0.00427714,-0.01920540,-0.01059507,-0.01296115,-0.00019283,0.00080063,
 -0.00025645,0.00007580,0.00039152,0.00021112,0.00029575,-0.00016763,0.
 00027914,-0.29129098,-0.06983323,-0.11766017,-0.00149589,0.00018562,-0
 .00302363,0.30908367,-0.00047156,0.00086213,-0.00050150,0.00046186,0.0
 0040871,0.00023033,0.00048994,-0.00187795,0.00064964,0.02827321,0.0118
 7801,0.01364429,-0.00030198,-0.00034293,-0.00012914,-0.00019731,-0.000
 30596,-0.00009813,0.00031202,-0.00016205,0.00000747,-0.07642561,-0.092
 61264,-0.03586062,-0.02886185,-0.00485678,-0.01377166,0.07645643,0.087
 18913,0.00429217,0.00024829,-0.00692039,-0.00058425,0.00002099,0.00032
 445,-0.00425181,0.00109689,0.01094799,-0.01403753,-0.00525706,0.001368
 39,-0.00022620,0.00040710,0.00016808,0.00022733,0.00018865,-0.00027470
 ,-0.00135594,0.00046208,-0.00069868,-0.11747214,-0.03265647,-0.1015828
 0,-0.00222507,0.00035349,0.00362087,0.13447975,0.03555106,0.09260016,-
 0.00268707,-0.00123501,-0.00090246,-0.00066791,-0.00029685,0.00213632,
 -0.05784870,0.00138757,0.00067678,0.00406368,-0.01383144,-0.02908980,-
 0.00076372,-0.00100302,0.00162062,0.00005608,0.00023526,0.00005378,0.0
 0204680,0.01266891,0.02558088,-0.00011297,-0.00104649,0.00107096,0.000
 45133,0.00061798,-0.00096090,-0.00083190,0.00026486,0.00115369,0.05629
 439,-0.00123778,-0.00388940,0.00038394,-0.00153854,-0.01019082,-0.0332
 7949,0.00240588,-0.10763387,-0.11039502,-0.00164061,-0.00002139,0.0056
 9109,-0.00206308,0.00017885,0.00187357,0.00022858,-0.00067742,0.000300
 16,0.00087023,0.00831113,0.01380297,0.00073405,0.00124748,-0.00019115,
 -0.00025067,-0.00001365,0.00018372,0.00025369,-0.00017968,-0.00041501,
 0.00223824,0.11286877,-0.00067920,0.00037899,0.00014822,-0.00095614,0.
 00126925,0.00739318,0.00170336,-0.10863795,-0.30120581,0.00279195,-0.0
 0544476,-0.01004012,0.00033683,-0.00038487,-0.00008311,0.00005643,-0.0
 0061741,-0.00031904,-0.00058305,-0.00898843,-0.01802154,-0.00091519,-0
 .00022775,0.00033650,0.00005308,0.00032945,-0.00066912,-0.00046820,0.0
 0027826,0.00044664,-0.00133988,0.12204522,0.32201420\\0.00008797,0.000
 00470,0.00000083,0.00000369,-0.00004203,-0.00001788,-0.00005962,-0.000
 04014,0.00000274,-0.00011009,0.00007306,-0.00003629,0.00001047,0.00002
 710,0.00002921,0.00001732,-0.00001011,0.00001014,-0.00000033,-0.000016
 34,-0.00000034,0.00007073,-0.00003233,0.00002259,-0.00002275,0.0000217
 8,-0.00001492,0.00001075,0.00001075,0.00001266,-0.00000815,0.00000356,
 -0.00000875\\\@


 REALITY IS FOR PEOPLE WHO CAN'T FACE SCIENCE FICTION.
 Job cpu time:       0 days  0 hours  1 minutes 20.7 seconds.
 Elapsed time:       0 days  0 hours  0 minutes  4.1 seconds.
 File lengths (MBytes):  RWF=      9 Int=      0 D2E=      0 Chk=      2 Scr=      1
 Normal termination of Gaussian 16 at Tue Jun 10 01:42:14 2025.
