 Entering Gaussian System, Link 0=g16
 Initial command:
 /home/user/softwares/g16/g16/l1.exe "/home/user/scratch/Gau-336817.inp" -scrdir="/home/user/scratch/"
 Entering Link 1 = /home/user/softwares/g16/g16/l1.exe PID=    336819.
  
 Copyright (c) 1988-2017, Gaussian, Inc.  All Rights Reserved.
  
 This is part of the Gaussian(R) 16 program.  It is based on
 the Gaussian(R) 09 system (copyright 2009, Gaussian, Inc.),
 the Gaussian(R) 03 system (copyright 2003, Gaussian, Inc.),
 the Gaussian(R) 98 system (copyright 1998, Gaussian, Inc.),
 the Gaussian(R) 94 system (copyright 1995, Gaussian, Inc.),
 the Gaussian 92(TM) system (copyright 1992, Gaussian, Inc.),
 the Gaussian 90(TM) system (copyright 1990, Gaussian, Inc.),
 the Gaussian 88(TM) system (copyright 1988, Gaussian, Inc.),
 the Gaussian 86(TM) system (copyright 1986, Carnegie Mellon
 University), and the Gaussian 82(TM) system (copyright 1983,
 Carnegie Mellon University). Gaussian is a federally registered
 trademark of Gaussian, Inc.
  
 This software contains proprietary and confidential information,
 including trade secrets, belonging to Gaussian, Inc.
  
 This software is provided under written license and may be
 used, copied, transmitted, or stored only in accord with that
 written license.
  
 The following legend is applicable only to US Government
 contracts under FAR:
  
                    RESTRICTED RIGHTS LEGEND
  
 Use, reproduction and disclosure by the US Government is
 subject to restrictions as set forth in subparagraphs (a)
 and (c) of the Commercial Computer Software - Restricted
 Rights clause in FAR 52.227-19.
  
 Gaussian, Inc.
 340 Quinnipiac St., Bldg. 40, Wallingford CT 06492
  
  
 ---------------------------------------------------------------
 Warning -- This program may not be used in any manner that
 competes with the business of Gaussian, Inc. or will provide
 assistance to any competitor of Gaussian, Inc.  The licensee
 of this program is prohibited from giving any competitor of
 Gaussian, Inc. access to this program.  By using this program,
 the user acknowledges that Gaussian, Inc. is engaged in the
 business of creating and licensing software in the field of
 computational chemistry and represents and warrants to the
 licensee that it is not a competitor of Gaussian, Inc. and that
 it will not use this program in any manner prohibited above.
 ---------------------------------------------------------------
  

 Cite this work as:
 Gaussian 16, Revision B.01,
 M. J. Frisch, G. W. Trucks, H. B. Schlegel, G. E. Scuseria, 
 M. A. Robb, J. R. Cheeseman, G. Scalmani, V. Barone, 
 G. A. Petersson, H. Nakatsuji, X. Li, M. Caricato, A. V. Marenich, 
 J. Bloino, B. G. Janesko, R. Gomperts, B. Mennucci, H. P. Hratchian, 
 J. V. Ortiz, A. F. Izmaylov, J. L. Sonnenberg, D. Williams-Young, 
 F. Ding, F. Lipparini, F. Egidi, J. Goings, B. Peng, A. Petrone, 
 T. Henderson, D. Ranasinghe, V. G. Zakrzewski, J. Gao, N. Rega, 
 G. Zheng, W. Liang, M. Hada, M. Ehara, K. Toyota, R. Fukuda, 
 J. Hasegawa, M. Ishida, T. Nakajima, Y. Honda, O. Kitao, H. Nakai, 
 T. Vreven, K. Throssell, J. A. Montgomery, Jr., J. E. Peralta, 
 F. Ogliaro, M. J. Bearpark, J. J. Heyd, E. N. Brothers, K. N. Kudin, 
 V. N. Staroverov, T. A. Keith, R. Kobayashi, J. Normand, 
 K. Raghavachari, A. P. Rendell, J. C. Burant, S. S. Iyengar, 
 J. Tomasi, M. Cossi, J. M. Millam, M. Klene, C. Adamo, R. Cammi, 
 J. W. Ochterski, R. L. Martin, K. Morokuma, O. Farkas, 
 J. B. Foresman, and D. J. Fox, Gaussian, Inc., Wallingford CT, 2016.
 
 ******************************************
 Gaussian 16:  EM64L-G16RevB.01 20-Dec-2017
                10-Jun-2025 
 ******************************************
 %nproc=20
 Will use up to   20 processors via shared memory.
 %mem=15GB
 %chk=meth_cyclooctatetraene.chk
 ---------------------------------------------
 #p hf/3-21g opt freq gfinput gfprint pop=full
 ---------------------------------------------
 1/18=20,19=15,38=1/1,3;
 2/9=110,12=2,17=6,18=5,40=1/2;
 3/5=5,11=9,24=110,25=1,30=1,71=1/1,2,3;
 4//1;
 5/5=2,38=5/2;
 6/7=3,28=1/1;
 7//1,2,3,16;
 1/18=20,19=15/3(2);
 2/9=110/2;
 99//99;
 2/9=110/2;
 3/5=5,11=9,25=1,30=1,71=1/1,2,3;
 4/5=5,16=3,69=1/1;
 5/5=2,38=5/2;
 7//1,2,3,16;
 1/18=20,19=15/3(-5);
 2/9=110/2;
 6/7=3,19=2,28=1/1;
 99/9=1/99;
 Leave Link    1 at Tue Jun 10 01:23:03 2025, MaxMem=  2013265920 cpu:               1.3 elap:               0.1
 (Enter /home/user/softwares/g16/g16/l101.exe)
 ------------
 optimisation
 ------------
 Symbolic Z-matrix:
 Charge =  0 Multiplicity = 1
 C                     0.84534  -0.59355   1.22944 
 C                     2.35945  -0.59355   1.22944 
 C                     1.47337   2.91289   1.22944 
 C                     3.01386   0.48917   2.06748 
 C                     2.98749   2.9129    1.22952 
 C                     3.67874   1.56578   1.22984 
 H                     0.48438  -1.16003   2.13095 
 H                     1.11238   2.84748   2.29126 
 H                     3.32683   3.49294   2.13081 
 H                     2.69763  -1.59645   1.60942 
 H                     3.79701   0.01056   2.71549 
 C                     0.15409   0.75357   1.22909 
 H                     0.04703   1.10456   2.29087 
 C                     0.81897   1.83016   0.39142 
 H                     1.56979   1.37155  -0.30273 
 C                     5.11187   1.78075   1.75094 
 H                     5.68341   0.88867   1.60116 
 H                     5.56728   2.58966   1.21881 
 H                     5.08066   2.01328   2.7949 
 
 ITRead=  0  0  0  0  0  0  0  0  0  0  0  0  0  0  0  0  0  0  0
 MicOpt= -1 -1 -1 -1 -1 -1 -1 -1 -1 -1 -1 -1 -1 -1 -1 -1 -1 -1 -1
 NAtoms=     19 NQM=       19 NQMF=       0 NMMI=      0 NMMIF=      0
                NMic=       0 NMicF=      0.
                    Isotopes and Nuclear Properties:
 (Nuclear quadrupole moments (NQMom) in fm**2, nuclear magnetic moments (NMagM)
  in nuclear magnetons)

  Atom         1           2           3           4           5           6           7           8           9          10
 IAtWgt=          12          12          12          12          12          12           1           1           1           1
 AtmWgt=  12.0000000  12.0000000  12.0000000  12.0000000  12.0000000  12.0000000   1.0078250   1.0078250   1.0078250   1.0078250
 NucSpn=           0           0           0           0           0           0           1           1           1           1
 AtZEff=  -0.0000000  -0.0000000  -0.0000000  -0.0000000  -0.0000000  -0.0000000  -0.0000000  -0.0000000  -0.0000000  -0.0000000
 NQMom=    0.0000000   0.0000000   0.0000000   0.0000000   0.0000000   0.0000000   0.0000000   0.0000000   0.0000000   0.0000000
 NMagM=    0.0000000   0.0000000   0.0000000   0.0000000   0.0000000   0.0000000   2.7928460   2.7928460   2.7928460   2.7928460
 AtZNuc=   6.0000000   6.0000000   6.0000000   6.0000000   6.0000000   6.0000000   1.0000000   1.0000000   1.0000000   1.0000000

  Atom        11          12          13          14          15          16          17          18          19
 IAtWgt=           1          12           1          12           1          12           1           1           1
 AtmWgt=   1.0078250  12.0000000   1.0078250  12.0000000   1.0078250  12.0000000   1.0078250   1.0078250   1.0078250
 NucSpn=           1           0           1           0           1           0           1           1           1
 AtZEff=  -0.0000000  -0.0000000  -0.0000000  -0.0000000  -0.0000000  -0.0000000  -0.0000000  -0.0000000  -0.0000000
 NQMom=    0.0000000   0.0000000   0.0000000   0.0000000   0.0000000   0.0000000   0.0000000   0.0000000   0.0000000
 NMagM=    2.7928460   0.0000000   2.7928460   0.0000000   2.7928460   0.0000000   2.7928460   2.7928460   2.7928460
 AtZNuc=   1.0000000   6.0000000   1.0000000   6.0000000   1.0000000   6.0000000   1.0000000   1.0000000   1.0000000
 Leave Link  101 at Tue Jun 10 01:23:04 2025, MaxMem=  2013265920 cpu:              11.7 elap:               0.6
 (Enter /home/user/softwares/g16/g16/l103.exe)

 GradGradGradGradGradGradGradGradGradGradGradGradGradGradGradGradGradGrad
 Berny optimization.
 Initialization pass.
                           ----------------------------
                           !    Initial Parameters    !
                           ! (Angstroms and Degrees)  !
 --------------------------                            --------------------------
 ! Name  Definition              Value          Derivative Info.                !
 --------------------------------------------------------------------------------
 ! R1    R(1,2)                  1.5141         estimate D2E/DX2                !
 ! R2    R(1,7)                  1.1242         estimate D2E/DX2                !
 ! R3    R(1,12)                 1.5141         estimate D2E/DX2                !
 ! R4    R(2,4)                  1.5175         estimate D2E/DX2                !
 ! R5    R(2,10)                 1.1245         estimate D2E/DX2                !
 ! R6    R(3,5)                  1.5141         estimate D2E/DX2                !
 ! R7    R(3,8)                  1.1234         estimate D2E/DX2                !
 ! R8    R(3,14)                 1.5175         estimate D2E/DX2                !
 ! R9    R(4,6)                  1.5175         estimate D2E/DX2                !
 ! R10   R(4,11)                 1.1235         estimate D2E/DX2                !
 ! R11   R(5,6)                  1.5141         estimate D2E/DX2                !
 ! R12   R(5,9)                  1.1242         estimate D2E/DX2                !
 ! R13   R(6,16)                 1.54           estimate D2E/DX2                !
 ! R14   R(12,13)                1.1234         estimate D2E/DX2                !
 ! R15   R(12,14)                1.5175         estimate D2E/DX2                !
 ! R16   R(14,15)                1.1207         estimate D2E/DX2                !
 ! R17   R(16,17)                1.07           estimate D2E/DX2                !
 ! R18   R(16,18)                1.07           estimate D2E/DX2                !
 ! R19   R(16,19)                1.07           estimate D2E/DX2                !
 ! A1    A(2,1,7)              108.7276         estimate D2E/DX2                !
 ! A2    A(2,1,12)             117.1639         estimate D2E/DX2                !
 ! A3    A(7,1,12)             107.5725         estimate D2E/DX2                !
 ! A4    A(1,2,4)              115.5459         estimate D2E/DX2                !
 ! A5    A(1,2,10)             107.5013         estimate D2E/DX2                !
 ! A6    A(4,2,10)             108.6641         estimate D2E/DX2                !
 ! A7    A(5,3,8)              108.7405         estimate D2E/DX2                !
 ! A8    A(5,3,14)             115.5481         estimate D2E/DX2                !
 ! A9    A(8,3,14)             109.9892         estimate D2E/DX2                !
 ! A10   A(2,4,6)              112.973          estimate D2E/DX2                !
 ! A11   A(2,4,11)             108.3709         estimate D2E/DX2                !
 ! A12   A(6,4,11)             108.3717         estimate D2E/DX2                !
 ! A13   A(3,5,6)              117.1638         estimate D2E/DX2                !
 ! A14   A(3,5,9)              107.5707         estimate D2E/DX2                !
 ! A15   A(6,5,9)              108.7274         estimate D2E/DX2                !
 ! A16   A(4,6,5)              115.5498         estimate D2E/DX2                !
 ! A17   A(4,6,16)             108.6629         estimate D2E/DX2                !
 ! A18   A(5,6,16)             107.5014         estimate D2E/DX2                !
 ! A19   A(1,12,13)            108.739          estimate D2E/DX2                !
 ! A20   A(1,12,14)            115.55           estimate D2E/DX2                !
 ! A21   A(13,12,14)           109.9882         estimate D2E/DX2                !
 ! A22   A(3,14,12)            112.9727         estimate D2E/DX2                !
 ! A23   A(3,14,15)            110.1893         estimate D2E/DX2                !
 ! A24   A(12,14,15)           110.1897         estimate D2E/DX2                !
 ! A25   A(6,16,17)            109.4712         estimate D2E/DX2                !
 ! A26   A(6,16,18)            109.4712         estimate D2E/DX2                !
 ! A27   A(6,16,19)            109.4712         estimate D2E/DX2                !
 ! A28   A(17,16,18)           109.4713         estimate D2E/DX2                !
 ! A29   A(17,16,19)           109.4712         estimate D2E/DX2                !
 ! A30   A(18,16,19)           109.4712         estimate D2E/DX2                !
 ! D1    D(7,1,2,4)            -84.4036         estimate D2E/DX2                !
 ! D2    D(7,1,2,10)            37.1047         estimate D2E/DX2                !
 ! D3    D(12,1,2,4)            37.7555         estimate D2E/DX2                !
 ! D4    D(12,1,2,10)          159.2639         estimate D2E/DX2                !
 ! D5    D(2,1,12,13)          -86.5044         estimate D2E/DX2                !
 ! D6    D(2,1,12,14)           37.7077         estimate D2E/DX2                !
 ! D7    D(7,1,12,13)           36.2501         estimate D2E/DX2                !
 ! D8    D(7,1,12,14)          160.4623         estimate D2E/DX2                !
 ! D9    D(1,2,4,6)           -108.9559         estimate D2E/DX2                !
 ! D10   D(1,2,4,11)           130.9452         estimate D2E/DX2                !
 ! D11   D(10,2,4,6)           130.1628         estimate D2E/DX2                !
 ! D12   D(10,2,4,11)           10.0639         estimate D2E/DX2                !
 ! D13   D(8,3,5,6)             86.4629         estimate D2E/DX2                !
 ! D14   D(8,3,5,9)            -36.2898         estimate D2E/DX2                !
 ! D15   D(14,3,5,6)           -37.7504         estimate D2E/DX2                !
 ! D16   D(14,3,5,9)          -160.503          estimate D2E/DX2                !
 ! D17   D(5,3,14,12)          108.953          estimate D2E/DX2                !
 ! D18   D(5,3,14,15)          -14.777          estimate D2E/DX2                !
 ! D19   D(8,3,14,12)          -14.6068         estimate D2E/DX2                !
 ! D20   D(8,3,14,15)         -138.3368         estimate D2E/DX2                !
 ! D21   D(2,4,6,5)            108.9291         estimate D2E/DX2                !
 ! D22   D(2,4,6,16)          -130.1878         estimate D2E/DX2                !
 ! D23   D(11,4,6,5)          -130.9724         estimate D2E/DX2                !
 ! D24   D(11,4,6,16)          -10.0893         estimate D2E/DX2                !
 ! D25   D(3,5,6,4)            -37.7111         estimate D2E/DX2                !
 ! D26   D(3,5,6,16)          -159.2205         estimate D2E/DX2                !
 ! D27   D(9,5,6,4)             84.4454         estimate D2E/DX2                !
 ! D28   D(9,5,6,16)           -37.064          estimate D2E/DX2                !
 ! D29   D(4,6,16,17)           64.3357         estimate D2E/DX2                !
 ! D30   D(4,6,16,18)         -175.6643         estimate D2E/DX2                !
 ! D31   D(4,6,16,19)          -55.6643         estimate D2E/DX2                !
 ! D32   D(5,6,16,17)         -169.9437         estimate D2E/DX2                !
 ! D33   D(5,6,16,18)          -49.9437         estimate D2E/DX2                !
 ! D34   D(5,6,16,19)           70.0563         estimate D2E/DX2                !
 ! D35   D(1,12,14,3)         -108.929          estimate D2E/DX2                !
 ! D36   D(1,12,14,15)          14.8008         estimate D2E/DX2                !
 ! D37   D(13,12,14,3)          14.6294         estimate D2E/DX2                !
 ! D38   D(13,12,14,15)        138.3592         estimate D2E/DX2                !
 --------------------------------------------------------------------------------
 Trust Radius=3.00D-01 FncErr=1.00D-07 GrdErr=1.00D-07 EigMax=2.50D+02 EigMin=1.00D-04
 Number of steps in this run=     97 maximum allowed number of steps=    114.
 GradGradGradGradGradGradGradGradGradGradGradGradGradGradGradGradGradGrad

 Leave Link  103 at Tue Jun 10 01:23:04 2025, MaxMem=  2013265920 cpu:               0.4 elap:               0.0
 (Enter /home/user/softwares/g16/g16/l202.exe)
                          Input orientation:                          
 ---------------------------------------------------------------------
 Center     Atomic      Atomic             Coordinates (Angstroms)
 Number     Number       Type             X           Y           Z
 ---------------------------------------------------------------------
      1          6           0        0.845338   -0.593547    1.229438
      2          6           0        2.359455   -0.593547    1.229438
      3          6           0        1.473374    2.912893    1.229438
      4          6           0        3.013857    0.489171    2.067483
      5          6           0        2.987489    2.912898    1.229522
      6          6           0        3.678745    1.565775    1.229843
      7          1           0        0.484379   -1.160031    2.130946
      8          1           0        1.112382    2.847480    2.291257
      9          1           0        3.326827    3.492942    2.130810
     10          1           0        2.697632   -1.596448    1.609425
     11          1           0        3.797010    0.010556    2.715489
     12          6           0        0.154086    0.753573    1.229086
     13          1           0        0.047032    1.104560    2.290871
     14          6           0        0.818970    1.830162    0.391416
     15          1           0        1.569787    1.371549   -0.302725
     16          6           0        5.111870    1.780750    1.750937
     17          1           0        5.683410    0.888669    1.601162
     18          1           0        5.567279    2.589665    1.218809
     19          1           0        5.080663    2.013283    2.794898
 ---------------------------------------------------------------------
                    Distance matrix (angstroms):
                    1          2          3          4          5
     1  C    0.000000
     2  C    1.514117   0.000000
     3  C    3.562240   3.616664   0.000000
     4  C    2.564580   1.517511   2.991628   0.000000
     5  C    4.109011   3.562244   1.514115   2.564630   0.000000
     6  C    3.562424   2.530454   2.584258   1.517496   1.514125
     7  H    1.124238   2.156277   4.287136   3.020290   4.864861
     8  H    3.611016   3.810947   1.123412   3.037648   2.155826
     9  H    4.865147   4.295075   2.141078   3.020695   1.124243
    10  H    2.140372   1.124528   4.688001   2.158616   4.534594
    11  H    3.359413   2.154032   4.003897   1.123527   3.359615
    12  C    1.514121   2.584257   2.530451   2.991840   3.562423
    13  H    2.155806   3.059004   2.535973   3.038200   3.611487
    14  C    2.564633   2.991612   1.517508   3.070014   2.564608
    15  H    2.594986   2.613944   2.175445   2.912356   2.594883
    16  C    4.910452   3.672198   3.846084   2.483956   2.463052
    17  H    5.073666   3.658390   4.686157   2.739264   3.391697
    18  H    5.694706   4.519191   4.106659   3.413544   2.599983
    19  H    5.213847   4.080588   4.033918   2.669033   2.764251
                    6          7          8          9         10
     6  C    0.000000
     7  H    4.294878   0.000000
     8  H    3.058690   4.059585   0.000000
     9  H    2.156284   5.452492   2.312170   0.000000
    10  H    3.332615   2.315369   4.767222   5.154573   0.000000
    11  H    2.154028   3.561669   3.928783   3.562293   2.239302
    12  C    3.617028   2.141104   2.535939   4.287602   3.483803
    13  H    3.811540   2.311973   2.042729   4.060424   3.845191
    14  C    2.991851   3.475510   2.174953   3.475583   4.093235
    15  H    2.614229   3.675563   3.019327   3.675539   3.706394
    16  C    1.540000   5.496023   4.174418   2.502455   4.153798
    17  H    2.148263   5.613178   5.020704   3.551936   3.884681
    18  H    2.148263   6.381856   4.589414   2.582108   5.090284
    19  H    2.148263   5.624641   4.086171   2.388795   4.484901
                   11         12         13         14         15
    11  H    0.000000
    12  C    4.004043   0.000000
    13  H    3.929310   1.123405   0.000000
    14  C    4.192971   1.517500   2.174929   0.000000
    15  H    3.990293   2.175442   3.019405   1.120662   0.000000
    16  C    2.406825   5.089896   5.138224   4.503302   4.114769
    17  H    2.360363   5.543475   5.682523   5.100262   4.558492
    18  H    3.467810   5.716117   5.816182   4.879330   4.447338
    19  H    2.380123   5.320695   5.139773   4.896150   4.725816
                   16         17         18         19
    16  C    0.000000
    17  H    1.070000   0.000000
    18  H    1.070000   1.747303   0.000000
    19  H    1.070000   1.747303   1.747303   0.000000
 Stoichiometry    C9H10
 Framework group  C1[X(C9H10)]
 Deg. of freedom    51
 Full point group                 C1      NOp   1
 Largest Abelian subgroup         C1      NOp   1
 Largest concise Abelian subgroup C1      NOp   1
                         Standard orientation:                         
 ---------------------------------------------------------------------
 Center     Atomic      Atomic             Coordinates (Angstroms)
 Number     Number       Type             X           Y           Z
 ---------------------------------------------------------------------
      1          6           0       -2.109938   -1.087935   -0.078843
      2          6           0       -0.722284   -1.630129   -0.349015
      3          6           0       -0.198551    1.903690    0.214979
      4          6           0        0.392365   -1.017141    0.478415
      5          6           0        1.189113    1.361486   -0.055110
      6          6           0        1.309475   -0.121843   -0.334077
      7          1           0       -2.546363   -1.635243    0.800872
      8          1           0       -0.424524    1.788131    1.309344
      9          1           0        1.831247    1.615176    0.832148
     10          1           0       -0.747970   -2.737348   -0.154156
     11          1           0        1.006982   -1.849418    0.916450
     12          6           0       -2.230302    0.395396    0.200092
     13          1           0       -2.064920    0.570880    1.297313
     14          6           0       -1.313205    1.290687   -0.612430
     15          1           0       -0.884656    0.721955   -1.477748
     16          6           0        2.768492   -0.528537   -0.055742
     17          1           0        2.934143   -1.525453   -0.407335
     18          1           0        3.428984    0.143040   -0.563320
     19          1           0        2.956082   -0.485770    0.996817
 ---------------------------------------------------------------------
 Rotational constants (GHZ):           2.6187477           1.4942623           1.0307357
 Leave Link  202 at Tue Jun 10 01:23:04 2025, MaxMem=  2013265920 cpu:               0.1 elap:               0.0
 (Enter /home/user/softwares/g16/g16/l301.exe)
 Standard basis: 3-21G (6D, 7F)
 Ernie: Thresh=  0.10000D-02 Tol=  0.10000D-05 Strict=F.
 AO basis set in the form of general basis input (Overlap normalization):
      1 0
 S   3 1.00       0.000000000000
      0.1722560000D+03  0.6176690738D-01
      0.2591090000D+02  0.3587940429D+00
      0.5533350000D+01  0.7007130837D+00
 SP   2 1.00       0.000000000000
      0.3664980000D+01 -0.3958951621D+00  0.2364599466D+00
      0.7705450000D+00  0.1215834356D+01  0.8606188057D+00
 SP   1 1.00       0.000000000000
      0.1958570000D+00  0.1000000000D+01  0.1000000000D+01
 ****
      2 0
 S   3 1.00       0.000000000000
      0.1722560000D+03  0.6176690738D-01
      0.2591090000D+02  0.3587940429D+00
      0.5533350000D+01  0.7007130837D+00
 SP   2 1.00       0.000000000000
      0.3664980000D+01 -0.3958951621D+00  0.2364599466D+00
      0.7705450000D+00  0.1215834356D+01  0.8606188057D+00
 SP   1 1.00       0.000000000000
      0.1958570000D+00  0.1000000000D+01  0.1000000000D+01
 ****
      3 0
 S   3 1.00       0.000000000000
      0.1722560000D+03  0.6176690738D-01
      0.2591090000D+02  0.3587940429D+00
      0.5533350000D+01  0.7007130837D+00
 SP   2 1.00       0.000000000000
      0.3664980000D+01 -0.3958951621D+00  0.2364599466D+00
      0.7705450000D+00  0.1215834356D+01  0.8606188057D+00
 SP   1 1.00       0.000000000000
      0.1958570000D+00  0.1000000000D+01  0.1000000000D+01
 ****
      4 0
 S   3 1.00       0.000000000000
      0.1722560000D+03  0.6176690738D-01
      0.2591090000D+02  0.3587940429D+00
      0.5533350000D+01  0.7007130837D+00
 SP   2 1.00       0.000000000000
      0.3664980000D+01 -0.3958951621D+00  0.2364599466D+00
      0.7705450000D+00  0.1215834356D+01  0.8606188057D+00
 SP   1 1.00       0.000000000000
      0.1958570000D+00  0.1000000000D+01  0.1000000000D+01
 ****
      5 0
 S   3 1.00       0.000000000000
      0.1722560000D+03  0.6176690738D-01
      0.2591090000D+02  0.3587940429D+00
      0.5533350000D+01  0.7007130837D+00
 SP   2 1.00       0.000000000000
      0.3664980000D+01 -0.3958951621D+00  0.2364599466D+00
      0.7705450000D+00  0.1215834356D+01  0.8606188057D+00
 SP   1 1.00       0.000000000000
      0.1958570000D+00  0.1000000000D+01  0.1000000000D+01
 ****
      6 0
 S   3 1.00       0.000000000000
      0.1722560000D+03  0.6176690738D-01
      0.2591090000D+02  0.3587940429D+00
      0.5533350000D+01  0.7007130837D+00
 SP   2 1.00       0.000000000000
      0.3664980000D+01 -0.3958951621D+00  0.2364599466D+00
      0.7705450000D+00  0.1215834356D+01  0.8606188057D+00
 SP   1 1.00       0.000000000000
      0.1958570000D+00  0.1000000000D+01  0.1000000000D+01
 ****
      7 0
 S   2 1.00       0.000000000000
      0.5447178000D+01  0.1562849787D+00
      0.8245472400D+00  0.9046908767D+00
 S   1 1.00       0.000000000000
      0.1831915800D+00  0.1000000000D+01
 ****
      8 0
 S   2 1.00       0.000000000000
      0.5447178000D+01  0.1562849787D+00
      0.8245472400D+00  0.9046908767D+00
 S   1 1.00       0.000000000000
      0.1831915800D+00  0.1000000000D+01
 ****
      9 0
 S   2 1.00       0.000000000000
      0.5447178000D+01  0.1562849787D+00
      0.8245472400D+00  0.9046908767D+00
 S   1 1.00       0.000000000000
      0.1831915800D+00  0.1000000000D+01
 ****
     10 0
 S   2 1.00       0.000000000000
      0.5447178000D+01  0.1562849787D+00
      0.8245472400D+00  0.9046908767D+00
 S   1 1.00       0.000000000000
      0.1831915800D+00  0.1000000000D+01
 ****
     11 0
 S   2 1.00       0.000000000000
      0.5447178000D+01  0.1562849787D+00
      0.8245472400D+00  0.9046908767D+00
 S   1 1.00       0.000000000000
      0.1831915800D+00  0.1000000000D+01
 ****
     12 0
 S   3 1.00       0.000000000000
      0.1722560000D+03  0.6176690738D-01
      0.2591090000D+02  0.3587940429D+00
      0.5533350000D+01  0.7007130837D+00
 SP   2 1.00       0.000000000000
      0.3664980000D+01 -0.3958951621D+00  0.2364599466D+00
      0.7705450000D+00  0.1215834356D+01  0.8606188057D+00
 SP   1 1.00       0.000000000000
      0.1958570000D+00  0.1000000000D+01  0.1000000000D+01
 ****
     13 0
 S   2 1.00       0.000000000000
      0.5447178000D+01  0.1562849787D+00
      0.8245472400D+00  0.9046908767D+00
 S   1 1.00       0.000000000000
      0.1831915800D+00  0.1000000000D+01
 ****
     14 0
 S   3 1.00       0.000000000000
      0.1722560000D+03  0.6176690738D-01
      0.2591090000D+02  0.3587940429D+00
      0.5533350000D+01  0.7007130837D+00
 SP   2 1.00       0.000000000000
      0.3664980000D+01 -0.3958951621D+00  0.2364599466D+00
      0.7705450000D+00  0.1215834356D+01  0.8606188057D+00
 SP   1 1.00       0.000000000000
      0.1958570000D+00  0.1000000000D+01  0.1000000000D+01
 ****
     15 0
 S   2 1.00       0.000000000000
      0.5447178000D+01  0.1562849787D+00
      0.8245472400D+00  0.9046908767D+00
 S   1 1.00       0.000000000000
      0.1831915800D+00  0.1000000000D+01
 ****
     16 0
 S   3 1.00       0.000000000000
      0.1722560000D+03  0.6176690738D-01
      0.2591090000D+02  0.3587940429D+00
      0.5533350000D+01  0.7007130837D+00
 SP   2 1.00       0.000000000000
      0.3664980000D+01 -0.3958951621D+00  0.2364599466D+00
      0.7705450000D+00  0.1215834356D+01  0.8606188057D+00
 SP   1 1.00       0.000000000000
      0.1958570000D+00  0.1000000000D+01  0.1000000000D+01
 ****
     17 0
 S   2 1.00       0.000000000000
      0.5447178000D+01  0.1562849787D+00
      0.8245472400D+00  0.9046908767D+00
 S   1 1.00       0.000000000000
      0.1831915800D+00  0.1000000000D+01
 ****
     18 0
 S   2 1.00       0.000000000000
      0.5447178000D+01  0.1562849787D+00
      0.8245472400D+00  0.9046908767D+00
 S   1 1.00       0.000000000000
      0.1831915800D+00  0.1000000000D+01
 ****
     19 0
 S   2 1.00       0.000000000000
      0.5447178000D+01  0.1562849787D+00
      0.8245472400D+00  0.9046908767D+00
 S   1 1.00       0.000000000000
      0.1831915800D+00  0.1000000000D+01
 ****

 AO basis set (Overlap normalization):
 Atom C1       Shell     1 S   3     bf    1 -     1         -3.987205327766         -2.055898780878         -0.148991898458
      0.1722560000D+03  0.6176690738D-01
      0.2591090000D+02  0.3587940429D+00
      0.5533350000D+01  0.7007130837D+00
 Atom C1       Shell     2 SP   2    bf    2 -     5         -3.987205327766         -2.055898780878         -0.148991898458
      0.3664980000D+01 -0.3958951621D+00  0.2364599466D+00
      0.7705450000D+00  0.1215834356D+01  0.8606188057D+00
 Atom C1       Shell     3 SP   1    bf    6 -     9         -3.987205327766         -2.055898780878         -0.148991898458
      0.1958570000D+00  0.1000000000D+01  0.1000000000D+01
 Atom C2       Shell     4 S   3     bf   10 -    10         -1.364919816448         -3.080497064546         -0.659543321202
      0.1722560000D+03  0.6176690738D-01
      0.2591090000D+02  0.3587940429D+00
      0.5533350000D+01  0.7007130837D+00
 Atom C2       Shell     5 SP   2    bf   11 -    14         -1.364919816448         -3.080497064546         -0.659543321202
      0.3664980000D+01 -0.3958951621D+00  0.2364599466D+00
      0.7705450000D+00  0.1215834356D+01  0.8606188057D+00
 Atom C2       Shell     6 SP   1    bf   15 -    18         -1.364919816448         -3.080497064546         -0.659543321202
      0.1958570000D+00  0.1000000000D+01  0.1000000000D+01
 Atom C3       Shell     7 S   3     bf   19 -    19         -0.375206901891          3.597452474685          0.406251364417
      0.1722560000D+03  0.6176690738D-01
      0.2591090000D+02  0.3587940429D+00
      0.5533350000D+01  0.7007130837D+00
 Atom C3       Shell     8 SP   2    bf   20 -    23         -0.375206901891          3.597452474685          0.406251364417
      0.3664980000D+01 -0.3958951621D+00  0.2364599466D+00
      0.7705450000D+00  0.1215834356D+01  0.8606188057D+00
 Atom C3       Shell     9 SP   1    bf   24 -    27         -0.375206901891          3.597452474685          0.406251364417
      0.1958570000D+00  0.1000000000D+01  0.1000000000D+01
 Atom C4       Shell    10 S   3     bf   28 -    28          0.741463279527         -1.922118483654          0.904073975740
      0.1722560000D+03  0.6176690738D-01
      0.2591090000D+02  0.3587940429D+00
      0.5533350000D+01  0.7007130837D+00
 Atom C4       Shell    11 SP   2    bf   29 -    32          0.741463279527         -1.922118483654          0.904073975740
      0.3664980000D+01 -0.3958951621D+00  0.2364599466D+00
      0.7705450000D+00  0.1215834356D+01  0.8606188057D+00
 Atom C4       Shell    12 SP   1    bf   33 -    36          0.741463279527         -1.922118483654          0.904073975740
      0.1958570000D+00  0.1000000000D+01  0.1000000000D+01
 Atom C5       Shell    13 S   3     bf   37 -    37          2.247098147794          2.572836581613         -0.104143185272
      0.1722560000D+03  0.6176690738D-01
      0.2591090000D+02  0.3587940429D+00
      0.5533350000D+01  0.7007130837D+00
 Atom C5       Shell    14 SP   2    bf   38 -    41          2.247098147794          2.572836581613         -0.104143185272
      0.3664980000D+01 -0.3958951621D+00  0.2364599466D+00
      0.7705450000D+00  0.1215834356D+01  0.8606188057D+00
 Atom C5       Shell    15 SP   1    bf   42 -    45          2.247098147794          2.572836581613         -0.104143185272
      0.1958570000D+00  0.1000000000D+01  0.1000000000D+01
 Atom C6       Shell    16 S   3     bf   46 -    46          2.474549837367         -0.230249678212         -0.631313269795
      0.1722560000D+03  0.6176690738D-01
      0.2591090000D+02  0.3587940429D+00
      0.5533350000D+01  0.7007130837D+00
 Atom C6       Shell    17 SP   2    bf   47 -    50          2.474549837367         -0.230249678212         -0.631313269795
      0.3664980000D+01 -0.3958951621D+00  0.2364599466D+00
      0.7705450000D+00  0.1215834356D+01  0.8606188057D+00
 Atom C6       Shell    18 SP   1    bf   51 -    54          2.474549837367         -0.230249678212         -0.631313269795
      0.1958570000D+00  0.1000000000D+01  0.1000000000D+01
 Atom H7       Shell    19 S   2     bf   55 -    55         -4.811928899910         -3.090161080135          1.513429501791
      0.5447178000D+01  0.1562849787D+00
      0.8245472400D+00  0.9046908767D+00
 Atom H7       Shell    20 S   1     bf   56 -    56         -4.811928899910         -3.090161080135          1.513429501791
      0.1831915800D+00  0.1000000000D+01
 Atom H8       Shell    21 S   2     bf   57 -    57         -0.802234209844          3.379077488990          2.474302506264
      0.5447178000D+01  0.1562849787D+00
      0.8245472400D+00  0.9046908767D+00
 Atom H8       Shell    22 S   1     bf   58 -    58         -0.802234209844          3.379077488990          2.474302506264
      0.1831915800D+00  0.1000000000D+01
 Atom H9       Shell    23 S   2     bf   59 -    59          3.460554623133          3.052240428890          1.572532249427
      0.5447178000D+01  0.1562849787D+00
      0.8245472400D+00  0.9046908767D+00
 Atom H9       Shell    24 S   1     bf   60 -    60          3.460554623133          3.052240428890          1.572532249427
      0.1831915800D+00  0.1000000000D+01
 Atom H10      Shell    25 S   2     bf   61 -    61         -1.413458235897         -5.172838011784         -0.291312162918
      0.5447178000D+01  0.1562849787D+00
      0.8245472400D+00  0.9046908767D+00
 Atom H10      Shell    26 S   1     bf   62 -    62         -1.413458235897         -5.172838011784         -0.291312162918
      0.1831915800D+00  0.1000000000D+01
 Atom H11      Shell    27 S   2     bf   63 -    63          1.902919579769         -3.494894094892          1.731840052292
      0.5447178000D+01  0.1562849787D+00
      0.8245472400D+00  0.9046908767D+00
 Atom H11      Shell    28 S   1     bf   64 -    64          1.902919579769         -3.494894094892          1.731840052292
      0.1831915800D+00  0.1000000000D+01
 Atom C12      Shell    29 S   3     bf   65 -    65         -4.214659409984          0.747189768579          0.378118939944
      0.1722560000D+03  0.6176690738D-01
      0.2591090000D+02  0.3587940429D+00
      0.5533350000D+01  0.7007130837D+00
 Atom C12      Shell    30 SP   2    bf   66 -    69         -4.214659409984          0.747189768579          0.378118939944
      0.3664980000D+01 -0.3958951621D+00  0.2364599466D+00
      0.7705450000D+00  0.1215834356D+01  0.8606188057D+00
 Atom C12      Shell    31 SP   1    bf   70 -    73         -4.214659409984          0.747189768579          0.378118939944
      0.1958570000D+00  0.1000000000D+01  0.1000000000D+01
 Atom H13      Shell    32 S   2     bf   74 -    74         -3.902132628791          1.078807702682          2.451565964683
      0.5447178000D+01  0.1562849787D+00
      0.8245472400D+00  0.9046908767D+00
 Atom H13      Shell    33 S   1     bf   75 -    75         -3.902132628791          1.078807702682          2.451565964683
      0.1831915800D+00  0.1000000000D+01
 Atom C14      Shell    34 S   3     bf   76 -    76         -2.481597507809          2.439045146545         -1.157325632600
      0.1722560000D+03  0.6176690738D-01
      0.2591090000D+02  0.3587940429D+00
      0.5533350000D+01  0.7007130837D+00
 Atom C14      Shell    35 SP   2    bf   77 -    80         -2.481597507809          2.439045146545         -1.157325632600
      0.3664980000D+01 -0.3958951621D+00  0.2364599466D+00
      0.7705450000D+00  0.1215834356D+01  0.8606188057D+00
 Atom C14      Shell    36 SP   1    bf   81 -    84         -2.481597507809          2.439045146545         -1.157325632600
      0.1958570000D+00  0.1000000000D+01  0.1000000000D+01
 Atom H15      Shell    37 S   2     bf   85 -    85         -1.671757919016          1.364297869175         -2.792538315790
      0.5447178000D+01  0.1562849787D+00
      0.8245472400D+00  0.9046908767D+00
 Atom H15      Shell    38 S   1     bf   86 -    86         -1.671757919016          1.364297869175         -2.792538315790
      0.1831915800D+00  0.1000000000D+01
 Atom C16      Shell    39 S   3     bf   87 -    87          5.231691997149         -0.998789437311         -0.105336956837
      0.1722560000D+03  0.6176690738D-01
      0.2591090000D+02  0.3587940429D+00
      0.5533350000D+01  0.7007130837D+00
 Atom C16      Shell    40 SP   2    bf   88 -    91          5.231691997149         -0.998789437311         -0.105336956837
      0.3664980000D+01 -0.3958951621D+00  0.2364599466D+00
      0.7705450000D+00  0.1215834356D+01  0.8606188057D+00
 Atom C16      Shell    41 SP   1    bf   92 -    95          5.231691997149         -0.998789437311         -0.105336956837
      0.1958570000D+00  0.1000000000D+01  0.1000000000D+01
 Atom H17      Shell    42 S   2     bf   96 -    96          5.544726474748         -2.882688164068         -0.769751802468
      0.5447178000D+01  0.1562849787D+00
      0.8245472400D+00  0.9046908767D+00
 Atom H17      Shell    43 S   1     bf   97 -    97          5.544726474748         -2.882688164068         -0.769751802468
      0.1831915800D+00  0.1000000000D+01
 Atom H18      Shell    44 S   2     bf   98 -    98          6.479840712795          0.270306612815         -1.064520038453
      0.5447178000D+01  0.1562849787D+00
      0.8245472400D+00  0.9046908767D+00
 Atom H18      Shell    45 S   1     bf   99 -    99          6.479840712795          0.270306612815         -1.064520038453
      0.1831915800D+00  0.1000000000D+01
 Atom H19      Shell    46 S   2     bf  100 -   100          5.586184715379         -0.917971912601          1.883711949552
      0.5447178000D+01  0.1562849787D+00
      0.8245472400D+00  0.9046908767D+00
 Atom H19      Shell    47 S   1     bf  101 -   101          5.586184715379         -0.917971912601          1.883711949552
      0.1831915800D+00  0.1000000000D+01
 There are   101 symmetry adapted cartesian basis functions of A   symmetry.
 There are   101 symmetry adapted basis functions of A   symmetry.
   101 basis functions,   165 primitive gaussians,   101 cartesian basis functions
    32 alpha electrons       32 beta electrons
       nuclear repulsion energy       394.0419571787 Hartrees.
 IExCor=    0 DFT=F Ex=HF Corr=None ExCW=0 ScaHFX=  1.000000
 ScaDFX=  1.000000  1.000000  1.000000  1.000000 ScalE2=  1.000000  1.000000
 IRadAn=      5 IRanWt=     -1 IRanGd=            0 ICorTp=0 IEmpDi=  4
 NAtoms=   19 NActive=   19 NUniq=   19 SFac= 1.00D+00 NAtFMM=   60 NAOKFM=F Big=F
 Integral buffers will be    131072 words long.
 Raffenetti 1 integral format.
 Two-electron integral symmetry is turned on.
 Leave Link  301 at Tue Jun 10 01:23:04 2025, MaxMem=  2013265920 cpu:               1.8 elap:               0.1
 (Enter /home/user/softwares/g16/g16/l302.exe)
 NPDir=0 NMtPBC=     1 NCelOv=     1 NCel=       1 NClECP=     1 NCelD=      1
         NCelK=      1 NCelE2=     1 NClLst=     1 CellRange=     0.0.
 One-electron integrals computed using PRISM.
 One-electron integral symmetry used in STVInt
 NBasis=   101 RedAO= T EigKep=  9.32D-03  NBF=   101
 NBsUse=   101 1.00D-06 EigRej= -1.00D+00 NBFU=   101
 Leave Link  302 at Tue Jun 10 01:23:04 2025, MaxMem=  2013265920 cpu:               5.3 elap:               0.3
 (Enter /home/user/softwares/g16/g16/l303.exe)
 DipDrv:  MaxL=1.
 Leave Link  303 at Tue Jun 10 01:23:04 2025, MaxMem=  2013265920 cpu:               1.1 elap:               0.1
 (Enter /home/user/softwares/g16/g16/l401.exe)
 ExpMin= 1.83D-01 ExpMax= 1.72D+02 ExpMxC= 1.72D+02 IAcc=3 IRadAn=         5 AccDes= 0.00D+00
 Harris functional with IExCor=  205 and IRadAn=       5 diagonalized for initial guess.
 HarFok:  IExCor=  205 AccDes= 0.00D+00 IRadAn=         5 IDoV= 1 UseB2=F ITyADJ=14
 ICtDFT=  3500011 ScaDFX=  1.000000  1.000000  1.000000  1.000000
 FoFCou: FMM=F IPFlag=           0 FMFlag=      100000 FMFlg1=           0
         NFxFlg=           0 DoJE=T BraDBF=F KetDBF=T FulRan=T
         wScrn=  0.000000 ICntrl=       500 IOpCl=  0 I1Cent=   200000004 NGrid=           0
         NMat0=    1 NMatS0=      1 NMatT0=    0 NMatD0=    1 NMtDS0=    0 NMtDT0=    0
 Petite list used in FoFCou.
 Harris En= -344.803120726531    
 JPrj=0 DoOrth=F DoCkMO=F.
 Leave Link  401 at Tue Jun 10 01:23:05 2025, MaxMem=  2013265920 cpu:              11.0 elap:               0.6
 (Enter /home/user/softwares/g16/g16/l502.exe)
 Integral symmetry usage will be decided dynamically.
 Closed shell SCF:
 Using DIIS extrapolation, IDIIS=  1040.
 NGot=  2013265920 LenX=  2013241989 LenY=  2013231347
 Requested convergence on RMS density matrix=1.00D-08 within 128 cycles.
 Requested convergence on MAX density matrix=1.00D-06.
 Requested convergence on             energy=1.00D-06.
 No special actions if energy rises.
 Fock matrices will be formed incrementally for  20 cycles.
 Integral accuracy reduced to 1.0D-05 until final iterations.

 Cycle   1  Pass 0  IDiag  1:
 FoFJK:  IHMeth= 1 ICntrl=       0 DoSepK=F KAlg= 0 I1Cent=           0 FoldK=F
 IRaf= 930000000 NMat=       1 IRICut=       1 DoRegI=T DoRafI=F ISym2E= 0 IDoP0=0 IntGTp=1.
 FoFCou: FMM=F IPFlag=           0 FMFlag=      100000 FMFlg1=           0
         NFxFlg=           0 DoJE=F BraDBF=F KetDBF=F FulRan=T
         wScrn=  0.000000 ICntrl=         0 IOpCl=  0 I1Cent=           0 NGrid=           0
         NMat0=    1 NMatS0=      1 NMatT0=    0 NMatD0=    1 NMtDS0=    0 NMtDT0=    0
 Symmetry not used in FoFCou.
 E= -343.885799920791    
 DIIS: error= 3.61D-02 at cycle   1 NSaved=   1.
 NSaved= 1 IEnMin= 1 EnMin= -343.885799920791     IErMin= 1 ErrMin= 3.61D-02
 ErrMax= 3.61D-02  0.00D+00 EMaxC= 1.00D-01 BMatC= 3.39D-01 BMatP= 3.39D-01
 IDIUse=3 WtCom= 6.39D-01 WtEn= 3.61D-01
 Coeff-Com:  0.100D+01
 Coeff-En:   0.100D+01
 Coeff:      0.100D+01
 Gap=     0.170 Goal=   None    Shift=    0.000
 GapD=    0.170 DampG=1.000 DampE=0.500 DampFc=0.5000 IDamp=-1.
 Damping current iteration by 5.00D-01
 RMSDP=6.66D-03 MaxDP=8.14D-02              OVMax= 9.22D-02

 Cycle   2  Pass 0  IDiag  1:
 RMSU=  3.26D-03    CP:  9.85D-01
 E= -344.028793835572     Delta-E=       -0.142993914781 Rises=F Damp=T
 DIIS: error= 1.53D-02 at cycle   2 NSaved=   2.
 NSaved= 2 IEnMin= 2 EnMin= -344.028793835572     IErMin= 2 ErrMin= 1.53D-02
 ErrMax= 1.53D-02  0.00D+00 EMaxC= 1.00D-01 BMatC= 6.78D-02 BMatP= 3.39D-01
 IDIUse=3 WtCom= 8.47D-01 WtEn= 1.53D-01
 Coeff-Com: -0.646D+00 0.165D+01
 Coeff-En:   0.000D+00 0.100D+01
 Coeff:     -0.547D+00 0.155D+01
 Gap=     0.221 Goal=   None    Shift=    0.000
 RMSDP=2.48D-03 MaxDP=3.90D-02 DE=-1.43D-01 OVMax= 4.73D-02

 Cycle   3  Pass 0  IDiag  1:
 RMSU=  1.51D-03    CP:  9.75D-01  1.59D+00
 E= -344.156555334358     Delta-E=       -0.127761498787 Rises=F Damp=F
 DIIS: error= 3.86D-03 at cycle   3 NSaved=   3.
 NSaved= 3 IEnMin= 3 EnMin= -344.156555334358     IErMin= 3 ErrMin= 3.86D-03
 ErrMax= 3.86D-03  0.00D+00 EMaxC= 1.00D-01 BMatC= 1.33D-03 BMatP= 6.78D-02
 IDIUse=3 WtCom= 9.61D-01 WtEn= 3.86D-02
 Coeff-Com: -0.818D-01 0.135D+00 0.946D+00
 Coeff-En:   0.000D+00 0.000D+00 0.100D+01
 Coeff:     -0.787D-01 0.130D+00 0.949D+00
 Gap=     0.214 Goal=   None    Shift=    0.000
 RMSDP=6.56D-04 MaxDP=1.17D-02 DE=-1.28D-01 OVMax= 2.29D-02

 Cycle   4  Pass 0  IDiag  1:
 RMSU=  5.73D-04    CP:  9.76D-01  1.67D+00  1.13D+00
 E= -344.158713928566     Delta-E=       -0.002158594208 Rises=F Damp=F
 DIIS: error= 2.03D-03 at cycle   4 NSaved=   4.
 NSaved= 4 IEnMin= 4 EnMin= -344.158713928566     IErMin= 4 ErrMin= 2.03D-03
 ErrMax= 2.03D-03  0.00D+00 EMaxC= 1.00D-01 BMatC= 2.93D-04 BMatP= 1.33D-03
 IDIUse=3 WtCom= 9.80D-01 WtEn= 2.03D-02
 Coeff-Com:  0.311D-02-0.256D-01 0.256D+00 0.767D+00
 Coeff-En:   0.000D+00 0.000D+00 0.000D+00 0.100D+01
 Coeff:      0.304D-02-0.251D-01 0.250D+00 0.772D+00
 Gap=     0.220 Goal=   None    Shift=    0.000
 RMSDP=2.62D-04 MaxDP=3.02D-03 DE=-2.16D-03 OVMax= 1.04D-02

 Cycle   5  Pass 0  IDiag  1:
 RMSU=  2.14D-04    CP:  9.75D-01  1.67D+00  1.23D+00  9.41D-01
 E= -344.159380000692     Delta-E=       -0.000666072126 Rises=F Damp=F
 DIIS: error= 1.29D-03 at cycle   5 NSaved=   5.
 NSaved= 5 IEnMin= 5 EnMin= -344.159380000692     IErMin= 5 ErrMin= 1.29D-03
 ErrMax= 1.29D-03  0.00D+00 EMaxC= 1.00D-01 BMatC= 6.24D-05 BMatP= 2.93D-04
 IDIUse=3 WtCom= 9.87D-01 WtEn= 1.29D-02
 Coeff-Com:  0.809D-02-0.361D-02-0.286D+00-0.204D+00 0.148D+01
 Coeff-En:   0.000D+00 0.000D+00 0.000D+00 0.000D+00 0.100D+01
 Coeff:      0.799D-02-0.357D-02-0.282D+00-0.201D+00 0.148D+01
 Gap=     0.223 Goal=   None    Shift=    0.000
 RMSDP=2.96D-04 MaxDP=3.76D-03 DE=-6.66D-04 OVMax= 1.48D-02

 Cycle   6  Pass 0  IDiag  1:
 RMSU=  9.82D-05    CP:  9.76D-01  1.68D+00  1.32D+00  1.26D+00  1.76D+00
 E= -344.159773015555     Delta-E=       -0.000393014863 Rises=F Damp=F
 DIIS: error= 3.75D-04 at cycle   6 NSaved=   6.
 NSaved= 6 IEnMin= 6 EnMin= -344.159773015555     IErMin= 6 ErrMin= 3.75D-04
 ErrMax= 3.75D-04  0.00D+00 EMaxC= 1.00D-01 BMatC= 1.61D-05 BMatP= 6.24D-05
 IDIUse=3 WtCom= 9.96D-01 WtEn= 3.75D-03
 Coeff-Com:  0.480D-03 0.642D-02-0.138D+00-0.221D+00 0.408D+00 0.944D+00
 Coeff-En:   0.000D+00 0.000D+00 0.000D+00 0.000D+00 0.000D+00 0.100D+01
 Coeff:      0.478D-03 0.639D-02-0.138D+00-0.220D+00 0.407D+00 0.944D+00
 Gap=     0.224 Goal=   None    Shift=    0.000
 RMSDP=1.31D-04 MaxDP=1.68D-03 DE=-3.93D-04 OVMax= 5.26D-03

 Cycle   7  Pass 0  IDiag  1:
 RMSU=  4.33D-05    CP:  9.76D-01  1.69D+00  1.34D+00  1.34D+00  2.23D+00
                    CP:  1.33D+00
 E= -344.159845155622     Delta-E=       -0.000072140067 Rises=F Damp=F
 DIIS: error= 2.65D-04 at cycle   7 NSaved=   7.
 NSaved= 7 IEnMin= 7 EnMin= -344.159845155622     IErMin= 7 ErrMin= 2.65D-04
 ErrMax= 2.65D-04  0.00D+00 EMaxC= 1.00D-01 BMatC= 1.76D-06 BMatP= 1.61D-05
 IDIUse=3 WtCom= 9.97D-01 WtEn= 2.65D-03
 Coeff-Com: -0.257D-02 0.147D-02 0.854D-01 0.678D-01-0.342D+00-0.250D+00
 Coeff-Com:  0.144D+01
 Coeff-En:   0.000D+00 0.000D+00 0.000D+00 0.000D+00 0.000D+00 0.000D+00
 Coeff-En:   0.100D+01
 Coeff:     -0.257D-02 0.147D-02 0.852D-01 0.676D-01-0.341D+00-0.249D+00
 Coeff:      0.144D+01
 Gap=     0.225 Goal=   None    Shift=    0.000
 RMSDP=7.24D-05 MaxDP=8.00D-04 DE=-7.21D-05 OVMax= 3.71D-03

 Cycle   8  Pass 0  IDiag  1:
 RMSU=  1.88D-05    CP:  9.76D-01  1.69D+00  1.35D+00  1.37D+00  2.45D+00
                    CP:  1.75D+00  1.66D+00
 E= -344.159860299600     Delta-E=       -0.000015143977 Rises=F Damp=F
 DIIS: error= 8.80D-05 at cycle   8 NSaved=   8.
 NSaved= 8 IEnMin= 8 EnMin= -344.159860299600     IErMin= 8 ErrMin= 8.80D-05
 ErrMax= 8.80D-05  0.00D+00 EMaxC= 1.00D-01 BMatC= 3.26D-07 BMatP= 1.76D-06
 IDIUse=1 WtCom= 1.00D+00 WtEn= 0.00D+00
 Coeff-Com:  0.244D-03-0.976D-03 0.107D-01 0.961D-02-0.787D-02-0.135D+00
 Coeff-Com:  0.521D-01 0.107D+01
 Coeff:      0.244D-03-0.976D-03 0.107D-01 0.961D-02-0.787D-02-0.135D+00
 Coeff:      0.521D-01 0.107D+01
 Gap=     0.225 Goal=   None    Shift=    0.000
 RMSDP=2.24D-05 MaxDP=1.98D-04 DE=-1.51D-05 OVMax= 1.03D-03

 Cycle   9  Pass 0  IDiag  1:
 RMSU=  8.58D-06    CP:  9.76D-01  1.69D+00  1.35D+00  1.37D+00  2.50D+00
                    CP:  1.83D+00  1.94D+00  1.52D+00
 E= -344.159862422588     Delta-E=       -0.000002122988 Rises=F Damp=F
 DIIS: error= 6.31D-05 at cycle   9 NSaved=   9.
 NSaved= 9 IEnMin= 9 EnMin= -344.159862422588     IErMin= 9 ErrMin= 6.31D-05
 ErrMax= 6.31D-05  0.00D+00 EMaxC= 1.00D-01 BMatC= 1.12D-07 BMatP= 3.26D-07
 IDIUse=1 WtCom= 1.00D+00 WtEn= 0.00D+00
 Coeff-Com:  0.829D-03-0.795D-03-0.192D-01-0.210D-01 0.944D-01 0.254D-01
 Coeff-Com: -0.311D+00 0.224D-01 0.121D+01
 Coeff:      0.829D-03-0.795D-03-0.192D-01-0.210D-01 0.944D-01 0.254D-01
 Coeff:     -0.311D+00 0.224D-01 0.121D+01
 Gap=     0.225 Goal=   None    Shift=    0.000
 RMSDP=1.76D-05 MaxDP=1.85D-04 DE=-2.12D-06 OVMax= 9.95D-04

 Cycle  10  Pass 0  IDiag  1:
 RMSU=  6.03D-06    CP:  9.76D-01  1.69D+00  1.35D+00  1.37D+00  2.52D+00
                    CP:  1.88D+00  2.10D+00  2.08D+00  2.04D+00
 E= -344.159863679456     Delta-E=       -0.000001256868 Rises=F Damp=F
 DIIS: error= 6.69D-05 at cycle  10 NSaved=  10.
 NSaved=10 IEnMin=10 EnMin= -344.159863679456     IErMin= 9 ErrMin= 6.31D-05
 ErrMax= 6.69D-05  0.00D+00 EMaxC= 1.00D-01 BMatC= 4.80D-08 BMatP= 1.12D-07
 IDIUse=1 WtCom= 1.00D+00 WtEn= 0.00D+00
 Coeff-Com:  0.823D-04-0.306D-04-0.260D-02-0.527D-02 0.107D-01 0.230D-01
 Coeff-Com: -0.140D-01-0.231D+00 0.251D-01 0.119D+01
 Coeff:      0.823D-04-0.306D-04-0.260D-02-0.527D-02 0.107D-01 0.230D-01
 Coeff:     -0.140D-01-0.231D+00 0.251D-01 0.119D+01
 Gap=     0.225 Goal=   None    Shift=    0.000
 RMSDP=1.48D-05 MaxDP=1.68D-04 DE=-1.26D-06 OVMax= 1.03D-03

 Cycle  11  Pass 0  IDiag  1:
 RMSU=  3.98D-06    CP:  9.76D-01  1.69D+00  1.35D+00  1.37D+00  2.53D+00
                    CP:  1.89D+00  2.17D+00  2.47D+00  3.00D+00  2.00D+00
 E= -344.159864590757     Delta-E=       -0.000000911301 Rises=F Damp=F
 DIIS: error= 6.83D-05 at cycle  11 NSaved=  11.
 NSaved=11 IEnMin=11 EnMin= -344.159864590757     IErMin= 9 ErrMin= 6.31D-05
 ErrMax= 6.83D-05  0.00D+00 EMaxC= 1.00D-01 BMatC= 3.71D-08 BMatP= 4.80D-08
 IDIUse=1 WtCom= 1.00D+00 WtEn= 0.00D+00
 Coeff-Com: -0.737D-04 0.500D-04 0.245D-02 0.117D-02-0.106D-01-0.864D-03
 Coeff-Com:  0.466D-01-0.596D-01-0.181D+00 0.340D+00 0.862D+00
 Coeff:     -0.737D-04 0.500D-04 0.245D-02 0.117D-02-0.106D-01-0.864D-03
 Coeff:      0.466D-01-0.596D-01-0.181D+00 0.340D+00 0.862D+00
 Gap=     0.225 Goal=   None    Shift=    0.000
 RMSDP=1.01D-05 MaxDP=1.13D-04 DE=-9.11D-07 OVMax= 7.50D-04

 Cycle  12  Pass 0  IDiag  1:
 RMSU=  4.19D-06    CP:  9.76D-01  1.69D+00  1.35D+00  1.37D+00  2.53D+00
                    CP:  1.89D+00  2.20D+00  2.69D+00  3.00D+00  2.86D+00
                    CP:  2.55D+00
 E= -344.159865229702     Delta-E=       -0.000000638945 Rises=F Damp=F
 DIIS: error= 7.03D-05 at cycle  12 NSaved=  12.
 NSaved=12 IEnMin=12 EnMin= -344.159865229702     IErMin= 9 ErrMin= 6.31D-05
 ErrMax= 7.03D-05  0.00D+00 EMaxC= 1.00D-01 BMatC= 3.64D-08 BMatP= 3.71D-08
 IDIUse=1 WtCom= 1.00D+00 WtEn= 0.00D+00
 Coeff-Com: -0.854D-04 0.610D-04 0.275D-02 0.136D-02-0.120D-01-0.847D-03
 Coeff-Com:  0.523D-01-0.664D-01-0.203D+00 0.373D+00 0.991D+00-0.138D+00
 Coeff:     -0.854D-04 0.610D-04 0.275D-02 0.136D-02-0.120D-01-0.847D-03
 Coeff:      0.523D-01-0.664D-01-0.203D+00 0.373D+00 0.991D+00-0.138D+00
 Gap=     0.225 Goal=   None    Shift=    0.000
 RMSDP=1.24D-06 MaxDP=1.38D-05 DE=-6.39D-07 OVMax= 9.32D-05

 Initial convergence to 1.0D-05 achieved.  Increase integral accuracy.
 Cycle  13  Pass 1  IDiag  1:
 E= -344.159862576910     Delta-E=        0.000002652792 Rises=F Damp=F
 DIIS: error= 7.03D-05 at cycle   1 NSaved=   1.
 NSaved= 1 IEnMin= 1 EnMin= -344.159862576910     IErMin= 1 ErrMin= 7.03D-05
 ErrMax= 7.03D-05  0.00D+00 EMaxC= 1.00D-01 BMatC= 3.70D-08 BMatP= 3.70D-08
 IDIUse=1 WtCom= 1.00D+00 WtEn= 0.00D+00
 Coeff-Com:  0.100D+01
 Coeff:      0.100D+01
 Gap=     0.225 Goal=   None    Shift=    0.000
 RMSDP=1.24D-06 MaxDP=1.38D-05 DE= 2.65D-06 OVMax= 7.21D-04

 Cycle  14  Pass 1  IDiag  1:
 RMSU=  9.64D-06    CP:  1.00D+00
 E= -344.159863118992     Delta-E=       -0.000000542082 Rises=F Damp=F
 DIIS: error= 7.17D-05 at cycle   2 NSaved=   2.
 NSaved= 2 IEnMin= 2 EnMin= -344.159863118992     IErMin= 1 ErrMin= 7.03D-05
 ErrMax= 7.17D-05  0.00D+00 EMaxC= 1.00D-01 BMatC= 3.75D-08 BMatP= 3.70D-08
 IDIUse=1 WtCom= 1.00D+00 WtEn= 0.00D+00
 Coeff-Com:  0.804D+00 0.196D+00
 Coeff:      0.804D+00 0.196D+00
 Gap=     0.225 Goal=   None    Shift=    0.000
 RMSDP=1.92D-06 MaxDP=2.12D-05 DE=-5.42D-07 OVMax= 1.44D-04

 Cycle  15  Pass 1  IDiag  1:
 RMSU=  1.23D-07    CP:  1.00D+00  1.20D+00
 E= -344.159863228457     Delta-E=       -0.000000109464 Rises=F Damp=F
 DIIS: error= 7.21D-05 at cycle   3 NSaved=   3.
 NSaved= 3 IEnMin= 3 EnMin= -344.159863228457     IErMin= 1 ErrMin= 7.03D-05
 ErrMax= 7.21D-05  0.00D+00 EMaxC= 1.00D-01 BMatC= 3.78D-08 BMatP= 3.70D-08
 IDIUse=1 WtCom= 1.00D+00 WtEn= 0.00D+00
 Large coefficients: NSaved=  3 BigCof=   28.68 CofMax=   10.00 Det=-5.19D-12
 Inversion failed.  Reducing to  2 matrices.
 Large coefficients: NSaved=  2 BigCof=   27.01 CofMax=   10.00 Det=-5.23D-12
 Coeff-Com:  0.270D+02-0.260D+02
 Coeff:      0.270D+02-0.260D+02
 Gap=     0.225 Goal=   None    Shift=    0.000
 RMSDP=4.31D-05 MaxDP=4.75D-04 DE=-1.09D-07 OVMax= 3.24D-03

 Cycle  16  Pass 1  IDiag  1:
 RMSU=  3.71D-06    CP:  1.00D+00 -3.00D+00 -3.00D+00
 E= -344.159860880632     Delta-E=        0.000002347825 Rises=F Damp=F
 DIIS: error= 6.55D-05 at cycle   4 NSaved=   3.
 NSaved= 3 IEnMin= 2 EnMin= -344.159863228457     IErMin= 3 ErrMin= 6.55D-05
 ErrMax= 6.55D-05  0.00D+00 EMaxC= 1.00D-01 BMatC= 3.39D-08 BMatP= 3.75D-08
 IDIUse=1 WtCom= 1.00D+00 WtEn= 0.00D+00
 Large coefficients: NSaved=  3 BigCof=   63.22 CofMax=   10.00 Det=-3.44D-12
 Inversion failed.  Reducing to  2 matrices.
 Coeff-Com: -0.886D-01 0.109D+01
 Coeff:     -0.886D-01 0.109D+01
 Gap=     0.225 Goal=   None    Shift=    0.000
 RMSDP=5.17D-06 MaxDP=5.99D-05 DE= 2.35D-06 OVMax= 3.78D-04

 Cycle  17  Pass 1  IDiag  1:
 RMSU=  2.09D-06    CP:  1.00D+00 -2.74D+00 -3.00D+00  5.33D-01
 E= -344.159861144129     Delta-E=       -0.000000263497 Rises=F Damp=F
 DIIS: error= 6.56D-05 at cycle   5 NSaved=   3.
 NSaved= 3 IEnMin= 1 EnMin= -344.159863228457     IErMin= 2 ErrMin= 6.55D-05
 ErrMax= 6.56D-05  0.00D+00 EMaxC= 1.00D-01 BMatC= 3.33D-08 BMatP= 3.39D-08
 IDIUse=1 WtCom= 1.00D+00 WtEn= 0.00D+00
 Coeff-Com: -0.813D+01 0.358D+01 0.555D+01
 Coeff:     -0.813D+01 0.358D+01 0.555D+01
 Gap=     0.225 Goal=   None    Shift=    0.000
 RMSDP=3.25D-04 MaxDP=3.56D-03 DE=-2.63D-07 OVMax= 2.44D-02

 Cycle  18  Pass 1  IDiag  1:
 RMSU=  3.11D-04    CP:  1.00D+00 -3.00D+00 -3.00D+00  3.00D+00 -3.00D+00
 E= -344.159850764842     Delta-E=        0.000010379288 Rises=F Damp=F
 DIIS: error= 2.30D-05 at cycle   6 NSaved=   4.
 NSaved= 4 IEnMin= 1 EnMin= -344.159863228457     IErMin= 4 ErrMin= 2.30D-05
 ErrMax= 2.30D-05  0.00D+00 EMaxC= 1.00D-01 BMatC= 3.82D-08 BMatP= 3.33D-08
 IDIUse=1 WtCom= 1.00D+00 WtEn= 0.00D+00
 Coeff-Com: -0.785D+01 0.342D+01 0.540D+01 0.374D-01
 Coeff:     -0.785D+01 0.342D+01 0.540D+01 0.374D-01
 Gap=     0.225 Goal=   None    Shift=    0.000
 RMSDP=6.69D-07 MaxDP=7.97D-06 DE= 1.04D-05 OVMax= 4.97D-05

 Cycle  19  Pass 1  IDiag  1:
 RMSU=  1.26D-07    CP:  1.00D+00 -3.00D+00 -3.00D+00  3.00D+00 -3.00D+00
                    CP:  1.00D+00
 E= -344.159850761415     Delta-E=        0.000000003426 Rises=F Damp=F
 DIIS: error= 2.21D-05 at cycle   7 NSaved=   5.
 NSaved= 5 IEnMin= 1 EnMin= -344.159863228457     IErMin= 5 ErrMin= 2.21D-05
 ErrMax= 2.21D-05  0.00D+00 EMaxC= 1.00D-01 BMatC= 3.55D-08 BMatP= 3.33D-08
 IDIUse=1 WtCom= 1.00D+00 WtEn= 0.00D+00
 Large coefficients: NSaved=  5 BigCof=   22.48 CofMax=   10.00 Det=-6.94D-12
 Inversion failed.  Reducing to  4 matrices.
 Large coefficients: NSaved=  4 BigCof=   19.88 CofMax=   10.00 Det=-2.99D-11
 Inversion failed.  Reducing to  3 matrices.
 Large coefficients: NSaved=  3 BigCof=   22.60 CofMax=   10.00 Det=-3.36D-11
 Inversion failed.  Reducing to  2 matrices.
 Large coefficients: NSaved=  2 BigCof=   22.75 CofMax=   10.00 Det=-6.06D-11
 Coeff-Com: -0.218D+02 0.228D+02
 Coeff:     -0.218D+02 0.228D+02
 Gap=     0.225 Goal=   None    Shift=    0.000
 RMSDP=1.33D-05 MaxDP=1.62D-04 DE= 3.43D-09 OVMax= 9.62D-04

 Cycle  20  Pass 1  IDiag  1:
 RMSU=  3.88D-06    CP:  1.00D+00 -3.00D+00 -3.00D+00  3.00D+00 -3.00D+00
                    CP:  1.04D+00  3.00D+00
 E= -344.159850702857     Delta-E=        0.000000058558 Rises=F Damp=F
 DIIS: error= 1.14D-05 at cycle   8 NSaved=   3.
 NSaved= 3 IEnMin= 1 EnMin= -344.159850764842     IErMin= 3 ErrMin= 1.14D-05
 ErrMax= 1.14D-05  0.00D+00 EMaxC= 1.00D-01 BMatC= 3.75D-09 BMatP= 3.55D-08
 IDIUse=1 WtCom= 1.00D+00 WtEn= 0.00D+00
 Coeff-Com: -0.652D+01 0.669D+01 0.835D+00
 Coeff:     -0.652D+01 0.669D+01 0.835D+00
 Gap=     0.225 Goal=   None    Shift=    0.000
 RMSDP=1.28D-06 MaxDP=1.57D-05 DE= 5.86D-08 OVMax= 5.99D-05

 Cycle  21  Pass 1  IDiag  1:
 RMSU=  7.69D-07    CP:  1.00D+00 -3.00D+00 -3.00D+00  3.00D+00 -3.00D+00
                    CP:  1.04D+00  3.00D+00  1.22D+00
 E= -344.159850706485     Delta-E=       -0.000000003628 Rises=F Damp=F
 DIIS: error= 1.20D-05 at cycle   9 NSaved=   4.
 NSaved= 4 IEnMin= 1 EnMin= -344.159850764842     IErMin= 3 ErrMin= 1.14D-05
 ErrMax= 1.20D-05  0.00D+00 EMaxC= 1.00D-01 BMatC= 2.17D-09 BMatP= 3.75D-09
 IDIUse=1 WtCom= 1.00D+00 WtEn= 0.00D+00
 Coeff-Com:  0.728D+01-0.779D+01 0.317D-01 0.147D+01
 Coeff:      0.728D+01-0.779D+01 0.317D-01 0.147D+01
 Gap=     0.225 Goal=   None    Shift=    0.000
 RMSDP=1.88D-06 MaxDP=1.75D-05 DE=-3.63D-09 OVMax= 8.08D-05

 Cycle  22  Pass 1  IDiag  1:
 RMSU=  5.56D-07    CP:  1.00D+00 -3.00D+00 -3.00D+00  3.00D+00 -3.00D+00
                    CP:  1.05D+00  3.00D+00  1.65D+00  1.66D+00
 E= -344.159850710806     Delta-E=       -0.000000004321 Rises=F Damp=F
 DIIS: error= 1.17D-05 at cycle  10 NSaved=   5.
 NSaved= 5 IEnMin= 1 EnMin= -344.159850764842     IErMin= 3 ErrMin= 1.14D-05
 ErrMax= 1.17D-05  0.00D+00 EMaxC= 1.00D-01 BMatC= 1.06D-09 BMatP= 2.17D-09
 IDIUse=1 WtCom= 1.00D+00 WtEn= 0.00D+00
 Coeff-Com:  0.199D+00-0.204D+00-0.612D-01-0.882D-02 0.108D+01
 Coeff:      0.199D+00-0.204D+00-0.612D-01-0.882D-02 0.108D+01
 Gap=     0.225 Goal=   None    Shift=    0.000
 RMSDP=1.65D-06 MaxDP=2.08D-05 DE=-4.32D-09 OVMax= 1.22D-04

 Cycle  23  Pass 1  IDiag  1:
 RMSU=  1.39D-07    CP:  1.00D+00 -3.00D+00 -3.00D+00  3.00D+00 -3.00D+00
                    CP:  1.04D+00  3.00D+00  1.71D+00  1.85D+00  1.31D+00
 E= -344.159850726397     Delta-E=       -0.000000015591 Rises=F Damp=F
 DIIS: error= 1.21D-05 at cycle  11 NSaved=   6.
 NSaved= 6 IEnMin= 1 EnMin= -344.159850764842     IErMin= 3 ErrMin= 1.14D-05
 ErrMax= 1.21D-05  0.00D+00 EMaxC= 1.00D-01 BMatC= 1.07D-09 BMatP= 1.06D-09
 IDIUse=1 WtCom= 1.00D+00 WtEn= 0.00D+00
 Coeff-Com:  0.206D+00-0.212D+00-0.577D-01-0.300D-02 0.968D+00 0.991D-01
 Coeff:      0.206D+00-0.212D+00-0.577D-01-0.300D-02 0.968D+00 0.991D-01
 Gap=     0.225 Goal=   None    Shift=    0.000
 RMSDP=1.65D-07 MaxDP=1.91D-06 DE=-1.56D-08 OVMax= 1.24D-05

 Cycle  24  Pass 1  IDiag  1:
 RMSU=  6.19D-09    CP:  1.00D+00 -3.00D+00 -3.00D+00  3.00D+00 -3.00D+00
                    CP:  1.04D+00  3.00D+00  1.71D+00  1.86D+00  1.33D+00
                    CP:  1.04D+00
 E= -344.159850727982     Delta-E=       -0.000000001585 Rises=F Damp=F
 DIIS: error= 1.21D-05 at cycle  12 NSaved=   7.
 NSaved= 7 IEnMin= 1 EnMin= -344.159850764842     IErMin= 3 ErrMin= 1.14D-05
 ErrMax= 1.21D-05  0.00D+00 EMaxC= 1.00D-01 BMatC= 1.08D-09 BMatP= 1.06D-09
 IDIUse=1 WtCom= 1.00D+00 WtEn= 0.00D+00
 Large coefficients: NSaved=  7 BigCof=   53.04 CofMax=   10.00 Det=-4.01D-14
 Inversion failed.  Reducing to  6 matrices.
 Large coefficients: NSaved=  6 BigCof=   36.16 CofMax=   10.00 Det=-5.13D-14
 Inversion failed.  Reducing to  5 matrices.
 Large coefficients: NSaved=  5 BigCof=   21.77 CofMax=   10.00 Det=-8.82D-14
 Inversion failed.  Reducing to  4 matrices.
 Large coefficients: NSaved=  4 BigCof=   16.84 CofMax=   10.00 Det=-9.47D-14
 Inversion failed.  Reducing to  3 matrices.
 Large coefficients: NSaved=  3 BigCof=   16.66 CofMax=   10.00 Det=-9.62D-14
 Inversion failed.  Reducing to  2 matrices.
 Large coefficients: NSaved=  2 BigCof=   16.68 CofMax=   10.00 Det=-9.62D-14
 Coeff-Com:  0.167D+02-0.157D+02
 Coeff:      0.167D+02-0.157D+02
 Gap=     0.225 Goal=   None    Shift=    0.000
 RMSDP=1.15D-06 MaxDP=1.29D-05 DE=-1.59D-09 OVMax= 8.60D-05

 Cycle  25  Pass 1  IDiag  1:
 RMSU=  5.27D-08    CP:  1.00D+00 -3.00D+00 -3.00D+00  3.00D+00 -3.00D+00
                    CP:  1.04D+00  3.00D+00  1.71D+00  1.84D+00  1.31D+00
                    CP:  6.93D-01  3.00D+00
 E= -344.159850717054     Delta-E=        0.000000010928 Rises=F Damp=F
 DIIS: error= 1.18D-05 at cycle  13 NSaved=   3.
 NSaved= 3 IEnMin= 2 EnMin= -344.159850727982     IErMin= 3 ErrMin= 1.18D-05
 ErrMax= 1.18D-05  0.00D+00 EMaxC= 1.00D-01 BMatC= 1.06D-09 BMatP= 1.07D-09
 IDIUse=1 WtCom= 1.00D+00 WtEn= 0.00D+00
 Large coefficients: NSaved=  3 BigCof=   78.03 CofMax=   10.00 Det=-3.08D-14
 Inversion failed.  Reducing to  2 matrices.
 Coeff-Com:  0.303D+00 0.697D+00
 Coeff:      0.303D+00 0.697D+00
 Gap=     0.225 Goal=   None    Shift=    0.000
 RMSDP=1.98D-06 MaxDP=2.29D-05 DE= 1.09D-08 OVMax= 1.49D-04

 Cycle  26  Pass 1  IDiag  1:
 RMSU=  1.75D-08    CP:  1.00D+00 -3.00D+00 -3.00D+00  3.00D+00 -3.00D+00
                    CP:  1.04D+00  3.00D+00  1.72D+00  1.91D+00  1.44D+00
                    CP:  1.52D+00  3.00D+00  1.76D-02
 E= -344.159850736080     Delta-E=       -0.000000019026 Rises=F Damp=F
 DIIS: error= 1.22D-05 at cycle  14 NSaved=   3.
 NSaved= 3 IEnMin= 3 EnMin= -344.159850736080     IErMin= 2 ErrMin= 1.18D-05
 ErrMax= 1.22D-05  0.00D+00 EMaxC= 1.00D-01 BMatC= 1.09D-09 BMatP= 1.06D-09
 IDIUse=1 WtCom= 1.00D+00 WtEn= 0.00D+00
 Coeff-Com:  0.281D+01 0.494D+00-0.230D+01
 Coeff:      0.281D+01 0.494D+00-0.230D+01
 Gap=     0.225 Goal=   None    Shift=    0.000
 RMSDP=1.73D-06 MaxDP=2.02D-05 DE=-1.90D-08 OVMax= 1.30D-04

 Cycle  27  Pass 1  IDiag  1:
 RMSU=  1.20D-08    CP:  1.00D+00 -3.00D+00 -3.00D+00  3.00D+00 -3.00D+00
                    CP:  1.04D+00  3.00D+00  1.71D+00  1.87D+00  1.25D+00
                    CP:  8.51D-01 -3.00D+00  2.12D-01 -6.57D-01
 E= -344.159850719467     Delta-E=        0.000000016613 Rises=F Damp=F
 DIIS: error= 1.20D-05 at cycle  15 NSaved=   4.
 NSaved= 4 IEnMin= 3 EnMin= -344.159850736080     IErMin= 2 ErrMin= 1.18D-05
 ErrMax= 1.20D-05  0.00D+00 EMaxC= 1.00D-01 BMatC= 1.06D-09 BMatP= 1.06D-09
 IDIUse=1 WtCom= 1.00D+00 WtEn= 0.00D+00
 Coeff-Com:  0.667D+00 0.755D+00-0.450D+01 0.408D+01
 Coeff:      0.667D+00 0.755D+00-0.450D+01 0.408D+01
 Gap=     0.225 Goal=   None    Shift=    0.000
 RMSDP=5.89D-06 MaxDP=6.63D-05 DE= 1.66D-08 OVMax= 4.42D-04

 Cycle  28  Pass 1  IDiag  1:
 RMSU=  1.23D-07    CP:  1.00D+00 -3.00D+00 -3.00D+00  3.00D+00 -3.00D+00
                    CP:  1.06D+00  3.00D+00  1.69D+00  1.71D+00  8.99D-01
                    CP: -5.82D-01 -3.00D+00  1.16D+00 -3.00D+00  3.00D+00
 E= -344.159850665595     Delta-E=        0.000000053872 Rises=F Damp=F
 DIIS: error= 1.09D-05 at cycle  16 NSaved=   5.
 NSaved= 5 IEnMin= 3 EnMin= -344.159850736080     IErMin= 5 ErrMin= 1.09D-05
 ErrMax= 1.09D-05  0.00D+00 EMaxC= 1.00D-01 BMatC= 9.56D-10 BMatP= 1.06D-09
 IDIUse=1 WtCom= 1.00D+00 WtEn= 0.00D+00
 Large coefficients: NSaved=  5 BigCof=   26.82 CofMax=   10.00 Det=-3.75D-13
 Inversion failed.  Reducing to  4 matrices.
 Large coefficients: NSaved=  4 BigCof=   14.72 CofMax=   10.00 Det=-6.13D-13
 Inversion failed.  Reducing to  3 matrices.
 Coeff-Com: -0.359D+01 0.290D+01 0.169D+01
 Coeff:     -0.359D+01 0.290D+01 0.169D+01
 Gap=     0.225 Goal=   None    Shift=    0.000
 RMSDP=8.98D-06 MaxDP=1.00D-04 DE= 5.39D-08 OVMax= 6.74D-04

 Cycle  29  Pass 1  IDiag  1:
 RMSU=  5.81D-08    CP:  1.00D+00 -3.00D+00 -3.00D+00  3.00D+00 -3.00D+00
                    CP:  1.09D+00  3.00D+00  1.68D+00  1.71D+00  4.06D-01
                    CP: -2.21D+00 -3.00D+00  3.00D+00 -3.00D+00  3.00D+00
                    CP:  2.48D+00
 E= -344.159850591741     Delta-E=        0.000000073854 Rises=F Damp=F
 DIIS: error= 9.55D-06 at cycle  17 NSaved=   4.
 NSaved= 4 IEnMin= 1 EnMin= -344.159850736080     IErMin= 4 ErrMin= 9.55D-06
 ErrMax= 9.55D-06  0.00D+00 EMaxC= 1.00D-01 BMatC= 7.75D-10 BMatP= 9.56D-10
 IDIUse=1 WtCom= 1.00D+00 WtEn= 0.00D+00
 Coeff-Com:  0.823D+01-0.982D+01-0.152D+01 0.412D+01
 Coeff:      0.823D+01-0.982D+01-0.152D+01 0.412D+01
 Gap=     0.225 Goal=   None    Shift=    0.000
 RMSDP=2.23D-05 MaxDP=2.42D-04 DE= 7.39D-08 OVMax= 1.68D-03

 Cycle  30  Pass 1  IDiag  1:
 RMSU=  5.35D-07    CP:  1.00D+00 -3.00D+00 -3.00D+00  3.00D+00 -3.00D+00
                    CP:  1.16D+00  3.00D+00  1.79D+00  1.93D+00 -1.27D-02
                    CP: -2.04D+00 -3.00D+00  3.00D+00 -3.00D+00  3.00D+00
                    CP:  3.00D+00  3.00D+00
 E= -344.159850453184     Delta-E=        0.000000138556 Rises=F Damp=F
 DIIS: error= 6.13D-06 at cycle  18 NSaved=   5.
 NSaved= 5 IEnMin= 1 EnMin= -344.159850736080     IErMin= 5 ErrMin= 6.13D-06
 ErrMax= 6.13D-06  0.00D+00 EMaxC= 1.00D-01 BMatC= 4.20D-10 BMatP= 7.75D-10
 IDIUse=1 WtCom= 1.00D+00 WtEn= 0.00D+00
 Large coefficients: NSaved=  5 BigCof=   11.54 CofMax=   10.00 Det=-1.39D-12
 Inversion failed.  Reducing to  4 matrices.
 Coeff-Com:  0.495D+01-0.657D+01 0.131D+01 0.131D+01
 Coeff:      0.495D+01-0.657D+01 0.131D+01 0.131D+01
 Gap=     0.225 Goal=   None    Shift=    0.000
 RMSDP=2.21D-05 MaxDP=2.38D-04 DE= 1.39D-07 OVMax= 1.66D-03

 Cycle  31  Pass 1  IDiag  1:
 RMSU=  1.64D-07    CP:  1.00D+00 -3.00D+00 -3.00D+00  3.00D+00 -3.00D+00
                    CP:  1.23D+00  3.00D+00  1.90D+00  2.20D+00 -4.70D-01
                    CP: -3.00D+00 -3.00D+00  3.00D+00  2.53D+00  3.00D+00
                    CP:  3.00D+00  3.00D+00  2.18D+00
 E= -344.159850377108     Delta-E=        0.000000076077 Rises=F Damp=F
 DIIS: error= 2.59D-06 at cycle  19 NSaved=   5.
 NSaved= 5 IEnMin= 1 EnMin= -344.159850736080     IErMin= 5 ErrMin= 2.59D-06
 ErrMax= 2.59D-06  0.00D+00 EMaxC= 1.00D-01 BMatC= 1.65D-10 BMatP= 4.20D-10
 IDIUse=1 WtCom= 1.00D+00 WtEn= 0.00D+00
 Coeff-Com:  0.253D+01-0.244D+01-0.737D+00 0.500D+00 0.115D+01
 Coeff:      0.253D+01-0.244D+01-0.737D+00 0.500D+00 0.115D+01
 Gap=     0.225 Goal=   None    Shift=    0.000
 RMSDP=1.18D-05 MaxDP=1.33D-04 DE= 7.61D-08 OVMax= 8.90D-04

 Cycle  32  Pass 1  IDiag  1:
 RMSU=  2.71D-07    CP:  1.00D+00 -3.00D+00 -3.00D+00  3.00D+00 -3.00D+00
                    CP:  1.27D+00  3.00D+00  2.07D+00  2.49D+00 -2.94D-01
                    CP: -1.60D+00 -3.00D+00  3.00D+00  3.00D+00  3.00D+00
                    CP:  3.00D+00  3.00D+00  3.00D+00  9.94D-01
 E= -344.159850361923     Delta-E=        0.000000015184 Rises=F Damp=F
 DIIS: error= 7.33D-07 at cycle  20 NSaved=   6.
 NSaved= 6 IEnMin= 1 EnMin= -344.159850736080     IErMin= 6 ErrMin= 7.33D-07
 ErrMax= 7.33D-07  0.00D+00 EMaxC= 1.00D-01 BMatC= 2.27D-11 BMatP= 1.65D-10
 IDIUse=1 WtCom= 1.00D+00 WtEn= 0.00D+00
 Coeff-Com: -0.308D+01 0.350D+01-0.164D+00-0.401D+00-0.536D+00 0.168D+01
 Coeff:     -0.308D+01 0.350D+01-0.164D+00-0.401D+00-0.536D+00 0.168D+01
 Gap=     0.225 Goal=   None    Shift=    0.000
 RMSDP=4.48D-06 MaxDP=5.04D-05 DE= 1.52D-08 OVMax= 3.37D-04

 Cycle  33  Pass 1  IDiag  1:
 Restarting incremental Fock formation.
 E= -344.159850360553     Delta-E=        0.000000001370 Rises=F Damp=F
 DIIS: error= 1.51D-07 at cycle  21 NSaved=   7.
 NSaved= 7 IEnMin= 1 EnMin= -344.159850736080     IErMin= 7 ErrMin= 1.51D-07
 ErrMax= 1.51D-07  0.00D+00 EMaxC= 1.00D-01 BMatC= 3.93D-12 BMatP= 2.27D-11
 IDIUse=1 WtCom= 1.00D+00 WtEn= 0.00D+00
 Coeff-Com: -0.122D+01 0.133D+01 0.475D-01-0.175D+00-0.309D+00 0.499D+00
 Coeff-Com:  0.827D+00
 Coeff:     -0.122D+01 0.133D+01 0.475D-01-0.175D+00-0.309D+00 0.499D+00
 Coeff:      0.827D+00
 Gap=     0.225 Goal=   None    Shift=    0.000
 RMSDP=3.82D-07 MaxDP=4.49D-06 DE= 1.37D-09 OVMax= 2.85D-05

 Cycle  34  Pass 1  IDiag  1:
 RMSU=  3.82D-07    CP:  1.00D+00
 E= -344.159850360551     Delta-E=        0.000000000003 Rises=F Damp=F
 DIIS: error= 9.23D-08 at cycle  22 NSaved=   8.
 NSaved= 8 IEnMin= 1 EnMin= -344.159850736080     IErMin= 8 ErrMin= 9.23D-08
 ErrMax= 9.23D-08  0.00D+00 EMaxC= 1.00D-01 BMatC= 6.90D-13 BMatP= 3.93D-12
 IDIUse=1 WtCom= 1.00D+00 WtEn= 0.00D+00
 Coeff-Com:  0.146D+01-0.167D+01 0.922D-01 0.185D+00 0.220D+00-0.608D+00
 Coeff-Com: -0.330D+00 0.165D+01
 Coeff:      0.146D+01-0.167D+01 0.922D-01 0.185D+00 0.220D+00-0.608D+00
 Coeff:     -0.330D+00 0.165D+01
 Gap=     0.225 Goal=   None    Shift=    0.000
 RMSDP=8.70D-08 MaxDP=1.07D-06 DE= 2.50D-12 OVMax= 5.78D-06

 Cycle  35  Pass 1  IDiag  1:
 RMSU=  3.61D-08    CP:  1.00D+00  1.21D+00
 E= -344.159850360558     Delta-E=       -0.000000000007 Rises=F Damp=F
 DIIS: error= 2.48D-08 at cycle  23 NSaved=   9.
 NSaved= 9 IEnMin= 1 EnMin= -344.159850736080     IErMin= 9 ErrMin= 2.48D-08
 ErrMax= 2.48D-08  0.00D+00 EMaxC= 1.00D-01 BMatC= 7.74D-14 BMatP= 6.90D-13
 IDIUse=1 WtCom= 1.00D+00 WtEn= 0.00D+00
 Coeff-Com:  0.190D+00-0.226D+00 0.239D-01 0.255D-01 0.911D-02-0.533D-01
 Coeff-Com: -0.131D+00 0.200D+00 0.961D+00
 Coeff:      0.190D+00-0.226D+00 0.239D-01 0.255D-01 0.911D-02-0.533D-01
 Coeff:     -0.131D+00 0.200D+00 0.961D+00
 Gap=     0.225 Goal=   None    Shift=    0.000
 RMSDP=4.36D-08 MaxDP=5.15D-07 DE=-6.82D-12 OVMax= 3.23D-06

 Cycle  36  Pass 1  IDiag  1:
 RMSU=  3.90D-09    CP:  1.00D+00  1.32D+00  1.08D+00
 E= -344.159850360552     Delta-E=        0.000000000006 Rises=F Damp=F
 DIIS: error= 8.77D-09 at cycle  24 NSaved=  10.
 NSaved=10 IEnMin= 1 EnMin= -344.159850736080     IErMin=10 ErrMin= 8.77D-09
 ErrMax= 8.77D-09  0.00D+00 EMaxC= 1.00D-01 BMatC= 5.95D-15 BMatP= 7.74D-14
 IDIUse=1 WtCom= 1.00D+00 WtEn= 0.00D+00
 Coeff-Com: -0.313D+00 0.355D+00-0.154D-01-0.396D-01-0.481D-01 0.126D+00
 Coeff-Com:  0.831D-01-0.321D+00-0.358D+00 0.153D+01
 Coeff:     -0.313D+00 0.355D+00-0.154D-01-0.396D-01-0.481D-01 0.126D+00
 Coeff:      0.831D-01-0.321D+00-0.358D+00 0.153D+01
 Gap=     0.225 Goal=   None    Shift=    0.000
 RMSDP=9.66D-09 MaxDP=1.08D-07 DE= 5.68D-12 OVMax= 6.74D-07

 SCF Done:  E(RHF) =  -344.159850361     A.U. after   36 cycles
            NFock= 36  Conv=0.97D-08     -V/T= 2.0057
 KE= 3.421996049727D+02 PE=-1.586834327757D+03 EE= 5.064329152454D+02
 Leave Link  502 at Tue Jun 10 01:23:08 2025, MaxMem=  2013265920 cpu:              68.0 elap:               3.4
 (Enter /home/user/softwares/g16/g16/l601.exe)
 Copying SCF densities to generalized density rwf, IOpCl= 0 IROHF=0.

 **********************************************************************

            Population analysis using the SCF Density.

 **********************************************************************

 Orbital symmetries:
       Occupied  (A) (A) (A) (A) (A) (A) (A) (A) (A) (A) (A) (A)
                 (A) (A) (A) (A) (A) (A) (A) (A) (A) (A) (A) (A)
                 (A) (A) (A) (A) (A) (A) (A) (A)
       Virtual   (A) (A) (A) (A) (A) (A) (A) (A) (A) (A) (A) (A)
                 (A) (A) (A) (A) (A) (A) (A) (A) (A) (A) (A) (A)
                 (A) (A) (A) (A) (A) (A) (A) (A) (A) (A) (A) (A)
                 (A) (A) (A) (A) (A) (A) (A) (A) (A) (A) (A) (A)
                 (A) (A) (A) (A) (A) (A) (A) (A) (A) (A) (A) (A)
                 (A) (A) (A) (A) (A) (A) (A) (A) (A)
 The electronic state is 1-A.
 Alpha  occ. eigenvalues --  -11.26933 -11.25987 -11.25103 -11.25045 -11.20087
 Alpha  occ. eigenvalues --  -11.18525 -11.18158 -11.17262 -11.17173  -1.12487
 Alpha  occ. eigenvalues --   -1.07060  -1.03940  -0.96606  -0.89430  -0.86345
 Alpha  occ. eigenvalues --   -0.77106  -0.72276  -0.68100  -0.62864  -0.61552
 Alpha  occ. eigenvalues --   -0.60140  -0.58851  -0.54421  -0.53212  -0.51809
 Alpha  occ. eigenvalues --   -0.50524  -0.49378  -0.46589  -0.41811  -0.34933
 Alpha  occ. eigenvalues --   -0.32169  -0.22567
 Alpha virt. eigenvalues --   -0.00076   0.07866   0.08225   0.11229   0.24694
 Alpha virt. eigenvalues --    0.25976   0.28136   0.30252   0.32148   0.33890
 Alpha virt. eigenvalues --    0.34423   0.35617   0.36485   0.39399   0.40818
 Alpha virt. eigenvalues --    0.44289   0.46014   0.47108   0.49487   0.52023
 Alpha virt. eigenvalues --    0.53454   0.55653   0.56920   0.92172   0.92619
 Alpha virt. eigenvalues --    0.94152   0.95827   0.96677   0.97676   0.99465
 Alpha virt. eigenvalues --    1.00104   1.01054   1.01797   1.02496   1.03537
 Alpha virt. eigenvalues --    1.05376   1.06297   1.07696   1.09042   1.09854
 Alpha virt. eigenvalues --    1.11456   1.14375   1.18488   1.20770   1.22117
 Alpha virt. eigenvalues --    1.24089   1.27752   1.29342   1.29751   1.33071
 Alpha virt. eigenvalues --    1.33758   1.34970   1.35487   1.36182   1.37672
 Alpha virt. eigenvalues --    1.40404   1.45141   1.46618   1.48188   1.51489
 Alpha virt. eigenvalues --    1.72957   1.90301   1.95433   2.14782   2.23468
 Alpha virt. eigenvalues --    2.26943   2.35256   2.43427   2.63454
     Molecular Orbital Coefficients:
                           1         2         3         4         5
                           O         O         O         O         O
     Eigenvalues --   -11.26933 -11.25987 -11.25103 -11.25045 -11.20087
   1 1   C  1S          0.00025  -0.00307   0.00302  -0.00146  -0.00830
   2        2S          0.00029  -0.00338   0.00287  -0.00183  -0.00135
   3        2PX        -0.00008   0.00001   0.00026   0.00034  -0.00038
   4        2PY         0.00027   0.00002  -0.00023   0.00009  -0.00119
   5        2PZ        -0.00005  -0.00017   0.00001   0.00010   0.00023
   6        3S         -0.00134   0.02414  -0.01795   0.01735  -0.00199
   7        3PX        -0.00097   0.01382  -0.00272   0.00092  -0.00152
   8        3PY        -0.00045  -0.00529  -0.00815   0.00971   0.00245
   9        3PZ        -0.00028   0.00137  -0.00217   0.00142  -0.00068
  10 2   C  1S         -0.02453   0.98740  -0.01374   0.00679   0.00156
  11        2S         -0.00453   0.10043  -0.00082   0.00061  -0.00046
  12        2PX        -0.00061  -0.00034  -0.00049   0.00025   0.00001
  13        2PY        -0.00037  -0.00030   0.00111  -0.00033  -0.00088
  14        2PZ        -0.00023   0.00187   0.00014  -0.00030  -0.00009
  15        3S          0.00963  -0.08187   0.00406  -0.00433   0.00064
  16        3PX         0.00258   0.00438  -0.00055  -0.00081  -0.00209
  17        3PY         0.00156  -0.00301  -0.00224  -0.00310   0.00203
  18        3PZ         0.00407  -0.01602   0.00090  -0.00057   0.00053
  19 3   C  1S         -0.00449   0.00584   0.74204   0.65193   0.00270
  20        2S         -0.00045   0.00118   0.07697   0.06449  -0.00249
  21        2PX        -0.00062   0.00018  -0.00076   0.00054  -0.00013
  22        2PY         0.00034  -0.00013  -0.00220  -0.00077  -0.00022
  23        2PZ         0.00046   0.00000   0.00022   0.00038  -0.00019
  24        3S         -0.00330  -0.00281  -0.06348  -0.04987   0.02325
  25        3PX         0.00000   0.00129  -0.00051  -0.00283  -0.01053
  26        3PY         0.00283   0.00118   0.01353   0.00948  -0.00758
  27        3PZ        -0.00199   0.00018   0.00150   0.00124  -0.00455
  28 4   C  1S         -0.00095  -0.00125   0.00001  -0.00263  -0.00372
  29        2S         -0.00171  -0.00153   0.00001  -0.00183  -0.00115
  30        2PX         0.00022   0.00000  -0.00015   0.00105   0.00041
  31        2PY         0.00035   0.00019  -0.00022  -0.00135  -0.00051
  32        2PZ        -0.00049  -0.00025  -0.00002   0.00032   0.00070
  33        3S          0.02035   0.01712  -0.00038   0.00513   0.00122
  34        3PX         0.01508  -0.01342   0.00089  -0.00406  -0.00034
  35        3PY         0.01125  -0.00850   0.00082   0.00557   0.00065
  36        3PZ        -0.00211  -0.00260   0.00018  -0.00388  -0.00237
  37 5   C  1S         -0.00302   0.00024  -0.00295  -0.00101  -0.00610
  38        2S         -0.00402   0.00017  -0.00309  -0.00152  -0.00106
  39        2PX         0.00031  -0.00032   0.00002  -0.00009   0.00125
  40        2PY        -0.00055   0.00013   0.00015  -0.00041  -0.00002
  41        2PZ        -0.00044  -0.00014   0.00000   0.00007   0.00023
  42        3S          0.03007   0.00019   0.02087   0.01577  -0.00221
  43        3PX         0.00084   0.00160  -0.01028  -0.00880  -0.00165
  44        3PY        -0.01562  -0.00012   0.00009   0.00193   0.00225
  45        3PZ         0.00355   0.00038   0.00218   0.00129  -0.00058
  46 6   C  1S          0.98810   0.02414   0.00437   0.00195   0.00097
  47        2S          0.10448   0.00058   0.00044   0.00040  -0.00015
  48        2PX         0.00105   0.00083   0.00105   0.00013   0.00096
  49        2PY         0.00012   0.00047  -0.00074  -0.00014  -0.00031
  50        2PZ         0.00260  -0.00001  -0.00021  -0.00021  -0.00011
  51        3S         -0.09859   0.00424  -0.00601  -0.00471  -0.00126
  52        3PX        -0.00608  -0.00404  -0.00388   0.00316  -0.00305
  53        3PY        -0.00327  -0.00228  -0.00032  -0.00045   0.00317
  54        3PZ        -0.02204   0.00228  -0.00091  -0.00101   0.00037
  55 7   H  1S          0.00003  -0.00197   0.00085  -0.00077   0.00013
  56        2S         -0.00015   0.00043   0.00026   0.00057   0.00171
  57 8   H  1S          0.00083   0.00010   0.00113   0.00020  -0.00149
  58        2S          0.00019   0.00079   0.01125   0.00835  -0.00115
  59 9   H  1S         -0.00218  -0.00011  -0.00085  -0.00064   0.00012
  60        2S         -0.00158  -0.00074  -0.00037   0.00039   0.00162
  61 10  H  1S         -0.00060   0.00113  -0.00030  -0.00022  -0.00003
  62        2S          0.00009   0.01397  -0.00241  -0.00000   0.00139
  63 11  H  1S         -0.00098  -0.00094  -0.00003   0.00044  -0.00007
  64        2S         -0.00207  -0.00043   0.00019   0.00341   0.00114
  65 12  C  1S          0.00183  -0.01407  -0.65217   0.74171   0.00281
  66        2S          0.00055  -0.00193  -0.06799   0.07373  -0.00258
  67        2PX        -0.00002  -0.00031  -0.00221   0.00085   0.00021
  68        2PY        -0.00022   0.00063  -0.00014  -0.00077   0.00009
  69        2PZ        -0.00006   0.00048  -0.00024   0.00043  -0.00018
  70        3S         -0.00200  -0.00077   0.05621  -0.05697   0.02335
  71        3PX        -0.00082  -0.00202   0.01168  -0.00974   0.01048
  72        3PY        -0.00052  -0.00069  -0.00330   0.00563   0.00793
  73        3PZ         0.00069  -0.00158  -0.00099   0.00130  -0.00438
  74 13  H  1S         -0.00005   0.00064  -0.00112   0.00031  -0.00151
  75        2S          0.00042  -0.00024  -0.01015   0.00972  -0.00120
  76 14  C  1S         -0.00100  -0.00173  -0.00020  -0.00499   0.98766
  77        2S         -0.00068  -0.00101  -0.00018  -0.00411   0.10072
  78        2PX        -0.00011  -0.00019   0.00053  -0.00005   0.00141
  79        2PY         0.00029   0.00040   0.00035   0.00002  -0.00190
  80        2PZ        -0.00023  -0.00039   0.00005   0.00018   0.00159
  81        3S          0.00200   0.00226   0.00182   0.02884  -0.08074
  82        3PX        -0.00025   0.00113   0.01204   0.00297  -0.00713
  83        3PY        -0.00136  -0.00029   0.00848  -0.00567   0.00974
  84        3PZ         0.00223   0.00320   0.00037   0.00753  -0.01320
  85 15  H  1S         -0.00069  -0.00098  -0.00008  -0.00223   0.00105
  86        2S          0.00171   0.00303  -0.00028  -0.00051   0.01243
  87 16  C  1S         -0.00068  -0.00039  -0.00078  -0.00046  -0.00240
  88        2S         -0.00228  -0.00036  -0.00090  -0.00041  -0.00101
  89        2PX        -0.00108   0.00025  -0.00014   0.00013   0.00006
  90        2PY         0.00027   0.00006  -0.00012  -0.00012  -0.00008
  91        2PZ         0.00001  -0.00008   0.00010  -0.00005   0.00009
[...]
 .00491163,-0.01197702,-0.00340907,-0.00602531,0.00424038,0.83327676,0.
 00079532,0.00232551,0.00912081,-0.01077949,-0.01548823,-0.08009407,-0.
 00179285,-0.00106424,-0.00193042,0.05435136,0.05044387,0.18075030,0.00
 614200,-0.00214098,-0.00094103,-0.00842377,-0.00474090,0.00131377,-0.5
 1146300,0.06185639,-0.17738720,0.01690075,0.01160955,0.00350098,0.8567
 7254,-0.00128807,0.00615048,0.00399965,0.00768153,0.00014136,-0.001264
 26,0.04028728,-0.13888647,0.01684666,0.01116835,-0.02774643,0.00075099
 ,0.03167656,0.60077963,0.00306371,-0.00170129,0.00064377,-0.00327630,-
 0.00251230,-0.00558332,-0.16849987,0.02530078,-0.14465980,0.00286896,0
 .00151316,0.00718098,0.26147419,0.05012926,0.27318829,-0.00177883,-0.0
 0228554,-0.00019295,0.00746604,-0.01858693,-0.00132243,-0.01941941,0.0
 2641049,-0.00820145,-0.14117176,-0.08152922,-0.01696728,-0.13039978,0.
 04850684,-0.00952394,0.48740804,0.01579222,-0.00446315,-0.00128466,-0.
 02413483,-0.01848978,-0.00394635,0.02401019,0.00561429,0.00752996,-0.0
 3256594,-0.47854949,-0.03541611,0.00799082,-0.16590730,-0.00202445,0.0
 3961155,0.82355870,0.00101489,-0.00166740,-0.00121049,-0.00183205,-0.0
 0275028,0.00265463,-0.00989680,0.01139316,0.00544169,-0.01161538,-0.04
 413830,-0.08012326,-0.01018813,0.00150307,-0.08565858,0.06092593,0.048
 23152,0.22488405,-0.19850957,-0.14540058,0.00276266,-0.01902670,-0.031
 76976,-0.00030158,-0.00062474,0.00058007,-0.00031950,-0.00203407,0.002
 72228,0.00205333,-0.00005385,0.00012457,-0.00000517,-0.00064788,0.0002
 0900,-0.00018706,0.20877526,-0.15640886,-0.24382280,-0.00439824,0.0096
 0644,0.00852292,-0.00092095,0.00102730,-0.00117679,0.00103937,0.001268
 23,0.00058600,-0.00099664,0.00002947,-0.00032739,-0.00004045,0.0006151
 7,-0.00033081,0.00021144,0.16391028,0.25384620,0.00757167,-0.00978963,
 -0.04895426,-0.00088499,0.00180109,0.01242031,0.00069054,0.00059933,0.
 00077473,-0.00012790,-0.00232898,0.01199153,-0.00043126,0.00057702,-0.
 00046614,0.00003749,-0.00057563,-0.00069366,-0.00253919,0.00442409,0.0
 2865031,-0.00084217,-0.00081599,0.00003955,-0.00047649,-0.00041874,-0.
 00000083,-0.10591200,0.10075868,-0.02465247,-0.00077940,0.00057570,0.0
 0039980,-0.00920414,0.03532817,-0.00813557,-0.00084979,-0.00137374,-0.
 00656442,0.00009339,-0.00034696,-0.00053485,0.10883768,-0.00129983,-0.
 00061628,0.00055911,-0.00012958,-0.00028359,-0.00007385,0.11040030,-0.
 32270658,0.04038862,-0.00050356,0.00020909,0.00000522,-0.00351333,0.00
 002771,-0.00167117,-0.00035872,0.00114632,-0.00011410,0.00021241,-0.00
 052594,-0.00006454,-0.11508820,0.33996880,-0.00123622,0.00066995,0.000
 61782,0.00079679,0.00038270,-0.00023733,-0.03114021,0.03347731,-0.0620
 2395,-0.00006724,-0.00055567,-0.00098437,-0.00559843,0.01316310,0.0108
 4673,-0.00493232,-0.00239956,0.01044273,0.00021420,-0.00026748,0.00100
 328,0.03263795,-0.04298643,0.04157191,0.00055234,0.00037027,0.00011508
 ,-0.00023114,-0.00056768,0.00014267,-0.01611090,-0.03256332,-0.0115156
 6,-0.00277678,0.00207228,-0.00087066,-0.14620284,-0.12483417,-0.044001
 36,0.00725986,0.01935597,0.00336398,0.00004238,-0.00011789,-0.00009413
 ,-0.00068818,0.00027743,0.00340948,0.16302000,-0.00020689,-0.00020628,
 -0.00018188,0.00002610,0.00031006,-0.00002174,0.00707513,0.00653184,0.
 00263102,0.00448785,-0.00104088,0.00047323,-0.12499243,-0.26248237,-0.
 06370591,-0.01613410,-0.02702680,-0.00759892,-0.00005599,-0.00003161,0
 .00004019,-0.00042475,0.00145122,0.00044937,0.12971838,0.28194374,0.00
 114784,0.00077179,0.00091743,0.00037142,-0.00073448,-0.00006139,-0.011
 62203,-0.01318820,0.00442847,-0.00145804,0.00009947,0.00135076,-0.0416
 6274,-0.06116095,-0.07379085,0.00046878,0.00414682,0.00476947,-0.00004
 018,0.00000662,0.00004475,0.00379338,0.00030112,-0.00757051,0.05652752
 ,0.06810639,0.05920916,-0.01039309,0.04007128,0.00461419,-0.10016380,0
 .09002299,0.01076084,0.00075194,-0.00079144,-0.00012642,0.00383444,-0.
 03169116,-0.00418604,-0.00005598,0.00066405,-0.00008093,-0.00323974,-0
 .00116405,-0.00060413,0.00080997,-0.00025815,-0.00051413,0.00003468,0.
 00008601,0.00008026,0.00013656,-0.00009713,0.00014995,0.11431513,-0.00
 219506,-0.00278981,-0.00102225,0.09189634,-0.32621405,-0.03383206,-0.0
 0003010,-0.00003966,-0.00009434,0.00899641,-0.02233670,-0.00231277,0.0
 0012374,0.00020817,0.00002950,-0.00349216,0.00095853,-0.00083716,0.000
 55954,0.00127427,0.00102630,0.00000533,-0.00007490,0.00002588,-0.00003
 873,-0.00010613,-0.00002575,-0.09632135,0.34847229,0.00253657,-0.00346
 367,0.00905378,0.00941788,-0.03130912,-0.05843059,-0.00106218,0.000971
 92,0.00047133,-0.00007246,-0.00308998,0.00442507,-0.00047041,-0.000532
 10,-0.00030452,-0.00013464,-0.00066490,0.00212099,-0.00096869,0.000847
 75,-0.00874271,0.00004562,0.00001662,0.00005775,-0.00003026,-0.0000227
 1,-0.00030103,-0.01140865,0.03830074,0.03850763,-0.00195715,-0.0045855
 2,-0.00097541,-0.03005964,0.01399925,-0.00330831,-0.00003525,0.0002141
 8,0.00004380,-0.27209695,0.13534251,-0.02085950,0.00053415,-0.00209394
 ,-0.00156864,0.00135389,-0.00297594,-0.00138033,-0.00116476,0.00020727
 ,0.00055218,-0.00012239,0.00007435,0.00016196,0.00030203,-0.00000149,0
 .00010968,0.00084721,-0.00100825,0.00015676,0.30235825,-0.00256742,-0.
 00241654,-0.00018393,-0.02714674,0.00673873,-0.00364112,-0.00026686,-0
 .00054427,-0.00008151,0.12978502,-0.14094124,0.00958162,-0.00279854,-0
 .00208309,-0.00221771,0.03314803,-0.03075495,0.00207794,-0.00067256,0.
 00002793,0.00048017,0.00018777,0.00001849,0.00023402,0.00085609,-0.001
 47983,0.00028528,-0.00172647,0.00134825,-0.00031810,-0.12874578,0.1728
 4569,-0.00112637,-0.00093602,0.00165484,-0.00474622,0.00262571,0.00625
 115,-0.00015439,-0.00060032,-0.00121704,-0.02259437,0.00922886,-0.0517
 8331,-0.00217646,-0.00100699,0.01256501,0.00090266,-0.00183757,0.00922
 277,-0.00029372,0.00013147,-0.00010901,0.00078506,0.00003140,-0.001459
 72,-0.00000742,0.00007006,-0.00021999,-0.00003708,0.00018223,-0.000796
 48,0.02728306,-0.00666463,0.03411415,-0.09239433,0.02031678,0.00698711
 ,-0.01985124,0.04717189,0.00971333,0.00514630,-0.01543481,0.00811231,-
 0.00267951,0.00449092,0.00006785,-0.00274023,-0.00303458,-0.00113141,0
 .00055437,-0.00262844,0.00014864,0.01281699,-0.01925226,-0.00552186,-0
 .00167803,-0.00078218,0.00071296,-0.00024708,-0.00016243,-0.00104861,-
 0.00586735,0.00103684,0.00133640,0.00008481,0.00052640,0.00080350,0.24
 683658,0.05115098,-0.24290995,-0.02676600,0.03166698,-0.02158156,-0.01
 347046,-0.02414259,-0.04388878,0.02414536,-0.00847753,-0.00996137,-0.0
 0076366,0.00835234,-0.00895499,0.00663441,-0.00393173,0.01130684,0.002
 96038,0.00854296,-0.01404911,0.00488054,-0.00114979,-0.00202972,-0.002
 68006,0.00092431,0.00057776,-0.00189998,0.00081724,-0.00002218,-0.0008
 0336,-0.00037736,-0.00058073,-0.00099873,0.02786180,0.73201006,0.01051
 889,-0.02828415,-0.10306464,-0.00204024,-0.01077762,0.01058743,-0.0027
 3889,0.00308010,0.00999170,0.00258005,0.00698505,-0.00873494,-0.007471
 44,0.00093558,-0.00619989,0.00154435,-0.00603549,0.00209814,-0.0002465
 1,0.00293975,0.00589843,-0.00118027,-0.00256631,0.00052558,-0.00085452
 ,-0.00056167,-0.00069983,0.00053017,-0.00073684,0.01456427,-0.00068459
 ,0.00027922,0.00030376,-0.15377436,-0.12059336,0.80685085,-0.00145496,
 0.01077728,0.00418170,0.00337449,0.00306347,-0.00129176,-0.00863172,0.
 00406752,-0.00021823,0.00032196,-0.00119853,-0.00002229,0.00079129,-0.
 00316409,0.00209901,-0.00062182,0.00179870,0.00019108,-0.00050607,-0.0
 0001942,0.00180404,0.00144263,0.00111473,-0.00088728,0.00003903,0.0001
 5057,-0.00061982,0.00009669,0.00010572,-0.00061248,0.00012991,-0.00009
 347,-0.00018537,-0.05113110,-0.00211240,0.03960048,0.03548675,0.005885
 95,-0.00901380,-0.03242208,-0.00074786,-0.00304902,-0.00014866,-0.0001
 8540,0.00117729,0.00208395,-0.00029648,0.00069181,-0.00129293,0.000552
 55,-0.00071926,0.00023828,0.00034138,0.00047615,-0.00003916,0.00018532
 ,-0.00165856,0.00051496,0.00009522,-0.00007149,0.00006720,-0.00007655,
 0.00002128,-0.00006467,0.00077017,-0.00029702,0.00242292,0.00000846,0.
 00002885,0.00004078,0.01458286,-0.09899761,-0.09782777,-0.01627430,0.1
 0386163,-0.00027604,0.00074720,0.00131340,-0.00053258,0.00016930,0.000
 06949,-0.00428257,-0.00036201,0.00120011,-0.00000263,-0.00005077,-0.00
 015589,0.00127263,-0.00128152,0.00143131,0.00009302,0.00058589,-0.0004
 0781,0.00034281,-0.00081978,-0.00054759,0.00056594,0.00042289,-0.00024
 749,0.00010287,0.00001275,-0.00014344,0.00019446,0.00001181,-0.0001819
 4,0.00002797,0.00000850,0.00001548,0.04343483,-0.08649149,-0.32693361,
 -0.04795218,0.09510429,0.35147397,0.01060698,-0.00410574,0.00038475,-0
 .00857450,0.00323650,0.00229287,-0.11828606,-0.04929205,-0.01622753,0.
 00398423,0.00502276,0.00072824,-0.03160781,-0.03641458,-0.02492556,-0.
 00207968,-0.00766709,0.00209905,-0.00062018,0.00110459,-0.00151182,0.0
 1079608,0.00937041,0.00773692,-0.00317871,0.00066852,-0.00714937,-0.00
 072926,0.00086146,0.00060744,-0.00044545,0.00023323,-0.00024035,-0.094
 63763,-0.08847939,0.09688636,0.01012320,-0.00342935,0.00372266,0.27141
 784,-0.00234014,-0.04951352,0.02904117,-0.01082385,-0.00724287,0.00317
 534,-0.07963641,-0.21156900,-0.04592148,0.00533775,0.00776705,0.004174
 41,-0.01987662,-0.00026476,-0.01586631,0.00588343,-0.01014496,0.001058
 68,0.00163794,-0.00301583,-0.00154501,-0.01718587,-0.01476792,-0.00144
 218,0.00095885,0.00004668,0.00066676,0.00002717,0.00052967,-0.00219277
 ,-0.00008189,0.00011280,0.00071145,-0.06978095,-0.31165199,0.22813935,
 0.00549723,0.00967866,-0.01044264,0.16787973,0.68987627,0.00340118,0.0
 0473362,0.00955777,0.00763032,-0.00024394,-0.00349376,-0.01778063,-0.0
 3596166,-0.11104723,-0.00265339,-0.00366496,0.00194296,-0.01413142,-0.
 02187949,0.00328846,0.00133463,0.00512499,-0.00875850,-0.00008170,-0.0
 0236062,0.00037506,0.00290522,0.00633984,0.00918027,-0.00633945,0.0000
 3710,0.01211857,0.00062367,-0.00070495,-0.00018425,0.00007924,-0.00042
 224,0.00126174,0.08589765,0.22676708,-0.38347731,0.00151302,0.02822527
 ,-0.02553216,-0.09221518,-0.10634185,0.82576194,-0.00955165,-0.0001215
 4,-0.00275442,0.00271164,0.00260408,-0.00192134,-0.00179141,-0.0115696
 0,-0.01460813,-0.00102504,-0.00124630,-0.00019705,0.00093499,-0.004182
 92,0.00175213,0.00054586,0.00069146,-0.00030330,0.00071476,-0.00144148
 ,0.00125713,-0.00004406,-0.00012459,-0.00144207,-0.00049837,-0.0000884
 0,0.00119810,-0.00012255,-0.00014463,0.00055523,0.00008723,-0.00000328
 ,-0.00010908,0.00565355,-0.00124130,0.01831212,0.01038548,-0.00159102,
 0.00315374,-0.04586940,0.01311412,0.02900185,0.03759887,0.00280690,0.0
 0124988,0.00309646,-0.00157243,-0.00136851,0.00061753,0.00362984,-0.00
 564475,-0.02999014,-0.00005188,0.00136609,0.00013158,-0.00087074,-0.00
 143650,-0.00059111,0.00073258,-0.00045962,-0.00124064,-0.00035492,0.00
 042315,-0.00032439,-0.00093947,-0.00161132,0.00088553,-0.00138681,0.00
 002889,0.00180142,0.00013807,0.00002466,-0.00023808,-0.00005577,0.0001
 1083,0.00029881,-0.00542275,0.01107009,0.02509988,-0.00359352,-0.00233
 159,0.00227479,0.00178044,-0.09957536,-0.09953612,0.00513528,0.0979708
 6,0.00010118,-0.00186592,0.00157014,-0.00106759,0.00019633,0.00026873,
 -0.00070662,-0.00307345,-0.00190956,-0.00027050,0.00023080,-0.00048792
 ,0.00094767,-0.00128450,0.00096782,0.00010822,0.00004062,-0.00024265,-
 0.00006357,0.00002477,0.00008283,-0.00036594,-0.00066553,-0.00128928,-
 0.00021217,0.00003244,0.00006137,-0.00010352,-0.00003129,0.00005172,0.
 00007597,0.00003333,0.00001612,0.00438085,-0.01186762,-0.02262369,0.00
 212029,0.00282187,-0.00146819,0.02913047,-0.08249350,-0.33124640,-0.03
 419073,0.09777596,0.35611066,-0.00040166,-0.00004328,0.00015684,0.0013
 2230,0.00226044,-0.00284484,0.00075736,0.00157346,0.00063985,-0.013732
 89,-0.01214304,-0.00509737,-0.03659482,0.00455822,-0.00846338,-0.16392
 255,-0.02097075,-0.01509326,0.00006723,-0.00004133,0.00035913,-0.00025
 029,0.00002349,-0.00022356,-0.00113673,-0.00160706,-0.00047549,0.00007
 049,0.00016098,0.00013697,-0.00051036,0.00249749,0.00243228,-0.0001042
 9,0.00042408,-0.00067851,0.00005205,-0.00006872,0.00003444,-0.00017276
 ,-0.00037493,0.00021978,0.00000088,-0.00002706,-0.00001065,0.51927469,
 -0.00087697,-0.00142933,-0.00043663,0.00153199,-0.00028323,-0.00103965
 ,0.00303156,-0.00560884,0.00057304,-0.04022450,-0.02286847,-0.00955596
 ,0.03395791,0.00359486,0.00629679,-0.01323071,-0.09952202,-0.00499414,
 -0.00027875,0.00022291,0.00021259,0.00092752,-0.00021035,0.00106028,0.
 00404494,0.00009597,0.00048432,-0.00047738,-0.00078907,0.00009083,-0.0
 0600765,-0.00296233,-0.00048518,0.00047062,0.00005130,-0.00020355,-0.0
 0003847,0.00019248,0.00016214,-0.00107169,-0.00082089,-0.00021556,0.00
 018355,0.00017376,0.00010870,-0.05963753,0.65718602,0.00046969,-0.0010
 1864,-0.00123114,-0.00236472,-0.00046804,0.01496907,0.00029081,-0.0005
 8086,0.00116762,-0.00605404,-0.00357465,0.00832341,-0.00634783,0.00200
 183,0.00369013,-0.01417076,-0.00689965,-0.08894521,-0.00033665,0.00018
 150,-0.00190999,0.00026328,0.00005007,-0.00027194,0.00007953,-0.000407
 08,0.00051989,0.00018557,0.00015723,-0.00038843,0.00070706,0.00128724,
 -0.01127520,-0.00015719,0.00098846,0.00106143,0.00029944,0.00024253,0.
 00008734,-0.00142913,-0.00064702,0.00039656,0.00028910,-0.00002558,0.0
 0010610,-0.02040447,-0.00832395,0.60150023,0.00017939,0.00016018,-0.00
 001043,0.00083128,-0.00034198,0.00029786,-0.00027890,0.00134463,-0.000
 08507,-0.00000962,0.00329880,0.00027001,-0.00661168,-0.00219881,-0.001
 63597,-0.02019625,0.02923025,-0.00107427,0.00007766,-0.00004300,-0.000
 07063,-0.00032286,0.00005121,-0.00029674,-0.00002111,-0.00019985,0.000
 05922,-0.00002110,-0.00010240,-0.00003377,0.00057604,-0.00234945,-0.00
 034002,-0.00005962,0.00006278,-0.00008351,0.00004407,0.00002499,-0.000
 00287,-0.00000700,0.00011544,0.00016853,0.00000171,-0.00004044,-0.0000
 0093,-0.15798900,0.13212645,-0.00827485,0.17398322,-0.00006221,-0.0000
 5310,-0.00002196,-0.00028812,0.00042192,-0.00005424,-0.00024807,0.0004
 8426,-0.00014360,-0.00297209,0.00014211,-0.00044456,-0.00092627,-0.000
 63690,-0.00050169,-0.00877692,0.00622431,-0.00100006,-0.00000355,0.000
 02204,0.00001803,-0.00005841,0.00003166,-0.00001863,-0.00016393,0.0007
 9854,0.00012789,0.00003872,0.00004952,0.00000990,-0.00281687,-0.000097
 73,-0.00060351,0.00004277,0.00007387,0.00001965,-0.00000661,-0.0000261
 4,-0.00000115,0.00005396,-0.00001132,0.00006673,0.00004996,0.00004783,
 0.00001505,0.14024824,-0.24629579,0.01231861,-0.14813358,0.27198156,0.
 00002798,0.00006182,0.00000260,0.00019889,-0.00004022,-0.00015989,-0.0
 0002636,0.00030177,0.00022483,-0.00027754,0.00074444,-0.00028121,-0.00
 174658,-0.00061054,0.00167060,-0.00423814,0.00557450,-0.00192262,0.000
 02914,-0.00001334,0.00002470,0.00002932,0.00000545,-0.00019977,0.00003
 529,0.00010790,-0.00010836,-0.00000863,-0.00002695,0.00003247,-0.00033
 709,-0.00059181,0.00088329,-0.00001495,0.00003408,-0.00002892,0.000012
 12,-0.00000645,-0.00000367,0.00002075,-0.00000189,-0.00003369,-0.00001
 091,-0.00003430,0.00000118,-0.00774314,0.01115550,-0.06031443,0.010824
 14,-0.01149313,0.05727277,-0.00026181,-0.00046102,-0.00007084,0.000270
 40,0.00019006,-0.00230891,0.00041970,0.00011354,-0.00031785,-0.0036347
 4,0.00016108,-0.00101726,0.00058763,-0.00158822,-0.00034405,-0.0152413
 8,-0.02418657,0.02537247,-0.00005697,0.00005436,0.00033308,-0.00009984
 ,0.00009741,0.00011524,-0.00020844,0.00095325,0.00058516,-0.00020910,-
 0.00024643,0.00005956,-0.00011254,-0.00053977,0.00141287,0.00020880,-0
 .00018898,-0.00031468,-0.00003436,0.00006164,0.00002974,-0.00013479,-0
 .00007941,0.00022561,0.00008232,0.00006540,0.00003304,-0.08914829,-0.0
 5256516,0.06753229,0.00873549,0.01357139,-0.01802981,0.09844522,-0.000
 00617,-0.00016430,0.00007955,-0.00030346,0.00013266,-0.00125431,-0.000
 66923,0.00026059,-0.00051284,-0.00152351,-0.00054455,-0.00034923,0.002
 24609,-0.00072384,-0.00055939,-0.00485402,-0.00708772,0.00565623,-0.00
 004882,-0.00000070,0.00016621,-0.00005846,0.00003175,0.00000134,0.0005
 3308,0.00030251,-0.00000103,-0.00007233,-0.00011460,0.00003634,-0.0007
 2090,0.00018164,0.00122099,0.00001625,-0.00020493,-0.00002491,-0.00000
 828,-0.00000408,-0.00003750,0.00006221,0.00036824,0.00009901,-0.000013
 20,-0.00001668,-0.00001328,-0.05384498,-0.15914224,0.12251542,-0.01118
 987,-0.01831312,0.02326874,0.06290805,0.17231700,-0.00003406,0.0000656
 4,0.00007604,0.00011654,-0.00012839,-0.00112924,0.00023472,-0.00040866
 ,0.00006374,-0.00099428,-0.00023455,-0.00032470,0.00009838,0.00036731,
 0.00058002,-0.00525255,-0.00669608,0.00894507,0.00002308,-0.00001981,0
 .00013894,0.00002684,-0.00000500,0.00009487,0.00026431,-0.00052700,-0.
 00029213,-0.00001699,-0.00004936,0.00003328,-0.00004292,-0.00030694,0.
 00062930,-0.00000512,0.00000783,-0.00019929,-0.00001898,-0.00000235,0.
 00001049,-0.00000409,-0.00012045,-0.00006709,-0.00004909,-0.00003103,-
 0.00001005,0.06728095,0.12153835,-0.20002030,-0.00057591,0.00000028,-0
 .00042934,-0.07270193,-0.13579845,0.21823775,0.00009191,-0.00086272,-0
 .00042809,-0.00077071,-0.00017474,0.00281707,0.00041913,-0.00019316,0.
 00022827,-0.00346400,0.00042749,-0.00037711,0.00069454,-0.00119617,0.0
 0033413,-0.00501919,-0.02102282,-0.03437691,-0.00015287,0.00010624,-0.
 00037451,0.00006518,0.00009225,-0.00004169,-0.00005192,0.00089073,-0.0
 0033478,-0.00009515,-0.00016724,-0.00005889,0.00023096,-0.00032367,-0.
 00160858,0.00008901,0.00029758,0.00009510,0.00009249,0.00016116,0.0000
 7377,-0.00058510,-0.00027158,0.00020107,0.00018518,0.00002728,0.000094
 53,-0.05758137,-0.00186573,-0.01057714,0.00108828,0.01045163,0.0212555
 4,0.00039269,0.00754757,0.01165111,0.06437094,-0.00015164,-0.00011013,
 0.00000689,-0.00043127,0.00008751,0.00109685,-0.00056608,0.00027668,0.
 00000648,-0.00139845,-0.00073163,-0.00020210,0.00146440,-0.00073288,0.
 00124962,-0.00206942,-0.00654854,-0.00871227,-0.00009942,0.00001412,-0
 .00011235,-0.00001801,0.00001304,-0.00006667,0.00063751,0.00026540,0.0
 0027717,-0.00003623,-0.00008124,-0.00006222,-0.00037466,0.00044749,-0.
 00140880,-0.00001873,-0.00025700,0.00013309,-0.00006613,0.00004042,-0.
 00001269,0.00018609,0.00019904,-0.00006225,-0.00001020,-0.00002169,0.0
 0001521,-0.00298772,-0.12158474,-0.11779741,-0.00181534,-0.01484354,-0
 .02843558,0.00167939,0.01272237,0.02234864,0.00607591,0.13084530,-0.00
 011745,-0.00019731,-0.00006734,0.00002762,0.00021651,0.,-0.00003760,0.
 00059590,0.00010846,-0.00070987,0.00030858,-0.00018574,-0.00005470,-0.
 00125411,0.00060997,-0.00047860,-0.00345385,-0.00261677,-0.00004172,0.
 00003055,0.00001848,-0.00005761,0.00002659,-0.00005660,-0.00011510,0.0
 0106646,-0.00023236,-0.00005259,-0.00005994,0.00001166,-0.00004090,0.0
 0016065,-0.00005687,0.00005806,-0.00008342,0.00008053,-0.00001279,0.00
 004203,0.00002020,0.00009351,0.00004793,-0.00004293,0.00006672,0.00002
 941,0.00004110,-0.01022556,-0.11642790,-0.26746513,0.00086519,0.001706
 39,0.00336946,-0.00059372,-0.01449288,-0.02633736,0.01142711,0.1317384
 0,0.29280125\\0.00004349,0.00003799,0.00006219,-0.00007781,0.00001585,
 -0.00004838,0.00010551,-0.00005985,0.00003297,0.00000663,-0.00001063,0
 .00006335,-0.00010229,0.00003164,0.00004494,0.00002681,0.00003139,-0.0
 0016237,-0.00000234,0.00000883,-0.00003643,-0.00000144,0.00000199,0.00
 000581,0.00000070,-0.00000740,-0.00001921,-0.00000231,0.00000340,0.000
 04045,0.00000995,-0.00000882,-0.00001367,0.00008211,-0.00002502,-0.000
 04139,-0.00001393,-0.00000700,-0.00000665,-0.00003592,-0.00000238,0.00
 002498,-0.00000156,-0.00000074,0.00000278,-0.00003197,0.00000128,0.000
 06242,0.00000021,-0.00001165,0.00000130,-0.00000917,-0.00000328,-0.000
 01345,0.00000333,0.00000440,0.00000037\\\@


 AND ALL THIS SCIENCE I DON'T UNDERSTAND
 IT'S JUST MY JOB FIVE DAYS A WEEK

                           -- ELTON JOHN, "ROCKET MAN"
 Job cpu time:       0 days  0 hours  2 minutes 35.7 seconds.
 Elapsed time:       0 days  0 hours  0 minutes  7.9 seconds.
 File lengths (MBytes):  RWF=     33 Int=      0 D2E=      0 Chk=      2 Scr=      1
 Normal termination of Gaussian 16 at Tue Jun 10 01:24:14 2025.
