 Entering Gaussian System, Link 0=g16
 Input=/home/gaussian/Documents/program files/Aromaticity/AM1 HF3-21G*/meth_napthlene/sp/Meth_napthalene_isomer_sp.com
 Output=/home/gaussian/Documents/program files/Aromaticity/AM1 HF3-21G*/meth_napthlene/sp/Meth_napthalene_isomer_sp.log
 Initial command:
 /usr/local/g16/l1.exe "/home/gaussian/tmp/Gau-142707.inp" -scrdir="/home/gaussian/tmp/"
 Entering Link 1 = /usr/local/g16/l1.exe PID=    142710.
  
 Copyright (c) 1988-2017, Gaussian, Inc.  All Rights Reserved.
  
 This is part of the Gaussian(R) 16 program.  It is based on
 the Gaussian(R) 09 system (copyright 2009, Gaussian, Inc.),
 the Gaussian(R) 03 system (copyright 2003, Gaussian, Inc.),
 the Gaussian(R) 98 system (copyright 1998, Gaussian, Inc.),
 the Gaussian(R) 94 system (copyright 1995, Gaussian, Inc.),
 the Gaussian 92(TM) system (copyright 1992, Gaussian, Inc.),
 the Gaussian 90(TM) system (copyright 1990, Gaussian, Inc.),
 the Gaussian 88(TM) system (copyright 1988, Gaussian, Inc.),
 the Gaussian 86(TM) system (copyright 1986, Carnegie Mellon
 University), and the Gaussian 82(TM) system (copyright 1983,
 Carnegie Mellon University). Gaussian is a federally registered
 trademark of Gaussian, Inc.
  
 This software contains proprietary and confidential information,
 including trade secrets, belonging to Gaussian, Inc.
  
 This software is provided under written license and may be
 used, copied, transmitted, or stored only in accord with that
 written license.
  
 The following legend is applicable only to US Government
 contracts under FAR:
  
                    RESTRICTED RIGHTS LEGEND
  
 Use, reproduction and disclosure by the US Government is
 subject to restrictions as set forth in subparagraphs (a)
 and (c) of the Commercial Computer Software - Restricted
 Rights clause in FAR 52.227-19.
  
 Gaussian, Inc.
 340 Quinnipiac St., Bldg. 40, Wallingford CT 06492
  
  
 ---------------------------------------------------------------
 Warning -- This program may not be used in any manner that
 competes with the business of Gaussian, Inc. or will provide
 assistance to any competitor of Gaussian, Inc.  The licensee
 of this program is prohibited from giving any competitor of
 Gaussian, Inc. access to this program.  By using this program,
 the user acknowledges that Gaussian, Inc. is engaged in the
 business of creating and licensing software in the field of
 computational chemistry and represents and warrants to the
 licensee that it is not a competitor of Gaussian, Inc. and that
 it will not use this program in any manner prohibited above.
 ---------------------------------------------------------------
  

 Cite this work as:
 Gaussian 16, Revision B.01,
 M. J. Frisch, G. W. Trucks, H. B. Schlegel, G. E. Scuseria, 
 M. A. Robb, J. R. Cheeseman, G. Scalmani, V. Barone, 
 G. A. Petersson, H. Nakatsuji, X. Li, M. Caricato, A. V. Marenich, 
 J. Bloino, B. G. Janesko, R. Gomperts, B. Mennucci, H. P. Hratchian, 
 J. V. Ortiz, A. F. Izmaylov, J. L. Sonnenberg, D. Williams-Young, 
 F. Ding, F. Lipparini, F. Egidi, J. Goings, B. Peng, A. Petrone, 
 T. Henderson, D. Ranasinghe, V. G. Zakrzewski, J. Gao, N. Rega, 
 G. Zheng, W. Liang, M. Hada, M. Ehara, K. Toyota, R. Fukuda, 
 J. Hasegawa, M. Ishida, T. Nakajima, Y. Honda, O. Kitao, H. Nakai, 
 T. Vreven, K. Throssell, J. A. Montgomery, Jr., J. E. Peralta, 
 F. Ogliaro, M. J. Bearpark, J. J. Heyd, E. N. Brothers, K. N. Kudin, 
 V. N. Staroverov, T. A. Keith, R. Kobayashi, J. Normand, 
 K. Raghavachari, A. P. Rendell, J. C. Burant, S. S. Iyengar, 
 J. Tomasi, M. Cossi, J. M. Millam, M. Klene, C. Adamo, R. Cammi, 
 J. W. Ochterski, R. L. Martin, K. Morokuma, O. Farkas, 
 J. B. Foresman, and D. J. Fox, Gaussian, Inc., Wallingford CT, 2016.
 
 ******************************************
 Gaussian 16:  EM64L-G16RevB.01 20-Dec-2017
                12-Jun-2025 
 ******************************************
 %chk=Meth_napthalene_isomer_sp.chk
 --------------------------------------
 # hf/3-21g* pop=full geom=connectivity
 --------------------------------------
 1/38=1,57=2,172=1/1;
 2/12=2,17=6,18=5,40=1/2;
 3/5=5,7=1,11=9,25=1,30=1/1,2,3;
 4//1;
 5/5=2,38=5/2;
 6/7=3,28=1/1;
 99/5=1,9=1/99;
 --
 sp
 --
 Symbolic Z-matrix:
 Charge =  0 Multiplicity = 1
 C                     2.91741   0.39816   0.00013 
 C                     1.83687   1.27394   0.00006 
 C                     0.52411   0.7795   -0.00005 
 C                     0.30257  -0.60938  -0.00008 
 C                     1.39921  -1.48075  -0.00003 
 C                     2.69817  -0.9811    0.00007 
 H                    -0.39216   2.76127  -0.0002 
 H                     3.94447   0.79117   0.00024 
 H                     2.0066    2.36099   0.0001 
 C                    -0.61033   1.68185  -0.00011 
 C                    -1.07088  -1.18126  -0.00021 
 H                     1.2274   -2.56748  -0.00006 
 H                     3.55294  -1.67316   0.00008 
 C                    -2.19284  -0.19519   0.00002 
 C                    -1.87427   1.22265  -0.00006 
 H                    -2.72912   1.9185   -0.00006 
 C                    -3.46568  -0.622     0.00025 
 H                    -4.31679   0.0699    0.00041 
 H                    -3.72408  -1.68804   0.0003 
 H                    -1.17766  -1.84564  -0.90459 
 H                    -1.17767  -1.84609   0.90384 
 
                          Input orientation:                          
 ---------------------------------------------------------------------
 Center     Atomic      Atomic             Coordinates (Angstroms)
 Number     Number       Type             X           Y           Z
 ---------------------------------------------------------------------
      1          6           0        2.917413    0.398156    0.000127
      2          6           0        1.836866    1.273943    0.000062
      3          6           0        0.524107    0.779500   -0.000050
      4          6           0        0.302574   -0.609376   -0.000083
      5          6           0        1.399212   -1.480752   -0.000029
      6          6           0        2.698170   -0.981097    0.000068
      7          1           0       -0.392157    2.761270   -0.000197
      8          1           0        3.944472    0.791174    0.000242
      9          1           0        2.006604    2.360987    0.000101
     10          6           0       -0.610333    1.681851   -0.000109
     11          6           0       -1.070878   -1.181256   -0.000206
     12          1           0        1.227399   -2.567482   -0.000063
     13          1           0        3.552937   -1.673158    0.000084
     14          6           0       -2.192837   -0.195188    0.000016
     15          6           0       -1.874271    1.222648   -0.000056
     16          1           0       -2.729116    1.918501   -0.000059
     17          6           0       -3.465677   -0.621998    0.000249
     18          1           0       -4.316793    0.069901    0.000414
     19          1           0       -3.724083   -1.688038    0.000299
     20          1           0       -1.177663   -1.845642   -0.904593
     21          1           0       -1.177669   -1.846094    0.903843
 ---------------------------------------------------------------------
                    Distance matrix (angstroms):
                    1          2          3          4          5
     1  C    0.000000
     2  C    1.390893   0.000000
     3  C    2.423497   1.402787   0.000000
     4  C    2.802232   2.429186   1.406433   0.000000
     5  C    2.415622   2.789245   2.423747   1.400682   0.000000
     6  C    1.396569   2.413928   2.797544   2.424264   1.391742
     7  H    4.066640   2.679680   2.183335   3.441498   4.604753
     8  H    1.099688   2.162191   3.420385   3.901918   3.411744
     9  H    2.163857   1.100216   2.167694   3.424438   3.889458
    10  C    3.754046   2.480962   1.449549   2.466398   3.747043
    11  C    4.289640   3.805651   2.527556   1.487756   2.488181
    12  H    3.413379   3.889472   3.420074   2.165521   1.100228
    13  H    2.166618   3.410323   3.897351   3.420013   2.162302
    14  C    5.144581   4.289155   2.886486   2.529551   3.815166
    15  C    4.862101   3.711491   2.438975   2.845165   4.245476
    16  H    5.847627   4.611252   3.446851   3.947316   5.347711
    17  C    6.464097   5.631301   4.228779   3.768272   4.940102
    18  H    7.241650   6.270346   4.892632   4.669044   5.922604
    19  H    6.961442   6.300594   4.912826   4.168630   5.127487
    20  H    4.756343   4.431433   3.256622   2.130163   2.755298
    21  H    4.756370   4.431577   3.256809   2.130181   2.755136
                    6          7          8          9         10
     6  C    0.000000
     7  H    4.853394   0.000000
     8  H    2.166613   4.763153   0.000000
     9  H    3.412886   2.431929   2.493922   0.000000
    10  C    4.247056   1.101248   4.641073   2.703624   0.000000
    11  C    3.774359   4.000522   5.389269   4.692375   2.899911
    12  H    2.163281   5.569431   4.320076   4.989686   4.629697
    13  H    1.099807   5.935311   2.495242   4.320355   5.346859
    14  C    4.953746   3.461660   6.216066   4.916232   2.455116
    15  C    5.075796   2.136357   5.834719   4.044380   1.344770
    16  H    6.153300   2.484278   6.768134   4.756347   2.131958
    17  C    6.174298   4.570889   7.543697   6.232500   3.668884
    18  H    7.093258   4.758806   8.292692   6.725654   4.041810
    19  H    6.461045   5.558603   8.059357   7.016792   4.588201
    20  H    4.072828   4.760104   5.831620   5.352920   3.685534
    21  H    4.072733   4.760475   5.831638   5.353118   3.685837
                   11         12         13         14         15
    11  C    0.000000
    12  H    2.683971   0.000000
    13  H    4.649907   2.491574   0.000000
    14  C    1.493694   4.162426   5.932817   0.000000
    15  C    2.534600   4.897493   6.151445   1.453184   0.000000
    16  H    3.515430   5.981476   7.236312   2.180660   1.102257
    17  C    2.459234   5.080342   7.096892   1.342493   2.436245
    18  H    3.478701   6.139532   8.060453   2.140435   2.700878
    19  H    2.701171   5.028976   7.277035   2.138531   3.448753
    20  H    1.127266   2.668998   4.819416   2.138433   3.273813
    21  H    1.127261   2.668670   4.819266   2.138448   3.274059
                   16         17         18         19         20
    16  H    0.000000
    17  C    2.645120   0.000000
    18  H    2.436809   1.096869   0.000000
    19  H    3.741268   1.096912   1.855170   0.000000
    20  H    4.170607   2.747918   3.787147   2.707014   0.000000
    21  H    4.170875   2.747703   3.786994   2.706584   1.808436
                   21
    21  H    0.000000
 Stoichiometry    C11H10
 Framework group  C1[X(C11H10)]
 Deg. of freedom    57
 Full point group                 C1      NOp   1
 Largest Abelian subgroup         C1      NOp   1
 Largest concise Abelian subgroup C1      NOp   1
                         Standard orientation:                         
 ---------------------------------------------------------------------
 Center     Atomic      Atomic             Coordinates (Angstroms)
 Number     Number       Type             X           Y           Z
 ---------------------------------------------------------------------
      1          6           0       -2.917413    0.398156   -0.000127
      2          6           0       -1.836866    1.273943   -0.000062
      3          6           0       -0.524107    0.779500    0.000050
      4          6           0       -0.302574   -0.609376    0.000083
      5          6           0       -1.399212   -1.480752    0.000029
      6          6           0       -2.698170   -0.981097   -0.000068
      7          1           0        0.392157    2.761270    0.000197
      8          1           0       -3.944472    0.791174   -0.000242
      9          1           0       -2.006604    2.360987   -0.000101
     10          6           0        0.610333    1.681851    0.000109
     11          6           0        1.070878   -1.181256    0.000206
     12          1           0       -1.227399   -2.567482    0.000063
     13          1           0       -3.552937   -1.673158   -0.000084
     14          6           0        2.192837   -0.195188   -0.000016
     15          6           0        1.874271    1.222648    0.000056
     16          1           0        2.729116    1.918501    0.000059
     17          6           0        3.465677   -0.621998   -0.000249
     18          1           0        4.316793    0.069901   -0.000414
     19          1           0        3.724083   -1.688038   -0.000299
     20          1           0        1.177663   -1.845642    0.904593
     21          1           0        1.177669   -1.846094   -0.903843
 ---------------------------------------------------------------------
 Rotational constants (GHZ):           2.7590122           0.8438447           0.6489382
 Standard basis: 3-21G* (6D, 7F)
 There are   119 symmetry adapted cartesian basis functions of A   symmetry.
 There are   119 symmetry adapted basis functions of A   symmetry.
   119 basis functions,   195 primitive gaussians,   119 cartesian basis functions
    38 alpha electrons       38 beta electrons
       nuclear repulsion energy       542.5478928912 Hartrees.
 NAtoms=   21 NActive=   21 NUniq=   21 SFac= 1.00D+00 NAtFMM=   60 NAOKFM=F Big=F
 Integral buffers will be    131072 words long.
 Raffenetti 1 integral format.
 Two-electron integral symmetry is turned on.
 One-electron integrals computed using PRISM.
 NBasis=   119 RedAO= T EigKep=  1.26D-03  NBF=   119
 NBsUse=   119 1.00D-06 EigRej= -1.00D+00 NBFU=   119
 ExpMin= 1.83D-01 ExpMax= 1.72D+02 ExpMxC= 1.72D+02 IAcc=3 IRadAn=         5 AccDes= 0.00D+00
 Harris functional with IExCor=  205 and IRadAn=       5 diagonalized for initial guess.
 HarFok:  IExCor=  205 AccDes= 0.00D+00 IRadAn=         5 IDoV= 1 UseB2=F ITyADJ=14
 ICtDFT=  3500011 ScaDFX=  1.000000  1.000000  1.000000  1.000000
 FoFCou: FMM=F IPFlag=           0 FMFlag=      100000 FMFlg1=           0
         NFxFlg=           0 DoJE=T BraDBF=F KetDBF=T FulRan=T
         wScrn=  0.000000 ICntrl=       500 IOpCl=  0 I1Cent=   200000004 NGrid=           0
         NMat0=    1 NMatS0=      1 NMatT0=    0 NMatD0=    1 NMtDS0=    0 NMtDT0=    0
 Petite list used in FoFCou.
 Keep R1 ints in memory in canonical form, NReq=26359710.
 Requested convergence on RMS density matrix=1.00D-08 within 128 cycles.
 Requested convergence on MAX density matrix=1.00D-06.
 Requested convergence on             energy=1.00D-06.
 No special actions if energy rises.
 SCF Done:  E(RHF) =  -419.988972286     A.U. after   15 cycles
            NFock= 15  Conv=0.26D-08     -V/T= 2.0029

 **********************************************************************

            Population analysis using the SCF Density.

 **********************************************************************

 Orbital symmetries:
       Occupied  (A) (A) (A) (A) (A) (A) (A) (A) (A) (A) (A) (A)
                 (A) (A) (A) (A) (A) (A) (A) (A) (A) (A) (A) (A)
                 (A) (A) (A) (A) (A) (A) (A) (A) (A) (A) (A) (A)
                 (A) (A)
       Virtual   (A) (A) (A) (A) (A) (A) (A) (A) (A) (A) (A) (A)
                 (A) (A) (A) (A) (A) (A) (A) (A) (A) (A) (A) (A)
                 (A) (A) (A) (A) (A) (A) (A) (A) (A) (A) (A) (A)
                 (A) (A) (A) (A) (A) (A) (A) (A) (A) (A) (A) (A)
                 (A) (A) (A) (A) (A) (A) (A) (A) (A) (A) (A) (A)
                 (A) (A) (A) (A) (A) (A) (A) (A) (A) (A) (A) (A)
                 (A) (A) (A) (A) (A) (A) (A) (A) (A)
 The electronic state is 1-A.
 Alpha  occ. eigenvalues --  -11.19294 -11.19203 -11.18977 -11.18603 -11.18492
 Alpha  occ. eigenvalues --  -11.18421 -11.18394 -11.18336 -11.18162 -11.18117
 Alpha  occ. eigenvalues --  -11.16515  -1.17664  -1.11716  -1.05616  -1.03066
 Alpha  occ. eigenvalues --   -0.98996  -0.92476  -0.84526  -0.82034  -0.79412
 Alpha  occ. eigenvalues --   -0.70458  -0.69029  -0.67029  -0.62081  -0.61412
 Alpha  occ. eigenvalues --   -0.60195  -0.59607  -0.57063  -0.56116  -0.54074
 Alpha  occ. eigenvalues --   -0.50877  -0.50351  -0.47959  -0.46121  -0.44472
 Alpha  occ. eigenvalues --   -0.36741  -0.33198  -0.27393
 Alpha virt. eigenvalues --    0.08865   0.14097   0.17801   0.25817   0.27703
 Alpha virt. eigenvalues --    0.27736   0.28324   0.31297   0.32569   0.33936
 Alpha virt. eigenvalues --    0.34640   0.35368   0.35814   0.37544   0.42053
 Alpha virt. eigenvalues --    0.43675   0.46607   0.49672   0.51442   0.51927
 Alpha virt. eigenvalues --    0.54800   0.56436   0.58347   0.72796   0.73423
 Alpha virt. eigenvalues --    0.79599   0.83248   0.85597   0.90553   0.93980
 Alpha virt. eigenvalues --    0.97079   0.97159   0.98208   1.00727   1.01667
 Alpha virt. eigenvalues --    1.04013   1.04369   1.05590   1.07164   1.08728
 Alpha virt. eigenvalues --    1.08839   1.09988   1.11388   1.11535   1.12156
 Alpha virt. eigenvalues --    1.15272   1.15388   1.15769   1.21495   1.26727
 Alpha virt. eigenvalues --    1.28717   1.28971   1.29847   1.29926   1.34065
 Alpha virt. eigenvalues --    1.37412   1.40006   1.41164   1.44689   1.47350
 Alpha virt. eigenvalues --    1.52474   1.53250   1.59217   1.61419   1.64762
 Alpha virt. eigenvalues --    1.68686   1.71113   1.75302   1.76584   1.79278
 Alpha virt. eigenvalues --    1.80804   1.82506   1.83981   1.87579   2.02581
 Alpha virt. eigenvalues --    2.06065   2.19916   2.21697   2.39253   2.75184
 Alpha virt. eigenvalues --    2.84295
     Molecular Orbital Coefficients:
                           1         2         3         4         5
                           O         O         O         O         O
     Eigenvalues --   -11.19294 -11.19203 -11.18977 -11.18603 -11.18492
   1 1   C  1S         -0.00402   0.00043  -0.00452  -0.00415  -0.05788
   2        2S         -0.00099   0.00016  -0.00015  -0.00039  -0.01020
   3        2PX        -0.00010   0.00000  -0.00053  -0.00024  -0.00153
   4        2PY         0.00003  -0.00006  -0.00040  -0.00019  -0.00045
   5        2PZ        -0.00000  -0.00000  -0.00000  -0.00000  -0.00000
   6        3S          0.01032  -0.00206  -0.00890  -0.00413   0.04317
   7        3PX         0.00511  -0.00199  -0.00617  -0.00164   0.02535
   8        3PY        -0.00066  -0.00014   0.00329   0.00020   0.00144
   9        3PZ         0.00000  -0.00000  -0.00000  -0.00000   0.00000
  10 2   C  1S         -0.00545  -0.00226  -0.04153  -0.08410   0.97754
  11        2S         -0.00049  -0.00050  -0.00786  -0.00945   0.09906
  12        2PX        -0.00034   0.00013  -0.00125  -0.00018   0.00002
  13        2PY         0.00024   0.00004   0.00084   0.00002  -0.00152
  14        2PZ        -0.00000  -0.00000  -0.00000   0.00000   0.00000
  15        3S         -0.00303   0.00557   0.03115   0.01898  -0.09760
  16        3PX         0.00441   0.00081   0.01234   0.00448  -0.00484
  17        3PY         0.00752  -0.00313  -0.01202  -0.00706   0.02778
  18        3PZ         0.00000   0.00000   0.00000   0.00000  -0.00000
  19 3   C  1S         -0.06429  -0.01177   0.98225   0.06021   0.04336
  20        2S         -0.01039  -0.00151   0.10055   0.00316   0.00019
  21        2PX        -0.00044  -0.00043  -0.00001  -0.00179   0.00199
  22        2PY         0.00209   0.00007  -0.00016  -0.00047  -0.00021
  23        2PZ        -0.00000   0.00000  -0.00000  -0.00000   0.00000
  24        3S          0.03827   0.00454  -0.10292   0.02093   0.03522
  25        3PX         0.00402   0.00922   0.00175   0.03101  -0.02807
  26        3PY        -0.02916   0.00180   0.00875   0.00600  -0.00461
  27        3PZ         0.00000   0.00000   0.00000   0.00000  -0.00000
  28 4   C  1S          0.98518   0.00443   0.06234   0.00900   0.00673
  29        2S          0.10131   0.00107   0.00264   0.00089   0.00104
  30        2PX        -0.00007  -0.00025   0.00036  -0.00014   0.00025
  31        2PY         0.00031  -0.00029  -0.00176  -0.00097  -0.00087
  32        2PZ         0.00000   0.00000   0.00000  -0.00000   0.00000
  33        3S         -0.10572  -0.00885   0.02578  -0.00843  -0.01546
  34        3PX         0.00567  -0.00806  -0.00719  -0.00742   0.00918
  35        3PY        -0.01244   0.00137   0.02434  -0.00075  -0.00110
  36        3PZ         0.00000  -0.00000  -0.00000  -0.00000   0.00000
  37 5   C  1S         -0.01711  -0.00199  -0.00742  -0.01226  -0.02028
  38        2S         -0.00542  -0.00039  -0.00096  -0.00182  -0.00294
  39        2PX        -0.00091  -0.00036  -0.00047  -0.00008  -0.00002
  40        2PY        -0.00112  -0.00001  -0.00046  -0.00039  -0.00033
  41        2PZ        -0.00000  -0.00000  -0.00000   0.00000   0.00000
  42        3S          0.02916  -0.00269  -0.00281   0.00001   0.01483
  43        3PX         0.00737   0.00428   0.00651  -0.00002  -0.00064
  44        3PY         0.01536  -0.00222  -0.00555   0.00124   0.00875
  45        3PZ         0.00000   0.00000   0.00000  -0.00000  -0.00000
  46 6   C  1S         -0.00476  -0.00109  -0.00941  -0.00683  -0.03551
  47        2S         -0.00029  -0.00032  -0.00159  -0.00080  -0.00291
  48        2PX        -0.00069   0.00006  -0.00017  -0.00019   0.00007
  49        2PY         0.00024   0.00005  -0.00005   0.00002  -0.00098
  50        2PZ        -0.00000   0.00000  -0.00000  -0.00000   0.00000
  51        3S         -0.00834   0.00424   0.01078   0.00099  -0.01454
  52        3PX        -0.00457   0.00237   0.00482   0.00021  -0.00834
  53        3PY        -0.00470  -0.00071   0.00255   0.00057  -0.00640
  54        3PZ        -0.00000  -0.00000   0.00000   0.00000  -0.00000
  55 7   H  1S         -0.00053  -0.00043  -0.00031  -0.00218  -0.00007
  56        2S         -0.00150  -0.00135   0.00117   0.00483   0.00084
  57 8   H  1S          0.00002  -0.00013  -0.00043   0.00001   0.00027
  58        2S          0.00107  -0.00040  -0.00107   0.00010   0.00483
  59 9   H  1S         -0.00060   0.00013  -0.00029   0.00035  -0.00220
  60        2S         -0.00169   0.00077   0.00210   0.00028   0.00451
  61 10  C  1S         -0.00616  -0.00618  -0.06587   0.98073   0.07738
  62        2S         -0.00052  -0.00016  -0.00961   0.09947   0.00713
  63        2PX         0.00032  -0.00058   0.00062   0.00044   0.00029
  64        2PY         0.00038   0.00031   0.00094  -0.00149  -0.00025
  65        2PZ         0.00000   0.00000   0.00000  -0.00000   0.00000
  66        3S         -0.00321  -0.01134   0.02679  -0.09810   0.00060
  67        3PX        -0.00724   0.00126  -0.00670  -0.00581  -0.00375
  68        3PY         0.00486   0.00844  -0.01225   0.02721  -0.00253
  69        3PZ         0.00000   0.00000  -0.00000   0.00000   0.00000
  70 11  C  1S         -0.01855  -0.02197  -0.01254  -0.02104  -0.07598
  71        2S         -0.00436  -0.00511  -0.00163  -0.00293  -0.00870
  72        2PX         0.00047  -0.00021   0.00038  -0.00000   0.00031
  73        2PY        -0.00065  -0.00066  -0.00045   0.00002  -0.00023
  74        2PZ         0.00000   0.00000   0.00000   0.00000  -0.00000
  75        3S          0.02143   0.02852   0.00376   0.00956   0.00670
  76        3PX        -0.00713   0.00491  -0.00461  -0.00251   0.00065
  77        3PY         0.01034   0.01416  -0.00200   0.00341   0.00105
  78        3PZ        -0.00000  -0.00000  -0.00000  -0.00000   0.00000
  79 12  H  1S         -0.00024  -0.00040  -0.00062   0.00012   0.00029
  80        2S          0.00243  -0.00052  -0.00171   0.00061   0.00196
  81 13  H  1S         -0.00042  -0.00007   0.00006   0.00000  -0.00044
  82        2S         -0.00095   0.00015   0.00116   0.00014  -0.00194
  83 14  C  1S         -0.00546   0.98669   0.01027   0.00529   0.00069
  84        2S          0.00002   0.10051   0.00075   0.00126   0.00025
  85        2PX         0.00043  -0.00027   0.00006   0.00044   0.00017
  86        2PY        -0.00014  -0.00002   0.00015  -0.00063  -0.00018
  87        2PZ         0.00000   0.00000   0.00000  -0.00000  -0.00000
  88        3S         -0.00747  -0.09307   0.00355  -0.01455  -0.00343
  89        3PX         0.00414   0.00560  -0.00170   0.00505   0.00128
  90        3PY         0.00306  -0.00281  -0.00001  -0.00613   0.00144
  91        3PZ        -0.00000  -0.00000   0.00000  -0.00000  -0.00000
  92 15  C  1S         -0.00322  -0.02973  -0.00857  -0.04161  -0.02754
  93        2S         -0.00067  -0.00631  -0.00072  -0.00936  -0.00354
  94        2PX         0.00001   0.00013   0.00058   0.00220   0.00058
  95        2PY         0.00016   0.00107  -0.00016  -0.00006  -0.00006
  96        2PZ         0.00000   0.00000   0.00000  -0.00000  -0.00000
  97        3S          0.00682   0.03027  -0.00573   0.04684   0.00478
  98        3PX        -0.00501  -0.00331   0.00357  -0.02445  -0.00357
  99        3PY         0.00027  -0.01744   0.00299  -0.00692   0.00010
 100        3PZ         0.00000  -0.00000  -0.00000   0.00000   0.00000
 101 16  H  1S          0.00008  -0.00026  -0.00030   0.00012   0.00009
 102        2S          0.00081   0.00234  -0.00058   0.00451   0.00075
 103 17  C  1S         -0.00130  -0.00062  -0.00050  -0.00280  -0.00047
 104        2S         -0.00056  -0.00382  -0.00017  -0.00096  -0.00017
 105        2PX         0.00015   0.00181   0.00015   0.00009  -0.00002
 106        2PY         0.00010  -0.00060   0.00007  -0.00039  -0.00005
 107        2PZ        -0.00000  -0.00000  -0.00000  -0.00000  -0.00000
 108        3S          0.00085   0.02261   0.00044   0.00067   0.00065
 109        3PX        -0.00204  -0.01127  -0.00050  -0.00046  -0.00051
 110        3PY        -0.00176   0.00377  -0.00038   0.00394  -0.00003
 111        3PZ         0.00000   0.00000   0.00000   0.00000   0.00000
 112 18  H  1S          0.00020  -0.00092   0.00008  -0.00058  -0.00002
 113        2S          0.00117   0.00009   0.00023  -0.00065   0.00009
 114 19  H  1S         -0.00037  -0.00094  -0.00010   0.00031  -0.00004
 115        2S         -0.00033   0.00008  -0.00003   0.00176   0.00001
 116 20  H  1S         -0.00117  -0.00135  -0.00013  -0.00026  -0.00017
 117        2S          0.00250   0.00245  -0.00018  -0.00005  -0.00099
 118 21  H  1S         -0.00117  -0.00135  -0.00013  -0.00026  -0.00017
 119        2S          0.00250   0.00245  -0.00018  -0.00005  -0.00099
                           6         7         8         9        10
                           O         O         O         O         O
     Eigenvalues --   -11.18421 -11.18394 -11.18336 -11.18162 -11.18117
   1 1   C  1S         -0.00080  -0.08437  -0.01056  -0.19327   0.96276
   2        2S          0.00012  -0.01309  -0.00155  -0.01965   0.09654
   3        2PX        -0.00013  -0.00092   0.00004  -0.00063   0.00111
   4        2PY        -0.00014   0.00123  -0.00000   0.00119  -0.00024
   5        2PZ        -0.00000  -0.00000   0.00000  -0.00000   0.00000
   6        3S         -0.00227   0.04876   0.00829   0.00749  -0.08817
   7        3PX        -0.00008   0.02027   0.00404  -0.00251  -0.02246
   8        3PY         0.00223  -0.01838   0.00193  -0.00056   0.00831
   9        3PZ         0.00000   0.00000   0.00000  -0.00000  -0.00000
  10 2   C  1S          0.06308   0.04007   0.02835   0.01274   0.06364
  11        2S          0.00596   0.00477   0.00254   0.00120   0.00171
  12        2PX        -0.00059   0.00048  -0.00060  -0.00025   0.00104
  13        2PY         0.00010   0.00057  -0.00026   0.00008   0.00140
  14        2PZ         0.00000   0.00000  -0.00000  -0.00000   0.00000
  15        3S         -0.00930  -0.02533  -0.00722   0.00195   0.03601
  16        3PX        -0.00134  -0.00324   0.00475   0.00204  -0.00523
  17        3PY         0.00154   0.01359   0.00645  -0.00239  -0.02125
  18        3PZ        -0.00000  -0.00000   0.00000   0.00000   0.00000
  19 3   C  1S          0.01244   0.01174   0.01298   0.00809   0.01029
  20        2S          0.00093   0.00025   0.00124   0.00077   0.00105
  21        2PX         0.00021   0.00056  -0.00062  -0.00001   0.00080
  22        2PY         0.00057   0.00034  -0.00002   0.00078   0.00037
  23        2PZ        -0.00000  -0.00000   0.00000  -0.00000   0.00000
  24        3S         -0.00191   0.01146  -0.00845  -0.00942  -0.01471
  25        3PX        -0.01366  -0.01556  -0.01060   0.00461   0.00888
  26        3PY        -0.00199  -0.00523  -0.00611   0.00466   0.00097
  27        3PZ        -0.00000  -0.00000  -0.00000   0.00000   0.00000
  28 4   C  1S          0.01730   0.00715   0.00553   0.01704   0.00875
  29        2S         -0.00092   0.00104   0.00006  -0.00220  -0.00048
  30        2PX        -0.00152   0.00016  -0.00056   0.00189   0.00101
  31        2PY        -0.00003   0.00004  -0.00004   0.00074  -0.00012
  32        2PZ        -0.00000   0.00000  -0.00000   0.00000   0.00000
  33        3S          0.02620  -0.01521   0.00326   0.03326   0.01226
  34        3PX         0.03231   0.01986   0.01188  -0.02478  -0.01395
  35        3PY        -0.00312   0.00095  -0.00190  -0.00368  -0.00024
  36        3PZ         0.00000   0.00000   0.00000  -0.00000  -0.00000
  37 5   C  1S         -0.02063  -0.10126  -0.01979   0.96404   0.18338
  38        2S         -0.00218  -0.01495  -0.00243   0.09705   0.01829
  39        2PX        -0.00058   0.00122  -0.00003  -0.00039   0.00093
  40        2PY         0.00022  -0.00107  -0.00004   0.00135  -0.00036
  41        2PZ        -0.00000   0.00000   0.00000  -0.00000   0.00000
  42        3S          0.00486   0.05403   0.00771  -0.08809  -0.02816
  43        3PX         0.00388  -0.01193  -0.00056   0.00208  -0.00066
  44        3PY         0.00458   0.02471   0.00433  -0.02296  -0.01213
  45        3PZ         0.00000  -0.00000  -0.00000   0.00000   0.00000
  46 6   C  1S         -0.18574   0.96113   0.00499   0.07680   0.09640
  47        2S         -0.01910   0.09778   0.00065   0.00419   0.00460
  48        2PX        -0.00067   0.00119  -0.00002  -0.00134  -0.00049
  49        2PY        -0.00022   0.00098   0.00001   0.00026  -0.00142
  50        2PZ        -0.00000   0.00000  -0.00000  -0.00000   0.00000
  51        3S          0.01354  -0.09972  -0.00382   0.02299   0.03441
  52        3PX         0.00327  -0.02323  -0.00278   0.01947   0.01175
  53        3PY         0.00165  -0.01901  -0.00082   0.00031   0.02045
  54        3PZ         0.00000  -0.00000  -0.00000   0.00000   0.00000
  55 7   H  1S         -0.00014   0.00003  -0.00013   0.00022  -0.00046
  56        2S          0.00118   0.00076   0.00502   0.00120  -0.00017
  57 8   H  1S          0.00002   0.00033  -0.00008  -0.00005  -0.00226
  58        2S         -0.00005   0.00498   0.00041  -0.00176   0.00565
  59 9   H  1S         -0.00004  -0.00061  -0.00068   0.00016  -0.00015
  60        2S          0.00063  -0.00183  -0.00099   0.00105   0.00506
  61 10  C  1S          0.02004   0.01040   0.04340   0.01331   0.01253
  62        2S          0.00153   0.00070  -0.00097   0.00064   0.00067
  63        2PX         0.00018  -0.00015  -0.00186   0.00006   0.00056
  64        2PY        -0.00020  -0.00011   0.00118   0.00035   0.00008
  65        2PZ        -0.00000  -0.00000   0.00000   0.00000   0.00000
  66        3S          0.01247   0.00817   0.04216   0.00043  -0.00333
  67        3PX         0.00034  -0.00057   0.01258   0.00199  -0.00530
  68        3PY        -0.00532  -0.00381  -0.01990  -0.00247   0.00141
  69        3PZ        -0.00000  -0.00000  -0.00000  -0.00000  -0.00000
  70 11  C  1S          0.96492   0.17809   0.07428   0.03466   0.01924
  71        2S          0.10493   0.01896   0.00845   0.00293   0.00130
  72        2PX        -0.00006   0.00051  -0.00043   0.00022  -0.00005
  73        2PY         0.00001   0.00005  -0.00094   0.00010   0.00006
  74        2PZ         0.00000   0.00000  -0.00000   0.00000   0.00000
  75        3S         -0.11643  -0.02488  -0.01880   0.00285   0.00532
  76        3PX         0.00402  -0.00224   0.00521  -0.00297  -0.00184
  77        3PY        -0.01659  -0.00593  -0.00610   0.00176   0.00212
  78        3PZ         0.00000   0.00000   0.00000  -0.00000  -0.00000
  79 12  H  1S          0.00041   0.00036   0.00019  -0.00206  -0.00089
  80        2S          0.00078   0.00440   0.00089   0.00547   0.00023
  81 13  H  1S          0.00037  -0.00220  -0.00016  -0.00007  -0.00016
  82        2S         -0.00059   0.00419  -0.00044   0.00456   0.00637
  83 14  C  1S          0.01852   0.00421   0.03094   0.00333   0.00109
  84        2S         -0.00058  -0.00020  -0.00028   0.00001   0.00006
  85        2PX         0.00114   0.00009   0.00102   0.00048   0.00012
  86        2PY         0.00045   0.00028  -0.00114  -0.00001  -0.00006
  87        2PZ        -0.00000  -0.00000  -0.00000  -0.00000   0.00000
  88        3S          0.02124   0.00678   0.02502  -0.00054  -0.00074
  89        3PX        -0.02802  -0.00575  -0.01917  -0.00414   0.00010
  90        3PY        -0.01382  -0.00566   0.01953   0.00096   0.00147
  91        3PZ         0.00000   0.00000   0.00000   0.00000  -0.00000
  92 15  C  1S         -0.07564  -0.02312   0.98230   0.01301   0.00931
  93        2S         -0.00762  -0.00237   0.09903   0.00118   0.00062
  94        2PX        -0.00002   0.00009  -0.00112   0.00019   0.00001
  95        2PY         0.00072   0.00003  -0.00093   0.00012  -0.00001
  96        2PZ        -0.00000  -0.00000  -0.00000   0.00000  -0.00000
  97        3S          0.00045   0.00054  -0.09299  -0.00353   0.00347
  98        3PX         0.01042   0.00326   0.01986   0.00168  -0.00266
  99        3PY         0.00027  -0.00031   0.01591   0.00043   0.00181
 100        3PZ        -0.00000  -0.00000   0.00000  -0.00000   0.00000
 101 16  H  1S         -0.00082  -0.00026  -0.00220  -0.00011  -0.00014
 102        2S         -0.00299  -0.00081   0.00540  -0.00006   0.00018
 103 17  C  1S         -0.00436  -0.00094  -0.00566  -0.00123  -0.00110
 104        2S         -0.00125  -0.00022  -0.00157  -0.00041  -0.00031
 105        2PX         0.00028   0.00016   0.00017   0.00000   0.00008
 106        2PY         0.00022   0.00005  -0.00021   0.00008  -0.00001
 107        2PZ        -0.00000  -0.00000   0.00000  -0.00000  -0.00000
 108        3S          0.01044   0.00089   0.01158   0.00338   0.00080
 109        3PX        -0.00337  -0.00004  -0.00584  -0.00195  -0.00096
 110        3PY         0.00641   0.00172  -0.00081   0.00029  -0.00021
 111        3PZ         0.00000  -0.00000   0.00000   0.00000   0.00000
 112 18  H  1S         -0.00075  -0.00017   0.00009  -0.00003   0.00001
 113        2S         -0.00084  -0.00033   0.00058   0.00029   0.00042
 114 19  H  1S          0.00037   0.00014  -0.00050  -0.00017  -0.00011
 115        2S          0.00156   0.00062  -0.00040   0.00015   0.00008
 116 20  H  1S          0.00211   0.00020   0.00038  -0.00024  -0.00020
 117        2S          0.01285   0.00219   0.00080   0.00079   0.00036
 118 21  H  1S          0.00211   0.00020   0.00038  -0.00024  -0.00020
 119        2S          0.01285   0.00219   0.00080   0.00079   0.00036
                          11        12        13        14        15
                           O         O         O         O         O
     Eigenvalues --   -11.16515  -1.17664  -1.11716  -1.05616  -1.03066
   1 1   C  1S          0.00060  -0.06010   0.08409  -0.00375  -0.11116
   2        2S         -0.00009   0.06881  -0.09224   0.00488   0.11990
   3        2PX        -0.00002   0.03944  -0.04002   0.01671   0.02857
   4        2PY         0.00001  -0.01136   0.02142   0.04310  -0.01608
   5        2PZ         0.00000   0.00000  -0.00000   0.00000   0.00000
   6        3S          0.00178   0.09915  -0.17285  -0.00295   0.25231
   7        3PX         0.00097   0.00295  -0.01441  -0.00885   0.00981
   8        3PY        -0.00012  -0.00427   0.00354  -0.00155  -0.00467
   9        3PZ         0.00000  -0.00000  -0.00000  -0.00000   0.00000
  10 2   C  1S          0.00075  -0.07290   0.06365  -0.06801  -0.05610
  11        2S          0.00001   0.08287  -0.06997   0.07302   0.06065
  12        2PX        -0.00018   0.02175   0.01786   0.04148  -0.06514
  13        2PY         0.00001  -0.04067   0.04142  -0.00401  -0.02888
  14        2PZ        -0.00000   0.00000   0.00000   0.00000  -0.00000
  15        3S         -0.00224   0.13290  -0.12334   0.15110   0.12987
  16        3PX         0.00022  -0.00505  -0.00526  -0.00327  -0.00488
  17        3PY         0.00127  -0.01500   0.00857  -0.01297  -0.00899
  18        3PZ         0.00000   0.00000  -0.00000  -0.00000  -0.00000
  19 3   C  1S          0.00076  -0.10891   0.01470  -0.09139   0.05286
  20        2S          0.00000   0.12059  -0.01629   0.09960  -0.05620
  21        2PX        -0.00004  -0.00331   0.06366   0.00921  -0.04559
  22        2PY         0.00004  -0.02725   0.01282   0.06658   0.05317
  23        2PZ         0.00000  -0.00000   0.00000  -0.00000  -0.00000
  24        3S         -0.00122   0.21290  -0.03062   0.18739  -0.12801
  25        3PX        -0.00369   0.00868   0.01457  -0.01036  -0.00315
  26        3PY        -0.00037   0.00794   0.00079   0.02387   0.01102
  27        3PZ        -0.00000  -0.00000   0.00000  -0.00000   0.00000
  28 4   C  1S          0.00136  -0.10832   0.01114   0.05105   0.11176
  29        2S         -0.00036   0.12008  -0.01138  -0.05628  -0.11921
  30        2PX        -0.00043  -0.01481   0.06649  -0.00034  -0.00760
  31        2PY        -0.00001   0.02439   0.00309   0.08363   0.00066
  32        2PZ        -0.00000  -0.00000   0.00000  -0.00000  -0.00000
  33        3S          0.00178   0.20625  -0.02986  -0.08906  -0.25179
  34        3PX         0.00625  -0.01522  -0.01601   0.01032  -0.00502
  35        3PY         0.00077  -0.00269   0.00062   0.02452   0.00695
  36        3PZ         0.00000   0.00000  -0.00000  -0.00000  -0.00000
  37 5   C  1S          0.00095  -0.07362   0.06055   0.08411   0.03497
  38        2S         -0.00018   0.08391  -0.06559  -0.09053  -0.03662
  39        2PX         0.00001   0.00848   0.03105  -0.00288  -0.07966
  40        2PY        -0.00001   0.04542  -0.03310  -0.02035  -0.01338
  41        2PZ         0.00000  -0.00000   0.00000   0.00000  -0.00001
  42        3S          0.00347   0.12337  -0.13266  -0.18882  -0.08816
  43        3PX         0.00080  -0.00971  -0.00388   0.00753  -0.00346
  44        3PY         0.00237   0.00452  -0.02002  -0.01287  -0.00943
  45        3PZ        -0.00000  -0.00000  -0.00000   0.00000  -0.00000
  46 6   C  1S          0.00029  -0.06044   0.08323   0.05497  -0.07060
  47        2S          0.00003   0.06905  -0.09183  -0.06064   0.07573
  48        2PX        -0.00007   0.03436  -0.03003  -0.03592  -0.02071
  49        2PY         0.00003   0.02274  -0.03356   0.01392   0.05917
  50        2PZ        -0.00000   0.00000  -0.00000  -0.00000  -0.00000
  51        3S         -0.00116   0.10567  -0.16397  -0.11077   0.16880
  52        3PX        -0.00058   0.00392  -0.00910   0.00392   0.00899
  53        3PY        -0.00077   0.00740  -0.00375  -0.00261   0.00920
  54        3PZ        -0.00000   0.00000  -0.00000  -0.00000   0.00000
  55 7   H  1S          0.00006   0.02373   0.01833   0.05506  -0.00363
  56        2S          0.00127  -0.00214  -0.00306   0.01393  -0.00132
  57 8   H  1S          0.00000   0.01878  -0.03032   0.00197   0.05263
  58        2S          0.00023  -0.00491  -0.00053  -0.00172   0.00921
  59 9   H  1S         -0.00009   0.02491  -0.02156   0.03562   0.02606
  60        2S         -0.00018  -0.00043   0.00101   0.01145   0.00452
  61 10  C  1S          0.00290  -0.06762  -0.05621  -0.11635   0.01262
  62        2S         -0.00061   0.07764   0.06253   0.12503  -0.01257
  63        2PX        -0.00019  -0.00273   0.04662  -0.00068   0.03454
  64        2PY         0.00015  -0.03978  -0.02706  -0.03319   0.01603
  65        2PZ        -0.00000  -0.00000  -0.00000  -0.00000  -0.00000
  66        3S          0.00739   0.10540   0.10053   0.27466  -0.03554
  67        3PX         0.00268   0.00855  -0.00792   0.00966   0.00350
  68        3PY        -0.00389  -0.00237  -0.00482  -0.02512   0.00934
  69        3PZ        -0.00000   0.00000   0.00000  -0.00000   0.00000
  70 11  C  1S          0.00473  -0.06761  -0.06646   0.08840   0.04689
  71        2S          0.00020   0.06570   0.06152  -0.08152  -0.04226
  72        2PX        -0.00083  -0.01679   0.03186   0.00154   0.07548
  73        2PY        -0.00012   0.02972   0.03236  -0.00540  -0.00069
  74        2PZ         0.00000  -0.00001  -0.00001   0.00001  -0.00000
  75        3S         -0.00406   0.16720   0.19049  -0.25439  -0.14100
  76        3PX         0.00270   0.00210  -0.00817  -0.00035   0.01095
  77        3PY        -0.00085   0.00809   0.01337  -0.00482  -0.00667
  78        3PZ         0.00000   0.00000  -0.00000  -0.00000  -0.00000
  79 12  H  1S          0.00003   0.02501  -0.02012  -0.04144  -0.02035
  80        2S          0.00073  -0.00284  -0.00154  -0.01021  -0.00820
  81 13  H  1S         -0.00007   0.01906  -0.02995  -0.02439   0.03338
  82        2S         -0.00015  -0.00428   0.00059  -0.00104   0.00723
  83 14  C  1S          0.00046  -0.05958  -0.11725   0.05805  -0.08453
  84        2S         -0.00370   0.06663   0.12788  -0.06331   0.08959
  85        2PX        -0.00250  -0.01809   0.00470  -0.01821   0.07705
  86        2PY         0.00092   0.00438   0.00880   0.05752   0.01262
  87        2PZ         0.00000   0.00000  -0.00000   0.00000  -0.00001
  88        3S          0.02542   0.10983   0.23987  -0.12199   0.20531
  89        3PX         0.01406   0.01767   0.01594  -0.02135   0.00514
  90        3PY        -0.00572   0.00334   0.00292   0.00207  -0.00142
  91        3PZ        -0.00000  -0.00000  -0.00000   0.00000   0.00000
  92 15  C  1S          0.00507  -0.05678  -0.09331  -0.05694  -0.04475
  93        2S          0.00005   0.06442   0.10233   0.06308   0.04897
  94        2PX        -0.00082  -0.03128  -0.02215  -0.06998   0.02908
  95        2PY         0.00045  -0.01763  -0.03661   0.04056  -0.03032
  96        2PZ         0.00000   0.00000  -0.00000   0.00000  -0.00000
  97        3S         -0.00334   0.10179   0.19549   0.10935   0.09897
  98        3PX         0.00455  -0.01124  -0.02283   0.00790   0.00589
  99        3PY        -0.00137  -0.00788  -0.00611   0.00073  -0.00226
 100        3PZ        -0.00000   0.00000   0.00000   0.00000  -0.00000
 101 16  H  1S         -0.00036   0.01910   0.03725   0.02122   0.02759
 102        2S         -0.00079  -0.00053   0.00517  -0.00361   0.00641
 103 17  C  1S          0.98682  -0.02407  -0.06571   0.05143  -0.08728
 104        2S          0.09648   0.02944   0.07445  -0.05649   0.09475
 105        2PX        -0.00033  -0.02357  -0.05463   0.03839  -0.05282
 106        2PY         0.00010   0.00730   0.01930  -0.00325   0.02445
 107        2PZ         0.00000   0.00000   0.00001  -0.00001   0.00001
 108        3S         -0.06962   0.02592   0.11296  -0.10220   0.19534
 109        3PX         0.00880   0.00888   0.00129   0.00277  -0.00992
 110        3PY        -0.00275  -0.00553  -0.00325   0.00176   0.00656
 111        3PZ        -0.00000  -0.00000  -0.00000  -0.00000   0.00000
 112 18  H  1S         -0.00118   0.00897   0.02604  -0.01958   0.04121
 113        2S          0.01152  -0.00181   0.00015   0.00114   0.00551
 114 19  H  1S         -0.00113   0.00902   0.02519  -0.02501   0.03743
 115        2S          0.01160  -0.00339  -0.00236  -0.00347   0.00321
 116 20  H  1S         -0.00016   0.02490   0.02534  -0.04317  -0.02032
 117        2S          0.00021  -0.00952  -0.00590   0.00209   0.00108
 118 21  H  1S         -0.00016   0.02489   0.02534  -0.04317  -0.02032
 119        2S          0.00021  -0.00952  -0.00590   0.00208   0.00108
                          16        17        18        19        20
                           O         O         O         O         O
     Eigenvalues --    -0.98996  -0.92476  -0.84526  -0.82034  -0.79412
   1 1   C  1S         -0.02065  -0.08871  -0.01478   0.04348  -0.07430
   2        2S          0.02165   0.09306   0.01488  -0.04506   0.07621
   3        2PX         0.03717  -0.01029   0.05325   0.04149  -0.04401
   4        2PY         0.08560  -0.00409   0.12254   0.09482   0.02998
   5        2PZ         0.00000  -0.00000   0.00000   0.00000  -0.00001
   6        3S          0.05215   0.24529   0.05569  -0.14183   0.24520
   7        3PX         0.00934   0.00496   0.03006   0.00507  -0.01558
   8        3PY         0.01190  -0.00202   0.03449   0.03859   0.01223
   9        3PZ         0.00000   0.00000   0.00000  -0.00000  -0.00000
  10 2   C  1S         -0.10423  -0.00356  -0.05901  -0.08423   0.03484
  11        2S          0.11108   0.00449   0.06263   0.08676  -0.03632
  12        2PX         0.01731  -0.09566  -0.08121   0.00935  -0.11664
  13        2PY        -0.02111  -0.00883  -0.02321   0.07598  -0.01542
  14        2PZ         0.00000  -0.00001  -0.00001  -0.00000  -0.00001
  15        3S          0.26153   0.00304   0.16456   0.27327  -0.10990
  16        3PX         0.00738  -0.02163  -0.03247   0.00607  -0.04255
  17        3PY        -0.01351   0.00830  -0.00949   0.02740  -0.00305
  18        3PZ         0.00000  -0.00000  -0.00000   0.00000  -0.00000
  19 3   C  1S         -0.05826   0.06574   0.05644   0.04657   0.04282
  20        2S          0.06153  -0.06948  -0.05879  -0.04945  -0.04446
  21        2PX        -0.08150   0.03193  -0.09299  -0.06945   0.08330
  22        2PY        -0.00246   0.01476  -0.08371   0.17771  -0.03472
  23        2PZ        -0.00001   0.00000  -0.00001  -0.00001   0.00001
  24        3S          0.14487  -0.17554  -0.16847  -0.14319  -0.14384
  25        3PX         0.00210   0.01922  -0.04725  -0.01990   0.03813
  26        3PY         0.00515   0.00515  -0.03486   0.08163  -0.00905
  27        3PZ        -0.00000   0.00000  -0.00000  -0.00000   0.00000
  28 4   C  1S         -0.01400   0.02217  -0.05054   0.06755  -0.05917
  29        2S          0.01538  -0.02256   0.05233  -0.07083   0.05999
  30        2PX         0.04997   0.12242  -0.07333  -0.01105   0.00103
  31        2PY         0.04367  -0.04261  -0.06595  -0.16667  -0.07201
  32        2PZ         0.00000   0.00001  -0.00000   0.00000   0.00000
  33        3S          0.02824  -0.06869   0.15596  -0.21194   0.19331
  34        3PX        -0.01433   0.01508  -0.00623  -0.01636  -0.00958
  35        3PY         0.00594  -0.01038  -0.02355  -0.07437  -0.03326
  36        3PZ        -0.00000   0.00000   0.00000  -0.00000   0.00000
  37 5   C  1S          0.09152   0.06530  -0.03792  -0.08428   0.00881
  38        2S         -0.09740  -0.06840   0.03823   0.08729  -0.00873
  39        2PX         0.05995  -0.00411   0.11661  -0.01158   0.13393
  40        2PY        -0.01127  -0.02438   0.02231  -0.07498   0.01928
  41        2PZ         0.00000   0.00000   0.00001   0.00000   0.00001
  42        3S         -0.22607  -0.18008   0.13293   0.26036  -0.03215
  43        3PX         0.00563   0.00243   0.03569  -0.00263   0.05044
  44        3PY        -0.00956  -0.01969   0.02742  -0.03571   0.00217
  45        3PZ         0.00000   0.00000   0.00000   0.00000   0.00000
  46 6   C  1S          0.09417  -0.01764   0.09169   0.02139   0.04705
  47        2S         -0.10022   0.01919  -0.09443  -0.02261  -0.04861
  48        2PX        -0.04560  -0.06401   0.04519   0.07555  -0.04647
  49        2PY         0.03239   0.06838   0.01063  -0.10120   0.09175
  50        2PZ        -0.00000  -0.00001   0.00000   0.00001  -0.00001
  51        3S         -0.23334   0.04419  -0.29317  -0.06455  -0.15621
  52        3PX        -0.01477  -0.02021   0.00666   0.02415  -0.02246
  53        3PY         0.00106   0.01239  -0.00338  -0.03923   0.03469
  54        3PZ        -0.00000  -0.00000   0.00000   0.00000  -0.00000
  55 7   H  1S         -0.03509   0.00436  -0.05816   0.07734   0.06708
  56        2S         -0.00500   0.00252  -0.02553   0.04051   0.03137
  57 8   H  1S          0.01084   0.06106   0.00783  -0.03423   0.08206
  58        2S          0.00370   0.02254   0.00632  -0.01830   0.04299
  59 9   H  1S          0.05415   0.00485   0.03654   0.09903  -0.02455
  60        2S          0.01288  -0.00082   0.01259   0.05241  -0.00901
  61 10  C  1S          0.07800  -0.01420   0.06983  -0.05254  -0.06673
  62        2S         -0.08356   0.01480  -0.07252   0.05428   0.06970
  63        2PX        -0.09697   0.06184   0.12758  -0.00297   0.05218
  64        2PY         0.01092   0.00140   0.00705   0.07816   0.04539
  65        2PZ         0.00000   0.00000  -0.00000   0.00000   0.00000
  66        3S         -0.19661   0.03409  -0.21059   0.15797   0.20431
  67        3PX        -0.01349   0.01953   0.03958  -0.00735   0.02045
  68        3PY         0.00937  -0.00405   0.00798   0.04207   0.02547
  69        3PZ         0.00000   0.00000  -0.00000   0.00000   0.00000
  70 11  C  1S         -0.06140  -0.11856   0.04211  -0.04672   0.00557
  71        2S          0.05542   0.10550  -0.03663   0.03928  -0.00709
  72        2PX         0.01343  -0.00767  -0.04922   0.02896  -0.09826
  73        2PY         0.00529   0.00470   0.01078  -0.07028  -0.05175
  74        2PZ        -0.00000   0.00001  -0.00000   0.00000  -0.00000
  75        3S          0.19239   0.40588  -0.16156   0.18690  -0.00183
  76        3PX        -0.00204  -0.00679  -0.01690   0.00726  -0.04345
  77        3PY         0.00338   0.01745  -0.00495  -0.02970  -0.01848
  78        3PZ         0.00000   0.00000  -0.00000   0.00000  -0.00000
  79 12  H  1S         -0.04730  -0.03197   0.02506   0.09804  -0.00498
  80        2S         -0.01109  -0.01018   0.01432   0.04898  -0.00399
  81 13  H  1S         -0.05117   0.01444  -0.08492  -0.01321  -0.04645
  82        2S         -0.01397   0.00304  -0.04121  -0.00670  -0.02444
  83 14  C  1S         -0.02471   0.01946  -0.01447   0.01557   0.08003
  84        2S          0.02606  -0.01907   0.01504  -0.01619  -0.08201
  85        2PX         0.02024  -0.15672  -0.00836   0.00260   0.09411
  86        2PY        -0.07978  -0.00372   0.13118  -0.06193  -0.05470
  87        2PZ        -0.00000   0.00003   0.00000   0.00000  -0.00002
  88        3S          0.06223  -0.07199   0.04444  -0.05589  -0.26184
  89        3PX         0.00543  -0.02413  -0.00266   0.02172   0.06150
  90        3PY        -0.01508   0.00040   0.05176  -0.03278  -0.03087
  91        3PZ        -0.00000   0.00001   0.00000  -0.00000  -0.00001
  92 15  C  1S          0.10037  -0.02998  -0.09806   0.00791   0.01417
  93        2S         -0.10706   0.03136   0.10191  -0.00900  -0.01588
  94        2PX         0.05918  -0.04671   0.06519  -0.02985  -0.07295
  95        2PY        -0.03350   0.01231  -0.02540   0.06399   0.13066
  96        2PZ        -0.00000   0.00001  -0.00000   0.00000   0.00001
  97        3S         -0.24645   0.08426   0.29687  -0.01837  -0.03395
  98        3PX         0.01557  -0.02340   0.01868  -0.00956  -0.02987
  99        3PY        -0.00028  -0.00523  -0.01048   0.02484   0.04455
 100        3PZ        -0.00000   0.00000  -0.00000   0.00000   0.00000
 101 16  H  1S         -0.05032   0.00686   0.08521   0.00240   0.00316
 102        2S         -0.01129   0.00114   0.03735   0.00250   0.00976
 103 17  C  1S         -0.04096   0.11851   0.03933  -0.00449  -0.09380
 104        2S          0.04395  -0.12497  -0.04100   0.00556   0.09544
 105        2PX        -0.02525   0.02531   0.00337  -0.00154   0.07521
 106        2PY        -0.00656  -0.02266   0.03960  -0.02193  -0.03257
 107        2PZ         0.00000  -0.00000  -0.00000   0.00000  -0.00002
 108        3S          0.09669  -0.31440  -0.11379   0.00381   0.28733
 109        3PX        -0.00597   0.00871   0.00114   0.00341   0.03527
 110        3PY        -0.00291  -0.01133   0.02017  -0.01299  -0.01691
 111        3PZ         0.00000  -0.00000  -0.00000  -0.00000  -0.00001
 112 18  H  1S          0.01556  -0.07375  -0.01456  -0.00335   0.08936
 113        2S         -0.00042  -0.02144  -0.00110  -0.00325   0.04510
 114 19  H  1S          0.02488  -0.06439  -0.04554   0.01448   0.09511
 115        2S          0.00705  -0.01679  -0.02177   0.00850   0.04880
 116 20  H  1S          0.03119   0.06293  -0.02984   0.05101   0.00737
 117        2S          0.00113   0.01060  -0.01219   0.02553   0.00774
 118 21  H  1S          0.03119   0.06293  -0.02985   0.05103   0.00738
 119        2S          0.00113   0.01060  -0.01219   0.02554   0.00774
                          21        22        23        24        25
                           O         O         O         O         O
     Eigenvalues --    -0.70458  -0.69029  -0.67029  -0.62081  -0.61412
   1 1   C  1S         -0.04031  -0.02664   0.02202  -0.02814  -0.02839
   2        2S          0.03876   0.03172  -0.02231   0.03371   0.02932
   3        2PX        -0.12263   0.09266   0.09516   0.09622  -0.09786
   4        2PY         0.11315   0.02648   0.12296  -0.09276   0.06565
   5        2PZ        -0.00002   0.00001   0.00000   0.00001  -0.00002
   6        3S          0.14246   0.06235  -0.07391   0.05116   0.08096
   7        3PX        -0.09432   0.04021   0.06325   0.05019  -0.11473
   8        3PY         0.06902   0.01744   0.05837  -0.05751   0.05140
   9        3PZ        -0.00001   0.00000   0.00000   0.00001  -0.00002
  10 2   C  1S          0.01240   0.02603  -0.03544   0.01439   0.02263
  11        2S         -0.01830  -0.02652   0.03614  -0.01229  -0.02309
  12        2PX        -0.11227  -0.07796  -0.12144   0.05418   0.07468
  13        2PY         0.09599  -0.11492  -0.00230  -0.12889  -0.14147
  14        2PZ        -0.00001  -0.00000  -0.00001   0.00001   0.00000
  15        3S          0.00110  -0.06142   0.11639  -0.06147  -0.07725
  16        3PX        -0.04877  -0.02244  -0.06838   0.02353   0.03753
  17        3PY         0.04326  -0.10249   0.01150  -0.12505  -0.14898
  18        3PZ        -0.00001  -0.00000  -0.00001   0.00001  -0.00000
  19 3   C  1S          0.00162   0.02003   0.01308  -0.01622  -0.06732
  20        2S         -0.00239  -0.01794  -0.01157   0.01755   0.07098
  21        2PX         0.17130   0.01947   0.04901   0.01266  -0.05296
  22        2PY         0.04779  -0.03863  -0.10876   0.16536  -0.03781
  23        2PZ         0.00001  -0.00000   0.00000   0.00001  -0.00002
  24        3S         -0.01035  -0.09363  -0.05895   0.06726   0.19905
  25        3PX         0.13642   0.05782   0.00676   0.02931  -0.01386
  26        3PY         0.03891  -0.00945  -0.07368   0.13628   0.01492
  27        3PZ         0.00001   0.00000   0.00000   0.00001  -0.00001
  28 4   C  1S         -0.00775   0.02248   0.01444   0.05487   0.04209
  29        2S          0.00598  -0.02033  -0.01280  -0.05757  -0.04461
  30        2PX         0.03252  -0.13383   0.07432   0.04135  -0.04639
  31        2PY        -0.02507   0.02482   0.12029  -0.10553   0.10000
  32        2PZ        -0.00000  -0.00002   0.00000   0.00003  -0.00003
  33        3S          0.04410  -0.07405  -0.06378  -0.15729  -0.12913
  34        3PX         0.00591  -0.12866   0.07142   0.00447  -0.08083
  35        3PY        -0.01231   0.03079   0.08385  -0.06587   0.09749
  36        3PZ        -0.00000  -0.00002   0.00000   0.00002  -0.00002
  37 5   C  1S         -0.04648  -0.03424  -0.00333  -0.01741  -0.02115
  38        2S          0.04502   0.03961   0.00111   0.01974   0.01978
  39        2PX         0.04769  -0.00703  -0.15634   0.01013   0.02119
  40        2PY        -0.11354   0.08784  -0.04114  -0.05442  -0.19718
  41        2PZ         0.00000  -0.00001  -0.00001   0.00001  -0.00001
  42        3S          0.15523   0.07718   0.04170   0.04262   0.07648
  43        3PX         0.02502  -0.00089  -0.07389   0.01167   0.04084
  44        3PY        -0.08732   0.03272  -0.00809  -0.06559  -0.19153
  45        3PZ         0.00000  -0.00000  -0.00000   0.00001  -0.00000
  46 6   C  1S          0.03339   0.04146  -0.00967   0.01477   0.03897
  47        2S         -0.03797  -0.04002   0.01069  -0.01324  -0.04500
  48        2PX        -0.03100   0.15768   0.08828   0.08149  -0.06651
  49        2PY        -0.05600   0.08798  -0.12908   0.15050  -0.05069
  50        2PZ        -0.00000   0.00000   0.00001   0.00000  -0.00001
  51        3S         -0.09712  -0.14356   0.02670  -0.05747  -0.08276
  52        3PX        -0.01545   0.11566   0.03856   0.08862  -0.01270
  53        3PY        -0.02734   0.07202  -0.07926   0.11770  -0.01960
  54        3PZ        -0.00000   0.00000   0.00001   0.00000  -0.00001
  55 7   H  1S         -0.01993   0.04884  -0.10933  -0.06415  -0.08061
  56        2S         -0.01858   0.02121  -0.07098  -0.05258  -0.06052
  57 8   H  1S          0.12098  -0.02051  -0.04645  -0.05031   0.10236
  58        2S          0.07408  -0.02249  -0.02882  -0.04781   0.06589
  59 9   H  1S          0.05153  -0.08076   0.03852  -0.10296  -0.12395
  60        2S          0.04264  -0.04299   0.01774  -0.07295  -0.08655
  61 10  C  1S         -0.01719  -0.04687   0.01355  -0.00249   0.02178
  62        2S          0.02104   0.04964  -0.01072   0.00481  -0.02150
  63        2PX        -0.11826   0.03870   0.15228  -0.09494   0.03573
  64        2PY        -0.09056   0.02465  -0.13665  -0.12075  -0.07834
  65        2PZ        -0.00000   0.00000  -0.00001  -0.00000  -0.00002
  66        3S          0.03020   0.13617  -0.04699  -0.02144  -0.09514
  67        3PX        -0.05379   0.02387   0.08357  -0.02845   0.04983
  68        3PY        -0.04011   0.03562  -0.11200  -0.08463  -0.07231
  69        3PZ        -0.00000   0.00000  -0.00001   0.00000  -0.00001
  70 11  C  1S          0.04443   0.01623  -0.00935  -0.01745  -0.00221
  71        2S         -0.03537  -0.01547   0.01149   0.01329  -0.00196
  72        2PX        -0.01821   0.16138   0.01683  -0.04652   0.09744
  73        2PY         0.09553   0.03332   0.05399  -0.05891  -0.10579
  74        2PZ        -0.00002  -0.00002   0.00001   0.00008  -0.00004
  75        3S         -0.18311  -0.04509   0.01976   0.09378   0.05126
  76        3PX        -0.01832   0.06863   0.01264  -0.02488   0.03936
  77        3PY         0.06066   0.02789   0.02927  -0.04141  -0.08472
  78        3PZ        -0.00002  -0.00002   0.00001   0.00006  -0.00004
  79 12  H  1S          0.10553  -0.02142   0.01161   0.05514   0.15212
  80        2S          0.06194  -0.02625   0.01130   0.03569   0.10635
  81 13  H  1S          0.00406  -0.13809   0.01611  -0.11530   0.01487
  82        2S          0.00918  -0.08650   0.00720  -0.07994   0.02643
  83 14  C  1S         -0.05120  -0.05213   0.04452   0.01842   0.01804
  84        2S          0.05319   0.05322  -0.04633  -0.01896  -0.01914
  85        2PX        -0.00689  -0.02108  -0.12252  -0.07240   0.03721
  86        2PY         0.04346  -0.13346  -0.02627   0.15150  -0.06804
  87        2PZ        -0.00001   0.00000   0.00002   0.00003  -0.00002
  88        3S          0.18392   0.18064  -0.16010  -0.07700  -0.05794
  89        3PX        -0.01759  -0.01377  -0.08393  -0.04727   0.01727
  90        3PY         0.02851  -0.09996  -0.02384   0.11225  -0.05450
  91        3PZ        -0.00000   0.00000   0.00001   0.00002  -0.00001
  92 15  C  1S          0.04578   0.03793  -0.01669  -0.00502  -0.02723
  93        2S         -0.04486  -0.03783   0.02089   0.00745   0.02716
  94        2PX        -0.03961  -0.12931  -0.15922  -0.00738   0.03102
  95        2PY        -0.15300   0.00192   0.01972  -0.14668   0.09962
  96        2PZ        -0.00001   0.00001   0.00001   0.00000  -0.00000
  97        3S         -0.16860  -0.13075   0.03946  -0.01109   0.09427
  98        3PX        -0.04173  -0.08092  -0.08206  -0.00980   0.05311
  99        3PY        -0.08738  -0.01727  -0.00455  -0.09909   0.07112
 100        3PZ        -0.00000   0.00000   0.00000   0.00000  -0.00001
 101 16  H  1S         -0.11023  -0.09241  -0.04961  -0.05346   0.08136
 102        2S         -0.06905  -0.06040  -0.03667  -0.03807   0.05262
 103 17  C  1S          0.01111   0.02309  -0.03475  -0.00798   0.00649
 104        2S         -0.01035  -0.02011   0.02910   0.00290  -0.00527
 105        2PX        -0.05101  -0.12891   0.14984   0.16575  -0.05162
 106        2PY         0.03527  -0.05467  -0.10631   0.05881  -0.06430
 107        2PZ         0.00001   0.00002  -0.00003  -0.00002   0.00001
 108        3S         -0.04465  -0.10409   0.16047   0.06559  -0.02811
 109        3PX        -0.02376  -0.06213   0.07456   0.09392  -0.03855
 110        3PY         0.01690  -0.03581  -0.05942   0.04414  -0.04730
 111        3PZ         0.00000   0.00001  -0.00002  -0.00001   0.00000
 112 18  H  1S         -0.02153  -0.09882   0.05711   0.11105  -0.05604
 113        2S         -0.01743  -0.07600   0.04065   0.09162  -0.04150
 114 19  H  1S         -0.03724  -0.00612   0.11188  -0.00410   0.02928
 115        2S         -0.02880  -0.00279   0.08416  -0.00134   0.02708
 116 20  H  1S         -0.06349  -0.01440  -0.01076   0.03250   0.04971
 117        2S         -0.03891  -0.00814  -0.00719   0.02795   0.04767
 118 21  H  1S         -0.06350  -0.01439  -0.01078   0.03244   0.04979
 119        2S         -0.03891  -0.00813  -0.00720   0.02790   0.04773
                          26        27        28        29        30
                           O         O         O         O         O
     Eigenvalues --    -0.60195  -0.59607  -0.57063  -0.56116  -0.54074
   1 1   C  1S         -0.00002   0.01440   0.00167   0.01178   0.01086
   2        2S          0.00002  -0.01679  -0.00305  -0.01109  -0.01312
   3        2PX         0.00003  -0.09786  -0.15764   0.10619  -0.12223
   4        2PY         0.00022  -0.14930   0.00943  -0.00317   0.10722
   5        2PZ         0.02720   0.00003  -0.00002   0.00002  -0.00003
   6        3S          0.00006  -0.03420  -0.00258  -0.04343  -0.02643
   7        3PX        -0.00001  -0.04975  -0.14496   0.10921  -0.12399
   8        3PY         0.00015  -0.09494   0.02876  -0.02351   0.08652
   9        3PZ         0.02352   0.00003  -0.00002   0.00002  -0.00003
  10 2   C  1S          0.00003  -0.01494   0.02537  -0.02069   0.00196
  11        2S         -0.00003   0.01576  -0.03107   0.02219  -0.00186
  12        2PX        -0.00019   0.17044  -0.00432  -0.06577   0.06743
  13        2PY        -0.00009   0.09328   0.18453  -0.00679  -0.04873
  14        2PZ         0.04085   0.00006  -0.00002   0.00000  -0.00001
  15        3S         -0.00005   0.02983  -0.04240   0.05794   0.00540
  16        3PX        -0.00009   0.08305  -0.00731  -0.05382   0.05261
  17        3PY        -0.00010   0.08929   0.13292   0.01256  -0.06564
  18        3PZ         0.03260   0.00004  -0.00001   0.00000  -0.00001
  19 3   C  1S         -0.00002   0.00876  -0.02154   0.00489   0.00061
  20        2S          0.00002  -0.00906   0.02141  -0.00501   0.00050
  21        2PX         0.00013  -0.12672   0.12485   0.05517  -0.14340
  22        2PY        -0.00013   0.07837   0.03535  -0.00446  -0.06919
  23        2PZ         0.08251   0.00008  -0.00001   0.00002  -0.00004
  24        3S          0.00004  -0.01805   0.08114  -0.01852  -0.01224
  25        3PX         0.00014  -0.12315   0.10227   0.01848  -0.08040
  26        3PY        -0.00009   0.05465   0.02824   0.00043  -0.05042
  27        3PZ         0.07474   0.00008  -0.00001   0.00002  -0.00003
  28 4   C  1S          0.00001  -0.00495   0.01879  -0.00453   0.00820
  29        2S         -0.00001   0.00518  -0.01778   0.00478  -0.00530
  30        2PX         0.00008  -0.12792  -0.11889  -0.01250  -0.14780
  31        2PY         0.00021  -0.13578   0.02840  -0.03708   0.03489
  32        2PZ         0.13250   0.00015  -0.00002   0.00003  -0.00004
  33        3S         -0.00005   0.03805  -0.07694   0.00934  -0.05292
  34        3PX         0.00002  -0.07806  -0.10872  -0.00661  -0.13004
  35        3PY         0.00015  -0.09339   0.01352  -0.02300   0.03098
  36        3PZ         0.09647   0.00011  -0.00002   0.00002  -0.00003
  37 5   C  1S         -0.00001  -0.00292  -0.02185   0.02092  -0.00508
  38        2S          0.00001   0.00356   0.02811  -0.02143   0.00701
  39        2PX        -0.00023   0.19780  -0.09133   0.05161   0.01023
  40        2PY        -0.00006   0.04877   0.18064   0.00756   0.07277
  41        2PZ         0.06616   0.00009  -0.00002   0.00002  -0.00002
  42        3S          0.00003   0.00062   0.02522  -0.06551   0.00359
  43        3PX        -0.00014   0.11377  -0.06153   0.03246   0.00383
  44        3PY        -0.00005   0.02980   0.13133   0.01751   0.06318
  45        3PZ         0.06323   0.00008  -0.00002   0.00002  -0.00002
  46 6   C  1S          0.00001  -0.00202  -0.00225  -0.01456   0.01413
  47        2S         -0.00001   0.00094   0.00369   0.01509  -0.01677
  48        2PX         0.00017  -0.14887   0.16665  -0.07810  -0.03255
  49        2PY        -0.00015   0.10094   0.01484  -0.01403  -0.12964
  50        2PZ         0.03555   0.00003  -0.00000   0.00001  -0.00001
  51        3S         -0.00004   0.00946   0.00541   0.04589  -0.02636
  52        3PX         0.00011  -0.09963   0.13802  -0.07934  -0.03626
  53        3PY        -0.00007   0.05106   0.04441  -0.03728  -0.09327
  54        3PZ         0.02766   0.00003  -0.00000   0.00001  -0.00001
  55 7   H  1S          0.00012  -0.08519  -0.09556  -0.10888   0.05946
  56        2S          0.00008  -0.05896  -0.07213  -0.09160   0.03852
  57 8   H  1S          0.00005   0.01051   0.10316  -0.08374   0.09979
  58        2S          0.00003   0.01469   0.07928  -0.06143   0.08321
  59 9   H  1S         -0.00006   0.05661   0.09772   0.02036  -0.04399
  60        2S         -0.00003   0.03453   0.08329   0.00518  -0.02770
  61 10  C  1S         -0.00001   0.01113   0.01173  -0.02367  -0.01033
  62        2S          0.00001  -0.00880  -0.00999   0.02968   0.01110
  63        2PX        -0.00014   0.12625  -0.06877   0.11731   0.10385
  64        2PY         0.00014  -0.09292  -0.14012  -0.17040   0.08776
  65        2PZ         0.05423   0.00005  -0.00002  -0.00001  -0.00001
  66        3S          0.00005  -0.04306  -0.06532   0.04192   0.03064
  67        3PX        -0.00009   0.08365  -0.03527   0.07186   0.06036
  68        3PY         0.00013  -0.09600  -0.11826  -0.14673   0.10407
  69        3PZ         0.04458   0.00004  -0.00002  -0.00001  -0.00000
  70 11  C  1S         -0.00002   0.02152  -0.01114   0.01044  -0.01357
  71        2S          0.00001  -0.01626   0.00347  -0.01393   0.00731
  72        2PX        -0.00000   0.05643   0.07780  -0.07408   0.11934
  73        2PY         0.00001   0.02678  -0.15235  -0.16949  -0.05192
  74        2PZ         0.31644   0.00036  -0.00001   0.00006  -0.00001
  75        3S          0.00012  -0.09982   0.09242  -0.00306   0.08090
  76        3PX        -0.00002   0.04858   0.05905  -0.05996   0.07008
  77        3PY         0.00002   0.02044  -0.11618  -0.12399  -0.04206
  78        3PZ         0.28170   0.00033  -0.00001   0.00005  -0.00001
  79 12  H  1S          0.00002  -0.00964  -0.10784  -0.01813  -0.04517
  80        2S          0.00001  -0.00902  -0.09248  -0.00733  -0.03642
  81 13  H  1S         -0.00004   0.03679  -0.09440   0.06558   0.06275
  82        2S         -0.00002   0.02807  -0.07257   0.04558   0.05678
  83 14  C  1S          0.00001  -0.00935   0.02456   0.00642  -0.01096
  84        2S         -0.00001   0.00787  -0.02496  -0.00212   0.00994
  85        2PX         0.00014  -0.09904   0.02111   0.25209  -0.08906
  86        2PY        -0.00002  -0.01142   0.01499  -0.01824   0.03778
  87        2PZ         0.11637   0.00016  -0.00000  -0.00004   0.00001
  88        3S         -0.00002   0.02924  -0.09288  -0.01352   0.02735
  89        3PX         0.00010  -0.07434   0.01362   0.22798  -0.05705
  90        3PY        -0.00003  -0.00207   0.02083  -0.02308  -0.00957
  91        3PZ         0.08138   0.00011  -0.00000  -0.00004   0.00001
  92 15  C  1S          0.00003  -0.02531  -0.01958   0.00307   0.01117
  93        2S         -0.00004   0.03005   0.01899   0.00075  -0.00961
  94        2PX         0.00020  -0.15503   0.06285  -0.17606  -0.12707
  95        2PY         0.00008  -0.04489   0.01351   0.02796  -0.07014
  96        2PZ         0.05919   0.00008  -0.00001  -0.00000  -0.00001
  97        3S         -0.00005   0.04775   0.07276  -0.03157  -0.03387
  98        3PX         0.00014  -0.09930   0.06235  -0.14790  -0.11479
  99        3PY         0.00007  -0.03990   0.02865  -0.00071  -0.09500
 100        3PZ         0.05257   0.00007  -0.00001   0.00000  -0.00001
 101 16  H  1S          0.00011  -0.07592   0.06132  -0.08525  -0.11044
 102        2S          0.00009  -0.06696   0.04290  -0.06807  -0.08144
 103 17  C  1S          0.00000  -0.00357   0.00624  -0.01202   0.00413
 104        2S          0.00000   0.00046  -0.00661   0.02253  -0.00664
 105        2PX        -0.00004   0.02329   0.01896  -0.18458   0.14239
 106        2PY         0.00015  -0.15758  -0.00888   0.15224   0.18248
 107        2PZ         0.05468   0.00006  -0.00000   0.00004  -0.00003
 108        3S         -0.00005   0.03693  -0.01499  -0.04604  -0.00450
 109        3PX         0.00000   0.00200   0.00308  -0.08892   0.11792
 110        3PY         0.00012  -0.12437  -0.00884   0.09901   0.17658
 111        3PZ         0.05236   0.00006  -0.00000   0.00002  -0.00003
 112 18  H  1S          0.00004  -0.05457   0.00197  -0.02127   0.15653
 113        2S          0.00003  -0.04414   0.00821  -0.03081   0.13141
 114 19  H  1S         -0.00011   0.10880   0.00637  -0.11800  -0.10913
 115        2S         -0.00009   0.08814   0.01002  -0.11122  -0.08876
 116 20  H  1S          0.16875  -0.02187   0.07342   0.05382   0.03897
 117        2S          0.13853  -0.01447   0.06651   0.05112   0.03341
 118 21  H  1S         -0.16867  -0.02227   0.07347   0.05379   0.03900
 119        2S         -0.13847  -0.01480   0.06655   0.05109   0.03343
                          31        32        33        34        35
                           O         O         O         O         O
     Eigenvalues --    -0.50877  -0.50351  -0.47959  -0.46121  -0.44472
   1 1   C  1S          0.00385  -0.00000   0.00242   0.00188   0.00000
   2        2S         -0.00328   0.00000  -0.00448  -0.00294  -0.00000
   3        2PX         0.07277  -0.00007  -0.13315  -0.05759  -0.00002
   4        2PY         0.18882  -0.00009   0.07795  -0.08391  -0.00000
   5        2PZ         0.00009   0.17067  -0.00000  -0.00001  -0.06759
   6        3S         -0.02049   0.00001  -0.00356   0.00727  -0.00000
   7        3PX         0.04886  -0.00006  -0.16269  -0.04450  -0.00002
   8        3PY         0.12314  -0.00005   0.07440  -0.05059   0.00000
   9        3PZ         0.00008   0.16524  -0.00000  -0.00001  -0.07247
  10 2   C  1S         -0.00098   0.00000  -0.00653   0.00565  -0.00000
  11        2S          0.00239  -0.00000   0.01067  -0.00616   0.00000
  12        2PX        -0.10421   0.00005   0.17641   0.04593   0.00004
  13        2PY        -0.14350   0.00009  -0.08228   0.07676  -0.00001
  14        2PZ         0.00009   0.18163   0.00002  -0.00001  -0.00076
  15        3S          0.01475  -0.00001  -0.02742  -0.02331   0.00001
  16        3PX        -0.05795   0.00002   0.09822   0.04079   0.00003
  17        3PY        -0.16406   0.00009  -0.09554   0.10528  -0.00000
  18        3PZ         0.00009   0.17731   0.00002  -0.00001  -0.00092
  19 3   C  1S          0.00314  -0.00000  -0.00020   0.00240  -0.00000
  20        2S         -0.00413   0.00000   0.00017  -0.00246   0.00000
  21        2PX         0.04219  -0.00004  -0.15921  -0.07357  -0.00004
  22        2PY         0.06931  -0.00005   0.13026  -0.17438   0.00001
  23        2PZ         0.00010   0.19099  -0.00001  -0.00001   0.06946
  24        3S          0.00213   0.00001   0.02278  -0.00464   0.00001
  25        3PX         0.09413  -0.00006  -0.20697  -0.09224  -0.00005
  26        3PY         0.06341  -0.00004   0.09755  -0.19003  -0.00000
  27        3PZ         0.00010   0.18401  -0.00001  -0.00001   0.06803
  28 4   C  1S         -0.00640   0.00001  -0.00413  -0.00240  -0.00000
  29        2S          0.00659  -0.00001   0.00182   0.00256   0.00000
  30        2PX        -0.08100   0.00002   0.18655   0.06027   0.00006
  31        2PY        -0.09736   0.00007  -0.12367   0.16488  -0.00002
  32        2PZ         0.00006   0.12235   0.00004   0.00001  -0.05719
  33        3S          0.02968  -0.00004   0.02217  -0.01650   0.00001
  34        3PX        -0.07271   0.00002   0.25400   0.08420   0.00008
  35        3PY        -0.10099   0.00007  -0.11268   0.12755  -0.00002
  36        3PZ         0.00007   0.13329   0.00004   0.00001  -0.05037
  37 5   C  1S          0.00931  -0.00001  -0.00170   0.01504   0.00000
  38        2S         -0.00690   0.00000   0.00173  -0.01729  -0.00000
  39        2PX         0.04362  -0.00004  -0.16409  -0.10783  -0.00004
  40        2PY         0.12850  -0.00006   0.07024  -0.10183  -0.00000
  41        2PZ         0.00007   0.14008   0.00001  -0.00000  -0.10652
  42        3S         -0.05643   0.00003   0.03566  -0.03395  -0.00001
  43        3PX         0.00155  -0.00001  -0.13123  -0.05629  -0.00002
  44        3PY         0.14522  -0.00007   0.12263  -0.10083   0.00001
  45        3PZ         0.00006   0.13113   0.00002   0.00000  -0.11997
  46 6   C  1S          0.00059   0.00000  -0.00281  -0.00400  -0.00000
  47        2S         -0.00221  -0.00000   0.00526   0.00502   0.00000
  48        2PX        -0.05766   0.00003   0.16198   0.05784   0.00004
  49        2PY        -0.18131   0.00010  -0.09715   0.06670  -0.00001
  50        2PZ         0.00008   0.15474   0.00003  -0.00000  -0.11018
  51        3S         -0.00061   0.00000  -0.01487   0.01740   0.00001
  52        3PX        -0.09797   0.00005   0.12418   0.07898   0.00004
  53        3PY        -0.16300   0.00009  -0.05155   0.07574  -0.00001
  54        3PZ         0.00008   0.15204   0.00003  -0.00000  -0.11374
  55 7   H  1S          0.03248  -0.00001  -0.04118   0.10165  -0.00001
  56        2S          0.01399  -0.00000  -0.03764   0.09564  -0.00001
  57 8   H  1S         -0.00500   0.00001   0.12427   0.01788   0.00002
  58        2S         -0.00348   0.00001   0.10915   0.01736   0.00002
  59 9   H  1S         -0.09669   0.00005  -0.08516   0.05829  -0.00001
  60        2S         -0.07652   0.00004  -0.08342   0.05820  -0.00001
  61 10  C  1S         -0.01160   0.00001   0.00172   0.00938  -0.00000
  62        2S          0.01195  -0.00001  -0.00116  -0.01055   0.00000
  63        2PX        -0.13478   0.00007   0.09478   0.07887   0.00004
  64        2PY         0.00337  -0.00000  -0.02503   0.14362  -0.00002
  65        2PZ         0.00005   0.09504  -0.00004  -0.00001   0.21588
  66        3S          0.00591  -0.00001   0.00733  -0.03425   0.00000
  67        3PX        -0.09128   0.00005   0.06599   0.00086   0.00002
  68        3PY         0.04329  -0.00002  -0.05870   0.16936  -0.00002
  69        3PZ         0.00005   0.08680  -0.00004  -0.00001   0.23076
  70 11  C  1S          0.01199  -0.00001  -0.01206   0.01282   0.00000
  71        2S         -0.01473   0.00001   0.01699  -0.01609  -0.00000
  72        2PX        -0.03907   0.00004  -0.20481  -0.10525  -0.00006
  73        2PY        -0.11039   0.00003   0.08384  -0.16536  -0.00002
  74        2PZ        -0.00006  -0.14029   0.00001   0.00004  -0.09289
  75        3S         -0.01099   0.00001  -0.01113  -0.01066  -0.00001
  76        3PX        -0.00093   0.00001  -0.13214  -0.06268  -0.00004
  77        3PY        -0.08795   0.00001   0.07661  -0.15989  -0.00001
  78        3PZ        -0.00007  -0.14601   0.00002   0.00003  -0.09333
  79 12  H  1S         -0.10312   0.00005  -0.08027   0.06004  -0.00001
  80        2S         -0.08058   0.00004  -0.06992   0.06607  -0.00001
  81 13  H  1S          0.12443  -0.00007  -0.05030  -0.07056  -0.00002
  82        2S          0.10380  -0.00006  -0.04703  -0.06325  -0.00001
  83 14  C  1S         -0.00157  -0.00000   0.00367   0.00148   0.00000
  84        2S          0.00174   0.00000  -0.00115   0.00019  -0.00000
  85        2PX        -0.00768  -0.00003   0.10425   0.08627   0.00007
  86        2PY         0.15326  -0.00007  -0.01453   0.20990   0.00002
  87        2PZ        -0.00001  -0.04378  -0.00007  -0.00004   0.17994
  88        3S         -0.00342  -0.00000  -0.00836  -0.00380  -0.00002
  89        3PX         0.01169  -0.00004   0.11137   0.11870   0.00008
  90        3PY         0.16183  -0.00008   0.00142   0.21298   0.00002
  91        3PZ        -0.00001  -0.03208  -0.00007  -0.00005   0.19520
  92 15  C  1S         -0.01265   0.00000  -0.00539  -0.01401  -0.00000
  93        2S          0.01093  -0.00000   0.00857   0.01453   0.00000
  94        2PX         0.08062  -0.00005  -0.08873  -0.04528  -0.00003
  95        2PY        -0.15598   0.00006   0.04166  -0.18013  -0.00002
  96        2PZ         0.00001   0.04099  -0.00004  -0.00003   0.24505
  97        3S          0.04362  -0.00001  -0.00736   0.05554   0.00001
  98        3PX         0.02297  -0.00002  -0.07915  -0.12891  -0.00003
  99        3PY        -0.10533   0.00004   0.03113  -0.15715  -0.00003
 100        3PZ         0.00002   0.04124  -0.00004  -0.00003   0.25528
 101 16  H  1S         -0.01842   0.00000  -0.02998  -0.11609  -0.00002
 102        2S         -0.01816   0.00000  -0.03045  -0.10747  -0.00002
 103 17  C  1S          0.00719   0.00000  -0.01758  -0.00320  -0.00001
 104        2S         -0.00941  -0.00000   0.02230   0.00416   0.00001
 105        2PX         0.00080   0.00002  -0.10543  -0.04236  -0.00000
 106        2PY        -0.16063   0.00009  -0.00538  -0.08410   0.00001
 107        2PZ        -0.00001  -0.02737  -0.00001  -0.00001   0.13192
 108        3S         -0.01343   0.00000   0.02756  -0.01086   0.00001
 109        3PX        -0.02474   0.00002  -0.06301  -0.03946   0.00001
 110        3PY        -0.17096   0.00010  -0.02518  -0.12337  -0.00000
 111        3PZ        -0.00001  -0.03168  -0.00002  -0.00001   0.13739
 112 18  H  1S         -0.08906   0.00007  -0.04902  -0.07696  -0.00001
 113        2S         -0.07363   0.00006  -0.05560  -0.07863  -0.00001
 114 19  H  1S          0.11625  -0.00007   0.00280   0.07138  -0.00000
 115        2S          0.10746  -0.00006  -0.01125   0.06786  -0.00001
 116 20  H  1S          0.03500  -0.08690  -0.04360   0.06091  -0.06403
 117        2S          0.03982  -0.08377  -0.05577   0.07831  -0.07219
 118 21  H  1S          0.03511   0.08687  -0.04365   0.06092   0.06401
 119        2S          0.03992   0.08374  -0.05582   0.07832   0.07217
                          36        37        38        39        40
                           O         O         O         V         V
     Eigenvalues --    -0.36741  -0.33198  -0.27393   0.08865   0.14097
   1 1   C  1S         -0.00000   0.00000  -0.00000  -0.00000  -0.00000
   2        2S          0.00000  -0.00000  -0.00000   0.00000   0.00000
   3        2PX        -0.00002   0.00002   0.00001  -0.00000   0.00002
   4        2PY         0.00000  -0.00001  -0.00000   0.00001  -0.00001
   5        2PZ         0.15246  -0.19904  -0.09508   0.07394  -0.17867
   6        3S          0.00001  -0.00000   0.00001   0.00001   0.00000
   7        3PX        -0.00002   0.00002   0.00002  -0.00001   0.00004
   8        3PY         0.00000  -0.00001  -0.00000   0.00002  -0.00003
   9        3PZ         0.17884  -0.24385  -0.12271   0.16380  -0.39684
[...]
  27        3PZ         0.59552
  28 4   C  1S          1.98881
  29        2S          0.39667
  30        2PX         0.59200
  31        2PY         0.61125
  32        2PZ         0.40257
  33        3S          0.81471
  34        3PX         0.33503
  35        3PY         0.31490
  36        3PZ         0.56500
  37 5   C  1S          1.98832
  38        2S          0.39505
  39        2PX         0.61580
  40        2PY         0.57283
  41        2PZ         0.41172
  42        3S          0.88529
  43        3PX         0.24033
  44        3PY         0.50821
  45        3PZ         0.60464
  46 6   C  1S          1.98824
  47        2S          0.39676
  48        2PX         0.59528
  49        2PY         0.60201
  50        2PZ         0.39954
  51        3S          0.88563
  52        3PX         0.40621
  53        3PY         0.36059
  54        3PZ         0.59492
  55 7   H  1S          0.46324
  56        2S          0.29839
  57 8   H  1S          0.46436
  58        2S          0.29941
  59 9   H  1S          0.46418
  60        2S          0.29926
  61 10  C  1S          1.98837
  62        2S          0.39795
  63        2PX         0.62425
  64        2PY         0.56862
  65        2PZ         0.40392
  66        3S          0.87269
  67        3PX         0.23593
  68        3PY         0.50567
  69        3PZ         0.59540
  70 11  C  1S          1.99030
  71        2S          0.34586
  72        2PX         0.55016
  73        2PY         0.53962
  74        2PZ         0.53760
  75        3S          1.17272
  76        3PX         0.26161
  77        3PY         0.44479
  78        3PZ         0.60849
  79 12  H  1S          0.46410
  80        2S          0.30262
  81 13  H  1S          0.46459
  82        2S          0.29838
  83 14  C  1S          1.98856
  84        2S          0.39671
  85        2PX         0.62310
  86        2PY         0.58315
  87        2PZ         0.39862
  88        3S          0.84901
  89        3PX         0.30789
  90        3PY         0.34541
  91        3PZ         0.56538
  92 15  C  1S          1.98832
  93        2S          0.39663
  94        2PX         0.61439
  95        2PY         0.57448
  96        2PZ         0.40808
  97        3S          0.88673
  98        3PX         0.38596
  99        3PY         0.35258
 100        3PZ         0.59488
 101 16  H  1S          0.46270
 102        2S          0.30113
 103 17  C  1S          1.98711
 104        2S          0.38982
 105        2PX         0.60049
 106        2PY         0.55368
 107        2PZ         0.41980
 108        3S          0.95485
 109        3PX         0.31612
 110        3PY         0.54231
 111        3PZ         0.63480
 112 18  H  1S          0.46493
 113        2S          0.32929
 114 19  H  1S          0.46543
 115        2S          0.33135
 116 20  H  1S          0.44550
 117        2S          0.30997
 118 21  H  1S          0.44551
 119        2S          0.30998
          Condensed to atoms (all electrons):
               1          2          3          4          5          6
     1  C    5.158125   0.489013  -0.112852  -0.005052  -0.108351   0.476523
     2  C    0.489013   5.122788   0.457526  -0.063325  -0.009277  -0.110843
     3  C   -0.112852   0.457526   5.264313   0.464526  -0.074077  -0.001419
     4  C   -0.005052  -0.063325   0.464526   5.299047   0.474557  -0.107720
     5  C   -0.108351  -0.009277  -0.074077   0.474557   5.153872   0.481324
     6  C    0.476523  -0.110843  -0.001419  -0.107720   0.481324   5.151722
     7  H    0.000057   0.001737  -0.041428   0.001730  -0.000056   0.000005
     8  H    0.394641  -0.031653   0.002533  -0.000127   0.002274  -0.031236
     9  H   -0.026887   0.397014  -0.039623   0.001988  -0.000050   0.002062
    10  C    0.001715  -0.051658   0.330697  -0.059385   0.001732   0.000335
    11  C    0.000216   0.001501  -0.053475   0.240529  -0.063282   0.001726
    12  H    0.002104  -0.000041   0.001911  -0.038939   0.399236  -0.027789
    13  H   -0.031392   0.002331  -0.000140   0.002574  -0.032015   0.394380
    14  C   -0.000011   0.000362   0.005473  -0.079360   0.003066  -0.000056
    15  C   -0.000059   0.001082  -0.114567  -0.004980   0.000067  -0.000006
    16  H    0.000000  -0.000044   0.002598  -0.000045   0.000001  -0.000000
    17  C    0.000000  -0.000001  -0.000006   0.004227  -0.000037   0.000000
    18  H   -0.000000  -0.000000   0.000010  -0.000077   0.000000  -0.000000
    19  H    0.000000  -0.000000   0.000004   0.000072  -0.000001   0.000000
    20  H    0.000005  -0.000030   0.002137  -0.054657  -0.003391   0.000093
    21  H    0.000005  -0.000030   0.002139  -0.054647  -0.003391   0.000093
               7          8          9         10         11         12
     1  C    0.000057   0.394641  -0.026887   0.001715   0.000216   0.002104
     2  C    0.001737  -0.031653   0.397014  -0.051658   0.001501  -0.000041
     3  C   -0.041428   0.002533  -0.039623   0.330697  -0.053475   0.001911
     4  C    0.001730  -0.000127   0.001988  -0.059385   0.240529  -0.038939
     5  C   -0.000056   0.002274  -0.000050   0.001732  -0.063282   0.399236
     6  C    0.000005  -0.031236   0.002062   0.000335   0.001726  -0.027789
     7  H    0.426164  -0.000001   0.002035   0.396944   0.000036   0.000000
     8  H   -0.000001   0.429997  -0.001296  -0.000043   0.000001  -0.000034
     9  H    0.002035  -0.001296   0.426986   0.001230  -0.000052   0.000002
    10  C    0.396944  -0.000043   0.001230   5.136517   0.003423  -0.000059
    11  C    0.000036   0.000001  -0.000052   0.003423   5.392441   0.000019
    12  H    0.000000  -0.000034   0.000002  -0.000059   0.000019   0.430273
    13  H   -0.000000  -0.001286  -0.000032   0.000000  -0.000044  -0.001276
    14  C    0.002043  -0.000000   0.000006  -0.110637   0.264721   0.000024
    15  C   -0.025765   0.000000   0.000059   0.569918  -0.056217   0.000007
    16  H   -0.001822  -0.000000  -0.000002  -0.028930   0.001754  -0.000000
    17  C   -0.000048   0.000000  -0.000000   0.001676  -0.075893  -0.000000
    18  H   -0.000002  -0.000000   0.000000   0.000128   0.002180  -0.000000
    19  H    0.000000  -0.000000   0.000000  -0.000071  -0.000347   0.000001
    20  H    0.000001  -0.000000   0.000001  -0.000371   0.395952   0.000642
    21  H    0.000001  -0.000000   0.000001  -0.000371   0.395962   0.000642
              13         14         15         16         17         18
     1  C   -0.031392  -0.000011  -0.000059   0.000000   0.000000  -0.000000
     2  C    0.002331   0.000362   0.001082  -0.000044  -0.000001  -0.000000
     3  C   -0.000140   0.005473  -0.114567   0.002598  -0.000006   0.000010
     4  C    0.002574  -0.079360  -0.004980  -0.000045   0.004227  -0.000077
     5  C   -0.032015   0.003066   0.000067   0.000001  -0.000037   0.000000
     6  C    0.394380  -0.000056  -0.000006  -0.000000   0.000000  -0.000000
     7  H   -0.000000   0.002043  -0.025765  -0.001822  -0.000048  -0.000002
     8  H   -0.001286  -0.000000   0.000000  -0.000000   0.000000  -0.000000
     9  H   -0.000032   0.000006   0.000059  -0.000002  -0.000000   0.000000
    10  C    0.000000  -0.110637   0.569918  -0.028930   0.001676   0.000128
    11  C   -0.000044   0.264721  -0.056217   0.001754  -0.075893   0.002180
    12  H   -0.001276   0.000024   0.000007  -0.000000  -0.000000  -0.000000
    13  H    0.429871   0.000000  -0.000000   0.000000  -0.000000   0.000000
    14  C    0.000000   5.341771   0.344629  -0.039971   0.538318  -0.055196
    15  C   -0.000000   0.344629   5.154732   0.397887  -0.073746   0.000849
    16  H    0.000000  -0.039971   0.397887   0.429833   0.000850   0.001776
    17  C   -0.000000   0.538318  -0.073746   0.000850   5.210839   0.400130
    18  H    0.000000  -0.055196   0.000849   0.001776   0.400130   0.465079
    19  H   -0.000000  -0.057041   0.002128   0.000014   0.402138  -0.020656
    20  H    0.000000  -0.050162   0.003015  -0.000037  -0.004728  -0.000005
    21  H    0.000000  -0.050156   0.003015  -0.000037  -0.004727  -0.000005
              19         20         21
     1  C    0.000000   0.000005   0.000005
     2  C   -0.000000  -0.000030  -0.000030
     3  C    0.000004   0.002137   0.002139
     4  C    0.000072  -0.054657  -0.054647
     5  C   -0.000001  -0.003391  -0.003391
     6  C    0.000000   0.000093   0.000093
     7  H    0.000000   0.000001   0.000001
     8  H   -0.000000  -0.000000  -0.000000
     9  H    0.000000   0.000001   0.000001
    10  C   -0.000071  -0.000371  -0.000371
    11  C   -0.000347   0.395952   0.395962
    12  H    0.000001   0.000642   0.000642
    13  H   -0.000000   0.000000   0.000000
    14  C   -0.057041  -0.050162  -0.050156
    15  C    0.002128   0.003015   0.003015
    16  H    0.000014  -0.000037  -0.000037
    17  C    0.402138  -0.004728  -0.004727
    18  H   -0.020656  -0.000005  -0.000005
    19  H    0.469138   0.000700   0.000700
    20  H    0.000700   0.486465  -0.020151
    21  H    0.000700  -0.020151   0.486448
 Mulliken charges:
               1
     1  C   -0.237802
     2  C   -0.206452
     3  C   -0.096280
     4  C   -0.020935
     5  C   -0.222202
     6  C   -0.229194
     7  H    0.238366
     8  H    0.236228
     9  H    0.236559
    10  C   -0.192790
    11  C   -0.451152
    12  H    0.233277
    13  H    0.237028
    14  C   -0.057822
    15  C   -0.202049
    16  H    0.236173
    17  C   -0.398993
    18  H    0.205788
    19  H    0.203222
    20  H    0.244521
    21  H    0.244509
 Sum of Mulliken charges =  -0.00000
 Mulliken charges with hydrogens summed into heavy atoms:
               1
     1  C   -0.001573
     2  C    0.030107
     3  C   -0.096280
     4  C   -0.020935
     5  C    0.011075
     6  C    0.007834
    10  C    0.045576
    11  C    0.037878
    14  C   -0.057822
    15  C    0.034124
    17  C    0.010017
 Electronic spatial extent (au):  <R**2>=           1738.4924
 Charge=             -0.0000 electrons
 Dipole moment (field-independent basis, Debye):
    X=             -0.1900    Y=             -0.2563    Z=              0.0002  Tot=              0.3190
 Quadrupole moment (field-independent basis, Debye-Ang):
   XX=            -59.7730   YY=            -57.3350   ZZ=            -73.2364
   XY=             -0.2556   XZ=              0.0003   YZ=             -0.0002
 Traceless Quadrupole moment (field-independent basis, Debye-Ang):
   XX=              3.6751   YY=              6.1132   ZZ=             -9.7883
   XY=             -0.2556   XZ=              0.0003   YZ=             -0.0002
 Octapole moment (field-independent basis, Debye-Ang**2):
  XXX=             -9.5823  YYY=              1.9968  ZZZ=              0.0020  XYY=             -1.8108
  XXY=              1.7854  XXZ=             -0.0060  XZZ=              1.5057  YZZ=             -2.8408
  YYZ=              0.0003  XYZ=              0.0008
 Hexadecapole moment (field-independent basis, Debye-Ang**3):
 XXXX=          -1597.5461 YYYY=           -533.9073 ZZZZ=            -84.8509 XXXY=             14.4782
 XXXZ=             -0.0070 YYYX=             -1.8601 YYYZ=              0.0037 ZZZX=              0.0025
 ZZZY=             -0.0029 XXYY=           -351.5617 XXZZ=           -351.8782 YYZZ=           -122.9136
 XXYZ=             -0.0009 YYXZ=              0.0001 ZZXY=             -3.4370
 N-N= 5.425478928912D+02 E-N=-2.061191768005D+03  KE= 4.187619327800D+02
 Orbital energies and kinetic energies (alpha):
                                 1                 2
   1         O               -11.192942         15.879482
   2         O               -11.192029         15.877412
   3         O               -11.189775         15.877950
   4         O               -11.186031         15.877356
   5         O               -11.184916         15.877903
   6         O               -11.184209         15.885048
   7         O               -11.183943         15.878378
   8         O               -11.183363         15.877075
   9         O               -11.181620         15.875784
  10         O               -11.181167         15.877376
  11         O               -11.165152         15.871838
  12         O                -1.176642          1.441006
  13         O                -1.117156          1.479736
  14         O                -1.056159          1.532926
  15         O                -1.030659          1.575328
  16         O                -0.989957          1.597923
  17         O                -0.924760          1.524425
  18         O                -0.845261          1.471315
  19         O                -0.820336          1.331866
  20         O                -0.794121          1.461245
  21         O                -0.704582          1.163805
  22         O                -0.690291          1.196824
  23         O                -0.670289          1.257529
  24         O                -0.620809          1.235102
  25         O                -0.614116          1.201011
  26         O                -0.601951          0.855570
  27         O                -0.596073          1.353541
  28         O                -0.570630          1.234809
  29         O                -0.561158          1.320726
  30         O                -0.540744          1.228412
  31         O                -0.508774          1.333392
  32         O                -0.503513          0.904239
  33         O                -0.479586          1.479714
  34         O                -0.461207          1.389154
  35         O                -0.444717          0.951355
  36         O                -0.367407          1.019390
  37         O                -0.331980          1.059328
  38         O                -0.273925          1.125693
  39         V                 0.088648          1.163044
  40         V                 0.140975          1.185084
  41         V                 0.178009          1.250618
  42         V                 0.258173          0.937081
  43         V                 0.277035          0.963643
  44         V                 0.277358          1.287604
  45         V                 0.283237          0.990921
  46         V                 0.312968          1.063094
  47         V                 0.325687          1.008603
  48         V                 0.339362          1.234983
  49         V                 0.346405          1.181858
  50         V                 0.353680          1.152975
  51         V                 0.358140          1.245473
  52         V                 0.375444          1.173625
  53         V                 0.420529          1.821301
  54         V                 0.436747          1.500250
  55         V                 0.466070          1.819065
  56         V                 0.496717          1.623703
  57         V                 0.514421          1.653869
  58         V                 0.519269          1.553535
  59         V                 0.547999          1.753366
  60         V                 0.564365          1.829698
  61         V                 0.583467          1.671483
  62         V                 0.727965          2.881111
  63         V                 0.734234          2.154696
  64         V                 0.795986          1.983099
  65         V                 0.832480          2.845387
  66         V                 0.855973          2.153758
  67         V                 0.905531          2.137916
  68         V                 0.939802          2.507032
  69         V                 0.970790          2.867599
  70         V                 0.971593          2.553899
  71         V                 0.982083          2.630016
  72         V                 1.007266          2.847166
  73         V                 1.016666          2.658302
  74         V                 1.040134          2.608444
  75         V                 1.043689          2.845208
  76         V                 1.055895          2.911234
  77         V                 1.071643          2.656570
  78         V                 1.087276          2.744909
  79         V                 1.088394          2.764774
  80         V                 1.099881          2.483948
  81         V                 1.113875          2.621170
  82         V                 1.115351          2.778022
  83         V                 1.121564          2.964118
  84         V                 1.152720          2.723455
  85         V                 1.153885          2.848981
  86         V                 1.157690          2.808360
  87         V                 1.214951          2.770358
  88         V                 1.267270          3.439033
  89         V                 1.287169          3.085730
  90         V                 1.289708          3.284108
  91         V                 1.298468          3.218124
  92         V                 1.299257          3.201145
  93         V                 1.340648          3.211358
  94         V                 1.374117          3.109663
  95         V                 1.400060          3.043737
  96         V                 1.411642          2.510338
  97         V                 1.446891          3.244374
  98         V                 1.473504          3.245899
  99         V                 1.524744          3.134059
 100         V                 1.532497          3.227238
 101         V                 1.592170          2.846097
 102         V                 1.614191          2.886415
 103         V                 1.647622          2.914359
 104         V                 1.686863          2.780559
 105         V                 1.711130          2.684937
 106         V                 1.753023          3.189965
 107         V                 1.765843          3.072740
 108         V                 1.792781          3.284339
 109         V                 1.808036          3.255925
 110         V                 1.825058          3.116276
 111         V                 1.839806          3.199331
 112         V                 1.875788          3.190674
 113         V                 2.025814          3.416441
 114         V                 2.060651          3.425613
 115         V                 2.199160          3.412918
 116         V                 2.216973          3.422506
 117         V                 2.392526          3.492436
 118         V                 2.751839          3.701282
 119         V                 2.842946          3.789275
 Total kinetic energy from orbitals= 4.187619327800D+02
 1\1\GINC-IISERK51\SP\RHF\3-21G*\C11H10\GAUSSIAN\12-Jun-2025\0\\# hf/3-
 21g* pop=full geom=connectivity\\sp\\0,1\C,0,2.917413,0.398156,0.00012
 7\C,0,1.836866,1.273943,0.000062\C,0,0.524107,0.7795,-0.00005\C,0,0.30
 2574,-0.609376,-0.000083\C,0,1.399212,-1.480752,-0.000029\C,0,2.69817,
 -0.981097,0.000068\H,0,-0.392157,2.76127,-0.000197\H,0,3.944472,0.7911
 74,0.000242\H,0,2.006604,2.360987,0.000101\C,0,-0.610333,1.681851,-0.0
 00109\C,0,-1.070878,-1.181256,-0.000206\H,0,1.227399,-2.567482,-0.0000
 63\H,0,3.552937,-1.673158,0.000084\C,0,-2.192837,-0.195188,0.000016\C,
 0,-1.874271,1.222648,-0.000056\H,0,-2.729116,1.918501,-0.000059\C,0,-3
 .465677,-0.621998,0.000249\H,0,-4.316793,0.069901,0.000414\H,0,-3.7240
 83,-1.688038,0.000299\H,0,-1.177663,-1.845642,-0.904593\H,0,-1.177669,
 -1.846094,0.903843\\Version=EM64L-G16RevB.01\State=1-A\HF=-419.9889723
 \RMSD=2.619e-09\Dipole=0.0747442,-0.1008434,-0.0000624\Quadrupole=2.73
 23599,4.5449793,-7.2773391,0.1900252,0.0002193,0.0001217\PG=C01 [X(C11
 H10)]\\@


 It is also a good rule not to put too much confidence in
 experimental results until they have been confirmed by
 Theory.
                             -- Sir Arthur Eddington
 Job cpu time:       0 days  0 hours  0 minutes  2.3 seconds.
 Elapsed time:       0 days  0 hours  0 minutes  2.2 seconds.
 File lengths (MBytes):  RWF=     10 Int=      0 D2E=      0 Chk=      2 Scr=      1
 Normal termination of Gaussian 16 at Thu Jun 12 22:17:36 2025.
