 Entering Gaussian System, Link 0=g16
 Input=/home/gaussian/Documents/program files/Aromaticity/AM1 HF3-21G*/meth_napthlene/sp/Meth_napthalene_sp.com
 Output=/home/gaussian/Documents/program files/Aromaticity/AM1 HF3-21G*/meth_napthlene/sp/Meth_napthalene_sp.log
 Initial command:
 /usr/local/g16/l1.exe "/home/gaussian/tmp/Gau-142614.inp" -scrdir="/home/gaussian/tmp/"
 Entering Link 1 = /usr/local/g16/l1.exe PID=    142617.
  
 Copyright (c) 1988-2017, Gaussian, Inc.  All Rights Reserved.
  
 This is part of the Gaussian(R) 16 program.  It is based on
 the Gaussian(R) 09 system (copyright 2009, Gaussian, Inc.),
 the Gaussian(R) 03 system (copyright 2003, Gaussian, Inc.),
 the Gaussian(R) 98 system (copyright 1998, Gaussian, Inc.),
 the Gaussian(R) 94 system (copyright 1995, Gaussian, Inc.),
 the Gaussian 92(TM) system (copyright 1992, Gaussian, Inc.),
 the Gaussian 90(TM) system (copyright 1990, Gaussian, Inc.),
 the Gaussian 88(TM) system (copyright 1988, Gaussian, Inc.),
 the Gaussian 86(TM) system (copyright 1986, Carnegie Mellon
 University), and the Gaussian 82(TM) system (copyright 1983,
 Carnegie Mellon University). Gaussian is a federally registered
 trademark of Gaussian, Inc.
  
 This software contains proprietary and confidential information,
 including trade secrets, belonging to Gaussian, Inc.
  
 This software is provided under written license and may be
 used, copied, transmitted, or stored only in accord with that
 written license.
  
 The following legend is applicable only to US Government
 contracts under FAR:
  
                    RESTRICTED RIGHTS LEGEND
  
 Use, reproduction and disclosure by the US Government is
 subject to restrictions as set forth in subparagraphs (a)
 and (c) of the Commercial Computer Software - Restricted
 Rights clause in FAR 52.227-19.
  
 Gaussian, Inc.
 340 Quinnipiac St., Bldg. 40, Wallingford CT 06492
  
  
 ---------------------------------------------------------------
 Warning -- This program may not be used in any manner that
 competes with the business of Gaussian, Inc. or will provide
 assistance to any competitor of Gaussian, Inc.  The licensee
 of this program is prohibited from giving any competitor of
 Gaussian, Inc. access to this program.  By using this program,
 the user acknowledges that Gaussian, Inc. is engaged in the
 business of creating and licensing software in the field of
 computational chemistry and represents and warrants to the
 licensee that it is not a competitor of Gaussian, Inc. and that
 it will not use this program in any manner prohibited above.
 ---------------------------------------------------------------
  

 Cite this work as:
 Gaussian 16, Revision B.01,
 M. J. Frisch, G. W. Trucks, H. B. Schlegel, G. E. Scuseria, 
 M. A. Robb, J. R. Cheeseman, G. Scalmani, V. Barone, 
 G. A. Petersson, H. Nakatsuji, X. Li, M. Caricato, A. V. Marenich, 
 J. Bloino, B. G. Janesko, R. Gomperts, B. Mennucci, H. P. Hratchian, 
 J. V. Ortiz, A. F. Izmaylov, J. L. Sonnenberg, D. Williams-Young, 
 F. Ding, F. Lipparini, F. Egidi, J. Goings, B. Peng, A. Petrone, 
 T. Henderson, D. Ranasinghe, V. G. Zakrzewski, J. Gao, N. Rega, 
 G. Zheng, W. Liang, M. Hada, M. Ehara, K. Toyota, R. Fukuda, 
 J. Hasegawa, M. Ishida, T. Nakajima, Y. Honda, O. Kitao, H. Nakai, 
 T. Vreven, K. Throssell, J. A. Montgomery, Jr., J. E. Peralta, 
 F. Ogliaro, M. J. Bearpark, J. J. Heyd, E. N. Brothers, K. N. Kudin, 
 V. N. Staroverov, T. A. Keith, R. Kobayashi, J. Normand, 
 K. Raghavachari, A. P. Rendell, J. C. Burant, S. S. Iyengar, 
 J. Tomasi, M. Cossi, J. M. Millam, M. Klene, C. Adamo, R. Cammi, 
 J. W. Ochterski, R. L. Martin, K. Morokuma, O. Farkas, 
 J. B. Foresman, and D. J. Fox, Gaussian, Inc., Wallingford CT, 2016.
 
 ******************************************
 Gaussian 16:  EM64L-G16RevB.01 20-Dec-2017
                12-Jun-2025 
 ******************************************
 %chk=methToluene.chk
 --------------------------------------
 # hf/3-21g* pop=full geom=connectivity
 --------------------------------------
 1/38=1,57=2,172=1/1;
 2/12=2,17=6,18=5,40=1/2;
 3/5=5,7=1,11=9,25=1,30=1/1,2,3;
 4//1;
 5/5=2,38=5/2;
 6/7=3,28=1/1;
 99/5=1,9=1/99;
 --------------------
 Methyl Napthalene sp
 --------------------
 Symbolic Z-matrix:
 Charge =  0 Multiplicity = 1
 C                    -2.69768  -1.03899  0. 
 C                    -1.40884  -1.51314  0. 
 C                    -0.30851  -0.61246  0. 
 C                    -0.55962   0.78325   0. 
 C                    -1.90318   1.24657   0. 
 C                    -2.94764   0.3547    0. 
 H                     1.21393  -2.16338  -0.00001 
 H                    -3.55045  -1.73382  0. 
 H                    -1.20508  -2.59434  -0.00001 
 C                     1.03458  -1.07747  -0.00001 
 C                     0.5432    1.68156   0. 
 H                    -2.08697   2.33135   0.00001 
 H                    -3.98855   0.71016   0. 
 C                     1.82967   1.2077   0. 
 C                     2.08818  -0.19107  0. 
 H                     0.3409    2.76322   0. 
 H                     2.6843    1.90072  0. 
 C                     3.49382  -0.65639   0. 
 H                     4.02704  -0.27352  -0.90588 
 H                     4.02689  -0.27391   0.90615 
 H                     3.55411  -1.77203  -0.00023 
 
                          Input orientation:                          
 ---------------------------------------------------------------------
 Center     Atomic      Atomic             Coordinates (Angstroms)
 Number     Number       Type             X           Y           Z
 ---------------------------------------------------------------------
      1          6           0       -2.697681   -1.038989   -0.000001
      2          6           0       -1.408837   -1.513142   -0.000004
      3          6           0       -0.308512   -0.612461   -0.000003
      4          6           0       -0.559618    0.783246    0.000001
      5          6           0       -1.903182    1.246567    0.000004
      6          6           0       -2.947643    0.354701    0.000002
      7          1           0        1.213930   -2.163379   -0.000010
      8          1           0       -3.550449   -1.733815   -0.000002
      9          1           0       -1.205076   -2.594335   -0.000006
     10          6           0        1.034578   -1.077472   -0.000006
     11          6           0        0.543203    1.681564    0.000002
     12          1           0       -2.086971    2.331346    0.000007
     13          1           0       -3.988553    0.710157    0.000004
     14          6           0        1.829668    1.207701   -0.000001
     15          6           0        2.088183   -0.191066   -0.000004
     16          1           0        0.340899    2.763219    0.000004
     17          1           0        2.684304    1.900719   -0.000001
     18          6           0        3.493823   -0.656393    0.000004
     19          1           0        4.027039   -0.273516   -0.905884
     20          1           0        4.026889   -0.273905    0.906147
     21          1           0        3.554107   -1.772027   -0.000229
 ---------------------------------------------------------------------
                    Distance matrix (angstroms):
                    1          2          3          4          5
     1  C    0.000000
     2  C    1.373295   0.000000
     3  C    2.426943   1.421950   0.000000
     4  C    2.809244   2.448381   1.418116   0.000000
     5  C    2.419710   2.803635   2.449277   1.421207   0.000000
     6  C    1.415928   2.420075   2.810768   2.426173   1.373435
     7  H    4.070007   2.702169   2.173287   3.439196   4.619970
     8  H    1.099998   2.152951   3.430392   3.909049   3.405314
     9  H    2.155683   1.100226   2.175236   3.438702   3.903829
    10  C    3.732457   2.481952   1.421311   2.450251   3.745877
    11  C    4.231399   3.743876   2.447033   1.422389   2.484758
    12  H    3.425219   3.903838   3.439319   2.174723   1.100238
    13  H    2.173905   3.405583   3.910501   3.429714   2.153255
    14  C    5.054157   4.229764   2.807989   2.426695   3.733052
    15  C    4.860398   3.738587   2.433459   2.821371   4.242379
    16  H    4.867212   4.620480   3.437579   2.175138   2.708530
    17  H    6.132507   5.329939   3.908071   3.431002   4.633891
    18  C    6.203314   4.976956   3.802589   4.301505   5.722667
    19  H    6.828501   5.648543   4.442129   4.793203   6.188603
    20  H    6.828345   5.648357   4.442007   4.793195   6.188592
    21  H    6.294617   4.969692   4.032917   4.842742   6.236498
                    6          7          8          9         10
     6  C    0.000000
     7  H    4.864095   0.000000
     8  H    2.173770   4.783705   0.000000
     9  H    3.425398   2.457094   2.498253   0.000000
    10  C    4.231927   1.100619   4.631766   2.704981   0.000000
    11  C    3.734511   3.903007   5.331304   4.619501   2.802451
    12  H    2.155895   5.576603   4.320567   5.004006   4.622132
    13  H    1.099928   5.943319   2.482929   4.320580   5.331741
    14  C    4.852866   3.426852   6.131735   4.864684   2.419542
    15  C    5.065314   2.157391   5.845874   4.076918   1.376880
    16  H    4.076207   5.003354   5.946924   5.576148   3.902832
    17  H    5.840291   4.321908   7.216785   5.944139   3.404588
    18  C    6.520337   2.732932   7.126192   5.082841   2.495034
    19  H    7.061266   3.507958   7.769905   5.794984   3.228279
    20  H    7.061186   3.507702   7.769716   5.794736   3.228120
    21  H    6.840740   2.372675   7.104659   4.829701   2.613510
                   11         12         13         14         15
    11  C    0.000000
    12  H    2.709249   0.000000
    13  H    4.634700   2.498853   0.000000
    14  C    1.370963   4.074634   5.839456   0.000000
    15  C    2.427696   4.877958   6.143201   1.422455   0.000000
    16  H    1.100411   2.465982   4.791578   2.153153   3.432317
    17  H    2.152288   4.790669   6.778234   1.100308   2.175069
    18  C    3.764598   6.330233   7.606143   2.498851   1.480660
    19  H    4.096350   6.707240   8.126374   2.800548   2.141630
    20  H    4.096465   6.707288   8.126302   2.800721   2.141624
    21  H    4.581794   6.975631   7.940589   3.442741   2.156008
                   16         17         18         19         20
    16  H    0.000000
    17  H    2.497089   0.000000
    18  C    4.651309   2.682190   0.000000
    19  H    4.861072   2.711247   1.118726   0.000000
    20  H    4.861249   2.711573   1.118728   1.812031   0.000000
    21  H    5.558162   3.774337   1.117262   1.813673   1.813673
                   21
    21  H    0.000000
 Stoichiometry    C11H10
 Framework group  C1[X(C11H10)]
 Deg. of freedom    57
 Full point group                 C1      NOp   1
 Largest Abelian subgroup         C1      NOp   1
 Largest concise Abelian subgroup C1      NOp   1
                         Standard orientation:                         
 ---------------------------------------------------------------------
 Center     Atomic      Atomic             Coordinates (Angstroms)
 Number     Number       Type             X           Y           Z
 ---------------------------------------------------------------------
      1          6           0       -2.697681   -1.038989   -0.000001
      2          6           0       -1.408837   -1.513142   -0.000004
      3          6           0       -0.308512   -0.612461   -0.000003
      4          6           0       -0.559618    0.783246    0.000001
      5          6           0       -1.903182    1.246567    0.000004
      6          6           0       -2.947643    0.354701    0.000002
      7          1           0        1.213930   -2.163379   -0.000010
      8          1           0       -3.550449   -1.733815   -0.000002
      9          1           0       -1.205076   -2.594335   -0.000006
     10          6           0        1.034578   -1.077472   -0.000006
     11          6           0        0.543203    1.681564    0.000002
     12          1           0       -2.086971    2.331346    0.000007
     13          1           0       -3.988553    0.710157    0.000004
     14          6           0        1.829668    1.207701   -0.000001
     15          6           0        2.088183   -0.191066   -0.000004
     16          1           0        0.340899    2.763219    0.000004
     17          1           0        2.684304    1.900719   -0.000001
     18          6           0        3.493823   -0.656393    0.000004
     19          1           0        4.027039   -0.273516   -0.905884
     20          1           0        4.026889   -0.273905    0.906147
     21          1           0        3.554107   -1.772027   -0.000229
 ---------------------------------------------------------------------
 Rotational constants (GHZ):           2.8044212           0.8291399           0.6426318
 Standard basis: 3-21G* (6D, 7F)
 There are   119 symmetry adapted cartesian basis functions of A   symmetry.
 There are   119 symmetry adapted basis functions of A   symmetry.
   119 basis functions,   195 primitive gaussians,   119 cartesian basis functions
    38 alpha electrons       38 beta electrons
       nuclear repulsion energy       541.5227556781 Hartrees.
 NAtoms=   21 NActive=   21 NUniq=   21 SFac= 1.00D+00 NAtFMM=   60 NAOKFM=F Big=F
 Integral buffers will be    131072 words long.
 Raffenetti 1 integral format.
 Two-electron integral symmetry is turned on.
 One-electron integrals computed using PRISM.
 NBasis=   119 RedAO= T EigKep=  1.04D-03  NBF=   119
 NBsUse=   119 1.00D-06 EigRej= -1.00D+00 NBFU=   119
 ExpMin= 1.83D-01 ExpMax= 1.72D+02 ExpMxC= 1.72D+02 IAcc=3 IRadAn=         5 AccDes= 0.00D+00
 Harris functional with IExCor=  205 and IRadAn=       5 diagonalized for initial guess.
 HarFok:  IExCor=  205 AccDes= 0.00D+00 IRadAn=         5 IDoV= 1 UseB2=F ITyADJ=14
 ICtDFT=  3500011 ScaDFX=  1.000000  1.000000  1.000000  1.000000
 FoFCou: FMM=F IPFlag=           0 FMFlag=      100000 FMFlg1=           0
         NFxFlg=           0 DoJE=T BraDBF=F KetDBF=T FulRan=T
         wScrn=  0.000000 ICntrl=       500 IOpCl=  0 I1Cent=   200000004 NGrid=           0
         NMat0=    1 NMatS0=      1 NMatT0=    0 NMatD0=    1 NMtDS0=    0 NMtDT0=    0
 Petite list used in FoFCou.
 Keep R1 ints in memory in canonical form, NReq=26358867.
 Requested convergence on RMS density matrix=1.00D-08 within 128 cycles.
 Requested convergence on MAX density matrix=1.00D-06.
 Requested convergence on             energy=1.00D-06.
 No special actions if energy rises.
 SCF Done:  E(RHF) =  -420.029314327     A.U. after   14 cycles
            NFock= 14  Conv=0.57D-08     -V/T= 2.0031

 **********************************************************************

            Population analysis using the SCF Density.

 **********************************************************************

 Orbital symmetries:
       Occupied  (A) (A) (A) (A) (A) (A) (A) (A) (A) (A) (A) (A)
                 (A) (A) (A) (A) (A) (A) (A) (A) (A) (A) (A) (A)
                 (A) (A) (A) (A) (A) (A) (A) (A) (A) (A) (A) (A)
                 (A) (A)
       Virtual   (A) (A) (A) (A) (A) (A) (A) (A) (A) (A) (A) (A)
                 (A) (A) (A) (A) (A) (A) (A) (A) (A) (A) (A) (A)
                 (A) (A) (A) (A) (A) (A) (A) (A) (A) (A) (A) (A)
                 (A) (A) (A) (A) (A) (A) (A) (A) (A) (A) (A) (A)
                 (A) (A) (A) (A) (A) (A) (A) (A) (A) (A) (A) (A)
                 (A) (A) (A) (A) (A) (A) (A) (A) (A) (A) (A) (A)
                 (A) (A) (A) (A) (A) (A) (A) (A) (A)
 The electronic state is 1-A.
 Alpha  occ. eigenvalues --  -11.19097 -11.18986 -11.18947 -11.18586 -11.18447
 Alpha  occ. eigenvalues --  -11.18327 -11.18289 -11.18165 -11.18118 -11.17893
 Alpha  occ. eigenvalues --  -11.17380  -1.17829  -1.11857  -1.05162  -1.02817
 Alpha  occ. eigenvalues --   -0.98610  -0.93152  -0.84659  -0.81543  -0.81085
 Alpha  occ. eigenvalues --   -0.70012  -0.69375  -0.66814  -0.61877  -0.61307
 Alpha  occ. eigenvalues --   -0.59063  -0.57940  -0.57758  -0.55335  -0.53327
 Alpha  occ. eigenvalues --   -0.52837  -0.50952  -0.48007  -0.47072  -0.43969
 Alpha  occ. eigenvalues --   -0.38502  -0.31595  -0.28651
 Alpha virt. eigenvalues --    0.09941   0.13109   0.19566   0.25805   0.27404
 Alpha virt. eigenvalues --    0.27512   0.28309   0.30438   0.32355   0.34839
 Alpha virt. eigenvalues --    0.35492   0.36226   0.36267   0.38507   0.43302
 Alpha virt. eigenvalues --    0.43325   0.46129   0.49606   0.51710   0.52825
 Alpha virt. eigenvalues --    0.55030   0.55904   0.61200   0.74452   0.76312
 Alpha virt. eigenvalues --    0.80642   0.86325   0.86973   0.90729   0.93945
 Alpha virt. eigenvalues --    0.96517   0.96861   0.98560   0.99871   1.00220
 Alpha virt. eigenvalues --    1.02851   1.03763   1.05064   1.06283   1.08050
 Alpha virt. eigenvalues --    1.09150   1.09197   1.12164   1.12684   1.13241
 Alpha virt. eigenvalues --    1.16857   1.17305   1.21011   1.21255   1.26668
 Alpha virt. eigenvalues --    1.26895   1.27941   1.30301   1.32487   1.33021
 Alpha virt. eigenvalues --    1.34036   1.35650   1.37969   1.44746   1.46921
 Alpha virt. eigenvalues --    1.51341   1.53859   1.59607   1.63098   1.64150
 Alpha virt. eigenvalues --    1.71027   1.72428   1.77706   1.78775   1.79715
 Alpha virt. eigenvalues --    1.80134   1.85035   1.86003   1.88336   2.06117
 Alpha virt. eigenvalues --    2.19237   2.20923   2.23298   2.25394   2.71667
 Alpha virt. eigenvalues --    2.79017
     Molecular Orbital Coefficients:
                           1         2         3         4         5
                           O         O         O         O         O
     Eigenvalues --   -11.19097 -11.18986 -11.18947 -11.18586 -11.18447
   1 1   C  1S         -0.00482  -0.00176  -0.00817  -0.00677  -0.02299
   2        2S         -0.00023  -0.00041  -0.00137  -0.00082  -0.00146
   3        2PX        -0.00064   0.00006  -0.00019  -0.00017   0.00015
   4        2PY         0.00019   0.00002  -0.00001  -0.00004  -0.00098
   5        2PZ         0.00000   0.00000   0.00000   0.00000  -0.00000
   6        3S         -0.00921   0.00397   0.00948   0.00106  -0.01717
   7        3PX        -0.00503   0.00233   0.00428   0.00025  -0.00949
   8        3PY        -0.00446  -0.00056   0.00128   0.00090  -0.00683
   9        3PZ        -0.00000  -0.00000  -0.00000   0.00000   0.00000
  10 2   C  1S         -0.02720  -0.00355  -0.01275  -0.01908  -0.05025
  11        2S         -0.00610  -0.00054  -0.00182  -0.00243  -0.00604
  12        2PX        -0.00074  -0.00050  -0.00048  -0.00017  -0.00008
  13        2PY        -0.00098   0.00002  -0.00052  -0.00040  -0.00035
  14        2PZ        -0.00000  -0.00000  -0.00000  -0.00000  -0.00000
  15        3S          0.02746  -0.00431   0.00141  -0.00134   0.01848
  16        3PX         0.00541   0.00332   0.00834  -0.00069  -0.00138
  17        3PY         0.01477  -0.00216  -0.00329   0.00042   0.00994
  18        3PZ         0.00000  -0.00000  -0.00000   0.00000   0.00000
  19 3   C  1S          0.97653   0.01419   0.14145   0.01184   0.00821
  20        2S          0.10064   0.00216   0.01088   0.00131   0.00118
  21        2PX        -0.00009  -0.00041   0.00028  -0.00004   0.00017
  22        2PY         0.00062   0.00019  -0.00175  -0.00082  -0.00079
  23        2PZ        -0.00000  -0.00000  -0.00000  -0.00000  -0.00000
  24        3S         -0.10834  -0.01430   0.01644  -0.01172  -0.01443
  25        3PX         0.00302  -0.00839  -0.00524  -0.01006   0.01163
  26        3PY        -0.01532  -0.00573   0.02549  -0.00382  -0.00161
  27        3PZ        -0.00000   0.00000   0.00000  -0.00000  -0.00000
  28 4   C  1S         -0.14101  -0.11398   0.96770   0.05850   0.04663
  29        2S         -0.01810  -0.01215   0.09886   0.00244   0.00074
  30        2PX        -0.00033  -0.00044   0.00001  -0.00199   0.00185
  31        2PY         0.00189   0.00013  -0.00003  -0.00068  -0.00009
  32        2PZ         0.00000   0.00000  -0.00000  -0.00000  -0.00000
  33        3S          0.04651   0.01826  -0.10007   0.02684   0.03323
  34        3PX         0.00481   0.00985  -0.00109   0.03314  -0.02914
  35        3PY        -0.02908  -0.00145   0.00732   0.00570  -0.00609
  36        3PZ        -0.00000  -0.00000   0.00000  -0.00000   0.00000
  37 5   C  1S         -0.00281   0.00144  -0.04574  -0.06629   0.98050
  38        2S          0.00014   0.00022  -0.00801  -0.00762   0.09945
  39        2PX        -0.00028   0.00021  -0.00116  -0.00017   0.00002
  40        2PY         0.00014  -0.00005   0.00077  -0.00004  -0.00155
  41        2PZ         0.00000  -0.00000   0.00000   0.00000  -0.00000
  42        3S         -0.00598   0.00281   0.02862   0.01765  -0.09943
  43        3PX         0.00322   0.00014   0.01162   0.00504  -0.00461
  44        3PY         0.00871  -0.00144  -0.01048  -0.00635   0.02867
  45        3PZ         0.00000   0.00000  -0.00000  -0.00000   0.00000
  46 6   C  1S         -0.00426   0.00129  -0.00581  -0.00632  -0.06602
  47        2S         -0.00100   0.00024  -0.00037  -0.00068  -0.01134
  48        2PX        -0.00003   0.00008  -0.00052  -0.00025  -0.00172
  49        2PY         0.00008   0.00001  -0.00038  -0.00018  -0.00060
  50        2PZ         0.00000   0.00000  -0.00000  -0.00000  -0.00000
  51        3S          0.01090  -0.00122  -0.00731  -0.00347   0.04624
  52        3PX         0.00566  -0.00145  -0.00553  -0.00129   0.02679
  53        3PY        -0.00050  -0.00019   0.00237   0.00050   0.00242
  54        3PZ        -0.00000  -0.00000   0.00000   0.00000  -0.00000
  55 7   H  1S         -0.00020  -0.00033  -0.00073   0.00027   0.00012
  56        2S          0.00200   0.00288  -0.00124   0.00173   0.00057
  57 8   H  1S         -0.00038  -0.00004  -0.00003   0.00003  -0.00048
  58        2S         -0.00101   0.00018   0.00089   0.00023  -0.00203
  59 9   H  1S         -0.00018  -0.00039  -0.00070   0.00013   0.00038
  60        2S          0.00231  -0.00030  -0.00136   0.00034   0.00186
  61 10  C  1S         -0.01817  -0.01509  -0.00934  -0.00891  -0.01046
  62        2S         -0.00517  -0.00597  -0.00196  -0.00174  -0.00164
  63        2PX         0.00111  -0.00127   0.00044   0.00010   0.00032
  64        2PY        -0.00062  -0.00134  -0.00048  -0.00026  -0.00032
  65        2PZ        -0.00000   0.00000  -0.00000  -0.00000  -0.00000
  66        3S          0.02662   0.04047   0.00578   0.01298  -0.00117
  67        3PX        -0.00996   0.00943  -0.00507  -0.00303   0.00097
  68        3PY         0.01127   0.01965  -0.00397   0.00753   0.00121
  69        3PZ         0.00000  -0.00000  -0.00000   0.00000   0.00000
  70 11  C  1S         -0.00387  -0.00432  -0.06492   0.98227   0.06079
  71        2S         -0.00002   0.00027  -0.00990   0.09965   0.00538
  72        2PX         0.00024  -0.00069   0.00076   0.00045   0.00023
  73        2PY         0.00024   0.00022   0.00117  -0.00144  -0.00021
  74        2PZ         0.00000   0.00000   0.00000  -0.00000  -0.00000
  75        3S         -0.00519  -0.01456   0.02924  -0.09986   0.00435
  76        3PX        -0.00610   0.00126  -0.00710  -0.00498  -0.00323
  77        3PY         0.00637   0.00992  -0.01347   0.02896  -0.00359
  78        3PZ         0.00000   0.00000  -0.00000   0.00000  -0.00000
  79 12  H  1S         -0.00058   0.00010  -0.00031   0.00027  -0.00222
  80        2S         -0.00190   0.00039   0.00180   0.00039   0.00442
  81 13  H  1S          0.00007  -0.00011  -0.00040   0.00001   0.00030
  82        2S          0.00111  -0.00035  -0.00088   0.00012   0.00503
  83 14  C  1S         -0.00269  -0.02508  -0.00802  -0.04021  -0.01483
  84        2S         -0.00064  -0.00608  -0.00089  -0.00896  -0.00216
  85        2PX         0.00000  -0.00004   0.00059   0.00186   0.00049
  86        2PY         0.00006   0.00122  -0.00003   0.00000  -0.00005
  87        2PZ        -0.00000   0.00000  -0.00000   0.00000  -0.00000
  88        3S          0.00866   0.03277  -0.00483   0.04650   0.00272
  89        3PX        -0.00489  -0.00516   0.00448  -0.02484  -0.00218
  90        3PY        -0.00119  -0.01815   0.00246  -0.00763   0.00001
  91        3PZ         0.00000  -0.00000   0.00000   0.00000   0.00000
  92 15  C  1S         -0.03063   0.98036   0.10966   0.01024   0.00350
  93        2S         -0.00280   0.10011   0.01071   0.00173   0.00034
  94        2PX         0.00053  -0.00046   0.00019   0.00034   0.00022
  95        2PY         0.00026   0.00006   0.00003  -0.00069  -0.00012
  96        2PZ         0.00000   0.00000   0.00000   0.00000  -0.00000
  97        3S         -0.00693  -0.09838  -0.00246  -0.01786  -0.00204
  98        3PX         0.00536   0.01384  -0.00388   0.00785   0.00008
  99        3PY        -0.00075  -0.00141   0.00040  -0.00578   0.00054
 100        3PZ        -0.00000   0.00000  -0.00000  -0.00000  -0.00000
 101 16  H  1S         -0.00053  -0.00041  -0.00032  -0.00228  -0.00003
 102        2S         -0.00176  -0.00156   0.00156   0.00441   0.00084
 103 17  H  1S          0.00007  -0.00017  -0.00044   0.00020   0.00003
 104        2S          0.00096   0.00251  -0.00080   0.00478   0.00067
 105 18  C  1S         -0.00244  -0.00780  -0.00199  -0.00611  -0.00179
 106        2S         -0.00069  -0.00240  -0.00058  -0.00143  -0.00040
 107        2PX         0.00019   0.00076   0.00013   0.00019   0.00002
 108        2PY        -0.00002   0.00019   0.00007  -0.00032  -0.00002
 109        2PZ        -0.00000   0.00000   0.00000  -0.00000  -0.00000
 110        3S         -0.00043   0.01260   0.00324   0.00052   0.00103
 111        3PX        -0.00045  -0.00946  -0.00204  -0.00008  -0.00047
 112        3PY        -0.00038   0.00005   0.00020   0.00235   0.00017
 113        3PZ         0.00000  -0.00000  -0.00000   0.00000   0.00000
 114 19  H  1S          0.00000  -0.00100  -0.00013  -0.00034  -0.00006
 115        2S          0.00002   0.00241   0.00027  -0.00030  -0.00003
 116 20  H  1S          0.00000  -0.00100  -0.00013  -0.00034  -0.00006
 117        2S          0.00002   0.00241   0.00027  -0.00030  -0.00003
 118 21  H  1S         -0.00027  -0.00085  -0.00024   0.00011  -0.00005
 119        2S          0.00042  -0.00140   0.00007   0.00091  -0.00004
                           6         7         8         9        10
                           O         O         O         O         O
     Eigenvalues --   -11.18327 -11.18289 -11.18165 -11.18118 -11.17893
   1 1   C  1S          0.81346   0.52884   0.18077   0.00593   0.01090
   2        2S          0.08527   0.05017   0.01383   0.00048   0.00059
   3        2PX         0.00190  -0.00077  -0.00019  -0.00005  -0.00040
   4        2PY         0.00099   0.00063  -0.00116  -0.00001   0.00003
   5        2PZ        -0.00000   0.00000  -0.00000   0.00000   0.00000
   6        3S         -0.10423  -0.02367   0.02122  -0.00108  -0.00132
   7        3PX        -0.03175   0.00729   0.00726  -0.00176   0.00068
   8        3PY        -0.01943  -0.00736   0.01804  -0.00011  -0.00038
   9        3PZ         0.00000  -0.00000   0.00000   0.00000  -0.00000
  10 2   C  1S         -0.54871   0.81530   0.06848   0.01494   0.02229
  11        2S         -0.05958   0.07977   0.00630   0.00107   0.00134
  12        2PX         0.00145   0.00042   0.00109   0.00014  -0.00009
  13        2PY        -0.00159   0.00063  -0.00061  -0.00002   0.00011
  14        2PZ        -0.00000   0.00000  -0.00000   0.00000   0.00000
  15        3S          0.09265  -0.05422  -0.01473   0.00521   0.00951
  16        3PX        -0.01285  -0.00317  -0.00210   0.00026   0.00245
  17        3PY         0.03356  -0.00982  -0.00817   0.00339   0.00541
  18        3PZ         0.00000  -0.00000  -0.00000   0.00000   0.00000
  19 3   C  1S         -0.01113   0.02595   0.00818   0.00476   0.01988
  20        2S          0.00124  -0.00013   0.00019  -0.00000  -0.00195
  21        2PX        -0.00065   0.00187   0.00096  -0.00034  -0.00193
  22        2PY        -0.00033   0.00053  -0.00012  -0.00030  -0.00008
  23        2PZ        -0.00000  -0.00000  -0.00000  -0.00000   0.00000
  24        3S         -0.02924   0.01636   0.00340   0.00613   0.03491
  25        3PX         0.02802  -0.01765  -0.01310   0.01070   0.03142
  26        3PY         0.00573  -0.00189  -0.00083   0.00210   0.00732
  27        3PZ        -0.00000   0.00000   0.00000   0.00000  -0.00000
  28 4   C  1S         -0.00063   0.01274   0.01082   0.00836   0.00676
  29        2S         -0.00054   0.00083   0.00097   0.00098   0.00082
  30        2PX         0.00035   0.00030   0.00083  -0.00059  -0.00022
  31        2PY        -0.00015   0.00075   0.00028  -0.00007   0.00068
  32        2PZ        -0.00000   0.00000   0.00000   0.00000   0.00000
  33        3S          0.01227  -0.00284  -0.01010  -0.01280  -0.01272
  34        3PX        -0.01635  -0.00133   0.00894  -0.01074  -0.01168
  35        3PY        -0.00590   0.00232   0.00028  -0.00392   0.00293
  36        3PZ         0.00000   0.00000  -0.00000  -0.00000   0.00000
  37 5   C  1S         -0.01526   0.04092   0.06973   0.01497   0.01183
  38        2S         -0.00015   0.00426   0.00226   0.00103   0.00053
  39        2PX         0.00043   0.00008   0.00125  -0.00050  -0.00030
  40        2PY         0.00031   0.00033   0.00158  -0.00016   0.00031
  41        2PZ        -0.00000   0.00000   0.00000  -0.00000   0.00000
  42        3S         -0.02509  -0.00857   0.03443  -0.00440  -0.00346
  43        3PX        -0.00325  -0.00008  -0.00558   0.00361  -0.00114
  44        3PY         0.01514   0.00322  -0.02033   0.00458  -0.00096
  45        3PZ         0.00000   0.00000  -0.00000   0.00000   0.00000
  46 6   C  1S         -0.11260  -0.16188   0.96428   0.03952   0.01270
  47        2S         -0.01497  -0.01850   0.09630   0.00357   0.00093
  48        2PX        -0.00057  -0.00093   0.00108   0.00011  -0.00024
  49        2PY         0.00041   0.00147  -0.00028  -0.00001   0.00006
  50        2PZ         0.00000   0.00000   0.00000   0.00000   0.00000
  51        3S          0.04933   0.02458  -0.08360   0.00284  -0.00026
  52        3PX         0.02173   0.00621  -0.02045   0.00226   0.00040
  53        3PY        -0.01602  -0.00819   0.00534   0.00206  -0.00068
  54        3PZ        -0.00000  -0.00000   0.00000   0.00000  -0.00000
  55 7   H  1S         -0.00049  -0.00018   0.00011  -0.00061  -0.00238
  56        2S         -0.00101  -0.00041   0.00085  -0.00239   0.00395
  57 8   H  1S         -0.00192  -0.00112  -0.00033  -0.00020  -0.00003
  58        2S          0.00069   0.00638   0.00617  -0.00022   0.00072
  59 9   H  1S          0.00130  -0.00177  -0.00064   0.00004   0.00009
  60        2S          0.00143   0.00685  -0.00022   0.00110   0.00087
  61 10  C  1S          0.00519  -0.02350  -0.01613  -0.03026   0.98595
  62        2S          0.00086  -0.00319  -0.00229  -0.00302   0.10015
  63        2PX         0.00035   0.00047   0.00004  -0.00062  -0.00025
  64        2PY         0.00006   0.00020  -0.00003  -0.00080   0.00145
  65        2PZ        -0.00000  -0.00000  -0.00000   0.00000   0.00000
  66        3S         -0.01177   0.00689   0.01025  -0.01096  -0.10375
  67        3PX        -0.00069  -0.00574  -0.00331   0.00620   0.00459
  68        3PY        -0.00692   0.00041   0.00434  -0.00922  -0.03114
  69        3PZ        -0.00000   0.00000   0.00000  -0.00000  -0.00000
  70 11  C  1S         -0.00626   0.01924   0.01086   0.03974   0.01019
  71        2S         -0.00068   0.00128   0.00087  -0.00101  -0.00009
  72        2PX        -0.00033   0.00003   0.00062  -0.00150   0.00001
  73        2PY        -0.00019   0.00025  -0.00002   0.00103   0.00021
  74        2PZ         0.00000   0.00000  -0.00000   0.00000  -0.00000
  75        3S          0.00908   0.00137  -0.00616   0.04144   0.01566
  76        3PX        -0.00011   0.00104  -0.00592   0.01188   0.00256
  77        3PY        -0.00368  -0.00282   0.00343  -0.02054  -0.00900
  78        3PZ        -0.00000  -0.00000   0.00000  -0.00000  -0.00000
  79 12  H  1S         -0.00051  -0.00016  -0.00022  -0.00059   0.00010
  80        2S         -0.00305   0.00034   0.00493  -0.00068   0.00087
  81 13  H  1S          0.00063  -0.00001  -0.00219  -0.00017  -0.00004
  82        2S          0.00423   0.00097   0.00625   0.00062   0.00052
  83 14  C  1S          0.00875  -0.01163  -0.04312   0.98461   0.02820
  84        2S          0.00114  -0.00134  -0.00476   0.09952   0.00304
  85        2PX        -0.00009   0.00024   0.00007  -0.00110  -0.00009
  86        2PY        -0.00012   0.00003  -0.00003  -0.00093   0.00094
  87        2PZ         0.00000   0.00000  -0.00000   0.00000   0.00000
  88        3S         -0.00343  -0.00015   0.01021  -0.09544  -0.01634
  89        3PX         0.00267   0.00139  -0.00429   0.02029   0.01141
  90        3PY         0.00086  -0.00032  -0.00022   0.01835   0.00549
  91        3PZ        -0.00000   0.00000   0.00000   0.00000  -0.00000
  92 15  C  1S         -0.00006   0.00451  -0.00091   0.02496   0.01543
  93        2S         -0.00021   0.00016   0.00019  -0.00104  -0.00294
  94        2PX        -0.00025   0.00028  -0.00008   0.00096   0.00224
  95        2PY         0.00000   0.00011   0.00013  -0.00162   0.00071
  96        2PZ         0.00000   0.00000   0.00000   0.00000   0.00000
  97        3S          0.00665   0.00069  -0.00393   0.03049   0.03869
  98        3PX        -0.00238  -0.00278   0.00358  -0.01935  -0.03399
  99        3PY        -0.00185  -0.00155  -0.00127   0.02272  -0.00444
 100        3PZ        -0.00000  -0.00000  -0.00000   0.00000  -0.00000
 101 16  H  1S          0.00009   0.00019  -0.00051  -0.00006   0.00018
 102        2S          0.00045   0.00123  -0.00075   0.00516   0.00227
 103 17  H  1S         -0.00015  -0.00010   0.00002  -0.00230  -0.00078
 104        2S         -0.00058  -0.00023   0.00018   0.00485  -0.00228
 105 18  C  1S          0.00111  -0.00193  -0.00140  -0.01277  -0.02277
 106        2S          0.00029  -0.00044  -0.00022  -0.00230  -0.00350
 107        2PX         0.00003   0.00004   0.00011  -0.00001   0.00004
 108        2PY         0.00000   0.00004  -0.00005  -0.00022   0.00020
 109        2PZ        -0.00000  -0.00000  -0.00000   0.00000  -0.00000
 110        3S         -0.00078   0.00161  -0.00106   0.01060   0.01335
 111        3PX         0.00053  -0.00090   0.00032  -0.00543  -0.00452
 112        3PY         0.00028   0.00059   0.00002  -0.00042   0.00362
 113        3PZ         0.00000   0.00000   0.00000  -0.00000  -0.00000
 114 19  H  1S          0.00004  -0.00006   0.00001  -0.00033  -0.00045
 115        2S         -0.00004  -0.00004  -0.00001   0.00030  -0.00046
 116 20  H  1S          0.00004  -0.00006   0.00001  -0.00033  -0.00045
 117        2S         -0.00004  -0.00004  -0.00001   0.00030  -0.00046
 118 21  H  1S          0.00010  -0.00014  -0.00002  -0.00050  -0.00016
 119        2S          0.00014   0.00045   0.00023  -0.00035  -0.00011
                          11        12        13        14        15
                           O         O         O         O         O
     Eigenvalues --   -11.17380  -1.17829  -1.11857  -1.05162  -1.02817
   1 1   C  1S          0.00059  -0.05516   0.08939   0.06551   0.05445
   2        2S          0.00005   0.06311  -0.09858  -0.07190  -0.05835
   3        2PX        -0.00008   0.03248  -0.03468  -0.04109   0.02723
   4        2PY         0.00005   0.01979  -0.03331   0.01420  -0.05695
   5        2PZ         0.00000  -0.00000  -0.00000   0.00000  -0.00000
   6        3S         -0.00102   0.09440  -0.17788  -0.13514  -0.13111
   7        3PX        -0.00047   0.00270  -0.01069   0.00193  -0.00654
   8        3PY        -0.00137   0.00638  -0.00521  -0.00337  -0.00971
   9        3PZ        -0.00000   0.00000   0.00000  -0.00000  -0.00000
  10 2   C  1S          0.00257  -0.06759   0.06770   0.08838  -0.04588
  11        2S         -0.00014   0.07720  -0.07410  -0.09535   0.04817
  12        2PX        -0.00000   0.00592   0.03481   0.00982   0.07137
  13        2PY        -0.00002   0.04187  -0.03592  -0.02115   0.01656
  14        2PZ        -0.00000   0.00000  -0.00000  -0.00000  -0.00000
  15        3S          0.00473   0.11407  -0.14360  -0.19804   0.11548
  16        3PX         0.00200  -0.00998  -0.00408   0.00943   0.00542
  17        3PY         0.00298   0.00603  -0.01790  -0.01406   0.01273
  18        3PZ         0.00000   0.00000  -0.00000  -0.00000   0.00000
  19 3   C  1S          0.00334  -0.10741   0.01420   0.04559  -0.11654
  20        2S         -0.00032   0.11991  -0.01482  -0.05063   0.12486
  21        2PX        -0.00063  -0.00210   0.07011  -0.00261   0.01169
  22        2PY        -0.00016   0.02564   0.00536   0.08191  -0.00726
  23        2PZ         0.00000   0.00000  -0.00000   0.00000  -0.00000
  24        3S          0.00213   0.20250  -0.03889  -0.08084   0.26870
  25        3PX         0.00724  -0.00648  -0.00890   0.00466   0.01392
  26        3PY         0.00362  -0.00625  -0.00304   0.02870  -0.00511
  27        3PZ        -0.00000   0.00000   0.00000  -0.00000  -0.00000
  28 4   C  1S          0.00145  -0.10716   0.01917  -0.09808  -0.04395
  29        2S          0.00008   0.11885  -0.02112   0.10663   0.04668
  30        2PX        -0.00007   0.00653   0.06493   0.01185   0.04991
  31        2PY         0.00003  -0.02512   0.01383   0.06698  -0.05707
  32        2PZ        -0.00000  -0.00000  -0.00000   0.00000  -0.00000
  33        3S         -0.00221   0.21109  -0.03643   0.20169   0.10644
  34        3PX        -0.00399   0.00493   0.00929  -0.00764   0.00094
  35        3PY         0.00130   0.00292  -0.00248   0.02649  -0.01134
  36        3PZ         0.00000  -0.00000  -0.00000   0.00000   0.00000
  37 5   C  1S          0.00192  -0.06757   0.07076  -0.06932   0.06833
  38        2S          0.00009   0.07700  -0.07787   0.07433  -0.07390
  39        2PX        -0.00021   0.02019   0.01851   0.04286   0.06197
  40        2PY         0.00002  -0.03720   0.04598  -0.00240   0.03256
  41        2PZ        -0.00000  -0.00000   0.00000  -0.00000   0.00000
  42        3S         -0.00254   0.12055  -0.14103   0.15645  -0.16058
  43        3PX        -0.00008  -0.00526  -0.00626  -0.00186   0.00465
  44        3PY         0.00093  -0.01214   0.01199  -0.01350   0.01103
  45        3PZ        -0.00000  -0.00000   0.00000  -0.00000   0.00000
  46 6   C  1S          0.00178  -0.05504   0.09023  -0.00084   0.10958
  47        2S         -0.00002   0.06309  -0.09929   0.00181  -0.11839
  48        2PX        -0.00004   0.03729  -0.04498   0.01668  -0.03286
  49        2PY        -0.00001  -0.00738   0.01810   0.04862  -0.00019
  50        2PZ        -0.00000  -0.00000   0.00000   0.00000  -0.00000
  51        3S          0.00194   0.09147  -0.18195  -0.00904  -0.24775
  52        3PX         0.00101   0.00301  -0.01352  -0.00897  -0.00900
  53        3PY        -0.00038  -0.00430   0.00296  -0.00092   0.00308
  54        3PZ         0.00000   0.00000  -0.00000   0.00000  -0.00000
  55 7   H  1S         -0.00000   0.02586   0.02284  -0.04190   0.01983
  56        2S         -0.00080   0.00257   0.00410  -0.01450   0.00451
  57 8   H  1S         -0.00012   0.01727  -0.03211  -0.02909  -0.02641
  58        2S         -0.00025  -0.00423   0.00058  -0.00218  -0.00629
  59 9   H  1S         -0.00005   0.02312  -0.02256  -0.04297   0.02577
  60        2S          0.00090  -0.00194  -0.00045  -0.01048   0.00996
  61 10  C  1S          0.02188  -0.07406  -0.06369   0.07790  -0.04371
  62        2S          0.00161   0.08347   0.06896  -0.08334   0.04628
  63        2PX        -0.00081  -0.01484   0.04028  -0.00763  -0.08981
  64        2PY         0.00011   0.04045   0.04193  -0.01045   0.00123
  65        2PZ        -0.00000   0.00000   0.00000  -0.00000  -0.00000
  66        3S         -0.00468   0.13899   0.14377  -0.18155   0.09953
  67        3PX         0.00141   0.00245  -0.01282  -0.00253  -0.00947
  68        3PY        -0.00140   0.02047   0.02026  -0.01681   0.01008
  69        3PZ         0.00000  -0.00000  -0.00000   0.00000   0.00000
  70 11  C  1S          0.00655  -0.07155  -0.04884  -0.11338  -0.00635
  71        2S         -0.00042   0.08212   0.05456   0.12123   0.00560
  72        2PX        -0.00035  -0.00308   0.04300  -0.01608  -0.03241
  73        2PY         0.00020  -0.04397  -0.02506  -0.03368  -0.01590
  74        2PZ         0.00000  -0.00000  -0.00000  -0.00000   0.00000
  75        3S          0.00758   0.11540   0.08830   0.26953   0.02763
  76        3PX         0.00410   0.00614  -0.01011   0.01133   0.00011
  77        3PY        -0.00374  -0.00435  -0.00503  -0.02626  -0.01034
  78        3PZ        -0.00000   0.00000   0.00000  -0.00000  -0.00000
  79 12  H  1S         -0.00007   0.02315  -0.02413   0.03677  -0.03210
  80        2S          0.00002  -0.00104   0.00032   0.01191  -0.00578
  81 13  H  1S         -0.00000   0.01715  -0.03245   0.00038  -0.05235
  82        2S          0.00029  -0.00465   0.00011  -0.00214  -0.00912
  83 14  C  1S          0.01266  -0.06330  -0.08852  -0.04292   0.04772
  84        2S          0.00071   0.07161   0.09663   0.04750  -0.05187
  85        2PX        -0.00083  -0.03213  -0.01898  -0.06415  -0.02514
  86        2PY         0.00059  -0.02445  -0.04094   0.04325   0.02887
  87        2PZ        -0.00000   0.00000   0.00000   0.00000  -0.00000
  88        3S         -0.00261   0.11532   0.18847   0.07751  -0.10834
  89        3PX         0.00446  -0.01195  -0.02243   0.00886   0.00069
  90        3PY        -0.00426  -0.00836  -0.00622  -0.00030  -0.00058
  91        3PZ         0.00000  -0.00000  -0.00000   0.00000   0.00000
  92 15  C  1S          0.00828  -0.07011  -0.11103   0.06349   0.07254
  93        2S         -0.00119   0.07847   0.12077  -0.06905  -0.07718
  94        2PX        -0.00086  -0.03324  -0.01912  -0.00494  -0.06105
  95        2PY         0.00054   0.00627   0.01166   0.05295  -0.01830
  96        2PZ         0.00000   0.00000   0.00000  -0.00000  -0.00000
  97        3S          0.02059   0.12289   0.22358  -0.12826  -0.16918
  98        3PX         0.01480   0.01325   0.00520  -0.01302  -0.00218
  99        3PY        -0.00837   0.00136  -0.00048   0.00124  -0.00774
 100        3PZ        -0.00000   0.00000   0.00000  -0.00000  -0.00000
 101 16  H  1S          0.00001   0.02434   0.01544   0.05448  -0.00033
 102        2S          0.00138  -0.00254  -0.00311   0.01520   0.00032
 103 17  H  1S         -0.00038   0.02093   0.03467   0.01573  -0.02918
 104        2S          0.00064  -0.00111   0.00442  -0.00269  -0.00702
 105 18  C  1S          0.98720  -0.02391  -0.05653   0.05897   0.09091
 106        2S          0.10199   0.02622   0.05671  -0.05715  -0.08699
 107        2PX        -0.00009  -0.01906  -0.03558   0.02803   0.03175
 108        2PY         0.00026   0.00593   0.01262  -0.00295  -0.01622
 109        2PZ         0.00000  -0.00000  -0.00000   0.00000   0.00000
 110        3S         -0.08409   0.03972   0.12800  -0.15293  -0.25388
 111        3PX         0.00744   0.00758   0.00044   0.00515   0.01074
 112        3PY        -0.00270  -0.00211   0.00335  -0.00232  -0.00909
 113        3PZ        -0.00000   0.00000   0.00000  -0.00000  -0.00000
 114 19  H  1S          0.00068   0.00974   0.02374  -0.02549  -0.04385
 115        2S          0.01349  -0.00368  -0.00526   0.00248   0.00003
 116 20  H  1S          0.00068   0.00974   0.02374  -0.02549  -0.04385
 117        2S          0.01350  -0.00368  -0.00526   0.00249   0.00004
 118 21  H  1S          0.00057   0.00981   0.02287  -0.02907  -0.04030
 119        2S          0.01325  -0.00221  -0.00019  -0.00330  -0.00254
                          16        17        18        19        20
                           O         O         O         O         O
     Eigenvalues --    -0.98610  -0.93152  -0.84659  -0.81543  -0.81085
   1 1   C  1S         -0.09753   0.00826   0.08921   0.01623   0.04540
   2        2S          0.10355  -0.00953  -0.09202  -0.01696  -0.04724
   3        2PX         0.04487   0.05732   0.06525  -0.09101   0.00347
   4        2PY        -0.03049  -0.06107  -0.01254   0.12883  -0.00030
   5        2PZ        -0.00000  -0.00000  -0.00000   0.00000   0.00000
   6        3S          0.24721  -0.01223  -0.27862  -0.05210  -0.14790
   7        3PX         0.01647   0.02008   0.01780  -0.03281  -0.00604
   8        3PY         0.00205  -0.00601  -0.00956   0.04815  -0.00702
   9        3PZ        -0.00000   0.00000  -0.00000   0.00000   0.00000
  10 2   C  1S         -0.08209  -0.05955  -0.05304   0.06848  -0.04043
  11        2S          0.08819   0.06395   0.05476  -0.07071   0.04149
  12        2PX        -0.07447  -0.00187   0.10268   0.09630   0.08859
  13        2PY         0.00655   0.01770   0.01958   0.06381  -0.04805
  14        2PZ         0.00000   0.00000  -0.00000  -0.00000  -0.00000
  15        3S          0.19549   0.14763   0.17004  -0.21927   0.12803
  16        3PX        -0.00910  -0.00592   0.03138   0.03286   0.03484
  17        3PY         0.00174   0.00429   0.02121   0.02062  -0.02626
  18        3PZ         0.00000  -0.00000   0.00000  -0.00000  -0.00000
  19 3   C  1S          0.03367  -0.01333  -0.04136  -0.09117  -0.00274
  20        2S         -0.03599   0.01448   0.04339   0.09571   0.00166
  21        2PX        -0.04990  -0.10759  -0.09397   0.02450   0.04145
  22        2PY        -0.03608   0.03016  -0.06310   0.05824  -0.17695
  23        2PZ        -0.00000   0.00000  -0.00000   0.00000  -0.00000
  24        3S         -0.08244   0.03403   0.12549   0.28896   0.01581
  25        3PX        -0.00299  -0.03926  -0.03047   0.00038   0.01147
  26        3PY        -0.00501  -0.00181  -0.01935   0.02565  -0.08227
  27        3PZ        -0.00000   0.00000  -0.00000   0.00000  -0.00000
  28 4   C  1S          0.05254  -0.06634   0.04424   0.00620   0.07469
  29        2S         -0.05587   0.06986  -0.04612  -0.00592  -0.07881
  30        2PX         0.07651  -0.00956  -0.11070   0.09384   0.02461
  31        2PY         0.02082   0.00720  -0.07206  -0.15107   0.09760
  32        2PZ        -0.00000   0.00000  -0.00000  -0.00000   0.00000
  33        3S         -0.12885   0.17839  -0.13562  -0.02373  -0.23443
  34        3PX         0.00988   0.00370  -0.04124   0.04205   0.01197
  35        3PY         0.00184  -0.00032  -0.02526  -0.06450   0.05085
  36        3PZ         0.00000  -0.00000  -0.00000  -0.00000   0.00000
  37 5   C  1S          0.09423   0.01198  -0.06638   0.07630  -0.03120
  38        2S         -0.10070  -0.01366   0.06995  -0.07876   0.03199
  39        2PX        -0.01270   0.09342  -0.04842  -0.08912  -0.09775
  40        2PY         0.02045   0.01812  -0.01767  -0.06929   0.04195
  41        2PZ         0.00000  -0.00000  -0.00000  -0.00000   0.00000
  42        3S         -0.23128  -0.01524   0.19641  -0.24294   0.10040
  43        3PX        -0.00485   0.02459  -0.01799  -0.03274  -0.03447
  44        3PY         0.00957  -0.00738  -0.01498  -0.02437   0.02342
  45        3PZ         0.00000   0.00000  -0.00000   0.00000   0.00000
  46 6   C  1S          0.01656   0.08346   0.00933  -0.08327  -0.03490
  47        2S         -0.01704  -0.08718  -0.00962   0.08580   0.03564
  48        2PX        -0.03459   0.00180   0.06081  -0.05191  -0.00844
  49        2PY        -0.08528  -0.00780   0.12222  -0.04485   0.08776
  50        2PZ        -0.00000  -0.00000   0.00000  -0.00000   0.00000
  51        3S         -0.04702  -0.23431  -0.02372   0.26898   0.11279
  52        3PX        -0.01139  -0.01096   0.02745  -0.01081  -0.00694
  53        3PY        -0.01098   0.00285   0.03646  -0.02054   0.03388
  54        3PZ        -0.00000  -0.00000   0.00000  -0.00000   0.00000
  55 7   H  1S         -0.03542  -0.04839  -0.04127  -0.03898   0.08133
  56        2S         -0.00734  -0.00961  -0.01848  -0.01855   0.04722
  57 8   H  1S          0.05322  -0.00769  -0.08318  -0.01713  -0.03484
  58        2S          0.01526  -0.00001  -0.03943  -0.00802  -0.01840
  59 9   H  1S          0.04181   0.03090   0.03739  -0.07270   0.06262
  60        2S          0.00744   0.00633   0.01772  -0.03838   0.03350
  61 10  C  1S          0.06490   0.09857   0.05567   0.03447  -0.05199
  62        2S         -0.06943  -0.10475  -0.05852  -0.03657   0.05237
  63        2PX        -0.00489  -0.01029  -0.04797  -0.13211  -0.06823
  64        2PY        -0.01094  -0.03806  -0.00454   0.00442  -0.09640
  65        2PZ        -0.00000   0.00000  -0.00000   0.00000  -0.00000
  66        3S         -0.15324  -0.24980  -0.16240  -0.09294   0.17473
  67        3PX         0.00172   0.00680  -0.01608  -0.04113  -0.02322
  68        3PY         0.00012  -0.01632  -0.00730   0.01187  -0.03874
  69        3PZ         0.00000  -0.00000   0.00000   0.00000  -0.00000
  70 11  C  1S         -0.08359  -0.01881   0.06902   0.00032  -0.08491
  71        2S          0.08978   0.02088  -0.07207   0.00080   0.08828
  72        2PX         0.09174  -0.05981   0.11293   0.06372   0.04986
  73        2PY        -0.00963  -0.00063   0.01516  -0.03053   0.08183
  74        2PZ        -0.00000   0.00000  -0.00000  -0.00000   0.00000
  75        3S          0.20172   0.03793  -0.21498  -0.01066   0.26489
  76        3PX         0.01511  -0.02210   0.03301   0.02710   0.01827
  77        3PY        -0.00418   0.00985   0.01551  -0.01305   0.04016
  78        3PZ        -0.00000   0.00000  -0.00000   0.00000   0.00000
  79 12  H  1S         -0.04854  -0.00652   0.04242  -0.08312   0.05259
  80        2S         -0.01061   0.00167   0.01706  -0.04213   0.03030
  81 13  H  1S         -0.00798  -0.05553  -0.01501   0.07805   0.04349
  82        2S         -0.00344  -0.02131  -0.00556   0.04000   0.02145
  83 14  C  1S         -0.10624   0.03243  -0.09806  -0.01955   0.00713
  84        2S          0.11233  -0.03417   0.10130   0.02002  -0.00830
  85        2PX        -0.05533   0.01935   0.07516  -0.01804  -0.07774
  86        2PY         0.03090   0.02235  -0.02789   0.04367   0.13580
  87        2PZ         0.00000   0.00000  -0.00000   0.00000   0.00000
  88        3S          0.26768  -0.08263   0.30027   0.06894  -0.01378
  89        3PX        -0.02003   0.00556   0.01875  -0.01165  -0.02272
  90        3PY        -0.00512   0.01496  -0.01155   0.01056   0.04889
  91        3PZ         0.00000  -0.00000  -0.00000  -0.00000   0.00000
  92 15  C  1S          0.01980   0.02599  -0.01521   0.06071   0.07059
  93        2S         -0.02038  -0.02680   0.01525  -0.06210  -0.07265
  94        2PX        -0.00516   0.14911   0.03237   0.05651   0.02648
  95        2PY         0.09000  -0.00112   0.14107   0.05239  -0.07751
  96        2PZ         0.00000   0.00000   0.00000   0.00000  -0.00000
  97        3S         -0.05553  -0.08315   0.04594  -0.20314  -0.23717
  98        3PX         0.01198   0.03340   0.02499   0.02252   0.01903
  99        3PY         0.01507   0.01333   0.05411   0.02764  -0.04075
 100        3PZ        -0.00000   0.00000   0.00000   0.00000  -0.00000
 101 16  H  1S          0.04031   0.01675  -0.05187  -0.02165   0.09887
 102        2S          0.00638   0.00280  -0.02263  -0.01543   0.04962
 103 17  H  1S          0.05522  -0.00741   0.08895   0.02183   0.00717
 104        2S          0.01586  -0.00019   0.04149   0.01400   0.00558
 105 18  C  1S          0.04603  -0.14019   0.02612  -0.05138  -0.04432
 106        2S         -0.04332   0.13067  -0.02357   0.04562   0.04056
 107        2PX         0.01368   0.01043  -0.00557   0.05750   0.04452
 108        2PY         0.00822   0.00570   0.03672   0.00038  -0.03460
 109        2PZ        -0.00000   0.00000  -0.00000   0.00000  -0.00000
 110        3S         -0.13823   0.44289  -0.09316   0.18755   0.15768
 111        3PX         0.00857  -0.00552   0.00306   0.02158   0.01628
 112        3PY         0.00036   0.00728   0.01892   0.00401  -0.01701
 113        3PZ        -0.00000   0.00000  -0.00000   0.00000  -0.00000
 114 19  H  1S         -0.02059   0.08229  -0.01040   0.04636   0.03259
 115        2S         -0.00031   0.01718  -0.00206   0.02173   0.01548
 116 20  H  1S         -0.02059   0.08229  -0.01040   0.04636   0.03260
 117        2S         -0.00031   0.01718  -0.00207   0.02172   0.01548
 118 21  H  1S         -0.02825   0.07712  -0.03484   0.03328   0.04919
 119        2S         -0.00763   0.01441  -0.01721   0.01160   0.02502
                          21        22        23        24        25
                           O         O         O         O         O
     Eigenvalues --    -0.70012  -0.69375  -0.66814  -0.61877  -0.61307
   1 1   C  1S         -0.01609  -0.05884   0.02173   0.03219   0.00251
   2        2S          0.02053   0.05912  -0.02462  -0.03732  -0.00022
   3        2PX         0.05921  -0.14478  -0.09298  -0.06612   0.07531
   4        2PY         0.09513  -0.06800   0.12860  -0.06004   0.13434
   5        2PZ         0.00000  -0.00000   0.00000  -0.00000   0.00000
   6        3S          0.03592   0.19601  -0.05549  -0.06964  -0.02183
   7        3PX         0.03797  -0.10871  -0.03279  -0.02113   0.07603
   8        3PY         0.05211  -0.06501   0.08495  -0.03564   0.09755
   9        3PZ         0.00000  -0.00000   0.00000  -0.00000   0.00000
  10 2   C  1S          0.03472   0.05281  -0.00819  -0.01724  -0.00483
  11        2S         -0.03259  -0.05864   0.01072   0.01496   0.00572
  12        2PX        -0.02568  -0.01784   0.17360   0.02130  -0.01093
  13        2PY         0.13876  -0.04488   0.01995  -0.17656  -0.05494
  14        2PZ         0.00000  -0.00000  -0.00000  -0.00000  -0.00000
  15        3S         -0.11816  -0.12680  -0.01234   0.08311   0.01906
  16        3PX        -0.01186  -0.00492   0.08503   0.04619   0.00516
  17        3PY         0.10261   0.00870  -0.02124  -0.15480  -0.04865
  18        3PZ         0.00000  -0.00000  -0.00000  -0.00000  -0.00000
  19 3   C  1S          0.00778  -0.02019  -0.00767   0.04099   0.04908
  20        2S         -0.00765   0.01907   0.00615  -0.04523  -0.05157
  21        2PX        -0.08006   0.14493  -0.09968  -0.06065   0.09732
  22        2PY         0.01461  -0.03110  -0.11403   0.10194  -0.11524
  23        2PZ        -0.00000  -0.00000  -0.00000  -0.00000  -0.00000
  24        3S         -0.02731   0.08163   0.03417  -0.11917  -0.12988
  25        3PX        -0.02602   0.16415  -0.11535  -0.04809   0.07882
  26        3PY         0.01713  -0.01402  -0.08501   0.10885  -0.06325
  27        3PZ        -0.00000  -0.00000  -0.00000  -0.00000  -0.00000
  28 4   C  1S          0.00552  -0.01494  -0.02470  -0.06624  -0.00860
  29        2S         -0.00491   0.01367   0.02322   0.07003   0.01051
  30        2PX        -0.15068  -0.08748  -0.02591  -0.01798   0.02317
  31        2PY        -0.05360   0.03586   0.11379  -0.04787   0.16626
  32        2PZ        -0.00000   0.00000   0.00000  -0.00000   0.00000
  33        3S         -0.02251   0.05942   0.10332   0.19214   0.03218
  34        3PX        -0.12472  -0.12730   0.03075  -0.02255   0.00420
  35        3PY        -0.03593   0.00930   0.08176   0.00589   0.13526
  36        3PZ         0.00000   0.00000   0.00000  -0.00000   0.00000
  37 5   C  1S          0.00200  -0.03536   0.04457   0.01757   0.00284
  38        2S          0.00338   0.03781  -0.04704  -0.01796   0.00057
  39        2PX         0.08835   0.12116   0.11399   0.04943   0.03017
  40        2PY        -0.11984   0.09303   0.00318  -0.10877  -0.13730
  41        2PZ        -0.00000   0.00000  -0.00000  -0.00000  -0.00000
  42        3S         -0.04767   0.07457  -0.12925  -0.07019  -0.03940
  43        3PX         0.03996   0.03749   0.06705   0.01624   0.00465
  44        3PY        -0.06495   0.09317  -0.02324  -0.11167  -0.11881
  45        3PZ        -0.00000   0.00000  -0.00000  -0.00000  -0.00000
  46 6   C  1S          0.02378   0.04451  -0.03296  -0.02227  -0.02070
  47        2S         -0.02137  -0.04933   0.03312   0.02255   0.02613
  48        2PX         0.13206  -0.03796  -0.12466  -0.08376   0.15380
  49        2PY        -0.10371  -0.07505  -0.11104   0.06360  -0.08584
  50        2PZ        -0.00000  -0.00000  -0.00000   0.00000  -0.00000
  51        3S         -0.08825  -0.12487   0.10923   0.06739   0.02906
  52        3PX         0.09882   0.00251  -0.09369  -0.09341   0.10375
  53        3PY        -0.06337  -0.04817  -0.04933   0.04132  -0.06398
  54        3PZ        -0.00000  -0.00000  -0.00000   0.00000  -0.00000
  55 7   H  1S          0.09107   0.05598   0.02893   0.11464   0.06862
  56        2S          0.05211   0.02265   0.02909   0.08631   0.04572
  57 8   H  1S         -0.04557   0.13934  -0.02504   0.02477  -0.09526
  58        2S         -0.03462   0.08313  -0.00952   0.02979  -0.07026
  59 9   H  1S         -0.10788  -0.02184   0.01625   0.13408   0.04185
  60        2S         -0.06433   0.00268   0.00371   0.09762   0.03238
  61 10  C  1S         -0.03983  -0.03576   0.01794  -0.00461  -0.02180
  62        2S          0.03927   0.03841  -0.02298   0.00315   0.02228
  63        2PX         0.08421  -0.17016   0.01420   0.11218  -0.10190
  64        2PY        -0.09013  -0.07304  -0.07661  -0.14520  -0.08950
  65        2PZ        -0.00000  -0.00000  -0.00000  -0.00000  -0.00000
  66        3S          0.12373   0.07566  -0.01291   0.02820   0.07577
  67        3PX         0.04634  -0.05002  -0.00294   0.04736  -0.04249
  68        3PY        -0.07469  -0.07789  -0.02491  -0.14509  -0.08639
  69        3PZ        -0.00000  -0.00000  -0.00000  -0.00000  -0.00000
  70 11  C  1S         -0.00554   0.04804  -0.01167   0.02398  -0.00382
  71        2S          0.00113  -0.05338   0.01068  -0.02416   0.00626
  72        2PX         0.10915  -0.00369  -0.17427   0.05237  -0.07520
  73        2PY         0.11320   0.01979   0.09716  -0.13777  -0.14044
  74        2PZ         0.00000  -0.00000   0.00000  -0.00000  -0.00000
  75        3S          0.05938  -0.10827   0.01450  -0.08676  -0.00402
  76        3PX         0.05315  -0.00673  -0.09029   0.06205  -0.01923
  77        3PY         0.05269  -0.02581   0.09711  -0.13183  -0.11658
  78        3PZ        -0.00000  -0.00000   0.00000  -0.00000  -0.00000
  79 12  H  1S         -0.07543   0.07182  -0.04751  -0.09599  -0.09556
  80        2S         -0.05410   0.03370  -0.02097  -0.06889  -0.07340
  81 13  H  1S         -0.10938  -0.03213   0.07832   0.08612  -0.09083
  82        2S         -0.06900  -0.01020   0.04805   0.05673  -0.07563
  83 14  C  1S         -0.02401  -0.04764   0.01839  -0.03263  -0.00906
  84        2S          0.02266   0.04859  -0.02273   0.03371   0.01378
  85        2PX         0.00519   0.13483   0.15452   0.00035  -0.02659
  86        2PY         0.15227   0.04533  -0.05945   0.09376  -0.13588
  87        2PZ         0.00000  -0.00000  -0.00000  -0.00000  -0.00000
  88        3S          0.08613   0.14952  -0.04270   0.09764  -0.01552
  89        3PX         0.02974   0.10472   0.07041   0.04731  -0.01329
  90        3PY         0.08744   0.05466  -0.02770   0.06757  -0.08242
  91        3PZ         0.00000  -0.00000  -0.00000  -0.00000  -0.00000
  92 15  C  1S          0.01966   0.05336  -0.05206   0.02406   0.02357
  93        2S         -0.02178  -0.05758   0.05069  -0.02665  -0.02443
  94        2PX         0.00148   0.04476   0.12037   0.02669  -0.02154
  95        2PY        -0.10926   0.09981   0.03767  -0.06581   0.15393
  96        2PZ        -0.00000  -0.00000   0.00000  -0.00000  -0.00000
  97        3S         -0.05916  -0.16382   0.18664  -0.05397  -0.07916
  98        3PX        -0.00916  -0.00310   0.10737  -0.02039  -0.04056
  99        3PY        -0.07022   0.07864   0.02246  -0.05474   0.11928
 100        3PZ        -0.00000  -0.00000   0.00000  -0.00000  -0.00000
 101 16  H  1S          0.05420  -0.02917   0.08616  -0.12059  -0.07945
 102        2S          0.03943  -0.00280   0.05238  -0.08532  -0.06086
 103 17  H  1S          0.07609   0.11896   0.03215   0.06902  -0.05706
 104        2S          0.04572   0.07035   0.02897   0.03953  -0.04806
 105 18  C  1S          0.00564  -0.00885   0.02786   0.00497  -0.00594
 106        2S         -0.00410   0.00623  -0.02028  -0.00411   0.00179
 107        2PX        -0.01964   0.06743  -0.12472  -0.03077   0.10893
 108        2PY        -0.04089   0.03418   0.08219  -0.06914   0.05393
 109        2PZ        -0.00000  -0.00000  -0.00000  -0.00001  -0.00000
 110        3S         -0.01894   0.05818  -0.14347  -0.00956   0.05192
 111        3PX        -0.01573   0.02961  -0.06311  -0.03182   0.06383
 112        3PY        -0.02333   0.02990   0.04761  -0.04901   0.04348
 113        3PZ        -0.00000  -0.00000  -0.00000  -0.00001  -0.00000
 114 19  H  1S         -0.01758   0.03276  -0.03833  -0.02907   0.04973
 115        2S         -0.01006   0.02696  -0.02942  -0.02095   0.04340
 116 20  H  1S         -0.01757   0.03275  -0.03833  -0.02907   0.04970
 117        2S         -0.01005   0.02695  -0.02942  -0.02094   0.04338
 118 21  H  1S          0.02228  -0.01100  -0.07412   0.04490  -0.02612
 119        2S          0.02144  -0.00643  -0.05548   0.04471  -0.01973
                          26        27        28        29        30
                           O         O         O         O         O
     Eigenvalues --    -0.59063  -0.57940  -0.57758  -0.55335  -0.53327
   1 1   C  1S          0.00467   0.01490  -0.00001  -0.01135   0.01213
   2        2S         -0.00378  -0.01821   0.00001   0.00980  -0.01301
   3        2PX         0.12655  -0.15863   0.00007  -0.15465   0.02824
   4        2PY        -0.10429   0.00598  -0.00001  -0.09079  -0.08513
   5        2PZ        -0.00000   0.00001   0.02174  -0.00000   0.00000
   6        3S         -0.01447  -0.02929   0.00002   0.04994  -0.03243
   7        3PX         0.08712  -0.10869   0.00005  -0.15306   0.02049
   8        3PY        -0.05712  -0.00778  -0.00000  -0.10842  -0.05505
   9        3PZ        -0.00000   0.00001   0.01887  -0.00000   0.00000
  10 2   C  1S          0.00299   0.00435  -0.00000   0.02887  -0.00780
  11        2S         -0.00388  -0.00850   0.00000  -0.03104   0.00903
  12        2PX        -0.18286   0.11159  -0.00005   0.08869  -0.03741
  13        2PY        -0.08039  -0.19009   0.00008  -0.00247   0.05457
  14        2PZ        -0.00000   0.00001   0.03327  -0.00000   0.00000
  15        3S          0.00144   0.00744  -0.00001  -0.08949   0.03064
  16        3PX        -0.09853   0.06861  -0.00003   0.05467  -0.01715
  17        3PY        -0.05551  -0.16743   0.00007   0.01461   0.05645
  18        3PZ        -0.00000   0.00001   0.02802  -0.00000   0.00000
  19 3   C  1S          0.00273  -0.00298   0.00000  -0.02227   0.01520
  20        2S         -0.00228   0.00318  -0.00000   0.02450  -0.01512
  21        2PX         0.14531   0.06754  -0.00002  -0.04401  -0.10135
  22        2PY         0.12758  -0.01750   0.00001  -0.01236   0.04284
  23        2PZ        -0.00000   0.00003   0.06744  -0.00001   0.00000
  24        3S         -0.03007   0.01388  -0.00001   0.05738  -0.06694
  25        3PX         0.09405   0.02188  -0.00001  -0.04591  -0.05892
  26        3PY         0.09706  -0.01575   0.00002  -0.00852   0.04907
  27        3PZ        -0.00000   0.00002   0.05834  -0.00000   0.00000
  28 4   C  1S         -0.01324   0.00757  -0.00000   0.01800  -0.00644
  29        2S          0.01400  -0.00777   0.00001  -0.01904   0.00758
  30        2PX         0.10440  -0.17434   0.00008   0.02319  -0.12250
  31        2PY        -0.06307  -0.02085   0.00001  -0.07026  -0.05496
  32        2PZ        -0.00000   0.00002   0.05702  -0.00001   0.00000
  33        3S          0.03046  -0.02444   0.00001  -0.06737   0.00876
  34        3PX         0.10917  -0.11102   0.00005   0.03637  -0.10168
  35        3PY        -0.04091  -0.00976   0.00000  -0.05597  -0.04141
  36        3PZ        -0.00000   0.00002   0.05079  -0.00000   0.00000
  37 5   C  1S          0.01603  -0.01334   0.00001  -0.02335   0.00580
  38        2S         -0.01578   0.01757  -0.00001   0.02556  -0.00604
  39        2PX        -0.14886   0.08739  -0.00004  -0.11174   0.08613
  40        2PY        -0.12940  -0.17206   0.00006  -0.07294  -0.01471
  41        2PZ        -0.00000   0.00001   0.02981  -0.00000   0.00000
  42        3S         -0.04242   0.01748  -0.00001   0.07750  -0.01835
  43        3PX        -0.06950   0.06162  -0.00003  -0.06387   0.05602
  44        3PY        -0.12000  -0.14052   0.00005  -0.04572  -0.03120
  45        3PZ        -0.00000   0.00001   0.02491  -0.00000   0.00000
  46 6   C  1S         -0.01786  -0.00752   0.00000   0.01545   0.00688
  47        2S          0.02101   0.00895  -0.00000  -0.01455  -0.00902
  48        2PX         0.09130   0.06939  -0.00002   0.14280  -0.13812
  49        2PY         0.15244  -0.03037   0.00002   0.06796   0.06674
  50        2PZ        -0.00000   0.00001   0.02090  -0.00000   0.00000
  51        3S          0.04225   0.01352  -0.00001  -0.05520  -0.01159
  52        3PX         0.04118   0.05444  -0.00002   0.14165  -0.13965
  53        3PY         0.09719  -0.02516   0.00001   0.02212   0.05971
  54        3PZ        -0.00000   0.00001   0.01859  -0.00000   0.00000
  55 7   H  1S          0.00853  -0.13462   0.00007   0.06580   0.07015
  56        2S          0.00176  -0.09922   0.00005   0.06178   0.04256
  57 8   H  1S         -0.02651   0.06553  -0.00003   0.13987   0.01014
  58        2S         -0.01932   0.05636  -0.00002   0.10613   0.01277
  59 9   H  1S          0.02759   0.13300  -0.00006  -0.01578  -0.03455
  60        2S          0.02249   0.10023  -0.00004  -0.00296  -0.02477
  61 10  C  1S         -0.01943   0.00696  -0.00000   0.02423  -0.02631
  62        2S          0.01907  -0.00334   0.00000  -0.02990   0.02563
  63        2PX        -0.06468  -0.01463  -0.00000  -0.04592   0.10978
  64        2PY         0.00141   0.19315  -0.00010  -0.14249  -0.04840
  65        2PZ        -0.00000   0.00004   0.09237  -0.00001   0.00000
  66        3S          0.07405  -0.04603   0.00003  -0.02607   0.09345
  67        3PX        -0.05318  -0.02688  -0.00000  -0.03797   0.05980
  68        3PY        -0.00344   0.17017  -0.00008  -0.08743  -0.07556
  69        3PZ        -0.00000   0.00004   0.08320  -0.00001   0.00000
  70 11  C  1S         -0.00713  -0.00045  -0.00000  -0.03175  -0.00131
  71        2S          0.00442  -0.00176   0.00000   0.03596   0.00014
  72        2PX        -0.14080   0.06207  -0.00003   0.09780   0.08960
  73        2PY         0.11487   0.15559  -0.00007  -0.03174   0.06225
  74        2PZ        -0.00000   0.00003   0.05844  -0.00000   0.00000
  75        3S          0.03101   0.01721  -0.00001   0.06796   0.02280
  76        3PX        -0.09086   0.03740  -0.00002   0.04412   0.05004
  77        3PY         0.11250   0.13177  -0.00006   0.00290   0.05212
  78        3PZ        -0.00000   0.00002   0.04923  -0.00000   0.00000
  79 12  H  1S         -0.08240  -0.10959   0.00004  -0.01317  -0.02804
  80        2S         -0.05428  -0.08625   0.00003  -0.01599  -0.01778
  81 13  H  1S         -0.00627  -0.04337   0.00002  -0.09805   0.10585
  82        2S         -0.01279  -0.03603   0.00001  -0.07226   0.08801
  83 14  C  1S          0.02538   0.01140  -0.00001   0.01552   0.00569
  84        2S         -0.03021  -0.01180   0.00001  -0.01404  -0.00217
  85        2PX         0.18635  -0.03312   0.00002  -0.15520  -0.09417
  86        2PY         0.05391   0.00279   0.00000  -0.05191  -0.03420
  87        2PZ        -0.00000   0.00004   0.08357  -0.00000   0.00000
  88        3S         -0.05139  -0.03186   0.00002  -0.05173  -0.04109
  89        3PX         0.12652  -0.03424   0.00001  -0.17578  -0.07272
  90        3PY         0.05267  -0.01544   0.00001  -0.07030  -0.03376
  91        3PZ        -0.00000   0.00003   0.07901  -0.00000   0.00000
  92 15  C  1S          0.00177  -0.01701   0.00001  -0.02187   0.00341
  93        2S         -0.00473   0.01981  -0.00001   0.02016  -0.00421
  94        2PX         0.09308  -0.10369   0.00006   0.19971  -0.10870
  95        2PY        -0.00987  -0.02448   0.00001   0.02272   0.01980
  96        2PZ        -0.00001   0.00007   0.15098  -0.00001   0.00000
  97        3S          0.01634   0.03652  -0.00001   0.08777  -0.00271
  98        3PX         0.06956  -0.05827   0.00004   0.21167  -0.10834
  99        3PY        -0.00974  -0.02539   0.00001   0.00078   0.01566
 100        3PZ        -0.00000   0.00005   0.12063  -0.00001   0.00000
 101 16  H  1S          0.09737   0.09443  -0.00004  -0.00107   0.03484
 102        2S          0.06960   0.07025  -0.00003  -0.01305   0.02699
 103 17  H  1S          0.09603  -0.02865   0.00002  -0.12730  -0.06953
 104        2S          0.08204  -0.01653   0.00001  -0.09535  -0.05572
 105 18  C  1S          0.00547  -0.00520   0.00000  -0.00345   0.00344
 106        2S         -0.00239   0.00273  -0.00000   0.01011  -0.00720
 107        2PX        -0.04228   0.05105  -0.00004  -0.16171   0.18175
 108        2PY         0.11590  -0.02211   0.00002   0.11639   0.22483
 109        2PZ        -0.00001   0.00014   0.31874  -0.00001   0.00000
 110        3S         -0.03935   0.02583  -0.00002  -0.04979   0.01389
 111        3PX        -0.01997   0.04020  -0.00003  -0.09259   0.14091
 112        3PY         0.09739  -0.01496   0.00001   0.07883   0.21739
 113        3PZ        -0.00001   0.00012   0.26988  -0.00001   0.00000
 114 19  H  1S          0.01066   0.01557  -0.17867  -0.02364   0.11570
 115        2S          0.00913   0.01274  -0.16044  -0.03258   0.11369
 116 20  H  1S          0.01062   0.01573   0.17870  -0.02366   0.11563
 117        2S          0.00910   0.01289   0.16046  -0.03260   0.11362
 118 21  H  1S         -0.08512   0.01627  -0.00006  -0.08342  -0.16180
 119        2S         -0.07184   0.00813  -0.00005  -0.08198  -0.14620
                          31        32        33        34        35
                           O         O         O         O         O
     Eigenvalues --    -0.52837  -0.50952  -0.48007  -0.47072  -0.43969
   1 1   C  1S         -0.00000   0.00497  -0.00257   0.00268  -0.00000
   2        2S          0.00000  -0.00547   0.00499  -0.00221   0.00000
   3        2PX        -0.00001   0.00702   0.15684   0.01366  -0.00000
   4        2PY         0.00000  -0.17969  -0.00373  -0.13228  -0.00000
   5        2PZ         0.12081  -0.00000   0.00000   0.00000   0.18851
   6        3S          0.00000  -0.02335  -0.00080  -0.02321   0.00000
   7        3PX        -0.00001  -0.03480   0.15343  -0.02748   0.00000
   8        3PY        -0.00000  -0.14682   0.03164  -0.11398  -0.00000
   9        3PZ         0.11360  -0.00000   0.00000   0.00000   0.19920
  10 2   C  1S          0.00000   0.00443   0.00409  -0.01135   0.00000
  11        2S         -0.00000  -0.00322  -0.00489   0.01440  -0.00000
  12        2PX         0.00001  -0.02863  -0.18335   0.02335   0.00000
  13        2PY        -0.00000   0.11378  -0.03732   0.14283  -0.00000
  14        2PZ         0.13730  -0.00000   0.00000   0.00000   0.12057
  15        3S         -0.00000  -0.01434   0.01107   0.01940  -0.00000
  16        3PX         0.00000  -0.03945  -0.11520  -0.02072   0.00000
  17        3PY        -0.00000   0.14396  -0.01038   0.15989  -0.00000
  18        3PZ         0.12756  -0.00000   0.00000   0.00000   0.13132
  19 3   C  1S         -0.00000  -0.00430  -0.00242  -0.00081   0.00000
  20        2S          0.00000   0.00322   0.00311   0.00126  -0.00000
  21        2PX        -0.00000  -0.04837   0.19263   0.02508  -0.00000
  22        2PY        -0.00000  -0.05657   0.01223  -0.22254   0.00000
  23        2PZ         0.18098  -0.00000   0.00000  -0.00000  -0.01594
  24        3S          0.00001   0.03808   0.00377   0.01160  -0.00000
  25        3PX         0.00000   0.00394   0.23438   0.00852  -0.00000
  26        3PY        -0.00000  -0.05526   0.01747  -0.20213   0.00000
  27        3PZ         0.17113  -0.00000   0.00000  -0.00000  -0.01855
  28 4   C  1S          0.00000   0.00168  -0.00061  -0.00209  -0.00000
  29        2S         -0.00000  -0.00213   0.00036   0.00215   0.00000
  30        2PX         0.00000  -0.05142  -0.17608  -0.02518   0.00000
  31        2PY        -0.00000   0.03481  -0.01160   0.22279  -0.00000
  32        2PZ         0.19021  -0.00000   0.00000   0.00000  -0.03570
  33        3S         -0.00000   0.00331   0.00718   0.02275  -0.00000
  34        3PX         0.00000  -0.01235  -0.21953  -0.01559   0.00000
  35        3PY        -0.00000   0.03139  -0.02683   0.21336   0.00000
  36        3PZ         0.17880   0.00000   0.00000   0.00000  -0.03603
  37 5   C  1S         -0.00000   0.00355  -0.00378  -0.01053   0.00000
  38        2S          0.00000  -0.00180   0.00516   0.01314  -0.00000
  39        2PX        -0.00000  -0.01506   0.18328   0.04509  -0.00000
  40        2PY        -0.00000  -0.12660   0.00100  -0.12595   0.00000
  41        2PZ         0.14117  -0.00000   0.00000   0.00000   0.10534
  42        3S          0.00000  -0.01545  -0.01552   0.02514   0.00000
  43        3PX        -0.00000   0.00060   0.10961   0.01847  -0.00000
  44        3PY         0.00000  -0.14776  -0.00239  -0.16291  -0.00000
  45        3PZ         0.13131  -0.00000   0.00000   0.00000   0.11417
  46 6   C  1S          0.00000   0.00474   0.00159   0.00233   0.00000
  47        2S         -0.00000  -0.00506  -0.00372  -0.00144   0.00000
  48        2PX         0.00001  -0.02704  -0.14371  -0.01426   0.00000
  49        2PY        -0.00000   0.17734  -0.02507   0.13441  -0.00000
  50        2PZ         0.12207   0.00000   0.00000   0.00000   0.18228
  51        3S         -0.00000  -0.01766   0.00180  -0.02689  -0.00000
  52        3PX         0.00001  -0.05015  -0.16046  -0.04652   0.00000
  53        3PY        -0.00000   0.12800   0.00068   0.09823  -0.00000
  54        3PZ         0.11438  -0.00000   0.00000   0.00000   0.19342
  55 7   H  1S         -0.00000   0.05345  -0.01593  -0.10857   0.00000
  56        2S         -0.00000   0.04123  -0.01333  -0.10807   0.00000
  57 8   H  1S          0.00000   0.07908  -0.09562   0.05973   0.00000
  58        2S          0.00000   0.06722  -0.08372   0.05216   0.00000
  59 9   H  1S          0.00000  -0.09511  -0.00243  -0.10700   0.00000
  60        2S          0.00000  -0.07062  -0.00016  -0.10581  -0.00000
  61 10  C  1S          0.00000   0.00479  -0.00060  -0.01290  -0.00000
  62        2S         -0.00000  -0.00552   0.00127   0.01609   0.00000
  63        2PX        -0.00000  -0.04481  -0.20736  -0.03392   0.00000
  64        2PY         0.00000  -0.07901  -0.01454   0.13312  -0.00000
  65        2PZ         0.09272  -0.00000  -0.00000   0.00000  -0.11128
  66        3S         -0.00000  -0.02931  -0.01106   0.02838   0.00000
  67        3PX         0.00000   0.01646  -0.12101  -0.03174  -0.00000
  68        3PY         0.00000  -0.10072   0.00192   0.17011  -0.00000
  69        3PZ         0.08261  -0.00000  -0.00000   0.00000  -0.11838
  70 11  C  1S         -0.00000  -0.00072   0.00375  -0.01186   0.00000
  71        2S          0.00000  -0.00141  -0.00390   0.01557  -0.00000
  72        2PX        -0.00000  -0.09190   0.16515  -0.01450  -0.00000
  73        2PY        -0.00000   0.08646   0.04201  -0.15112   0.00000
  74        2PZ         0.11488   0.00000   0.00000  -0.00000  -0.15135
  75        3S          0.00000   0.00529  -0.00095   0.01589  -0.00000
  76        3PX         0.00000  -0.06327   0.09241   0.02954  -0.00000
  77        3PY         0.00000   0.10807   0.02071  -0.16966   0.00000
  78        3PZ         0.10705   0.00000   0.00000  -0.00000  -0.16497
  79 12  H  1S          0.00000  -0.09727  -0.02078  -0.10454   0.00000
  80        2S          0.00000  -0.07386  -0.02198  -0.10158   0.00000
  81 13  H  1S         -0.00000   0.05968   0.10423   0.04650  -0.00000
  82        2S         -0.00000   0.05156   0.09051   0.04022  -0.00000
  83 14  C  1S          0.00000  -0.01616  -0.00504   0.00517  -0.00000
  84        2S         -0.00000   0.01634   0.00767  -0.00513   0.00000
  85        2PX        -0.00000   0.05846  -0.13684  -0.02059   0.00000
  86        2PY        -0.00000  -0.19558  -0.01318   0.15388   0.00000
  87        2PZ         0.07168   0.00000  -0.00000  -0.00000  -0.18993
  88        3S         -0.00000   0.04155   0.00988  -0.02148   0.00000
  89        3PX         0.00000   0.02273  -0.16051   0.02323  -0.00000
  90        3PY        -0.00000  -0.14312  -0.03290   0.12483   0.00000
  91        3PZ         0.06358   0.00000  -0.00000  -0.00000  -0.19792
  92 15  C  1S         -0.00000  -0.00148  -0.00248   0.00041  -0.00000
  93        2S          0.00000   0.00279   0.00079   0.00034  -0.00000
  94        2PX         0.00000  -0.06791   0.17370   0.02025  -0.00000
  95        2PY         0.00000   0.19618   0.04413  -0.15929   0.00000
  96        2PZ         0.03463   0.00000  -0.00000  -0.00000  -0.14691
  97        3S         -0.00000  -0.00694   0.01256  -0.01549   0.00000
  98        3PX         0.00000  -0.08667   0.20004   0.05050  -0.00000
  99        3PY         0.00000   0.17577   0.03250  -0.14030   0.00000
 100        3PZ         0.04249   0.00000  -0.00000  -0.00000  -0.16551
 101 16  H  1S          0.00000   0.07708   0.00464  -0.11476   0.00000
 102        2S          0.00000   0.05714   0.00531  -0.11229   0.00000
 103 17  H  1S         -0.00000  -0.04665  -0.09243   0.06476   0.00000
 104        2S         -0.00000  -0.04544  -0.08381   0.05930   0.00000
 105 18  C  1S         -0.00000   0.00731  -0.01555  -0.00791   0.00000
 106        2S          0.00000  -0.01059   0.01948   0.01000  -0.00000
 107        2PX        -0.00000   0.06272  -0.16266  -0.05587   0.00000
 108        2PY        -0.00000  -0.19086  -0.00966   0.05811  -0.00000
 109        2PZ        -0.14489   0.00000  -0.00001  -0.00000   0.10019
 110        3S          0.00000   0.00807   0.01580   0.00866  -0.00000
 111        3PX        -0.00000   0.02177  -0.11394  -0.02837  -0.00000
 112        3PY        -0.00000  -0.18136  -0.03457   0.05816  -0.00000
 113        3PZ        -0.13580   0.00000  -0.00001  -0.00000   0.10821
 114 19  H  1S          0.08778  -0.03573  -0.04974   0.00451  -0.07022
 115        2S          0.08430  -0.03039  -0.06461   0.00174  -0.07569
 116 20  H  1S         -0.08780  -0.03568  -0.04973   0.00450   0.07024
 117        2S         -0.08433  -0.03034  -0.06459   0.00172   0.07571
 118 21  H  1S          0.00003   0.14510   0.01580  -0.04777  -0.00002
 119        2S          0.00002   0.15029   0.00404  -0.06166  -0.00002
                          36        37        38        39        40
                           O         O         O         V         V
     Eigenvalues --    -0.38502  -0.31595  -0.28651   0.09941   0.13109
   1 1   C  1S         -0.00000   0.00000   0.00000   0.00000   0.00000
   2        2S          0.00000  -0.00000  -0.00000  -0.00000   0.00000
   3        2PX         0.00000  -0.00000  -0.00000  -0.00000  -0.00000
   4        2PY        -0.00000   0.00000   0.00000   0.00000   0.00000
   5        2PZ         0.07561  -0.19218  -0.10719  -0.13968  -0.17360
   6        3S          0.00000   0.00000  -0.00000  -0.00000   0.00000
   7        3PX         0.00000   0.00000  -0.00000  -0.00000  -0.00000
   8        3PY        -0.00000   0.00000   0.00000   0.00000   0.00000
   9        3PZ         0.08617  -0.23793  -0.14628  -0.27161  -0.37944
  10 2   C  1S          0.00000   0.00000  -0.00000  -0.00000   0.00000
[...]
  33        3S          0.81685
  34        3PX         0.35604
  35        3PY         0.32412
  36        3PZ         0.59090
  37 5   C  1S          1.98837
  38        2S          0.39732
  39        2PX         0.61100
  40        2PY         0.58057
  41        2PZ         0.40324
  42        3S          0.87430
  43        3PX         0.22867
  44        3PY         0.51713
  45        3PZ         0.59368
  46 6   C  1S          1.98822
  47        2S          0.39578
  48        2PX         0.58729
  49        2PY         0.60646
  50        2PZ         0.40584
  51        3S          0.88413
  52        3PX         0.47990
  53        3PY         0.28614
  54        3PZ         0.60559
  55 7   H  1S          0.46378
  56        2S          0.30443
  57 8   H  1S          0.46433
  58        2S          0.29806
  59 9   H  1S          0.46385
  60        2S          0.29960
  61 10  C  1S          1.98852
  62        2S          0.39584
  63        2PX         0.60843
  64        2PY         0.57273
  65        2PZ         0.41716
  66        3S          0.87458
  67        3PX         0.20126
  68        3PY         0.52304
  69        3PZ         0.61105
  70 11  C  1S          1.98841
  71        2S          0.39825
  72        2PX         0.62096
  73        2PY         0.57278
  74        2PZ         0.40082
  75        3S          0.86855
  76        3PX         0.24027
  77        3PY         0.50691
  78        3PZ         0.58950
  79 12  H  1S          0.46396
  80        2S          0.29894
  81 13  H  1S          0.46420
  82        2S          0.29890
  83 14  C  1S          1.98838
  84        2S          0.39528
  85        2PX         0.60160
  86        2PY         0.58771
  87        2PZ         0.41076
  88        3S          0.88779
  89        3PX         0.39973
  90        3PY         0.34567
  91        3PZ         0.60681
  92 15  C  1S          1.98860
  93        2S          0.39686
  94        2PX         0.60098
  95        2PY         0.60849
  96        2PZ         0.39832
  97        3S          0.82812
  98        3PX         0.34767
  99        3PY         0.32382
 100        3PZ         0.57232
 101 16  H  1S          0.46402
 102        2S          0.29835
 103 17  H  1S          0.46363
 104        2S          0.30108
 105 18  C  1S          1.98836
 106        2S          0.35247
 107        2PX         0.54110
 108        2PY         0.53702
 109        2PZ         0.53402
 110        3S          1.14179
 111        3PX         0.34468
 112        3PY         0.55729
 113        3PZ         0.57775
 114 19  H  1S          0.45234
 115        2S          0.33385
 116 20  H  1S          0.45234
 117        2S          0.33385
 118 21  H  1S          0.45600
 119        2S          0.33763
          Condensed to atoms (all electrons):
               1          2          3          4          5          6
     1  C    5.157957   0.523686  -0.113464   0.000602  -0.111695   0.438843
     2  C    0.523686   5.118113   0.414718  -0.062920  -0.005915  -0.111682
     3  C   -0.113464   0.414718   5.220268   0.452771  -0.062784   0.000424
     4  C    0.000602  -0.062920   0.452771   5.240260   0.415257  -0.114244
     5  C   -0.111695  -0.005915  -0.062784   0.415257   5.110478   0.524595
     6  C    0.438843  -0.111682   0.000424  -0.114244   0.524595   5.161966
     7  H    0.000047   0.001341  -0.037029   0.001895  -0.000060   0.000008
     8  H    0.394143  -0.030887   0.002526  -0.000108   0.002251  -0.032021
     9  H   -0.026687   0.397207  -0.040073   0.001884  -0.000054   0.002043
    10  C    0.001062  -0.050226   0.418755  -0.062947   0.001876   0.000347
    11  C    0.000371   0.001736  -0.063702   0.415188  -0.048678   0.001074
    12  H    0.002036  -0.000049   0.001869  -0.039989   0.396906  -0.026417
    13  H   -0.032081   0.002244  -0.000105   0.002551  -0.030945   0.394435
    14  C   -0.000010   0.000321  -0.002902  -0.112876   0.001245  -0.000057
    15  C   -0.000063   0.001376  -0.117366  -0.001341   0.000283  -0.000007
    16  H    0.000007  -0.000057   0.001859  -0.040113   0.001556   0.000052
    17  H   -0.000000   0.000001  -0.000065   0.002511  -0.000045   0.000000
    18  C    0.000000  -0.000059   0.002726   0.000138   0.000001  -0.000000
    19  H   -0.000000   0.000001  -0.000074   0.000006  -0.000000  -0.000000
    20  H   -0.000000   0.000001  -0.000074   0.000006  -0.000000  -0.000000
    21  H   -0.000000  -0.000003   0.000284  -0.000001  -0.000000   0.000000
               7          8          9         10         11         12
     1  C    0.000047   0.394143  -0.026687   0.001062   0.000371   0.002036
     2  C    0.001341  -0.030887   0.397207  -0.050226   0.001736  -0.000049
     3  C   -0.037029   0.002526  -0.040073   0.418755  -0.063702   0.001869
     4  C    0.001895  -0.000108   0.001884  -0.062947   0.415188  -0.039989
     5  C   -0.000060   0.002251  -0.000054   0.001876  -0.048678   0.396906
     6  C    0.000008  -0.032021   0.002043   0.000347   0.001074  -0.026417
     7  H    0.429013  -0.000001   0.002077   0.398690  -0.000019   0.000000
     8  H   -0.000001   0.429176  -0.001421  -0.000041   0.000000  -0.000033
     9  H    0.002077  -0.001421   0.427077   0.001425  -0.000058   0.000002
    10  C    0.398690  -0.000041   0.001425   5.087663  -0.009668  -0.000057
    11  C   -0.000019   0.000000  -0.000058  -0.009668   5.093391   0.001443
    12  H    0.000000  -0.000033   0.000002  -0.000057   0.001443   0.426605
    13  H   -0.000000  -0.001189  -0.000033   0.000000  -0.000042  -0.001424
    14  C    0.001929  -0.000000   0.000006  -0.082073   0.534325   0.000050
    15  C   -0.029890   0.000000   0.000057   0.539019  -0.109050   0.000006
    16  H    0.000002  -0.000000   0.000000  -0.000046   0.396108   0.001950
    17  H   -0.000038   0.000000  -0.000000   0.001932  -0.027733  -0.000001
    18  C   -0.001338  -0.000000  -0.000002  -0.054204   0.001628  -0.000000
    19  H    0.000023   0.000000   0.000000   0.000735   0.000091   0.000000
    20  H    0.000023   0.000000   0.000000   0.000733   0.000090   0.000000
    21  H    0.001536  -0.000000   0.000001  -0.000359  -0.000058   0.000000
              13         14         15         16         17         18
     1  C   -0.032081  -0.000010  -0.000063   0.000007  -0.000000   0.000000
     2  C    0.002244   0.000321   0.001376  -0.000057   0.000001  -0.000059
     3  C   -0.000105  -0.002902  -0.117366   0.001859  -0.000065   0.002726
     4  C    0.002551  -0.112876  -0.001341  -0.040113   0.002511   0.000138
     5  C   -0.030945   0.001245   0.000283   0.001556  -0.000045   0.000001
     6  C    0.394435  -0.000057  -0.000007   0.000052   0.000000  -0.000000
     7  H   -0.000000   0.001929  -0.029890   0.000002  -0.000038  -0.001338
     8  H   -0.001189  -0.000000   0.000000  -0.000000   0.000000  -0.000000
     9  H   -0.000033   0.000006   0.000057   0.000000  -0.000000  -0.000002
    10  C    0.000000  -0.082073   0.539019  -0.000046   0.001932  -0.054204
    11  C   -0.000042   0.534325  -0.109050   0.396108  -0.027733   0.001628
    12  H   -0.001424   0.000050   0.000006   0.001950  -0.000001  -0.000000
    13  H    0.429686   0.000000  -0.000000  -0.000001  -0.000000   0.000000
    14  C    0.000000   5.156690   0.423315  -0.026996   0.397303  -0.066875
    15  C   -0.000000   0.423315   5.331727   0.002204  -0.037395   0.230245
    16  H   -0.000001  -0.026996   0.002204   0.427307  -0.001420  -0.000046
    17  H   -0.000000   0.397303  -0.037395  -0.001420   0.429283  -0.000498
    18  C    0.000000  -0.066875   0.230245  -0.000046  -0.000498   5.311810
    19  H   -0.000000  -0.001269  -0.057066   0.000000   0.000433   0.380880
    20  H   -0.000000  -0.001269  -0.057068   0.000000   0.000433   0.380876
    21  H    0.000000   0.002878  -0.053817   0.000000   0.000007   0.389194
              19         20         21
     1  C   -0.000000  -0.000000  -0.000000
     2  C    0.000001   0.000001  -0.000003
     3  C   -0.000074  -0.000074   0.000284
     4  C    0.000006   0.000006  -0.000001
     5  C   -0.000000  -0.000000  -0.000000
     6  C   -0.000000  -0.000000   0.000000
     7  H    0.000023   0.000023   0.001536
     8  H    0.000000   0.000000  -0.000000
     9  H    0.000000   0.000000   0.000001
    10  C    0.000735   0.000733  -0.000359
    11  C    0.000091   0.000090  -0.000058
    12  H    0.000000   0.000000   0.000000
    13  H   -0.000000  -0.000000   0.000000
    14  C   -0.001269  -0.001269   0.002878
    15  C   -0.057066  -0.057068  -0.053817
    16  H    0.000000   0.000000   0.000000
    17  H    0.000433   0.000433   0.000007
    18  C    0.380880   0.380876   0.389194
    19  H    0.509343  -0.025437  -0.021468
    20  H   -0.025437   0.509345  -0.021468
    21  H   -0.021468  -0.021468   0.496902
 Mulliken charges:
               1
     1  C   -0.234752
     2  C   -0.198946
     3  C   -0.078563
     4  C   -0.098530
     5  C   -0.194272
     6  C   -0.239358
     7  H    0.231791
     8  H    0.237605
     9  H    0.236548
    10  C   -0.192617
    11  C   -0.186435
    12  H    0.237101
    13  H    0.236903
    14  C   -0.223737
    15  C   -0.065171
    16  H    0.237634
    17  H    0.235292
    18  C   -0.574476
    19  H    0.213802
    20  H    0.213809
    21  H    0.206373
 Sum of Mulliken charges =  -0.00000
 Mulliken charges with hydrogens summed into heavy atoms:
               1
     1  C    0.002853
     2  C    0.037602
     3  C   -0.078563
     4  C   -0.098530
     5  C    0.042829
     6  C   -0.002455
    10  C    0.039174
    11  C    0.051198
    14  C    0.011555
    15  C   -0.065171
    18  C    0.059507
 Electronic spatial extent (au):  <R**2>=           1768.0302
 Charge=             -0.0000 electrons
 Dipole moment (field-independent basis, Debye):
    X=              0.3904    Y=              0.0351    Z=              0.0000  Tot=              0.3920
 Quadrupole moment (field-independent basis, Debye-Ang):
   XX=            -56.8590   YY=            -57.6419   ZZ=            -73.2986
   XY=              0.0513   XZ=              0.0001   YZ=              0.0000
 Traceless Quadrupole moment (field-independent basis, Debye-Ang):
   XX=              5.7408   YY=              4.9579   ZZ=            -10.6987
   XY=              0.0513   XZ=              0.0001   YZ=              0.0000
 Octapole moment (field-independent basis, Debye-Ang**2):
  XXX=             -6.2106  YYY=              0.9049  ZZZ=              0.0006  XYY=             -2.4560
  XXY=              0.9490  XXZ=              0.0001  XZZ=              5.8586  YZZ=             -0.3515
  YYZ=             -0.0004  XYZ=             -0.0002
 Hexadecapole moment (field-independent basis, Debye-Ang**3):
 XXXX=          -1659.2741 YYYY=           -514.3377 ZZZZ=            -85.1475 XXXY=             14.7810
 XXXZ=             -0.0007 YYYX=             -1.4396 YYYZ=              0.0009 ZZZX=              0.0020
 ZZZY=             -0.0009 XXYY=           -367.2698 XXZZ=           -340.1498 YYZZ=           -125.6902
 XXYZ=             -0.0010 YYXZ=             -0.0016 ZZXY=             -1.4171
 N-N= 5.415227556781D+02 E-N=-2.059152951635D+03  KE= 4.187156569039D+02
 Orbital energies and kinetic energies (alpha):
                                 1                 2
   1         O               -11.190968         15.879203
   2         O               -11.189863         15.878184
   3         O               -11.189471         15.878095
   4         O               -11.185864         15.878185
   5         O               -11.184473         15.878057
   6         O               -11.183272         15.879863
   7         O               -11.182889         15.875153
   8         O               -11.181648         15.876460
   9         O               -11.181180         15.877058
  10         O               -11.178934         15.878543
  11         O               -11.173798         15.877332
  12         O                -1.178286          1.450241
  13         O                -1.118572          1.478468
  14         O                -1.051623          1.546793
  15         O                -1.028169          1.541023
  16         O                -0.986095          1.597805
  17         O                -0.931520          1.487846
  18         O                -0.846592          1.479435
  19         O                -0.815429          1.465700
  20         O                -0.810847          1.350800
  21         O                -0.700121          1.068419
  22         O                -0.693746          1.331349
  23         O                -0.668144          1.313039
  24         O                -0.618771          1.188957
  25         O                -0.613065          1.233750
  26         O                -0.590633          1.354324
  27         O                -0.579397          1.228182
  28         O                -0.577576          0.874048
  29         O                -0.553353          1.311863
  30         O                -0.533275          1.178440
  31         O                -0.528370          0.874805
  32         O                -0.509521          1.301524
  33         O                -0.480074          1.525523
  34         O                -0.470716          1.389828
  35         O                -0.439693          0.951148
  36         O                -0.385016          1.003763
  37         O                -0.315952          1.078830
  38         O                -0.286507          1.095793
  39         V                 0.099406          1.210317
  40         V                 0.131092          1.247232
  41         V                 0.195655          1.255195
  42         V                 0.258046          0.932692
  43         V                 0.274039          0.978511
  44         V                 0.275123          1.264079
  45         V                 0.283094          0.940105
  46         V                 0.304382          1.091573
  47         V                 0.323548          0.957991
  48         V                 0.348387          1.127068
  49         V                 0.354917          1.181774
  50         V                 0.362265          1.128669
  51         V                 0.362670          1.215214
  52         V                 0.385066          1.162052
  53         V                 0.433024          1.600629
  54         V                 0.433249          1.838531
  55         V                 0.461287          1.802528
  56         V                 0.496056          1.749418
  57         V                 0.517100          1.626986
  58         V                 0.528252          1.615394
  59         V                 0.550305          1.738317
  60         V                 0.559037          1.751515
  61         V                 0.611999          1.897446
  62         V                 0.744521          2.709661
  63         V                 0.763120          2.313094
  64         V                 0.806425          2.308150
  65         V                 0.863254          2.839450
  66         V                 0.869727          2.252264
  67         V                 0.907287          2.090308
  68         V                 0.939453          2.478324
  69         V                 0.965169          2.407039
  70         V                 0.968606          2.772157
  71         V                 0.985604          2.671360
  72         V                 0.998714          2.772195
  73         V                 1.002199          2.529124
  74         V                 1.028512          2.917349
  75         V                 1.037626          2.559781
  76         V                 1.050645          2.932150
  77         V                 1.062828          2.730370
  78         V                 1.080496          2.811421
  79         V                 1.091497          2.687481
  80         V                 1.091971          2.790920
  81         V                 1.121645          2.773806
  82         V                 1.126841          2.602571
  83         V                 1.132413          2.782855
  84         V                 1.168575          2.720131
  85         V                 1.173055          2.890892
  86         V                 1.210114          2.811273
  87         V                 1.212551          2.839157
  88         V                 1.266676          2.791818
  89         V                 1.268952          3.443398
  90         V                 1.279414          3.354743
  91         V                 1.303010          3.209120
  92         V                 1.324875          3.242054
  93         V                 1.330214          2.886873
  94         V                 1.340358          3.189880
  95         V                 1.356496          2.666855
  96         V                 1.379694          3.120371
  97         V                 1.447457          3.203041
  98         V                 1.469210          3.239741
  99         V                 1.513415          3.140923
 100         V                 1.538593          3.262370
 101         V                 1.596071          2.838196
 102         V                 1.630984          2.899055
 103         V                 1.641499          2.885474
 104         V                 1.710272          2.671400
 105         V                 1.724284          2.800473
 106         V                 1.777063          3.189246
 107         V                 1.787747          3.185583
 108         V                 1.797146          3.259110
 109         V                 1.801339          3.354259
 110         V                 1.850347          3.147043
 111         V                 1.860034          3.211026
 112         V                 1.883361          3.141300
 113         V                 2.061167          3.477897
 114         V                 2.192373          3.398738
 115         V                 2.209233          3.415296
 116         V                 2.232976          3.331663
 117         V                 2.253942          3.423224
 118         V                 2.716667          3.688248
 119         V                 2.790167          3.676435
 Total kinetic energy from orbitals= 4.187156569039D+02
 1\1\GINC-IISERK51\SP\RHF\3-21G*\C11H10\GAUSSIAN\12-Jun-2025\0\\# hf/3-
 21g* pop=full geom=connectivity\\Methyl Napthalene sp\\0,1\C,0,-2.6976
 81,-1.038989,-0.000001\C,0,-1.408837,-1.513142,-0.000004\C,0,-0.308512
 ,-0.612461,-0.000003\C,0,-0.559618,0.783246,0.000001\C,0,-1.903182,1.2
 46567,0.000004\C,0,-2.947643,0.354701,0.000002\H,0,1.21393,-2.163379,-
 0.00001\H,0,-3.550449,-1.733815,-0.000002\H,0,-1.205076,-2.594335,-0.0
 00006\C,0,1.034578,-1.077472,-0.000006\C,0,0.543203,1.681564,0.000002\
 H,0,-2.086971,2.331346,0.000007\H,0,-3.988553,0.710157,0.000004\C,0,1.
 829668,1.207701,-0.000001\C,0,2.088183,-0.191066,-0.000004\H,0,0.34089
 9,2.763219,0.000004\H,0,2.684304,1.900719,-0.000001\C,0,3.493823,-0.65
 6393,0.000004\H,0,4.027039,-0.273516,-0.905884\H,0,4.026889,-0.273905,
 0.906147\H,0,3.554107,-1.772027,-0.000229\\Version=EM64L-G16RevB.01\St
 ate=1-A\HF=-420.0293143\RMSD=5.719e-09\Dipole=0.153599,0.0138242,0.000
 0122\Quadrupole=4.2681777,3.6860669,-7.9542446,0.0381076,0.0000459,0.0
 000202\PG=C01 [X(C11H10)]\\@


 THE MORE PROGRESS PHYSICAL SCIENCES MAKE, THE MORE THEY TEND TO ENTER
 THE DOMAIN OF MATHEMATICS, WHICH IS A KIND OF CENTRE TO WHICH THEY ALL
 CONVERGE.  WE MAY EVEN JUDGE THE DEGREE OF PERFECTION TO WHICH A 
 SCIENCE HAS ARRIVED BY THE FACILITY WITH WHICH IT MAY BE SUBMITTED
 TO CALCULATION.

                               -- ADOLPHE QUETELET, 1796-1874
 Job cpu time:       0 days  0 hours  0 minutes  2.2 seconds.
 Elapsed time:       0 days  0 hours  0 minutes  2.2 seconds.
 File lengths (MBytes):  RWF=     10 Int=      0 D2E=      0 Chk=      2 Scr=      1
 Normal termination of Gaussian 16 at Thu Jun 12 22:13:10 2025.
