 Entering Gaussian System, Link 0=g16
 Input=/home/gaussian/Documents/Summer_Internship/Acid_Base_adduct/Acid/BH3/ideal_pyramid_MX3/BH3_pyramid_opt.com
 Output=/home/gaussian/Documents/Summer_Internship/Acid_Base_adduct/Acid/BH3/ideal_pyramid_MX3/BH3_pyramid_opt.log
 Initial command:
 /usr/local/g16/l1.exe "/home/gaussian/tmp/Gau-30147.inp" -scrdir="/home/gaussian/tmp/"
 Entering Link 1 = /usr/local/g16/l1.exe PID=     30150.
  
 Copyright (c) 1988-2017, Gaussian, Inc.  All Rights Reserved.
  
 This is part of the Gaussian(R) 16 program.  It is based on
 the Gaussian(R) 09 system (copyright 2009, Gaussian, Inc.),
 the Gaussian(R) 03 system (copyright 2003, Gaussian, Inc.),
 the Gaussian(R) 98 system (copyright 1998, Gaussian, Inc.),
 the Gaussian(R) 94 system (copyright 1995, Gaussian, Inc.),
 the Gaussian 92(TM) system (copyright 1992, Gaussian, Inc.),
 the Gaussian 90(TM) system (copyright 1990, Gaussian, Inc.),
 the Gaussian 88(TM) system (copyright 1988, Gaussian, Inc.),
 the Gaussian 86(TM) system (copyright 1986, Carnegie Mellon
 University), and the Gaussian 82(TM) system (copyright 1983,
 Carnegie Mellon University). Gaussian is a federally registered
 trademark of Gaussian, Inc.
  
 This software contains proprietary and confidential information,
 including trade secrets, belonging to Gaussian, Inc.
  
 This software is provided under written license and may be
 used, copied, transmitted, or stored only in accord with that
 written license.
  
 The following legend is applicable only to US Government
 contracts under FAR:
  
                    RESTRICTED RIGHTS LEGEND
  
 Use, reproduction and disclosure by the US Government is
 subject to restrictions as set forth in subparagraphs (a)
 and (c) of the Commercial Computer Software - Restricted
 Rights clause in FAR 52.227-19.
  
 Gaussian, Inc.
 340 Quinnipiac St., Bldg. 40, Wallingford CT 06492
  
  
 ---------------------------------------------------------------
 Warning -- This program may not be used in any manner that
 competes with the business of Gaussian, Inc. or will provide
 assistance to any competitor of Gaussian, Inc.  The licensee
 of this program is prohibited from giving any competitor of
 Gaussian, Inc. access to this program.  By using this program,
 the user acknowledges that Gaussian, Inc. is engaged in the
 business of creating and licensing software in the field of
 computational chemistry and represents and warrants to the
 licensee that it is not a competitor of Gaussian, Inc. and that
 it will not use this program in any manner prohibited above.
 ---------------------------------------------------------------
  

 Cite this work as:
 Gaussian 16, Revision B.01,
 M. J. Frisch, G. W. Trucks, H. B. Schlegel, G. E. Scuseria, 
 M. A. Robb, J. R. Cheeseman, G. Scalmani, V. Barone, 
 G. A. Petersson, H. Nakatsuji, X. Li, M. Caricato, A. V. Marenich, 
 J. Bloino, B. G. Janesko, R. Gomperts, B. Mennucci, H. P. Hratchian, 
 J. V. Ortiz, A. F. Izmaylov, J. L. Sonnenberg, D. Williams-Young, 
 F. Ding, F. Lipparini, F. Egidi, J. Goings, B. Peng, A. Petrone, 
 T. Henderson, D. Ranasinghe, V. G. Zakrzewski, J. Gao, N. Rega, 
 G. Zheng, W. Liang, M. Hada, M. Ehara, K. Toyota, R. Fukuda, 
 J. Hasegawa, M. Ishida, T. Nakajima, Y. Honda, O. Kitao, H. Nakai, 
 T. Vreven, K. Throssell, J. A. Montgomery, Jr., J. E. Peralta, 
 F. Ogliaro, M. J. Bearpark, J. J. Heyd, E. N. Brothers, K. N. Kudin, 
 V. N. Staroverov, T. A. Keith, R. Kobayashi, J. Normand, 
 K. Raghavachari, A. P. Rendell, J. C. Burant, S. S. Iyengar, 
 J. Tomasi, M. Cossi, J. M. Millam, M. Klene, C. Adamo, R. Cammi, 
 J. W. Ochterski, R. L. Martin, K. Morokuma, O. Farkas, 
 J. B. Foresman, and D. J. Fox, Gaussian, Inc., Wallingford CT, 2016.
 
 ******************************************
 Gaussian 16:  EM64L-G16RevB.01 20-Dec-2017
                13-Jun-2025 
 ******************************************
 %chk=BH3_pyramid_opt.chk
 ----------------------------------------------
 # opt freq hf/3-21g pop=full geom=connectivity
 ----------------------------------------------
 1/18=20,19=15,38=1,57=2/1,3;
 2/9=110,12=2,17=6,18=5,40=1/2;
 3/5=5,11=9,25=1,30=1,71=1/1,2,3;
 4//1;
 5/5=2,38=5/2;
 6/7=3,28=1/1;
 7//1,2,3,16;
 1/18=20,19=15/3(2);
 2/9=110/2;
 99//99;
 2/9=110/2;
 3/5=5,11=9,25=1,30=1,71=1/1,2,3;
 4/5=5,16=3,69=1/1;
 5/5=2,38=5/2;
 7//1,2,3,16;
 1/18=20,19=15/3(-5);
 2/9=110/2;
 6/7=3,19=2,28=1/1;
 99/9=1/99;
 -------------------
 Title Card Required
 -------------------
 Symbolic Z-matrix:
 Charge =  0 Multiplicity = 1
 B                     0.        0.        0. 
 H                    -0.7164    0.7164   -0.7164 
 H                     0.7164   -0.7164   -0.7164 
 H                    -0.7164   -0.7164    0.7164 
 

 GradGradGradGradGradGradGradGradGradGradGradGradGradGradGradGradGradGrad
 Berny optimization.
 Initialization pass.
                           ----------------------------
                           !    Initial Parameters    !
                           ! (Angstroms and Degrees)  !
 --------------------------                            --------------------------
 ! Name  Definition              Value          Derivative Info.                !
 --------------------------------------------------------------------------------
 ! R1    R(1,2)                  1.2408         estimate D2E/DX2                !
 ! R2    R(1,3)                  1.2408         estimate D2E/DX2                !
 ! R3    R(1,4)                  1.2408         estimate D2E/DX2                !
 ! A1    A(2,1,3)              109.4712         estimate D2E/DX2                !
 ! A2    A(2,1,4)              109.4712         estimate D2E/DX2                !
 ! A3    A(3,1,4)              109.4712         estimate D2E/DX2                !
 ! D1    D(2,1,4,3)            120.0            estimate D2E/DX2                !
 --------------------------------------------------------------------------------
 Trust Radius=3.00D-01 FncErr=1.00D-07 GrdErr=1.00D-07 EigMax=2.50D+02 EigMin=1.00D-04
 Number of steps in this run=     20 maximum allowed number of steps=    100.
 GradGradGradGradGradGradGradGradGradGradGradGradGradGradGradGradGradGrad

                          Input orientation:                          
 ---------------------------------------------------------------------
 Center     Atomic      Atomic             Coordinates (Angstroms)
 Number     Number       Type             X           Y           Z
 ---------------------------------------------------------------------
      1          5           0        0.000000    0.000000    0.000000
      2          1           0       -0.716403    0.716403   -0.716403
      3          1           0        0.716403   -0.716403   -0.716403
      4          1           0       -0.716403   -0.716403    0.716403
 ---------------------------------------------------------------------
                    Distance matrix (angstroms):
                    1          2          3          4
     1  B    0.000000
     2  H    1.240846   0.000000
     3  H    1.240846   2.026294   0.000000
     4  H    1.240846   2.026294   2.026294   0.000000
 Stoichiometry    BH3
 Framework group  C3V[C3(B),3SGV(H)]
 Deg. of freedom     2
 Full point group                 C3V     NOp   6
 Largest Abelian subgroup         CS      NOp   2
 Largest concise Abelian subgroup CS      NOp   2
                         Standard orientation:                         
 ---------------------------------------------------------------------
 Center     Atomic      Atomic             Coordinates (Angstroms)
 Number     Number       Type             X           Y           Z
 ---------------------------------------------------------------------
      1          5           0       -0.000000   -0.000000    0.155106
      2          1           0        0.000000    1.169881   -0.258510
      3          1           0        1.013147   -0.584941   -0.258510
      4          1           0       -1.013147   -0.584941   -0.258510
 ---------------------------------------------------------------------
 Rotational constants (GHZ):         204.2099484         204.2099484         122.1313838
 Standard basis: 3-21G (6D, 7F)
 There are    11 symmetry adapted cartesian basis functions of A'  symmetry.
 There are     4 symmetry adapted cartesian basis functions of A"  symmetry.
 There are    11 symmetry adapted basis functions of A'  symmetry.
 There are     4 symmetry adapted basis functions of A"  symmetry.
    15 basis functions,    24 primitive gaussians,    15 cartesian basis functions
     4 alpha electrons        4 beta electrons
       nuclear repulsion energy         7.1804365267 Hartrees.
 NAtoms=    4 NActive=    4 NUniq=    2 SFac= 4.00D+00 NAtFMM=   60 NAOKFM=F Big=F
 Integral buffers will be    131072 words long.
 Raffenetti 1 integral format.
 Two-electron integral symmetry is turned on.
 One-electron integrals computed using PRISM.
 NBasis=    15 RedAO= T EigKep=  2.83D-02  NBF=    11     4
 NBsUse=    15 1.00D-06 EigRej= -1.00D+00 NBFU=    11     4
 ExpMin= 1.24D-01 ExpMax= 1.16D+02 ExpMxC= 1.16D+02 IAcc=3 IRadAn=         5 AccDes= 0.00D+00
 Harris functional with IExCor=  205 and IRadAn=       5 diagonalized for initial guess.
 HarFok:  IExCor=  205 AccDes= 0.00D+00 IRadAn=         5 IDoV= 1 UseB2=F ITyADJ=14
 ICtDFT=  3500011 ScaDFX=  1.000000  1.000000  1.000000  1.000000
 FoFCou: FMM=F IPFlag=           0 FMFlag=      100000 FMFlg1=           0
         NFxFlg=           0 DoJE=T BraDBF=F KetDBF=T FulRan=T
         wScrn=  0.000000 ICntrl=       500 IOpCl=  0 I1Cent=   200000004 NGrid=           0
         NMat0=    1 NMatS0=      1 NMatT0=    0 NMatD0=    1 NMtDS0=    0 NMtDT0=    0
 Petite list used in FoFCou.
 Initial guess orbital symmetries:
       Occupied  (A1) (A1) (E) (E)
       Virtual   (A1) (E) (E) (A1) (E) (E) (A1) (A1) (A1) (E) (E)
 The electronic state of the initial guess is 1-A1.
 Keep R1 ints in memory in symmetry-blocked form, NReq=811246.
 Requested convergence on RMS density matrix=1.00D-08 within 128 cycles.
 Requested convergence on MAX density matrix=1.00D-06.
 Requested convergence on             energy=1.00D-06.
 No special actions if energy rises.
 SCF Done:  E(RHF) =  -26.1961117322     A.U. after    8 cycles
            NFock=  8  Conv=0.61D-08     -V/T= 2.0085

 **********************************************************************

            Population analysis using the SCF Density.

 **********************************************************************

 Orbital symmetries:
       Occupied  (A1) (A1) (E) (E)
       Virtual   (A1) (E) (E) (A1) (E) (E) (A1) (A1) (E) (E) (A1)
 The electronic state is 1-A1.
 Alpha  occ. eigenvalues --   -7.59606  -0.69987  -0.47278  -0.47278
 Alpha virt. eigenvalues --    0.04238   0.29716   0.29716   0.37404   0.60581
 Alpha virt. eigenvalues --    0.60581   0.66202   0.85210   1.37111   1.37111
 Alpha virt. eigenvalues --    1.37333
     Molecular Orbital Coefficients:
                           1         2         3         4         5
                        (A1)--O   (A1)--O   (E)--O    (E)--O    (A1)--V
     Eigenvalues --    -7.59606  -0.69987  -0.47278  -0.47278   0.04238
   1 1   B  1S          0.98804  -0.18968  -0.00000   0.00000  -0.06585
   2        2S          0.08740   0.23893   0.00000   0.00000   0.04064
   3        2PX         0.00000   0.00000   0.00000   0.36688   0.00000
   4        2PY         0.00000  -0.00000   0.36688   0.00000   0.00000
   5        2PZ         0.00065  -0.06763   0.00000   0.00000   0.31432
   6        3S         -0.05562   0.41552  -0.00000   0.00000   0.41107
   7        3PX         0.00000   0.00000   0.00000   0.20474   0.00000
   8        3PY        -0.00000   0.00000   0.20474   0.00000   0.00000
   9        3PZ         0.00711  -0.01923   0.00000   0.00000   0.68190
  10 2   H  1S         -0.00402   0.14953   0.24664   0.00000  -0.04602
  11        2S          0.01459   0.11419   0.33381   0.00000  -0.08644
  12 3   H  1S         -0.00402   0.14953  -0.12332   0.21359  -0.04602
  13        2S          0.01459   0.11419  -0.16691   0.28909  -0.08644
  14 4   H  1S         -0.00402   0.14953  -0.12332  -0.21359  -0.04602
  15        2S          0.01459   0.11419  -0.16691  -0.28909  -0.08644
                           6         7         8         9        10
                        (E)--V    (E)--V    (A1)--V   (E)--V    (E)--V
     Eigenvalues --     0.29716   0.29716   0.37404   0.60581   0.60581
   1 1   B  1S         -0.00000   0.00000  -0.16631   0.00000   0.00000
   2        2S         -0.00000   0.00000   0.16972  -0.00000   0.00000
   3        2PX         0.00000   0.17452   0.00000   0.00000   1.05790
   4        2PY         0.17452   0.00000  -0.00000   1.05790   0.00000
   5        2PZ        -0.00000   0.00000  -0.07586   0.00000   0.00000
   6        3S          0.00000   0.00000   2.86479   0.00000   0.00000
   7        3PX         0.00000   1.72639   0.00000   0.00000  -0.91175
   8        3PY         1.72639   0.00000  -0.00000  -0.91175   0.00000
   9        3PZ        -0.00000   0.00000  -1.01428  -0.00000   0.00000
  10 2   H  1S         -0.10106   0.00000  -0.02463   0.15595   0.00000
  11        2S         -1.59742   0.00000  -1.48519  -0.17559   0.00000
  12 3   H  1S          0.05053  -0.08752  -0.02463  -0.07797   0.13506
  13        2S          0.79871  -1.38340  -1.48519   0.08780  -0.15207
  14 4   H  1S          0.05053   0.08752  -0.02463  -0.07797  -0.13506
  15        2S          0.79871   1.38340  -1.48519   0.08780   0.15207
                          11        12        13        14        15
                        (A1)--V   (A1)--V   (E)--V    (E)--V    (A1)--V
     Eigenvalues --     0.66202   0.85210   1.37111   1.37111   1.37333
   1 1   B  1S         -0.01696  -0.00004  -0.00000   0.00000   0.06909
   2        2S         -0.05802  -1.51893   0.00000   0.00000  -0.89671
   3        2PX         0.00000   0.00000   0.00000   0.45549   0.00000
   4        2PY        -0.00000  -0.00000   0.45549   0.00000   0.00000
   5        2PZ         1.12649  -0.15349  -0.00000   0.00000   0.21935
   6        3S          0.18309   2.56882  -0.00000   0.00000   2.46251
   7        3PX         0.00000   0.00000   0.00000  -0.87416   0.00000
   8        3PY         0.00000  -0.00000  -0.87416   0.00000  -0.00000
   9        3PZ        -0.95376  -0.37201   0.00000   0.00000  -0.58673
  10 2   H  1S         -0.07778  -0.27236  -1.11142   0.00000   0.71774
  11        2S         -0.01234  -0.48192   1.53740   0.00000  -1.28229
  12 3   H  1S         -0.07778  -0.27236   0.55571  -0.96252   0.71774
  13        2S         -0.01234  -0.48192  -0.76870   1.33143  -1.28229
  14 4   H  1S         -0.07778  -0.27236   0.55571   0.96252   0.71774
  15        2S         -0.01234  -0.48192  -0.76870  -1.33143  -1.28229
     Density Matrix:
                           1         2         3         4         5
   1 1   B  1S          2.02438
   2        2S          0.08207   0.12946
   3        2PX        -0.00000   0.00000   0.26920
   4        2PY         0.00000  -0.00000   0.00000   0.26920
   5        2PZ         0.02694  -0.03220  -0.00000   0.00000   0.00915
   6        3S         -0.26754   0.18884   0.00000  -0.00000  -0.05627
   7        3PX        -0.00000   0.00000   0.15023   0.00000  -0.00000
   8        3PY         0.00000  -0.00000   0.00000   0.15023   0.00000
   9        3PZ         0.02134  -0.00795  -0.00000   0.00000   0.00261
  10 2   H  1S         -0.06468   0.07075   0.00000   0.18097  -0.02023
  11        2S         -0.01448   0.05712   0.00000   0.24494  -0.01543
  12 3   H  1S         -0.06468   0.07075   0.15673  -0.09049  -0.02023
  13        2S         -0.01448   0.05712   0.21212  -0.12247  -0.01543
  14 4   H  1S         -0.06468   0.07075  -0.15673  -0.09049  -0.02023
  15        2S         -0.01448   0.05712  -0.21212  -0.12247  -0.01543
                           6         7         8         9        10
   6        3S          0.35150
   7        3PX         0.00000   0.08384
   8        3PY        -0.00000   0.00000   0.08384
   9        3PZ        -0.01677  -0.00000   0.00000   0.00084
  10 2   H  1S          0.12471   0.00000   0.10099  -0.00581   0.16641
  11        2S          0.09327   0.00000   0.13669  -0.00418   0.19869
  12 3   H  1S          0.12471   0.08746  -0.05050  -0.00581  -0.01608
  13        2S          0.09327   0.11838  -0.06834  -0.00418  -0.04830
  14 4   H  1S          0.12471  -0.08746  -0.05050  -0.00581  -0.01608
  15        2S          0.09327  -0.11838  -0.06834  -0.00418  -0.04830
                          11        12        13        14        15
  11        2S          0.24936
  12 3   H  1S         -0.04830   0.16641
  13        2S         -0.08492   0.19869   0.24936
  14 4   H  1S         -0.04830  -0.01608  -0.04830   0.16641
  15        2S         -0.08492  -0.04830  -0.08492   0.19869   0.24936
    Full Mulliken population analysis:
                           1         2         3         4         5
   1 1   B  1S          2.02438
   2        2S          0.01501   0.12946
   3        2PX         0.00000   0.00000   0.26920
   4        2PY         0.00000   0.00000   0.00000   0.26920
   5        2PZ         0.00000   0.00000   0.00000   0.00000   0.00915
   6        3S         -0.04651   0.14641   0.00000   0.00000   0.00000
   7        3PX         0.00000   0.00000   0.08282   0.00000   0.00000
   8        3PY         0.00000   0.00000   0.00000   0.08282   0.00000
   9        3PZ         0.00000   0.00000   0.00000   0.00000   0.00144
  10 2   H  1S         -0.00076   0.01388   0.00000   0.05473   0.00216
  11        2S         -0.00126   0.02527   0.00000   0.07923   0.00176
  12 3   H  1S         -0.00076   0.01388   0.04105   0.01368   0.00216
  13        2S         -0.00126   0.02527   0.05942   0.01981   0.00176
  14 4   H  1S         -0.00076   0.01388   0.04105   0.01368   0.00216
  15        2S         -0.00126   0.02527   0.05942   0.01981   0.00176
                           6         7         8         9        10
   6        3S          0.35150
   7        3PX         0.00000   0.08384
   8        3PY         0.00000   0.00000   0.08384
   9        3PZ         0.00000   0.00000   0.00000   0.00084
  10 2   H  1S          0.03614   0.00000   0.03987   0.00081   0.16641
  11        2S          0.06036   0.00000   0.08215   0.00089   0.12834
  12 3   H  1S          0.03614   0.02990   0.00997   0.00081  -0.00003
  13        2S          0.06036   0.06161   0.02054   0.00089  -0.00341
  14 4   H  1S          0.03614   0.02990   0.00997   0.00081  -0.00003
  15        2S          0.06036   0.06161   0.02054   0.00089  -0.00341
                          11        12        13        14        15
  11        2S          0.24936
  12 3   H  1S         -0.00341   0.16641
  13        2S         -0.02217   0.12834   0.24936
  14 4   H  1S         -0.00341  -0.00003  -0.00341   0.16641
  15        2S         -0.02217  -0.00341  -0.02217   0.12834   0.24936
     Gross orbital populations:
                           1
   1 1   B  1S          1.98682
   2        2S          0.40831
   3        2PX         0.55297
   4        2PY         0.55297
   5        2PZ         0.02237
   6        3S          0.74088
   7        3PX         0.34968
   8        3PY         0.34968
   9        3PZ         0.00738
  10 2   H  1S          0.43470
  11        2S          0.57495
  12 3   H  1S          0.43470
  13        2S          0.57495
  14 4   H  1S          0.43470
  15        2S          0.57495
          Condensed to atoms (all electrons):
               1          2          3          4
     1  B    3.785357   0.395231   0.395231   0.395231
     2  H    0.395231   0.672445  -0.029013  -0.029013
     3  H    0.395231  -0.029013   0.672445  -0.029013
     4  H    0.395231  -0.029013  -0.029013   0.672445
 Mulliken charges:
               1
     1  B    0.028950
     2  H   -0.009650
     3  H   -0.009650
     4  H   -0.009650
 Sum of Mulliken charges =   0.00000
 Mulliken charges with hydrogens summed into heavy atoms:
               1
     1  B    0.000000
 Electronic spatial extent (au):  <R**2>=             35.9898
 Charge=              0.0000 electrons
 Dipole moment (field-independent basis, Debye):
    X=             -0.0000    Y=             -0.0000    Z=              1.0708  Tot=              1.0708
 Quadrupole moment (field-independent basis, Debye-Ang):
   XX=            -10.0425   YY=            -10.0425   ZZ=             -7.0605
   XY=              0.0000   XZ=              0.0000   YZ=              0.0000
 Traceless Quadrupole moment (field-independent basis, Debye-Ang):
   XX=             -0.9940   YY=             -0.9940   ZZ=              1.9880
   XY=              0.0000   XZ=              0.0000   YZ=              0.0000
 Octapole moment (field-independent basis, Debye-Ang**2):
  XXX=              0.0000  YYY=             -0.2075  ZZZ=              1.3631  XYY=             -0.0000
  XXY=              0.2075  XXZ=             -0.0450  XZZ=              0.0000  YZZ=              0.0000
  YYZ=             -0.0450  XYZ=             -0.0000
 Hexadecapole moment (field-independent basis, Debye-Ang**3):
 XXXX=            -25.7268 YYYY=            -25.7268 ZZZZ=             -8.8900 XXXY=              0.0000
 XXXZ=              0.0000 YYYX=             -0.0000 YYYZ=             -0.2132 ZZZX=              0.0000
 ZZZY=             -0.0000 XXYY=             -8.5756 XXZZ=             -5.7605 YYZZ=             -5.7605
 XXYZ=              0.2132 YYXZ=              0.0000 ZZXY=             -0.0000
 N-N= 7.180436526706D+00 E-N=-7.424584196828D+01  KE= 2.597569902887D+01
 Symmetry A'   KE= 2.461301472402D+01
 Symmetry A"   KE= 1.362684304847D+00
 Orbital energies and kinetic energies (alpha):
                                 1                 2
   1         (A1)--O          -7.596061         10.805967
   2         (A1)--O          -0.699865          0.819198
   3         (E)--O           -0.472775          0.681342
   4         (E)--O           -0.472775          0.681342
   5         (A1)--V           0.042378          0.544187
   6         (E)--V            0.297160          0.573589
   7         (E)--V            0.297160          0.573589
   8         (A1)--V           0.374038          0.962937
   9         (E)--V            0.605815          1.516933
  10         (E)--V            0.605815          1.516933
  11         (A1)--V           0.662023          1.697384
  12         (A1)--V           0.852103          1.458245
  13         (E)--V            1.371108          2.436733
  14         (E)--V            1.371108          2.436733
  15         (A1)--V           1.373330          2.556857
 Total kinetic energy from orbitals= 2.597569902887D+01
 Calling FoFJK, ICntrl=      2127 FMM=F ISym2X=1 I1Cent= 0 IOpClX= 0 NMat=1 NMatS=1 NMatT=0.
 ***** Axes restored to original set *****
 -------------------------------------------------------------------
 Center     Atomic                   Forces (Hartrees/Bohr)
 Number     Number              X              Y              Z
 -------------------------------------------------------------------
      1        5          -0.063237146   -0.063237146   -0.063237146
      2        1           0.024589282    0.014058581    0.024589282
      3        1           0.014058581    0.024589282    0.024589282
      4        1           0.024589282    0.024589282    0.014058581
 -------------------------------------------------------------------
 Cartesian Forces:  Max     0.063237146 RMS     0.036762229

 GradGradGradGradGradGradGradGradGradGradGradGradGradGradGradGradGradGrad
 Berny optimization.
 FormGI is forming the generalized inverse of G from B-inverse, IUseBI=4.
 Internal  Forces:  Max     0.055768507 RMS     0.032843476
 Search for a local minimum.
 Step number   1 out of a maximum of   20
 All quantities printed in internal units (Hartrees-Bohrs-Radians)
 Mixed Optimization -- RFO/linear search
 Second derivative matrix not updated -- first step.
 The second derivative matrix:
                          R1        R2        R3        A1        A2
           R1           0.21909
           R2           0.00000   0.21909
           R3           0.00000   0.00000   0.21909
           A1           0.00000   0.00000   0.00000   0.16000
           A2           0.00000   0.00000   0.00000   0.00000   0.16000
           A3           0.00000   0.00000   0.00000   0.00000   0.00000
           D1           0.00000   0.00000   0.00000   0.00000   0.00000
                          A3        D1
           A3           0.16000
           D1           0.00000   0.00230
 ITU=  0
     Eigenvalues ---    0.05082   0.16000   0.16000   0.21909   0.21909
     Eigenvalues ---    0.21909
 RFO step:  Lambda=-5.53026815D-02 EMin= 5.08230769D-02
 Linear search not attempted -- first point.
 Maximum step size (   0.300) exceeded in Quadratic search.
    -- Step size scaled by   0.705
 Iteration  1 RMS(Cart)=  0.09595765 RMS(Int)=  0.05631889
 Iteration  2 RMS(Cart)=  0.02953029 RMS(Int)=  0.02732690
 Iteration  3 RMS(Cart)=  0.00204343 RMS(Int)=  0.02723357
 Iteration  4 RMS(Cart)=  0.00007865 RMS(Int)=  0.02723341
 Iteration  5 RMS(Cart)=  0.00000389 RMS(Int)=  0.02723341
 Iteration  6 RMS(Cart)=  0.00000019 RMS(Int)=  0.02723341
 ClnCor:  largest displacement from symmetrization is 3.85D-02 for atom     4.
 Variable       Old X    -DE/DX   Delta X   Delta X   Delta X     New X
                                 (Linear)    (Quad)   (Total)
    R1        2.34486  -0.02028   0.00000  -0.05207  -0.06397   2.28089
    R2        2.34486  -0.02028   0.00000  -0.05207  -0.06397   2.28089
    R3        2.34486  -0.02028   0.00000  -0.05207  -0.06397   2.28089
    A1        1.91063   0.00569   0.00000   0.12084   0.12056   2.03120
    A2        1.91063   0.03984   0.00000   0.18151   0.12056   2.03120
    A3        1.91063   0.03984   0.00000   0.18151   0.12056   2.03120
    D1        2.09440   0.05577   0.00000   0.37030   0.40295   2.49735
         Item               Value     Threshold  Converged?
 Maximum Force            0.055769     0.000450     NO 
 RMS     Force            0.032843     0.000300     NO 
 Maximum Displacement     0.149643     0.001800     NO 
 RMS     Displacement     0.113428     0.001200     NO 
 Predicted change in Energy=-3.163676D-02
 GradGradGradGradGradGradGradGradGradGradGradGradGradGradGradGradGradGrad

                          Input orientation:                          
 ---------------------------------------------------------------------
 Center     Atomic      Atomic             Coordinates (Angstroms)
 Number     Number       Type             X           Y           Z
 ---------------------------------------------------------------------
      1          5           0       -0.079188   -0.079188   -0.079188
      2          1           0       -0.696984    0.753575   -0.696984
      3          1           0        0.753575   -0.696984   -0.696984
      4          1           0       -0.696984   -0.696984    0.753575
 ---------------------------------------------------------------------
                    Distance matrix (angstroms):
                    1          2          3          4
     1  B    0.000000
     2  H    1.206995   0.000000
     3  H    1.206995   2.051399   0.000000
     4  H    1.206995   2.051399   2.051399   0.000000
 Stoichiometry    BH3
 Framework group  C3V[C3(B),3SGV(H)]
 Deg. of freedom     2
 Full point group                 C3V     NOp   6
 Largest Abelian subgroup         CS      NOp   2
 Largest concise Abelian subgroup CS      NOp   2
                         Standard orientation:                         
 ---------------------------------------------------------------------
 Center     Atomic      Atomic             Coordinates (Angstroms)
 Number     Number       Type             X           Y           Z
 ---------------------------------------------------------------------
      1          5           0        0.000000    0.000000    0.087215
      2          1           0       -0.000000    1.184376   -0.145359
      3          1           0        1.025700   -0.592188   -0.145359
      4          1           0       -1.025700   -0.592188   -0.145359
 ---------------------------------------------------------------------
 Rotational constants (GHZ):         224.7238396         224.7238396         119.1603409
 Standard basis: 3-21G (6D, 7F)
 There are    11 symmetry adapted cartesian basis functions of A'  symmetry.
 There are     4 symmetry adapted cartesian basis functions of A"  symmetry.
 There are    11 symmetry adapted basis functions of A'  symmetry.
 There are     4 symmetry adapted basis functions of A"  symmetry.
    15 basis functions,    24 primitive gaussians,    15 cartesian basis functions
     4 alpha electrons        4 beta electrons
       nuclear repulsion energy         7.3502583917 Hartrees.
 NAtoms=    4 NActive=    4 NUniq=    2 SFac= 4.00D+00 NAtFMM=   60 NAOKFM=F Big=F
 Integral buffers will be    131072 words long.
 Raffenetti 1 integral format.
 Two-electron integral symmetry is turned on.
 One-electron integrals computed using PRISM.
 NBasis=    15 RedAO= T EigKep=  3.39D-02  NBF=    11     4
 NBsUse=    15 1.00D-06 EigRej= -1.00D+00 NBFU=    11     4
 Initial guess from the checkpoint file:  "BH3_pyramid_opt.chk"
 B after Tr=     0.000000   -0.000000   -0.000000
         Rot=    1.000000    0.000000    0.000000   -0.000000 Ang=   0.00 deg.
 Initial guess orbital symmetries:
       Occupied  (A1) (A1) (E) (E)
       Virtual   (A1) (E) (E) (A1) (E) (E) (A1) (A1) (E) (E) (A1)
 ExpMin= 1.24D-01 ExpMax= 1.16D+02 ExpMxC= 1.16D+02 IAcc=3 IRadAn=         5 AccDes= 0.00D+00
 Harris functional with IExCor=  205 and IRadAn=       5 diagonalized for initial guess.
 HarFok:  IExCor=  205 AccDes= 0.00D+00 IRadAn=         5 IDoV= 1 UseB2=F ITyADJ=14
 ICtDFT=  3500011 ScaDFX=  1.000000  1.000000  1.000000  1.000000
 FoFCou: FMM=F IPFlag=           0 FMFlag=      100000 FMFlg1=           0
         NFxFlg=           0 DoJE=T BraDBF=F KetDBF=T FulRan=T
         wScrn=  0.000000 ICntrl=       500 IOpCl=  0 I1Cent=   200000004 NGrid=           0
         NMat0=    1 NMatS0=      1 NMatT0=    0 NMatD0=    1 NMtDS0=    0 NMtDT0=    0
 Petite list used in FoFCou.
 Keep R1 ints in memory in symmetry-blocked form, NReq=811246.
 Requested convergence on RMS density matrix=1.00D-08 within 128 cycles.
 Requested convergence on MAX density matrix=1.00D-06.
 Requested convergence on             energy=1.00D-06.
 No special actions if energy rises.
 SCF Done:  E(RHF) =  -26.2244245897     A.U. after    8 cycles
            NFock=  8  Conv=0.99D-08     -V/T= 2.0055
 Calling FoFJK, ICntrl=      2127 FMM=F ISym2X=1 I1Cent= 0 IOpClX= 0 NMat=1 NMatS=1 NMatT=0.
 ***** Axes restored to original set *****
 -------------------------------------------------------------------
 Center     Atomic                   Forces (Hartrees/Bohr)
 Number     Number              X              Y              Z
 -------------------------------------------------------------------
      1        5          -0.034465529   -0.034465529   -0.034465529
      2        1           0.013327761    0.007810007    0.013327761
      3        1           0.007810007    0.013327761    0.013327761
      4        1           0.013327761    0.013327761    0.007810007
 -------------------------------------------------------------------
 Cartesian Forces:  Max     0.034465529 RMS     0.020025779

 GradGradGradGradGradGradGradGradGradGradGradGradGradGradGradGradGradGrad
 Berny optimization.
 Using GEDIIS/GDIIS optimizer.
 FormGI is forming the generalized inverse of G from B-inverse, IUseBI=4.
 Internal  Forces:  Max     0.036600969 RMS     0.016360191
 Search for a local minimum.
 Step number   2 out of a maximum of   20
 All quantities printed in internal units (Hartrees-Bohrs-Radians)
 Mixed Optimization -- RFO/linear search
 Update second derivatives using D2CorX and points    1    2
 DE= -2.83D-02 DEPred=-3.16D-02 R= 8.95D-01
 TightC=F SS=  1.41D+00  RLast= 4.67D-01 DXNew= 5.0454D-01 1.4015D+00
 Trust test= 8.95D-01 RLast= 4.67D-01 DXMaxT set to 5.05D-01
 The second derivative matrix:
                          R1        R2        R3        A1        A2
           R1           0.20786
           R2          -0.01122   0.20786
           R3          -0.01122  -0.01122   0.20786
           A1           0.02242   0.02242   0.02242   0.12538
           A2           0.00818   0.00818   0.00818  -0.02692   0.16507
           A3           0.00818   0.00818   0.00818  -0.02692   0.00507
           D1          -0.01200  -0.01200  -0.01200   0.00541   0.02810
                          A3        D1
           A3           0.16507
           D1           0.02810   0.02341
 ITU=  1  0
 Use linear search instead of GDIIS.
     Eigenvalues ---    0.04787   0.16000   0.17064   0.20429   0.21909
     Eigenvalues ---    0.21909
 RFO step:  Lambda=-1.16716858D-03 EMin= 4.78677491D-02
 Quartic linear search produced a step of  0.91144.
 Iteration  1 RMS(Cart)=  0.06112267 RMS(Int)=  0.10377207
 Iteration  2 RMS(Cart)=  0.05024534 RMS(Int)=  0.04662409
 Iteration  3 RMS(Cart)=  0.00423200 RMS(Int)=  0.04631045
 Iteration  4 RMS(Cart)=  0.00015258 RMS(Int)=  0.04630980
 Iteration  5 RMS(Cart)=  0.00001013 RMS(Int)=  0.04630980
 Iteration  6 RMS(Cart)=  0.00000067 RMS(Int)=  0.04630980
 ClnCor:  largest displacement from symmetrization is 3.29D-02 for atom     4.
 Variable       Old X    -DE/DX   Delta X   Delta X   Delta X     New X
                                 (Linear)    (Quad)   (Total)
    R1        2.28089  -0.00826  -0.05830   0.01973  -0.02819   2.25270
    R2        2.28089  -0.00826  -0.05830   0.01973  -0.02819   2.25270
    R3        2.28089  -0.00826  -0.05830   0.01973  -0.02819   2.25270
    A1        2.03120  -0.00081   0.10989   0.06582   0.05981   2.09101
    A2        2.03120   0.01282   0.10989  -0.00248   0.05981   2.09101
    A3        2.03120   0.01282   0.10989  -0.00248   0.05981   2.09101
    D1        2.49735   0.03660   0.36727   0.11496   0.49130   2.98865
         Item               Value     Threshold  Converged?
 Maximum Force            0.036601     0.000450     NO 
 RMS     Force            0.016360     0.000300     NO 
 Maximum Displacement     0.146439     0.001800     NO 
 RMS     Displacement     0.111539     0.001200     NO 
 Predicted change in Energy=-1.436516D-02
 GradGradGradGradGradGradGradGradGradGradGradGradGradGradGradGradGradGrad

                          Input orientation:                          
 ---------------------------------------------------------------------
 Center     Atomic      Atomic             Coordinates (Angstroms)
 Number     Number       Type             X           Y           Z
 ---------------------------------------------------------------------
      1          5           0       -0.156680   -0.156680   -0.156680
      2          1           0       -0.673312    0.785247   -0.673312
      3          1           0        0.785247   -0.673312   -0.673312
      4          1           0       -0.673312   -0.673312    0.785247
 ---------------------------------------------------------------------
                    Distance matrix (angstroms):
                    1          2          3          4
     1  B    0.000000
     2  H    1.192076   0.000000
     3  H    1.192076   2.062715   0.000000
     4  H    1.192076   2.062715   2.062715   0.000000
 Stoichiometry    BH3
 Framework group  C3V[C3(B),3SGV(H)]
 Deg. of freedom     2
 Full point group                 C3V     NOp   6
 Largest Abelian subgroup         CS      NOp   2
 Largest concise Abelian subgroup CS      NOp   2
                         Standard orientation:                         
 ---------------------------------------------------------------------
 Center     Atomic      Atomic             Coordinates (Angstroms)
 Number     Number       Type             X           Y           Z
 ---------------------------------------------------------------------
      1          5           0       -0.000000   -0.000000    0.019775
      2          1           0        0.000000    1.190909   -0.032959
      3          1           0        1.031357   -0.595454   -0.032959
      4          1           0       -1.031357   -0.595454   -0.032959
 ---------------------------------------------------------------------
 Rotational constants (GHZ):         234.9901335         234.9901335         117.8565491
 Standard basis: 3-21G (6D, 7F)
 There are    11 symmetry adapted cartesian basis functions of A'  symmetry.
 There are     4 symmetry adapted cartesian basis functions of A"  symmetry.
 There are    11 symmetry adapted basis functions of A'  symmetry.
 There are     4 symmetry adapted basis functions of A"  symmetry.
    15 basis functions,    24 primitive gaussians,    15 cartesian basis functions
     4 alpha electrons        4 beta electrons
       nuclear repulsion energy         7.4283176027 Hartrees.
 NAtoms=    4 NActive=    4 NUniq=    2 SFac= 4.00D+00 NAtFMM=   60 NAOKFM=F Big=F
 Integral buffers will be    131072 words long.
 Raffenetti 1 integral format.
 Two-electron integral symmetry is turned on.
 One-electron integrals computed using PRISM.
 NBasis=    15 RedAO= T EigKep=  3.68D-02  NBF=    11     4
 NBsUse=    15 1.00D-06 EigRej= -1.00D+00 NBFU=    11     4
 Initial guess from the checkpoint file:  "BH3_pyramid_opt.chk"
 B after Tr=    -0.000000    0.000000   -0.000000
         Rot=    1.000000    0.000000   -0.000000    0.000000 Ang=   0.00 deg.
 Initial guess orbital symmetries:
       Occupied  (A1) (A1) (E) (E)
       Virtual   (A1) (E) (E) (A1) (E) (E) (A1) (A1) (A1) (E) (E)
 ExpMin= 1.24D-01 ExpMax= 1.16D+02 ExpMxC= 1.16D+02 IAcc=3 IRadAn=         5 AccDes= 0.00D+00
 Harris functional with IExCor=  205 and IRadAn=       5 diagonalized for initial guess.
 HarFok:  IExCor=  205 AccDes= 0.00D+00 IRadAn=         5 IDoV= 1 UseB2=F ITyADJ=14
 ICtDFT=  3500011 ScaDFX=  1.000000  1.000000  1.000000  1.000000
 FoFCou: FMM=F IPFlag=           0 FMFlag=      100000 FMFlg1=           0
         NFxFlg=           0 DoJE=T BraDBF=F KetDBF=T FulRan=T
         wScrn=  0.000000 ICntrl=       500 IOpCl=  0 I1Cent=   200000004 NGrid=           0
         NMat0=    1 NMatS0=      1 NMatT0=    0 NMatD0=    1 NMtDS0=    0 NMtDT0=    0
 Petite list used in FoFCou.
 Keep R1 ints in memory in symmetry-blocked form, NReq=811246.
 Requested convergence on RMS density matrix=1.00D-08 within 128 cycles.
 Requested convergence on MAX density matrix=1.00D-06.
 Requested convergence on             energy=1.00D-06.
 No special actions if energy rises.
 SCF Done:  E(RHF) =  -26.2366262491     A.U. after    8 cycles
            NFock=  8  Conv=0.13D-08     -V/T= 2.0041
 Calling FoFJK, ICntrl=      2127 FMM=F ISym2X=1 I1Cent= 0 IOpClX= 0 NMat=1 NMatS=1 NMatT=0.
 ***** Axes restored to original set *****
 -------------------------------------------------------------------
 Center     Atomic                   Forces (Hartrees/Bohr)
 Number     Number              X              Y              Z
 -------------------------------------------------------------------
      1        5          -0.007658174   -0.007658174   -0.007658174
      2        1           0.003366980    0.000924214    0.003366980
      3        1           0.000924214    0.003366980    0.003366980
      4        1           0.003366980    0.003366980    0.000924214
 -------------------------------------------------------------------
 Cartesian Forces:  Max     0.007658174 RMS     0.004532519

 GradGradGradGradGradGradGradGradGradGradGradGradGradGradGradGradGradGrad
 Berny optimization.
 Using GEDIIS/GDIIS optimizer.
 FormGI is forming the generalized inverse of G from B-inverse, IUseBI=4.
 Internal  Forces:  Max     0.008452829 RMS     0.003517565
 Search for a local minimum.
 Step number   3 out of a maximum of   20
 All quantities printed in internal units (Hartrees-Bohrs-Radians)
 Mixed Optimization -- RFO/linear search
 Update second derivatives using D2CorX and points    2    3
 DE= -1.22D-02 DEPred=-1.44D-02 R= 8.49D-01
 TightC=F SS=  1.41D+00  RLast= 5.04D-01 DXNew= 8.4853D-01 1.5134D+00
 Trust test= 8.49D-01 RLast= 5.04D-01 DXMaxT set to 8.49D-01
 The second derivative matrix:
                          R1        R2        R3        A1        A2
           R1           0.20352
           R2          -0.01557   0.20352
           R3          -0.01557  -0.01557   0.20352
           A1           0.02651   0.02651   0.02651   0.12322
           A2           0.01994   0.01994   0.01994  -0.03688   0.13399
           A3           0.01994   0.01994   0.01994  -0.03688  -0.02601
           D1          -0.01054  -0.01054  -0.01054  -0.00287   0.01960
                          A3        D1
           A3           0.13399
           D1           0.01960   0.05105
 ITU=  1  1  0
 Use linear search instead of GDIIS.
     Eigenvalues ---    0.05008   0.16000   0.16104   0.18299   0.21909
     Eigenvalues ---    0.21909
 RFO step:  Lambda=-4.78403390D-05 EMin= 5.00816455D-02
 Quartic linear search produced a step of  0.29149.
 Iteration  1 RMS(Cart)=  0.03413909 RMS(Int)=  0.00963227
 Iteration  2 RMS(Cart)=  0.00156140 RMS(Int)=  0.00949080
 Iteration  3 RMS(Cart)=  0.00000490 RMS(Int)=  0.00949079
 Iteration  4 RMS(Cart)=  0.00000006 RMS(Int)=  0.00949079
 ClnCor:  largest displacement from symmetrization is 9.67D-03 for atom     4.
 Variable       Old X    -DE/DX   Delta X   Delta X   Delta X     New X
                                 (Linear)    (Quad)   (Total)
    R1        2.25270  -0.00219  -0.00822  -0.00255  -0.00757   2.24512
    R2        2.25270  -0.00219  -0.00822  -0.00255  -0.00757   2.24512
    R3        2.25270  -0.00219  -0.00822  -0.00255  -0.00757   2.24512
    A1        2.09101  -0.00012   0.01743   0.01377   0.00339   2.09439
    A2        2.09101   0.00063   0.01743  -0.00621   0.00339   2.09439
    A3        2.09101   0.00063   0.01743  -0.00621   0.00339   2.09439
    D1        2.98865   0.00845   0.14321   0.01128   0.15462  -3.13991
         Item               Value     Threshold  Converged?
 Maximum Force            0.008453     0.000450     NO 
 RMS     Force            0.003518     0.000300     NO 
 Maximum Displacement     0.043582     0.001800     NO 
 RMS     Displacement     0.033162     0.001200     NO 
 Predicted change in Energy=-6.833676D-04
 GradGradGradGradGradGradGradGradGradGradGradGradGradGradGradGradGradGrad

                          Input orientation:                          
 ---------------------------------------------------------------------
 Center     Atomic      Atomic             Coordinates (Angstroms)
 Number     Number       Type             X           Y           Z
 ---------------------------------------------------------------------
      1          5           0       -0.179742   -0.179742   -0.179742
      2          1           0       -0.664436    0.790644   -0.664436
      3          1           0        0.790644   -0.664436   -0.664436
      4          1           0       -0.664436   -0.664436    0.790644
 ---------------------------------------------------------------------
                    Distance matrix (angstroms):
                    1          2          3          4
     1  B    0.000000
     2  H    1.188068   0.000000
     3  H    1.188068   2.057794   0.000000
     4  H    1.188068   2.057794   2.057794   0.000000
 Stoichiometry    BH3
 Framework group  C3V[C3(B),3SGV(H)]
 Deg. of freedom     2
 Full point group                 C3V     NOp   6
 Largest Abelian subgroup         CS      NOp   2
 Largest concise Abelian subgroup CS      NOp   2
                         Standard orientation:                         
 ---------------------------------------------------------------------
 Center     Atomic      Atomic             Coordinates (Angstroms)
 Number     Number       Type             X           Y           Z
 ---------------------------------------------------------------------
      1          5           0        0.000000   -0.000000   -0.000216
      2          1           0        0.000000    1.188068    0.000360
      3          1           0        1.028897   -0.594034    0.000360
      4          1           0       -1.028897   -0.594034    0.000360
 ---------------------------------------------------------------------
 Rotational constants (GHZ):         236.8416059         236.8416059         118.4208467
 Standard basis: 3-21G (6D, 7F)
 There are    11 symmetry adapted cartesian basis functions of A'  symmetry.
 There are     4 symmetry adapted cartesian basis functions of A"  symmetry.
 There are    11 symmetry adapted basis functions of A'  symmetry.
 There are     4 symmetry adapted basis functions of A"  symmetry.
    15 basis functions,    24 primitive gaussians,    15 cartesian basis functions
     4 alpha electrons        4 beta electrons
       nuclear repulsion energy         7.4526193865 Hartrees.
 NAtoms=    4 NActive=    4 NUniq=    2 SFac= 4.00D+00 NAtFMM=   60 NAOKFM=F Big=F
 Integral buffers will be    131072 words long.
 Raffenetti 1 integral format.
 Two-electron integral symmetry is turned on.
 One-electron integrals computed using PRISM.
 NBasis=    15 RedAO= T EigKep=  3.66D-02  NBF=    11     4
 NBsUse=    15 1.00D-06 EigRej= -1.00D+00 NBFU=    11     4
 Initial guess from the checkpoint file:  "BH3_pyramid_opt.chk"
 B after Tr=    -0.000000   -0.000000    0.000000
         Rot=    1.000000    0.000000    0.000000   -0.000000 Ang=   0.00 deg.
 Initial guess orbital symmetries:
       Occupied  (A1) (A1) (?A) (?A)
       Virtual   (A1) (?A) (?A) (A1) (?A) (?A) (A1) (A1) (A1) (?A)
                 (?A)
 ExpMin= 1.24D-01 ExpMax= 1.16D+02 ExpMxC= 1.16D+02 IAcc=3 IRadAn=         5 AccDes= 0.00D+00
 Harris functional with IExCor=  205 and IRadAn=       5 diagonalized for initial guess.
 HarFok:  IExCor=  205 AccDes= 0.00D+00 IRadAn=         5 IDoV= 1 UseB2=F ITyADJ=14
 ICtDFT=  3500011 ScaDFX=  1.000000  1.000000  1.000000  1.000000
 FoFCou: FMM=F IPFlag=           0 FMFlag=      100000 FMFlg1=           0
         NFxFlg=           0 DoJE=T BraDBF=F KetDBF=T FulRan=T
         wScrn=  0.000000 ICntrl=       500 IOpCl=  0 I1Cent=   200000004 NGrid=           0
         NMat0=    1 NMatS0=      1 NMatT0=    0 NMatD0=    1 NMtDS0=    0 NMtDT0=    0
 Petite list used in FoFCou.
 Keep R1 ints in memory in symmetry-blocked form, NReq=811246.
 Requested convergence on RMS density matrix=1.00D-08 within 128 cycles.
 Requested convergence on MAX density matrix=1.00D-06.
 Requested convergence on             energy=1.00D-06.
 No special actions if energy rises.
 SCF Done:  E(RHF) =  -26.2373013756     A.U. after    7 cycles
            NFock=  7  Conv=0.25D-08     -V/T= 2.0036
 Calling FoFJK, ICntrl=      2127 FMM=F ISym2X=1 I1Cent= 0 IOpClX= 0 NMat=1 NMatS=1 NMatT=0.
 ***** Axes restored to original set *****
 -------------------------------------------------------------------
 Center     Atomic                   Forces (Hartrees/Bohr)
 Number     Number              X              Y              Z
 -------------------------------------------------------------------
      1        5           0.000082860    0.000082860    0.000082860
      2        1           0.000054652   -0.000192163    0.000054652
      3        1          -0.000192163    0.000054652    0.000054652
      4        1           0.000054652    0.000054652   -0.000192163
 -------------------------------------------------------------------
 Cartesian Forces:  Max     0.000192163 RMS     0.000111541

 GradGradGradGradGradGradGradGradGradGradGradGradGradGradGradGradGradGrad
 Berny optimization.
 Using GEDIIS/GDIIS optimizer.
 FormGI is forming the generalized inverse of G from B-inverse, IUseBI=4.
 Internal  Forces:  Max     0.000201547 RMS     0.000136528
 Search for a local minimum.
 Step number   4 out of a maximum of   20
 All quantities printed in internal units (Hartrees-Bohrs-Radians)
 Mixed Optimization -- En-DIIS/RFO-DIIS
 Update second derivatives using D2CorX and points    3    4
 DE= -6.75D-04 DEPred=-6.83D-04 R= 9.88D-01
 TightC=F SS=  1.41D+00  RLast= 1.55D-01 DXNew= 1.4270D+00 4.6587D-01
 Trust test= 9.88D-01 RLast= 1.55D-01 DXMaxT set to 8.49D-01
 The second derivative matrix:
                          R1        R2        R3        A1        A2
           R1           0.20097
           R2          -0.01812   0.20097
           R3          -0.01812  -0.01812   0.20097
           A1           0.02493   0.02493   0.02493   0.12266
           A2           0.02468   0.02468   0.02468  -0.03511   0.12840
           A3           0.02468   0.02468   0.02468  -0.03511  -0.03160
           D1          -0.00641  -0.00641  -0.00641   0.00174   0.00632
                          A3        D1
           A3           0.12840
           D1           0.00632   0.05401
 ITU=  1  1  1  0
 Use linear search instead of GDIIS.
     Eigenvalues ---    0.05276   0.16000   0.16087   0.16596   0.21909
     Eigenvalues ---    0.21909
 RFO step:  Lambda=-9.09267600D-07 EMin= 5.27585520D-02
 Quartic linear search produced a step of -0.00714.
 Iteration  1 RMS(Cart)=  0.00096706 RMS(Int)=  0.00001574
 Iteration  2 RMS(Cart)=  0.00000044 RMS(Int)=  0.00001573
 ClnCor:  largest displacement from symmetrization is 2.82D-05 for atom     4.
 Variable       Old X    -DE/DX   Delta X   Delta X   Delta X     New X
                                 (Linear)    (Quad)   (Total)
    R1        2.24512  -0.00020   0.00005  -0.00135  -0.00131   2.24382
    R2        2.24512  -0.00020   0.00005  -0.00135  -0.00131   2.24382
    R3        2.24512  -0.00020   0.00005  -0.00135  -0.00131   2.24382
    A1        2.09439  -0.00000  -0.00002  -0.00004   0.00000   2.09440
    A2        2.09439   0.00000  -0.00002   0.00002   0.00000   2.09440
    A3        2.09439   0.00000  -0.00002   0.00002   0.00000   2.09440
    D1       -3.13991  -0.00009  -0.00110  -0.00108  -0.00218   3.14109
         Item               Value     Threshold  Converged?
 Maximum Force            0.000202     0.000450     YES
 RMS     Force            0.000137     0.000300     YES
 Maximum Displacement     0.001271     0.001800     YES
 RMS     Displacement     0.000973     0.001200     YES
 Predicted change in Energy=-4.970230D-07
 Optimization completed.
    -- Stationary point found.
                           ----------------------------
                           !   Optimized Parameters   !
                           ! (Angstroms and Degrees)  !
 --------------------------                            --------------------------
 ! Name  Definition              Value          Derivative Info.                !
 --------------------------------------------------------------------------------
 ! R1    R(1,2)                  1.1881         -DE/DX =   -0.0002              !
 ! R2    R(1,3)                  1.1881         -DE/DX =   -0.0002              !
 ! R3    R(1,4)                  1.1881         -DE/DX =   -0.0002              !
 ! A1    A(2,1,3)              120.0            -DE/DX =    0.0                 !
 ! A2    A(2,1,4)              120.0            -DE/DX =    0.0                 !
 ! A3    A(3,1,4)              120.0            -DE/DX =    0.0                 !
 ! D1    D(2,1,4,3)            180.0963         -DE/DX =   -0.0001              !
 --------------------------------------------------------------------------------
 GradGradGradGradGradGradGradGradGradGradGradGradGradGradGradGradGradGrad

                          Input orientation:                          
 ---------------------------------------------------------------------
 Center     Atomic      Atomic             Coordinates (Angstroms)
 Number     Number       Type             X           Y           Z
 ---------------------------------------------------------------------
      1          5           0       -0.179742   -0.179742   -0.179742
      2          1           0       -0.664436    0.790644   -0.664436
      3          1           0        0.790644   -0.664436   -0.664436
      4          1           0       -0.664436   -0.664436    0.790644
 ---------------------------------------------------------------------
                    Distance matrix (angstroms):
                    1          2          3          4
     1  B    0.000000
     2  H    1.188068   0.000000
     3  H    1.188068   2.057794   0.000000
     4  H    1.188068   2.057794   2.057794   0.000000
 Stoichiometry    BH3
 Framework group  C3V[C3(B),3SGV(H)]
 Deg. of freedom     2
 Full point group                 C3V     NOp   6
 Largest Abelian subgroup         CS      NOp   2
 Largest concise Abelian subgroup CS      NOp   2
                         Standard orientation:                         
 ---------------------------------------------------------------------
 Center     Atomic      Atomic             Coordinates (Angstroms)
 Number     Number       Type             X           Y           Z
 ---------------------------------------------------------------------
      1          5           0        0.000000   -0.000000   -0.000216
      2          1           0        0.000000    1.188068    0.000360
      3          1           0        1.028897   -0.594034    0.000360
      4          1           0       -1.028897   -0.594034    0.000360
 ---------------------------------------------------------------------
 Rotational constants (GHZ):         236.8416059         236.8416059         118.4208467

 **********************************************************************

            Population analysis using the SCF Density.

 **********************************************************************

 Orbital symmetries:
       Occupied  (A1) (A1) (?A) (?A)
       Virtual   (A1) (?A) (?A) (A1) (?A) (?A) (A1) (A1) (A1) (?A)
                 (?A)
 Unable to determine electronic state:  an orbital has unidentified symmetry.
 Alpha  occ. eigenvalues --   -7.57463  -0.70671  -0.49954  -0.49954
 Alpha virt. eigenvalues --    0.07708   0.32327   0.32327   0.34824   0.59852
 Alpha virt. eigenvalues --    0.59852   0.68505   0.77753   1.36683   1.42904
 Alpha virt. eigenvalues --    1.42904
     Molecular Orbital Coefficients:
                           1         2         3         4         5
                        (A1)--O   (A1)--O      O         O      (A1)--V
     Eigenvalues --    -7.57463  -0.70671  -0.49954  -0.49954   0.07708
   1 1   B  1S          0.98766  -0.19445   0.00000  -0.00000   0.00011
   2        2S          0.08629   0.24968   0.00000   0.00000  -0.00005
   3        2PX         0.00000   0.00000   0.37534   0.00000   0.00000
   4        2PY        -0.00000  -0.00000   0.00000   0.37534   0.00000
   5        2PZ        -0.00000   0.00010   0.00000   0.00000   0.32276
   6        3S         -0.04925   0.37832   0.00000  -0.00000  -0.00079
   7        3PX         0.00000   0.00000   0.17499   0.00000   0.00000
   8        3PY         0.00000   0.00000   0.00000   0.17499   0.00000
   9        3PZ        -0.00001   0.00001   0.00000   0.00000   0.78513
  10 2   H  1S         -0.00444   0.15558   0.00000   0.25305   0.00008
  11        2S          0.01179   0.12474   0.00000   0.32798   0.00019
  12 3   H  1S         -0.00444   0.15558   0.21915  -0.12652   0.00008
  13        2S          0.01179   0.12474   0.28404  -0.16399   0.00019
  14 4   H  1S         -0.00444   0.15558  -0.21915  -0.12652   0.00008
  15        2S          0.01179   0.12474  -0.28404  -0.16399   0.00019
                           6         7         8         9        10
                           V         V      (A1)--V      V         V
     Eigenvalues --     0.32327   0.32327   0.34824   0.59852   0.59852
   1 1   B  1S          0.00000  -0.00000  -0.15383   0.00000   0.00000
   2        2S          0.00000   0.00000   0.09562  -0.00000   0.00000
   3        2PX         0.13228   0.00000   0.00000   0.00000   1.03464
   4        2PY         0.00000   0.13228  -0.00000   1.03464   0.00000
   5        2PZ         0.00000  -0.00000   0.00011   0.00000   0.00000
   6        3S          0.00000   0.00000   2.87011  -0.00000   0.00000
   7        3PX         2.06800   0.00000   0.00000   0.00000  -0.76497
   8        3PY         0.00000   2.06800  -0.00000  -0.76497   0.00000
   9        3PZ         0.00000  -0.00000   0.00146  -0.00000   0.00000
  10 2   H  1S          0.00000  -0.08836  -0.05867   0.17137   0.00000
  11        2S          0.00000  -1.87071  -1.35256  -0.33659   0.00000
  12 3   H  1S         -0.07652   0.04418  -0.05867  -0.08568   0.14841
  13        2S         -1.62008   0.93536  -1.35256   0.16830  -0.29150
  14 4   H  1S          0.07652   0.04418  -0.05867  -0.08568  -0.14841
  15        2S          1.62008   0.93536  -1.35256   0.16830   0.29150
                          11        12        13        14        15
                        (A1)--V   (A1)--V   (A1)--V      V         V
     Eigenvalues --     0.68505   0.77753   1.36683   1.42904   1.42904
   1 1   B  1S          0.00001   0.02378   0.08794   0.00000   0.00000
   2        2S          0.00047  -1.44071  -0.88483   0.00000  -0.00000
   3        2PX         0.00000   0.00000   0.00000   0.54933   0.00000
   4        2PY        -0.00000  -0.00000  -0.00000   0.00000   0.54933
   5        2PZ         1.15430   0.00059  -0.00038   0.00000  -0.00000
   6        3S         -0.00052   1.88665   2.31578   0.00000   0.00000
   7        3PX         0.00000   0.00000   0.00000  -1.01933   0.00000
   8        3PY         0.00000   0.00000   0.00000   0.00000  -1.01933
   9        3PZ        -0.90562  -0.00004   0.00079   0.00000   0.00000
  10 2   H  1S          0.00021  -0.26901   0.72422   0.00000  -1.12927
  11        2S         -0.00010  -0.14198  -1.19663   0.00000   1.62101
  12 3   H  1S          0.00021  -0.26901   0.72422  -0.97798   0.56464
  13        2S         -0.00010  -0.14198  -1.19663   1.40384  -0.81050
  14 4   H  1S          0.00021  -0.26901   0.72422   0.97798   0.56464
  15        2S         -0.00010  -0.14198  -1.19663  -1.40384  -0.81050
     Density Matrix:
                           1         2         3         4         5
   1 1   B  1S          2.02656
   2        2S          0.07335   0.13957
   3        2PX         0.00000  -0.00000   0.28177
   4        2PY        -0.00000   0.00000   0.00000   0.28177
   5        2PZ        -0.00004   0.00005  -0.00000   0.00000   0.00000
   6        3S         -0.24442   0.18042  -0.00000   0.00000   0.00008
   7        3PX        -0.00000   0.00000   0.13136   0.00000  -0.00000
   8        3PY        -0.00000   0.00000   0.00000   0.13136   0.00000
   9        3PZ        -0.00002   0.00000  -0.00000   0.00000   0.00000
  10 2   H  1S         -0.06928   0.07692   0.00000   0.18996   0.00003
  11        2S         -0.02523   0.06432   0.00000   0.24621   0.00003
  12 3   H  1S         -0.06928   0.07692   0.16451  -0.09498   0.00003
  13        2S         -0.02523   0.06432   0.21322  -0.12311   0.00003
  14 4   H  1S         -0.06928   0.07692  -0.16451  -0.09498   0.00003
  15        2S         -0.02523   0.06432  -0.21322  -0.12311   0.00003
                           6         7         8         9        10
   6        3S          0.29110
   7        3PX         0.00000   0.06124
   8        3PY         0.00000   0.00000   0.06124
   9        3PZ         0.00001  -0.00000   0.00000   0.00000
  10 2   H  1S          0.11815   0.00000   0.08856   0.00000   0.17652
  11        2S          0.09322   0.00000   0.11479   0.00000   0.20470
  12 3   H  1S          0.11815   0.07670  -0.04428   0.00000  -0.01559
  13        2S          0.09322   0.09941  -0.05739   0.00000  -0.04429
  14 4   H  1S          0.11815  -0.07670  -0.04428   0.00000  -0.01559
  15        2S          0.09322  -0.09941  -0.05739   0.00000  -0.04429
                          11        12        13        14        15
  11        2S          0.24654
  12 3   H  1S         -0.04429   0.17652
  13        2S         -0.07618   0.20470   0.24654
  14 4   H  1S         -0.04429  -0.01559  -0.04429   0.17652
  15        2S         -0.07618  -0.04429  -0.07618   0.20470   0.24654
    Full Mulliken population analysis:
                           1         2         3         4         5
   1 1   B  1S          2.02656
   2        2S          0.01341   0.13957
   3        2PX         0.00000   0.00000   0.28177
   4        2PY         0.00000   0.00000   0.00000   0.28177
   5        2PZ         0.00000   0.00000   0.00000   0.00000   0.00000
   6        3S         -0.04249   0.13988   0.00000   0.00000   0.00000
   7        3PX         0.00000   0.00000   0.07242   0.00000   0.00000
   8        3PY         0.00000   0.00000   0.00000   0.07242   0.00000
   9        3PZ         0.00000   0.00000   0.00000   0.00000   0.00000
  10 2   H  1S         -0.00112   0.01719   0.00000   0.06742   0.00000
  11        2S         -0.00237   0.03015   0.00000   0.08598   0.00000
  12 3   H  1S         -0.00112   0.01719   0.05056   0.01685   0.00000
  13        2S         -0.00237   0.03015   0.06448   0.02149   0.00000
  14 4   H  1S         -0.00112   0.01719   0.05056   0.01685   0.00000
  15        2S         -0.00237   0.03015   0.06448   0.02149   0.00000
                           6         7         8         9        10
   6        3S          0.29110
   7        3PX         0.00000   0.06124
   8        3PY         0.00000   0.00000   0.06124
   9        3PZ         0.00000   0.00000   0.00000   0.00000
  10 2   H  1S          0.03598   0.00000   0.03731   0.00000   0.17652
  11        2S          0.06240   0.00000   0.07247   0.00000   0.13221
  12 3   H  1S          0.03598   0.02799   0.00933   0.00000  -0.00003
  13        2S          0.06240   0.05436   0.01812   0.00000  -0.00291
  14 4   H  1S          0.03598   0.02799   0.00933   0.00000  -0.00003
  15        2S          0.06240   0.05436   0.01812   0.00000  -0.00291
                          11        12        13        14        15
  11        2S          0.24654
  12 3   H  1S         -0.00291   0.17652
  13        2S         -0.01907   0.13221   0.24654
  14 4   H  1S         -0.00291  -0.00003  -0.00291   0.17652
  15        2S         -0.01907  -0.00291  -0.01907   0.13221   0.24654
     Gross orbital populations:
                           1
   1 1   B  1S          1.98701
   2        2S          0.43490
   3        2PX         0.58428
   4        2PY         0.58428
   5        2PZ         0.00000
   6        3S          0.68364
   7        3PX         0.29834
   8        3PY         0.29834
   9        3PZ         0.00000
  10 2   H  1S          0.45965
  11        2S          0.58343
  12 3   H  1S          0.45965
  13        2S          0.58343
  14 4   H  1S          0.45965
  15        2S          0.58343
          Condensed to atoms (all electrons):
               1          2          3          4
     1  B    3.654494   0.405430   0.405430   0.405430
     2  H    0.405430   0.687482  -0.024920  -0.024920
     3  H    0.405430  -0.024920   0.687482  -0.024920
     4  H    0.405430  -0.024920  -0.024920   0.687482
 Mulliken charges:
               1
     1  B    0.129216
     2  H   -0.043072
     3  H   -0.043072
     4  H   -0.043072
 Sum of Mulliken charges =  -0.00000
 Mulliken charges with hydrogens summed into heavy atoms:
               1
     1  B   -0.000000
 Electronic spatial extent (au):  <R**2>=             34.9172
 Charge=              0.0000 electrons
 Dipole moment (field-independent basis, Debye):
    X=             -0.0000    Y=             -0.0000    Z=             -0.0016  Tot=              0.0016
 Quadrupole moment (field-independent basis, Debye-Ang):
   XX=             -9.7032   YY=             -9.7032   ZZ=             -7.2192
   XY=              0.0000   XZ=             -0.0000   YZ=             -0.0000
 Traceless Quadrupole moment (field-independent basis, Debye-Ang):
   XX=             -0.8280   YY=             -0.8280   ZZ=              1.6560
   XY=              0.0000   XZ=             -0.0000   YZ=             -0.0000
 Octapole moment (field-independent basis, Debye-Ang**2):
  XXX=             -0.0000  YYY=             -0.2343  ZZZ=             -0.0020  XYY=              0.0000
  XXY=              0.2343  XXZ=              0.0000  XZZ=              0.0000  YZZ=              0.0000
  YYZ=              0.0000  XYZ=              0.0000
 Hexadecapole moment (field-independent basis, Debye-Ang**3):
 XXXX=            -24.7490 YYYY=            -24.7490 ZZZZ=             -7.2368 XXXY=             -0.0000
 XXXZ=             -0.0000 YYYX=             -0.0000 YYYZ=              0.0003 ZZZX=              0.0000
 ZZZY=             -0.0000 XXYY=             -8.2497 XXZZ=             -5.4250 YYZZ=             -5.4250
 XXYZ=             -0.0003 YYXZ=             -0.0000 ZZXY=             -0.0000
 N-N= 7.452619386499D+00 E-N=-7.496186380892D+01  KE= 2.614288932428D+01
 Symmetry A'   KE= 2.472614950835D+01
 Symmetry A"   KE= 1.416739815930D+00
 Orbital energies and kinetic energies (alpha):
                                 1                 2
   1         (A1)--O          -7.574634         10.800563
   2         (A1)--O          -0.706710          0.854141
   3         O                -0.499545          0.708370
   4         O                -0.499545          0.708370
   5         (A1)--V           0.077080          0.492265
   6         V                 0.323273          0.552952
   7         V                 0.323273          0.552952
   8         (A1)--V           0.348243          0.882941
   9         V                 0.598519          1.480478
  10         V                 0.598519          1.480478
  11         (A1)--V           0.685047          1.756496
  12         (A1)--V           0.777529          1.409784
  13         (A1)--V           1.366833          2.570998
  14         V                 1.429039          2.568026
  15         V                 1.429039          2.568026
 Total kinetic energy from orbitals= 2.614288932428D+01
 1\1\GINC-IISERK51\FOpt\RHF\3-21G\B1H3\GAUSSIAN\13-Jun-2025\0\\# opt fr
 eq hf/3-21g pop=full geom=connectivity\\Title Card Required\\0,1\B,-0.
 1797423485,-0.1797423485,-0.1797423485\H,-0.6644361855,0.7906440759,-0
 .6644361855\H,0.7906440759,-0.6644361855,-0.6644361855\H,-0.6644361855
 ,-0.6644361855,0.7906440759\\Version=EM64L-G16RevB.01\HF=-26.2373014\R
 MSD=2.494e-09\RMSF=1.115e-04\Dipole=-0.0003747,-0.0003747,-0.0003747\Q
 uadrupole=0.,0.,0.,0.6155935,0.6155935,0.6155935\PG=C03V [C3(B1),3SGV(
 H1)]\\@


 GROWING OLD ISN'T SO BAD -- WHEN YOU CONSIDER THE ALTERNATIVE.

                     -- MAURICE CHEVALIER
 Job cpu time:       0 days  0 hours  0 minutes  1.6 seconds.
 Elapsed time:       0 days  0 hours  0 minutes  1.5 seconds.
 File lengths (MBytes):  RWF=      6 Int=      0 D2E=      0 Chk=      1 Scr=      1
 Normal termination of Gaussian 16 at Fri Jun 13 20:35:41 2025.
 Link1:  Proceeding to internal job step number  2.
 --------------------------------------------------------------
 #N Geom=AllCheck Guess=TCheck SCRF=Check GenChk RHF/3-21G Freq
 --------------------------------------------------------------
 1/10=4,29=7,30=1,38=1,40=1/1,3;
 2/12=2,40=1/2;
 3/5=5,11=1,14=-4,25=1,30=1,70=2,71=2,116=1,140=1/1,2,3;
 4/5=101/1;
 5/5=2,38=6,98=1/2;
 8/6=4,10=90,11=11/1;
 10/13=10,15=4/2;
 11/6=3,8=1,9=11,15=111,16=1/1,2,10;
 10/6=1/2;
 6/7=3,28=1/1;
 7/8=1,10=1,25=1/1,2,3,16;
 1/10=4,30=1/3;
 99//99;
 Structure from the checkpoint file:  "BH3_pyramid_opt.chk"
 -------------------
 Title Card Required
 -------------------
 Charge =  0 Multiplicity = 1
 Redundant internal coordinates found in file.  (old form).
 B,0,-0.1797423485,-0.1797423485,-0.1797423485
 H,0,-0.6644361855,0.7906440759,-0.6644361855
 H,0,0.7906440759,-0.6644361855,-0.6644361855
 H,0,-0.6644361855,-0.6644361855,0.7906440759
 Recover connectivity data from disk.

 GradGradGradGradGradGradGradGradGradGradGradGradGradGradGradGradGradGrad
 Berny optimization.
 Initialization pass.
                           ----------------------------
                           !    Initial Parameters    !
                           ! (Angstroms and Degrees)  !
 --------------------------                            --------------------------
 ! Name  Definition              Value          Derivative Info.                !
 --------------------------------------------------------------------------------
 ! R1    R(1,2)                  1.1881         calculate D2E/DX2 analytically  !
 ! R2    R(1,3)                  1.1881         calculate D2E/DX2 analytically  !
 ! R3    R(1,4)                  1.1881         calculate D2E/DX2 analytically  !
 ! A1    A(2,1,3)              120.0            calculate D2E/DX2 analytically  !
 ! A2    A(2,1,4)              120.0            calculate D2E/DX2 analytically  !
 ! A3    A(3,1,4)              120.0            calculate D2E/DX2 analytically  !
 ! D1    D(2,1,4,3)           -179.9037         calculate D2E/DX2 analytically  !
 --------------------------------------------------------------------------------
 Trust Radius=3.00D-01 FncErr=1.00D-07 GrdErr=1.00D-07 EigMax=2.50D+02 EigMin=1.00D-04
 Number of steps in this run=      2 maximum allowed number of steps=      2.
 GradGradGradGradGradGradGradGradGradGradGradGradGradGradGradGradGradGrad

                          Input orientation:                          
 ---------------------------------------------------------------------
 Center     Atomic      Atomic             Coordinates (Angstroms)
 Number     Number       Type             X           Y           Z
 ---------------------------------------------------------------------
      1          5           0       -0.179742   -0.179742   -0.179742
      2          1           0       -0.664436    0.790644   -0.664436
      3          1           0        0.790644   -0.664436   -0.664436
      4          1           0       -0.664436   -0.664436    0.790644
 ---------------------------------------------------------------------
                    Distance matrix (angstroms):
                    1          2          3          4
     1  B    0.000000
     2  H    1.188068   0.000000
     3  H    1.188068   2.057794   0.000000
     4  H    1.188068   2.057794   2.057794   0.000000
 Stoichiometry    BH3
 Framework group  C3V[C3(B),3SGV(H)]
 Deg. of freedom     2
 Full point group                 C3V     NOp   6
 Largest Abelian subgroup         CS      NOp   2
 Largest concise Abelian subgroup CS      NOp   2
                         Standard orientation:                         
 ---------------------------------------------------------------------
 Center     Atomic      Atomic             Coordinates (Angstroms)
 Number     Number       Type             X           Y           Z
 ---------------------------------------------------------------------
      1          5           0        0.000000   -0.000000   -0.000216
      2          1           0        0.000000    1.188068    0.000360
      3          1           0        1.028897   -0.594034    0.000360
      4          1           0       -1.028897   -0.594034    0.000360
 ---------------------------------------------------------------------
 Rotational constants (GHZ):         236.8416059         236.8416059         118.4208467
 Standard basis: 3-21G (6D, 7F)
 There are    11 symmetry adapted cartesian basis functions of A'  symmetry.
 There are     4 symmetry adapted cartesian basis functions of A"  symmetry.
 There are    11 symmetry adapted basis functions of A'  symmetry.
 There are     4 symmetry adapted basis functions of A"  symmetry.
    15 basis functions,    24 primitive gaussians,    15 cartesian basis functions
     4 alpha electrons        4 beta electrons
       nuclear repulsion energy         7.4526193865 Hartrees.
 NAtoms=    4 NActive=    4 NUniq=    2 SFac= 4.00D+00 NAtFMM=   60 NAOKFM=F Big=F
 Integral buffers will be    131072 words long.
 Raffenetti 1 integral format.
 Two-electron integral symmetry is turned on.
 One-electron integrals computed using PRISM.
 NBasis=    15 RedAO= T EigKep=  3.66D-02  NBF=    11     4
 NBsUse=    15 1.00D-06 EigRej= -1.00D+00 NBFU=    11     4
 Initial guess from the checkpoint file:  "BH3_pyramid_opt.chk"
 B after Tr=     0.000000    0.000000   -0.000000
         Rot=    1.000000    0.000000   -0.000000   -0.000000 Ang=   0.00 deg.
 Initial guess orbital symmetries:
       Occupied  (A1) (A1) (?A) (?A)
       Virtual   (A1) (?A) (?A) (A1) (?A) (?A) (A1) (A1) (A1) (?A)
                 (?A)
 Keep R1 ints in memory in symmetry-blocked form, NReq=811246.
 Requested convergence on RMS density matrix=1.00D-08 within 128 cycles.
 Requested convergence on MAX density matrix=1.00D-06.
 Requested convergence on             energy=1.00D-06.
 No special actions if energy rises.
 Skip diagonalization as Alpha Fock matrix is already diagonal.
 SCF Done:  E(RHF) =  -26.2373013756     A.U. after    1 cycles
            NFock=  1  Conv=0.00D+00     -V/T= 2.0036
 Range of M.O.s used for correlation:     1    15
 NBasis=    15 NAE=     4 NBE=     4 NFC=     0 NFV=     0
 NROrb=     15 NOA=     4 NOB=     4 NVA=    11 NVB=    11
          Differentiating once with respect to electric field.
                with respect to dipole field.
          Electric field/nuclear overlap derivatives assumed to be zero.
 Keep R1 ints in memory in symmetry-blocked form, NReq=811759.
          There are     3 degrees of freedom in the 1st order CPHF.  IDoFFX=0 NUNeed=     3.
      3 vectors produced by pass  0 Test12= 1.47D-15 3.33D-08 XBig12= 3.38D+00 1.28D+00.
 AX will form     3 AO Fock derivatives at one time.
      3 vectors produced by pass  1 Test12= 1.47D-15 3.33D-08 XBig12= 1.92D-02 7.65D-02.
      3 vectors produced by pass  2 Test12= 1.47D-15 3.33D-08 XBig12= 1.06D-04 4.08D-03.
      3 vectors produced by pass  3 Test12= 1.47D-15 3.33D-08 XBig12= 2.96D-07 3.21D-04.
      3 vectors produced by pass  4 Test12= 1.47D-15 3.33D-08 XBig12= 1.84D-09 2.11D-05.
      3 vectors produced by pass  5 Test12= 1.47D-15 3.33D-08 XBig12= 9.29D-12 1.51D-06.
      2 vectors produced by pass  6 Test12= 1.47D-15 3.33D-08 XBig12= 3.61D-14 8.80D-08.
 InvSVY:  IOpt=1 It=  1 EMax= 2.22D-16
 Solved reduced A of dimension    20 with     3 vectors.
 End of Minotr F.D. properties file   721 does not exist.
 End of Minotr F.D. properties file   722 does not exist.
 End of Minotr F.D. properties file   788 does not exist.
 Symmetrizing basis deriv contribution to polar:
 IMax=3 JMax=2 DiffMx= 0.00D+00
 G2DrvN: will do     5 centers at a time, making    1 passes.
 PxScal for G2LodP:  IOpCl= 0 ISclPx=1 IMOff=     1 NMtTot=     4 NTT=     120 ScalPx= 2.63D+00
 Calling FoFCou, ICntrl=  3107 FMM=F I1Cent=   0 AccDes= 0.00D+00.
 End of G2Drv F.D. properties file   721 does not exist.
 End of G2Drv F.D. properties file   722 does not exist.
 End of G2Drv F.D. properties file   788 does not exist.
          IDoAtm=1111
          Differentiating once with respect to electric field.
                with respect to dipole field.
          Differentiating once with respect to nuclear coordinates.
 Keep R1 ints in memory in symmetry-blocked form, NReq=811851.
          There are     9 degrees of freedom in the 1st order CPHF.  IDoFFX=4 NUNeed=     9.
 Will reuse    3 saved solutions.
      6 vectors produced by pass  0 Test12= 4.89D-16 1.11D-08 XBig12= 2.13D-02 7.18D-02.
 AX will form     6 AO Fock derivatives at one time.
      6 vectors produced by pass  1 Test12= 4.89D-16 1.11D-08 XBig12= 2.81D-04 7.30D-03.
      6 vectors produced by pass  2 Test12= 4.89D-16 1.11D-08 XBig12= 1.20D-06 7.06D-04.
      6 vectors produced by pass  3 Test12= 4.89D-16 1.11D-08 XBig12= 1.95D-09 2.49D-05.
      5 vectors produced by pass  4 Test12= 4.89D-16 1.11D-08 XBig12= 1.22D-11 1.80D-06.
      4 vectors produced by pass  5 Test12= 4.89D-16 1.11D-08 XBig12= 1.07D-13 2.20D-07.
      1 vectors produced by pass  6 Test12= 4.89D-16 1.11D-08 XBig12= 4.12D-15 4.14D-08.
 InvSVY:  IOpt=1 It=  1 EMax= 2.22D-16
 Solved reduced A of dimension    34 with     6 vectors.
 Isotropic polarizability for W=    0.000000       12.22 Bohr**3.
 End of Minotr F.D. properties file   721 does not exist.
 End of Minotr F.D. properties file   722 does not exist.
 End of Minotr F.D. properties file   788 does not exist.

 **********************************************************************

            Population analysis using the SCF Density.

 **********************************************************************

 Orbital symmetries:
       Occupied  (A1) (A1) (?A) (?A)
       Virtual   (A1) (?A) (?A) (A1) (?A) (?A) (A1) (A1) (A1) (?A)
                 (?A)
 Unable to determine electronic state:  an orbital has unidentified symmetry.
 Alpha  occ. eigenvalues --   -7.57463  -0.70671  -0.49954  -0.49954
 Alpha virt. eigenvalues --    0.07708   0.32327   0.32327   0.34824   0.59852
 Alpha virt. eigenvalues --    0.59852   0.68505   0.77753   1.36683   1.42904
 Alpha virt. eigenvalues --    1.42904
     Molecular Orbital Coefficients:
                           1         2         3         4         5
                        (A1)--O   (A1)--O      O         O      (A1)--V
     Eigenvalues --    -7.57463  -0.70671  -0.49954  -0.49954   0.07708
   1 1   B  1S          0.98766  -0.19445  -0.00000   0.00000   0.00011
   2        2S          0.08629   0.24968   0.00000   0.00000  -0.00005
   3        2PX         0.00000   0.00000   0.00000   0.37534   0.00000
   4        2PY        -0.00000  -0.00000   0.37534   0.00000   0.00000
   5        2PZ        -0.00000   0.00010   0.00000   0.00000   0.32276
   6        3S         -0.04925   0.37832  -0.00000   0.00000  -0.00079
   7        3PX         0.00000   0.00000   0.00000   0.17499   0.00000
   8        3PY         0.00000   0.00000   0.17499   0.00000   0.00000
   9        3PZ        -0.00001   0.00001   0.00000   0.00000   0.78513
  10 2   H  1S         -0.00444   0.15558   0.25305   0.00000   0.00008
  11        2S          0.01179   0.12474   0.32798   0.00000   0.00019
  12 3   H  1S         -0.00444   0.15558  -0.12652   0.21915   0.00008
  13        2S          0.01179   0.12474  -0.16399   0.28404   0.00019
  14 4   H  1S         -0.00444   0.15558  -0.12652  -0.21915   0.00008
  15        2S          0.01179   0.12474  -0.16399  -0.28404   0.00019
                           6         7         8         9        10
                           V         V      (A1)--V      V         V
     Eigenvalues --     0.32327   0.32327   0.34824   0.59852   0.59852
   1 1   B  1S         -0.00000   0.00000  -0.15383   0.00000   0.00000
   2        2S          0.00000   0.00000   0.09562  -0.00000   0.00000
   3        2PX         0.00000   0.13228   0.00000   0.00000   1.03464
   4        2PY         0.13228   0.00000  -0.00000   1.03464   0.00000
   5        2PZ        -0.00000   0.00000   0.00011   0.00000   0.00000
   6        3S          0.00000   0.00000   2.87011  -0.00000   0.00000
   7        3PX         0.00000   2.06800   0.00000   0.00000  -0.76497
   8        3PY         2.06800   0.00000  -0.00000  -0.76497   0.00000
   9        3PZ        -0.00000   0.00000   0.00146  -0.00000   0.00000
  10 2   H  1S         -0.08836   0.00000  -0.05867   0.17137   0.00000
  11        2S         -1.87071   0.00000  -1.35256  -0.33659   0.00000
  12 3   H  1S          0.04418  -0.07652  -0.05867  -0.08568   0.14841
  13        2S          0.93536  -1.62008  -1.35256   0.16830  -0.29150
  14 4   H  1S          0.04418   0.07652  -0.05867  -0.08568  -0.14841
  15        2S          0.93536   1.62008  -1.35256   0.16830   0.29150
                          11        12        13        14        15
                        (A1)--V   (A1)--V   (A1)--V      V         V
     Eigenvalues --     0.68505   0.77753   1.36683   1.42904   1.42904
[...]
 N-N= 7.452619386499D+00 E-N=-7.496186380892D+01  KE= 2.614288932428D+01
 Symmetry A'   KE= 2.472614950835D+01
 Symmetry A"   KE= 1.416739815930D+00
 Orbital energies and kinetic energies (alpha):
                                 1                 2
   1         (A1)--O          -7.574634         10.800563
   2         (A1)--O          -0.706710          0.854141
   3         O                -0.499545          0.708370
   4         O                -0.499545          0.708370
   5         (A1)--V           0.077080          0.492265
   6         V                 0.323273          0.552952
   7         V                 0.323273          0.552952
   8         (A1)--V           0.348243          0.882941
   9         V                 0.598519          1.480478
  10         V                 0.598519          1.480478
  11         (A1)--V           0.685047          1.756496
  12         (A1)--V           0.777529          1.409784
  13         (A1)--V           1.366833          2.570998
  14         V                 1.429039          2.568026
  15         V                 1.429039          2.568026
 Total kinetic energy from orbitals= 2.614288932428D+01
  Exact polarizability:  14.819   0.000  14.819  -0.000  -0.000   7.031
 Approx polarizability:  11.667   0.000  11.667  -0.000  -0.000   5.188
 Calling FoFJK, ICntrl=    100127 FMM=F ISym2X=1 I1Cent= 0 IOpClX= 0 NMat=1 NMatS=1 NMatT=0.
 Full mass-weighted force constant matrix:
 Low frequencies ---   -0.0006   -0.0003    0.0002   48.5121   48.5153   48.5153
 Low frequencies --- 1211.2899 1293.4929 1293.4929
 Diagonal vibrational polarizability:
        0.9059881       0.9059882       2.6739948
 Diagonal vibrational hyperpolarizability:
        0.0000000      -0.4040509      -0.0668967
 Harmonic frequencies (cm**-1), IR intensities (KM/Mole), Raman scattering
 activities (A**4/AMU), depolarization ratios for plane and unpolarized
 incident light, reduced masses (AMU), force constants (mDyne/A),
 and normal coordinates:
                      1                      2                      3
                     A1                     ?A                     ?A
 Frequencies --   1211.2899              1293.4928              1293.4929
 Red. masses --      1.2531                 1.1087                 1.1087
 Frc consts  --      1.0833                 1.0930                 1.0930
 IR Inten    --    145.7886                25.3630                25.3630
 Raman Activ --      0.0001                 6.7752                 6.7752
 Depolar (P) --      0.7275                 0.7500                 0.7500
 Depolar (U) --      0.8422                 0.8571                 0.8571
  Atom  AN      X      Y      Z        X      Y      Z        X      Y      Z
     1   5     0.00  -0.00  -0.16    -0.10  -0.00  -0.00     0.00  -0.10   0.00
     2   1    -0.00  -0.00   0.57     0.81  -0.00   0.00    -0.00  -0.08   0.00
     3   1    -0.00   0.00   0.57     0.14   0.38   0.00     0.38   0.59  -0.00
     4   1     0.00   0.00   0.57     0.14  -0.38  -0.00    -0.38   0.59  -0.00
                      4                      5                      6
                     ?B                     ?A                     ?A
 Frequencies --   2680.2553              2804.3707              2804.3707
 Red. masses --      1.0078                 1.1257                 1.1257
 Frc consts  --      4.2657                 5.2161                 5.2161
 IR Inten    --      0.0000               145.5464               145.5463
 Raman Activ --    154.0630                30.3570                30.3570
 Depolar (P) --      0.0618                 0.7500                 0.7500
 Depolar (U) --      0.1164                 0.8571                 0.8571
  Atom  AN      X      Y      Z        X      Y      Z        X      Y      Z
     1   5     0.00  -0.00  -0.00    -0.00  -0.11  -0.00    -0.11   0.00  -0.00
     2   1     0.00   0.58   0.00    -0.00   0.81   0.00    -0.02  -0.00  -0.00
     3   1     0.50  -0.29   0.00    -0.36   0.19  -0.00     0.60  -0.36   0.00
     4   1    -0.50  -0.29   0.00     0.36   0.19  -0.00     0.60   0.36  -0.00

 -------------------
 - Thermochemistry -
 -------------------
 Temperature   298.150 Kelvin.  Pressure   1.00000 Atm.
 Atom     1 has atomic number  5 and mass  11.00931
 Atom     2 has atomic number  1 and mass   1.00783
 Atom     3 has atomic number  1 and mass   1.00783
 Atom     4 has atomic number  1 and mass   1.00783
 Molecular mass:    14.03278 amu.
 Principal axes and moments of inertia in atomic units:
                           1         2         3
     Eigenvalues --     7.62003   7.62003  15.24006
           X            0.44567   0.89519   0.00000
           Y            0.89519  -0.44567   0.00000
           Z           -0.00000  -0.00000   1.00000
 This molecule is an oblate symmetric top.
 Rotational symmetry number  3.
 Rotational temperatures (Kelvin)     11.36661    11.36661     5.68330
 Rotational constants (GHZ):         236.84161   236.84161   118.42085
 Zero-point vibrational energy      72297.9 (Joules/Mol)
                                   17.27962 (Kcal/Mol)
 Vibrational temperatures:   1742.78  1861.05  1861.05  3856.29  4034.86
          (Kelvin)           4034.86
 
 Zero-point correction=                           0.027537 (Hartree/Particle)
 Thermal correction to Energy=                    0.030408
 Thermal correction to Enthalpy=                  0.031353
 Thermal correction to Gibbs Free Energy=         0.009344
 Sum of electronic and zero-point Energies=            -26.209765
 Sum of electronic and thermal Energies=               -26.206893
 Sum of electronic and thermal Enthalpies=             -26.205949
 Sum of electronic and thermal Free Energies=          -26.227958
 
                     E (Thermal)             CV                S
                      KCal/Mol        Cal/Mol-Kelvin    Cal/Mol-Kelvin
 Total                   19.082              6.464             46.322
 Electronic               0.000              0.000              0.000
 Translational            0.889              2.981             33.864
 Rotational               0.889              2.981             12.362
 Vibrational             17.304              0.502              0.096
                       Q            Log10(Q)             Ln(Q)
 Total Bot       0.503784D-04         -4.297756         -9.895948
 Total V=0       0.233505D+09          8.368297         19.268715
 Vib (Bot)       0.217220D-12        -12.663100        -29.157865
 Vib (V=0)       0.100682D+01          0.002953          0.006799
 Electronic      0.100000D+01          0.000000          0.000000
 Translational   0.206619D+07          6.315169         14.541215
 Rotational      0.112247D+03          2.050175          4.720702
 ***** Axes restored to original set *****
 -------------------------------------------------------------------
 Center     Atomic                   Forces (Hartrees/Bohr)
 Number     Number              X              Y              Z
 -------------------------------------------------------------------
      1        5           0.000082860    0.000082860    0.000082860
      2        1           0.000054652   -0.000192163    0.000054652
      3        1          -0.000192163    0.000054652    0.000054652
      4        1           0.000054652    0.000054652   -0.000192163
 -------------------------------------------------------------------
 Cartesian Forces:  Max     0.000192163 RMS     0.000111541
 FormGI is forming the generalized inverse of G from B-inverse, IUseBI=4.

 GradGradGradGradGradGradGradGradGradGradGradGradGradGradGradGradGradGrad
 Berny optimization.
 Internal  Forces:  Max     0.000201546 RMS     0.000136528
 Search for a local minimum.
 Step number   1 out of a maximum of    2
 All quantities printed in internal units (Hartrees-Bohrs-Radians)
 Second derivative matrix not updated -- analytic derivatives used.
 The second derivative matrix:
                          R1        R2        R3        A1        A2
           R1           0.26847
           R2           0.00276   0.26847
           R3           0.00276   0.00276   0.26847
           A1           0.00528   0.00528  -0.01055   0.06383
           A2           0.00528  -0.01055   0.00528  -0.03192   0.06383
           A3          -0.01055   0.00528   0.00528  -0.03192  -0.03191
           D1          -0.00001  -0.00001  -0.00001   0.00004  -0.00006
                          A3        D1
           A3           0.06383
           D1          -0.00006   0.05521
 ITU=  0
     Eigenvalues ---    0.05521   0.09428   0.09428   0.26718   0.26718
     Eigenvalues ---    0.27399
 Angle between quadratic step and forces=  37.96 degrees.
 Linear search not attempted -- first point.
 Iteration  1 RMS(Cart)=  0.00059910 RMS(Int)=  0.00000038
 Iteration  2 RMS(Cart)=  0.00000023 RMS(Int)=  0.00000027
 ClnCor:  largest displacement from symmetrization is 4.32D-07 for atom     3.
 Variable       Old X    -DE/DX   Delta X   Delta X   Delta X     New X
                                 (Linear)    (Quad)   (Total)
    R1        2.24512  -0.00020   0.00000  -0.00074  -0.00074   2.24439
    R2        2.24512  -0.00020   0.00000  -0.00074  -0.00074   2.24439
    R3        2.24512  -0.00020   0.00000  -0.00074  -0.00074   2.24439
    A1        2.09439  -0.00000   0.00000   0.00000   0.00000   2.09440
    A2        2.09439   0.00000   0.00000   0.00000   0.00000   2.09440
    A3        2.09439   0.00000   0.00000   0.00000   0.00000   2.09440
    D1       -3.13991  -0.00009   0.00000  -0.00168  -0.00168   3.14159
         Item               Value     Threshold  Converged?
 Maximum Force            0.000202     0.000450     YES
 RMS     Force            0.000137     0.000300     YES
 Maximum Displacement     0.000758     0.001800     YES
 RMS     Displacement     0.000599     0.001200     YES
 Predicted change in Energy=-3.004582D-07
 Optimization completed.
    -- Stationary point found.
                           ----------------------------
                           !   Optimized Parameters   !
                           ! (Angstroms and Degrees)  !
 --------------------------                            --------------------------
 ! Name  Definition              Value          Derivative Info.                !
 --------------------------------------------------------------------------------
 ! R1    R(1,2)                  1.1881         -DE/DX =   -0.0002              !
 ! R2    R(1,3)                  1.1881         -DE/DX =   -0.0002              !
 ! R3    R(1,4)                  1.1881         -DE/DX =   -0.0002              !
 ! A1    A(2,1,3)              120.0            -DE/DX =    0.0                 !
 ! A2    A(2,1,4)              120.0            -DE/DX =    0.0                 !
 ! A3    A(3,1,4)              120.0            -DE/DX =    0.0                 !
 ! D1    D(2,1,4,3)            180.0963         -DE/DX =   -0.0001              !
 --------------------------------------------------------------------------------
 GradGradGradGradGradGradGradGradGradGradGradGradGradGradGradGradGradGrad


 ----------------------------------------------------------------------

 Electric dipole moment (input orientation):
 (Debye = 10**-18 statcoulomb cm , SI units = C m)
                  (au)            (Debye)         (10**-30 SI)
   Tot        0.648999D-03      0.164959D-02      0.550244D-02
   x         -0.374700D-03     -0.952392D-03     -0.317684D-02
   y         -0.374700D-03     -0.952392D-03     -0.317684D-02
   z         -0.374700D-03     -0.952392D-03     -0.317684D-02

 Dipole polarizability, Alpha (input orientation).
 (esu units = cm**3 , SI units = C**2 m**2 J**-1)
 Alpha(0;0):
               (au)            (10**-24 esu)      (10**-40 SI)
   iso        0.122231D+02      0.181128D+01      0.201532D+01
   aniso      0.778841D+01      0.115412D+01      0.128414D+01
   xx         0.122231D+02      0.181128D+01      0.201532D+01
   yx        -0.259614D+01     -0.384708D+00     -0.428045D+00
   yy         0.122231D+02      0.181128D+01      0.201532D+01
   zx        -0.259614D+01     -0.384708D+00     -0.428045D+00
   zy        -0.259614D+01     -0.384708D+00     -0.428045D+00
   zz         0.122231D+02      0.181128D+01      0.201532D+01

 First dipole hyperpolarizability, Beta (input orientation).
 ||, _|_  parallel and perpendicular components, (z) with respect to z axis,
 vector components x,y,z.  Values do not include the 1/n! factor of 1/2.
 (esu units = statvolt**-1 cm**4 , SI units = C**3 m**3 J**-2)
 Beta(0;0,0):
               (au)            (10**-30 esu)      (10**-50 SI)
   || (z)    -0.239311D-01     -0.206746D-03     -0.767319D-04
   _|_(z)    -0.797705D-02     -0.689155D-04     -0.255773D-04
   x         -0.119656D+00     -0.103373D-02     -0.383659D-03
   y         -0.119656D+00     -0.103373D-02     -0.383659D-03
   z         -0.119656D+00     -0.103373D-02     -0.383659D-03
   ||         0.414499D-01      0.358095D-03      0.132903D-03
   xxx        0.125504D+02      0.108425D+00      0.402410D-01
   xxy       -0.629513D+01     -0.543850D-01     -0.201844D-01
   yxy       -0.629513D+01     -0.543850D-01     -0.201844D-01
   yyy        0.125504D+02      0.108425D+00      0.402410D-01
   xxz       -0.629513D+01     -0.543850D-01     -0.201844D-01
   yxz        0.125714D+02      0.108607D+00      0.403085D-01
   yyz       -0.629513D+01     -0.543850D-01     -0.201844D-01
   zxz       -0.629513D+01     -0.543850D-01     -0.201844D-01
   zyz       -0.629513D+01     -0.543850D-01     -0.201844D-01
   zzz        0.125504D+02      0.108425D+00      0.402410D-01

 ----------------------------------------------------------------------

 Dipole orientation:
     5         -0.00000000         -0.00000000          0.58831498
     1         -0.58108066         -2.16862253          0.58722531
     1          2.16862253          0.58108066          0.58722531
     1         -1.58754187          1.58754187          0.58722531

 Electric dipole moment (dipole orientation):
 (Debye = 10**-18 statcoulomb cm , SI units = C m)
                  (au)            (Debye)         (10**-30 SI)
   Tot        0.648999D-03      0.164959D-02      0.550244D-02
   x          0.000000D+00      0.000000D+00      0.000000D+00
   y          0.000000D+00      0.000000D+00      0.000000D+00
   z          0.648999D-03      0.164959D-02      0.550244D-02

 Dipole polarizability, Alpha (dipole orientation).
 (esu units = cm**3 , SI units = C**2 m**2 J**-1)
 Alpha(0;0):
               (au)            (10**-24 esu)      (10**-40 SI)
   iso        0.122231D+02      0.181128D+01      0.201532D+01
   aniso      0.778841D+01      0.115412D+01      0.128414D+01
   xx         0.148193D+02      0.219599D+01      0.244337D+01
   yx         0.000000D+00      0.000000D+00      0.000000D+00
   yy         0.148193D+02      0.219599D+01      0.244337D+01
   zx         0.000000D+00      0.000000D+00      0.000000D+00
   zy         0.000000D+00      0.000000D+00      0.000000D+00
   zz         0.703085D+01      0.104186D+01      0.115923D+01

 First dipole hyperpolarizability, Beta (dipole orientation).
 ||, _|_  parallel and perpendicular components, (z) with respect to z axis,
 vector components x,y,z.  Values do not include the 1/n! factor of 1/2.
 (esu units = statvolt**-1 cm**4 , SI units = C**3 m**3 J**-2)
 Beta(0;0,0):
               (au)            (10**-30 esu)      (10**-50 SI)
   || (z)     0.414499D-01      0.358095D-03      0.132903D-03
   _|_(z)     0.138166D-01      0.119365D-03      0.443012D-04
   x          0.000000D+00      0.000000D+00      0.000000D+00
   y          0.000000D+00      0.000000D+00      0.000000D+00
   z          0.207250D+00      0.179048D-02      0.664517D-03
   ||         0.414499D-01      0.358095D-03      0.132903D-03
   xxx        0.163328D+02      0.141103D+00      0.523690D-01
   xxy        0.163328D+02      0.141103D+00      0.523690D-01
   yxy       -0.163328D+02     -0.141103D+00     -0.523690D-01
   yyy       -0.163328D+02     -0.141103D+00     -0.523690D-01
   xxz        0.121532D-01      0.104994D-03      0.389675D-04
   yxz        0.000000D+00      0.000000D+00      0.000000D+00
   yyz        0.121532D-01      0.104994D-03      0.389675D-04
   zxz        0.000000D+00      0.000000D+00      0.000000D+00
   zyz        0.000000D+00      0.000000D+00      0.000000D+00
   zzz        0.447769D-01      0.386837D-03      0.143571D-03

 ----------------------------------------------------------------------
 1\1\GINC-IISERK51\Freq\RHF\3-21G\B1H3\GAUSSIAN\13-Jun-2025\0\\#N Geom=
 AllCheck Guess=TCheck SCRF=Check GenChk RHF/3-21G Freq\\Title Card Req
 uired\\0,1\B,-0.1797423485,-0.1797423485,-0.1797423485\H,-0.6644361855
 ,0.7906440759,-0.6644361855\H,0.7906440759,-0.6644361855,-0.6644361855
 \H,-0.6644361855,-0.6644361855,0.7906440759\\Version=EM64L-G16RevB.01\
 HF=-26.2373014\RMSD=0.000e+00\RMSF=1.115e-04\ZeroPoint=0.0275368\Therm
 al=0.0304084\Dipole=-0.0003747,-0.0003747,-0.0003747\DipoleDeriv=0.601
 6518,-0.0030309,-0.0030309,-0.0030309,0.6016518,-0.0030309,-0.0030309,
 -0.0030309,0.6016518,-0.1724648,0.029094,-0.0552302,0.0291671,-0.25672
 23,0.0291671,-0.0552302,0.029094,-0.1724648,-0.2567223,0.0291671,0.029
 1671,0.029094,-0.1724648,-0.0552302,0.029094,-0.0552302,-0.1724648,-0.
 1724648,-0.0552302,0.029094,-0.0552302,-0.1724648,0.029094,0.0291671,0
 .0291671,-0.2567223\Polar=12.2231286,-2.5961377,12.2231286,-2.5961377,
 -2.5961377,12.2231286\PolarDeriv=-1.4811812,0.7321339,0.736448,0.73213
 35,-1.4741161,0.7364482,0.7364493,0.7321338,-1.4811795,-1.4741155,0.73
 21338,0.7364493,0.7364482,-1.4741161,0.736448,0.7321335,0.7321339,-1.4
 811812,-2.2855015,1.9490079,-1.1359003,-1.0818278,0.5972364,-0.9360919
 ,1.3355435,-1.599314,6.0521841,0.2796434,-1.599314,1.3355435,-0.936091
 9,0.5972364,-1.1359003,-1.0818278,1.9490079,-2.2855015,6.0521841,-1.59
 9314,1.3355435,-1.599314,0.2796434,1.3355435,-1.1359003,1.9490079,-2.2
 855015,0.5972364,-1.0818278,-0.9360919,-1.1359003,0.5972364,-0.9360919
 ,1.9490079,-1.0818278,-2.2855015,-2.2855015,-1.0818278,-0.9360919,1.94
 90079,0.5972364,-1.1359003,-0.9360919,-1.0818278,-2.2855015,0.5972364,
 1.9490079,-1.1359003,1.3355435,0.2796434,1.3355435,-1.599314,-1.599314
 ,6.0521841\HyperPolar=12.5503666,-6.2951259,-6.2951259,12.5503666,-6.2
 951259,12.5714165,-6.2951259,-6.2951259,-6.2951259,12.5503666\Quadrupo
 le=0.,0.,0.,0.6155935,0.6155935,0.6155935\PG=C03V [C3(B1),3SGV(H1)]\NI
 mag=0\\0.34227057,-0.10528154,0.34227057,-0.10528154,-0.10528154,0.342
 27057,-0.07927460,0.06983717,-0.03441175,0.06863948,0.06985613,-0.1837
 2136,0.06985613,-0.08457116,0.18396781,-0.03441175,0.06983717,-0.07927
 460,0.03056000,-0.08457116,0.06863948,-0.18372136,0.06985613,0.0698561
 3,-0.00012322,0.00669748,0.00801755,0.18396781,0.06983717,-0.07927461,
 -0.03441175,0.01889978,-0.00012322,-0.00416579,-0.08457116,0.06863948,
 0.06983717,-0.03441175,-0.07927461,-0.00416579,0.00801755,0.01075835,-
 0.08457116,0.03056000,0.06863948,-0.07927461,-0.03441175,0.06983717,0.
 01075835,0.00801755,-0.00416579,-0.00012322,-0.00416579,0.01889978,0.0
 6863948,-0.03441175,-0.07927461,0.06983717,-0.00416579,-0.00012322,0.0
 1889978,0.00801755,0.01075835,-0.00416579,0.03056000,0.06863948,0.0698
 5613,0.06985613,-0.18372136,0.00801755,0.00669748,-0.00012322,0.006697
 48,0.00801755,-0.00012322,-0.08457116,-0.08457116,0.18396781\\-0.00008
 286,-0.00008286,-0.00008286,-0.00005465,0.00019216,-0.00005465,0.00019
 216,-0.00005465,-0.00005465,-0.00005465,-0.00005465,0.00019216\\\@


 SCIENCE IS LONG AND LIFE IS SHORT.

                     DON MOSER IN THE FEBRUARY 1979 SMITHSONIAN
 Job cpu time:       0 days  0 hours  0 minutes  0.7 seconds.
 Elapsed time:       0 days  0 hours  0 minutes  0.6 seconds.
 File lengths (MBytes):  RWF=      6 Int=      0 D2E=      0 Chk=      1 Scr=      1
 Normal termination of Gaussian 16 at Fri Jun 13 20:35:42 2025.
