 Entering Gaussian System, Link 0=g16
 Input=/home/gaussian/Documents/Summer_Internship/Acid_Base_adduct/Adduct/PH3-AlCl3/AlCl3_only_adduct_sp.com
 Output=/home/gaussian/Documents/Summer_Internship/Acid_Base_adduct/Adduct/PH3-AlCl3/AlCl3_only_adduct_sp.log
 Initial command:
 /usr/local/g16/l1.exe "/home/gaussian/tmp/Gau-92288.inp" -scrdir="/home/gaussian/tmp/"
 Entering Link 1 = /usr/local/g16/l1.exe PID=     92291.
  
 Copyright (c) 1988-2017, Gaussian, Inc.  All Rights Reserved.
  
 This is part of the Gaussian(R) 16 program.  It is based on
 the Gaussian(R) 09 system (copyright 2009, Gaussian, Inc.),
 the Gaussian(R) 03 system (copyright 2003, Gaussian, Inc.),
 the Gaussian(R) 98 system (copyright 1998, Gaussian, Inc.),
 the Gaussian(R) 94 system (copyright 1995, Gaussian, Inc.),
 the Gaussian 92(TM) system (copyright 1992, Gaussian, Inc.),
 the Gaussian 90(TM) system (copyright 1990, Gaussian, Inc.),
 the Gaussian 88(TM) system (copyright 1988, Gaussian, Inc.),
 the Gaussian 86(TM) system (copyright 1986, Carnegie Mellon
 University), and the Gaussian 82(TM) system (copyright 1983,
 Carnegie Mellon University). Gaussian is a federally registered
 trademark of Gaussian, Inc.
  
 This software contains proprietary and confidential information,
 including trade secrets, belonging to Gaussian, Inc.
  
 This software is provided under written license and may be
 used, copied, transmitted, or stored only in accord with that
 written license.
  
 The following legend is applicable only to US Government
 contracts under FAR:
  
                    RESTRICTED RIGHTS LEGEND
  
 Use, reproduction and disclosure by the US Government is
 subject to restrictions as set forth in subparagraphs (a)
 and (c) of the Commercial Computer Software - Restricted
 Rights clause in FAR 52.227-19.
  
 Gaussian, Inc.
 340 Quinnipiac St., Bldg. 40, Wallingford CT 06492
  
  
 ---------------------------------------------------------------
 Warning -- This program may not be used in any manner that
 competes with the business of Gaussian, Inc. or will provide
 assistance to any competitor of Gaussian, Inc.  The licensee
 of this program is prohibited from giving any competitor of
 Gaussian, Inc. access to this program.  By using this program,
 the user acknowledges that Gaussian, Inc. is engaged in the
 business of creating and licensing software in the field of
 computational chemistry and represents and warrants to the
 licensee that it is not a competitor of Gaussian, Inc. and that
 it will not use this program in any manner prohibited above.
 ---------------------------------------------------------------
  

 Cite this work as:
 Gaussian 16, Revision B.01,
 M. J. Frisch, G. W. Trucks, H. B. Schlegel, G. E. Scuseria, 
 M. A. Robb, J. R. Cheeseman, G. Scalmani, V. Barone, 
 G. A. Petersson, H. Nakatsuji, X. Li, M. Caricato, A. V. Marenich, 
 J. Bloino, B. G. Janesko, R. Gomperts, B. Mennucci, H. P. Hratchian, 
 J. V. Ortiz, A. F. Izmaylov, J. L. Sonnenberg, D. Williams-Young, 
 F. Ding, F. Lipparini, F. Egidi, J. Goings, B. Peng, A. Petrone, 
 T. Henderson, D. Ranasinghe, V. G. Zakrzewski, J. Gao, N. Rega, 
 G. Zheng, W. Liang, M. Hada, M. Ehara, K. Toyota, R. Fukuda, 
 J. Hasegawa, M. Ishida, T. Nakajima, Y. Honda, O. Kitao, H. Nakai, 
 T. Vreven, K. Throssell, J. A. Montgomery, Jr., J. E. Peralta, 
 F. Ogliaro, M. J. Bearpark, J. J. Heyd, E. N. Brothers, K. N. Kudin, 
 V. N. Staroverov, T. A. Keith, R. Kobayashi, J. Normand, 
 K. Raghavachari, A. P. Rendell, J. C. Burant, S. S. Iyengar, 
 J. Tomasi, M. Cossi, J. M. Millam, M. Klene, C. Adamo, R. Cammi, 
 J. W. Ochterski, R. L. Martin, K. Morokuma, O. Farkas, 
 J. B. Foresman, and D. J. Fox, Gaussian, Inc., Wallingford CT, 2016.
 
 ******************************************
 Gaussian 16:  EM64L-G16RevB.01 20-Dec-2017
                17-Jun-2025 
 ******************************************
 %chk=AlCl3_only_adduct_sp.chk
 -------------------------------------
 # hf/3-21g pop=full geom=connectivity
 -------------------------------------
 1/38=1,57=2,172=1/1;
 2/12=2,17=6,18=5,40=1/2;
 3/5=5,11=9,25=1,30=1/1,2,3;
 4//1;
 5/5=2,38=5/2;
 6/7=3,28=1/1;
 99/5=1,9=1/99;
 -------------------
 Title Card Required
 -------------------
 Symbolic Z-matrix:
 Charge =  0 Multiplicity = 1
 Al                    0.33027   0.00143   0.00054 
 Cl                    0.74058  -1.30026  -1.71909 
 Cl                    0.72282   2.14485  -0.26693 
 Cl                    0.73131  -0.83548   1.9902 
 
                          Input orientation:                          
 ---------------------------------------------------------------------
 Center     Atomic      Atomic             Coordinates (Angstroms)
 Number     Number       Type             X           Y           Z
 ---------------------------------------------------------------------
      1         13           0        0.330273    0.001428    0.000544
      2         17           0        0.740577   -1.300255   -1.719087
      3         17           0        0.722818    2.144846   -0.266929
      4         17           0        0.731306   -0.835478    1.990200
 ---------------------------------------------------------------------
                    Distance matrix (angstroms):
                    1          2          3          4
     1  Al   0.000000
     2  Cl   2.195418   0.000000
     3  Cl   2.195421   3.738689   0.000000
     4  Cl   2.195443   3.738304   3.738587   0.000000
 Stoichiometry    AlCl3
 Framework group  C1[X(AlCl3)]
 Deg. of freedom     6
 Full point group                 C1      NOp   1
 Largest Abelian subgroup         C1      NOp   1
 Largest concise Abelian subgroup C1      NOp   1
                         Standard orientation:                         
 ---------------------------------------------------------------------
 Center     Atomic      Atomic             Coordinates (Angstroms)
 Number     Number       Type             X           Y           Z
 ---------------------------------------------------------------------
      1         13           0       -0.000103   -0.000053    0.319784
      2         17           0        1.311349   -1.714380   -0.081512
      3         17           0       -2.140526   -0.278288   -0.081524
      4         17           0        0.829257    1.992708   -0.081505
 ---------------------------------------------------------------------
 Rotational constants (GHZ):           2.0394753           2.0389787           1.0340340
 Standard basis: 3-21G (6D, 7F)
 There are    52 symmetry adapted cartesian basis functions of A   symmetry.
 There are    52 symmetry adapted basis functions of A   symmetry.
    52 basis functions,   108 primitive gaussians,    52 cartesian basis functions
    32 alpha electrons       32 beta electrons
       nuclear repulsion energy       282.5281681977 Hartrees.
 NAtoms=    4 NActive=    4 NUniq=    4 SFac= 1.00D+00 NAtFMM=   60 NAOKFM=F Big=F
 Integral buffers will be    131072 words long.
 Raffenetti 1 integral format.
 Two-electron integral symmetry is turned on.
 One-electron integrals computed using PRISM.
 NBasis=    52 RedAO= T EigKep=  4.20D-02  NBF=    52
 NBsUse=    52 1.00D-06 EigRej= -1.00D+00 NBFU=    52
 ExpMin= 6.39D-02 ExpMax= 1.38D+03 ExpMxC= 1.38D+03 IAcc=3 IRadAn=         5 AccDes= 0.00D+00
 Harris functional with IExCor=  205 and IRadAn=       5 diagonalized for initial guess.
 HarFok:  IExCor=  205 AccDes= 0.00D+00 IRadAn=         5 IDoV= 1 UseB2=F ITyADJ=14
 ICtDFT=  3500011 ScaDFX=  1.000000  1.000000  1.000000  1.000000
 FoFCou: FMM=F IPFlag=           0 FMFlag=      100000 FMFlg1=           0
         NFxFlg=           0 DoJE=T BraDBF=F KetDBF=T FulRan=T
         wScrn=  0.000000 ICntrl=       500 IOpCl=  0 I1Cent=   200000004 NGrid=           0
         NMat0=    1 NMatS0=      1 NMatT0=    0 NMatD0=    1 NMtDS0=    0 NMtDT0=    0
 Petite list used in FoFCou.
 Keep R1 ints in memory in canonical form, NReq=1760641.
 Requested convergence on RMS density matrix=1.00D-08 within 128 cycles.
 Requested convergence on MAX density matrix=1.00D-06.
 Requested convergence on             energy=1.00D-06.
 No special actions if energy rises.
 SCF Done:  E(RHF) =  -1612.68634591     A.U. after   10 cycles
            NFock= 10  Conv=0.42D-08     -V/T= 2.0011

 **********************************************************************

            Population analysis using the SCF Density.

 **********************************************************************

 Orbital symmetries:
       Occupied  (A) (A) (A) (A) (A) (A) (A) (A) (A) (A) (A) (A)
                 (A) (A) (A) (A) (A) (A) (A) (A) (A) (A) (A) (A)
                 (A) (A) (A) (A) (A) (A) (A) (A)
       Virtual   (A) (A) (A) (A) (A) (A) (A) (A) (A) (A) (A) (A)
                 (A) (A) (A) (A) (A) (A) (A) (A)
 The electronic state is 1-A.
 Alpha  occ. eigenvalues -- -104.13386-104.13378-104.13377 -58.24753 -10.52556
 Alpha  occ. eigenvalues --  -10.52530 -10.52529  -7.98829  -7.98828  -7.98817
 Alpha  occ. eigenvalues --   -7.98528  -7.98512  -7.98512  -7.98494  -7.98490
 Alpha  occ. eigenvalues --   -7.98489  -5.04545  -3.34973  -3.34973  -3.34945
 Alpha  occ. eigenvalues --   -1.12536  -1.10679  -1.10677  -0.62220  -0.54239
 Alpha  occ. eigenvalues --   -0.54238  -0.51627  -0.49188  -0.49188  -0.48853
 Alpha  occ. eigenvalues --   -0.48852  -0.47947
 Alpha virt. eigenvalues --   -0.04191   0.07490   0.13121   0.13124   0.23157
 Alpha virt. eigenvalues --    0.28956   0.32643   0.32645   0.72568   0.72569
 Alpha virt. eigenvalues --    0.75802   0.77120   0.77123   0.84971   0.85372
 Alpha virt. eigenvalues --    0.87700   0.87704   0.96657   0.96658   0.99338
     Molecular Orbital Coefficients:
                           1         2         3         4         5
                           O         O         O         O         O
     Eigenvalues --  -104.13386-104.13378-104.13377 -58.24753 -10.52556
   1 1   Al 1S         -0.00000   0.00000  -0.00000   0.98853   0.00005
   2        2S          0.00017  -0.00001   0.00001   0.04418  -0.00095
   3        2PX         0.00000   0.00005  -0.00000   0.00000  -0.00001
   4        2PY         0.00000  -0.00000  -0.00005   0.00000  -0.00000
   5        2PZ        -0.00000   0.00000  -0.00000  -0.00005   0.00002
   6        3S          0.00012  -0.00001   0.00001  -0.01165  -0.00075
   7        3PX         0.00007   0.00075  -0.00008  -0.00000  -0.00012
   8        3PY         0.00003  -0.00008  -0.00075  -0.00000  -0.00007
   9        3PZ         0.00029  -0.00003   0.00002   0.00051  -0.00169
  10        4S         -0.00647   0.00057  -0.00036   0.00078   0.03739
  11        4PX         0.00035   0.00379  -0.00038  -0.00000  -0.00059
  12        4PY         0.00018  -0.00040  -0.00380  -0.00000  -0.00034
  13        4PZ         0.00143  -0.00013   0.00008   0.00073  -0.00813
  14 2   Cl 1S          0.55014  -0.60076  -0.55533  -0.00001  -0.17553
  15        2S          0.02967  -0.03238  -0.02993   0.00003   0.56392
  16        2PX        -0.00009   0.00004   0.00011   0.00002  -0.00304
  17        2PY         0.00010  -0.00013  -0.00007  -0.00003   0.00399
  18        2PZ        -0.00000  -0.00004  -0.00004  -0.00003   0.00139
  19        3S         -0.01120   0.01189   0.01094  -0.00124   0.08469
  20        3PX         0.00037  -0.00007  -0.00046   0.00004  -0.00256
  21        3PY        -0.00041   0.00054   0.00018  -0.00006   0.00324
  22        3PZ         0.00007   0.00014   0.00016   0.00010  -0.00007
  23        4S          0.00799  -0.00803  -0.00732   0.00254  -0.04772
  24        4PX        -0.00122   0.00016   0.00137  -0.00122   0.00686
  25        4PY         0.00140  -0.00163  -0.00046   0.00159  -0.00863
  26        4PZ        -0.00015  -0.00040  -0.00044   0.00005   0.00065
  27 3   Cl 1S          0.64501   0.73017  -0.15091  -0.00001  -0.18369
  28        2S          0.03479   0.03935  -0.00813   0.00003   0.59014
  29        2PX         0.00016   0.00015  -0.00004  -0.00004   0.00521
  30        2PY         0.00002   0.00004   0.00006  -0.00001   0.00068
  31        2PZ         0.00000   0.00005  -0.00001  -0.00003   0.00145
  32        3S         -0.01308  -0.01438   0.00296  -0.00124   0.08853
  33        3PX        -0.00062  -0.00053   0.00016  -0.00007   0.00426
  34        3PY        -0.00007  -0.00016  -0.00035  -0.00001   0.00053
  35        3PZ         0.00004  -0.00021   0.00005   0.00010  -0.00002
  36        4S          0.00924   0.00962  -0.00196   0.00254  -0.04975
  37        4PX         0.00205   0.00152  -0.00045   0.00198  -0.01129
  38        4PY         0.00023   0.00047   0.00111   0.00026  -0.00139
  39        4PZ        -0.00008   0.00059  -0.00014   0.00005   0.00054
  40 4   Cl 1S          0.50325  -0.27911   0.80050  -0.00001  -0.17031
  41        2S          0.02715  -0.01504   0.04314   0.00003   0.54713
  42        2PX        -0.00005  -0.00004  -0.00008   0.00002  -0.00186
  43        2PY        -0.00011   0.00008  -0.00015   0.00004  -0.00449
  44        2PZ        -0.00001  -0.00002   0.00005  -0.00003   0.00136
  45        3S         -0.01028   0.00554  -0.01582  -0.00124   0.08222
  46        3PX         0.00022   0.00025   0.00034   0.00003  -0.00158
  47        3PY         0.00047  -0.00035   0.00053   0.00007  -0.00371
  48        3PZ         0.00008   0.00006  -0.00020   0.00010  -0.00010
  49        4S          0.00737  -0.00376   0.01065   0.00254  -0.04641
  50        4PX        -0.00075  -0.00079  -0.00102  -0.00077   0.00427
  51        4PY        -0.00158   0.00106  -0.00154  -0.00185   0.00993
  52        4PZ        -0.00018  -0.00016   0.00056   0.00005   0.00072
                           6         7         8         9        10
                           O         O         O         O         O
     Eigenvalues --   -10.52530 -10.52529  -7.98829  -7.98828  -7.98817
   1 1   Al 1S         -0.00000   0.00000  -0.00000  -0.00000   0.00007
   2        2S          0.00002  -0.00002   0.00006   0.00005  -0.00104
   3        2PX        -0.00019   0.00002  -0.00047  -0.00003  -0.00003
   4        2PY         0.00002   0.00019   0.00003  -0.00047  -0.00002
   5        2PZ        -0.00000   0.00000  -0.00001  -0.00000   0.00009
   6        3S          0.00002  -0.00001   0.00027   0.00021  -0.00475
   7        3PX        -0.00441   0.00039  -0.00389  -0.00021  -0.00023
   8        3PY         0.00039   0.00441   0.00022  -0.00390  -0.00016
   9        3PZ         0.00004  -0.00003  -0.00007  -0.00005   0.00119
  10        4S         -0.00095   0.00068   0.00082   0.00063  -0.01427
  11        4PX        -0.02181   0.00194  -0.00490  -0.00027  -0.00029
  12        4PY         0.00195   0.02181   0.00028  -0.00490  -0.00020
  13        4PZ         0.00021  -0.00015  -0.00012  -0.00009   0.00204
  14 2   Cl 1S          0.17327   0.18094  -0.00169   0.00219  -0.00197
  15        2S         -0.55670  -0.58136   0.00585  -0.00758   0.00682
  16        2PX         0.00321   0.00305   0.29014  -0.36928   0.33440
  17        2PY        -0.00387  -0.00428  -0.37307   0.48803  -0.43648
  18        2PZ        -0.00123  -0.00128  -0.10915   0.14108  -0.12459
  19        3S         -0.08175  -0.08528  -0.00296   0.00393  -0.00428
  20        3PX         0.00087   0.00325   0.02457  -0.03127   0.02820
  21        3PY        -0.00363  -0.00197  -0.03160   0.04131  -0.03680
  22        3PZ        -0.00102  -0.00112  -0.00923   0.01192  -0.01038
  23        4S          0.04334   0.04507   0.00520  -0.00703   0.00869
  24        4PX        -0.00064  -0.00823  -0.00845   0.01186  -0.01083
  25        4PY         0.00893   0.00334   0.01186  -0.01480   0.01423
  26        4PZ         0.00234   0.00258   0.00337  -0.00430   0.00337
  27 3   Cl 1S         -0.23926   0.05087   0.00284   0.00059  -0.00178
  28        2S          0.76871  -0.16343  -0.00980  -0.00205   0.00616
  29        2PX         0.00689  -0.00143   0.78471   0.16366  -0.49264
  30        2PY         0.00084  -0.00045   0.10107   0.02622  -0.06386
  31        2PZ         0.00169  -0.00036   0.18240   0.03812  -0.11234
  32        3S          0.11277  -0.02395   0.00508   0.00109  -0.00394
  33        3PX         0.00458  -0.00123   0.06643   0.01385  -0.04152
  34        3PY         0.00104   0.00186   0.00856   0.00221  -0.00538
  35        3PZ         0.00148  -0.00033   0.01541   0.00322  -0.00934
  36        4S         -0.05960   0.01262  -0.00908  -0.00198   0.00810
  37        4PX        -0.00984   0.00293  -0.02429  -0.00520   0.01611
  38        4PY        -0.00274  -0.00619  -0.00328  -0.00003   0.00211
  39        4PZ        -0.00341   0.00076  -0.00556  -0.00115   0.00299
  40 4   Cl 1S          0.07947  -0.24136  -0.00080  -0.00253  -0.00213
  41        2S         -0.25534   0.77547   0.00278   0.00874   0.00736
  42        2PX         0.00112  -0.00262   0.09046   0.26953   0.22828
  43        2PY         0.00203  -0.00649   0.20518   0.65190   0.54792
  44        2PZ        -0.00057   0.00171  -0.05184  -0.16283  -0.13468
  45        3S         -0.03752   0.11384  -0.00138  -0.00446  -0.00455
  46        3PX        -0.00120  -0.00239   0.00766   0.02283   0.01925
  47        3PY         0.00220  -0.00414   0.01739   0.05521   0.04621
  48        3PZ        -0.00045   0.00144  -0.00439  -0.01377  -0.01123
  49        4S          0.01993  -0.06029   0.00239   0.00786   0.00919
  50        4PX         0.00454   0.00583  -0.00208  -0.00856  -0.00737
  51        4PY        -0.00566   0.00879  -0.00659  -0.02002  -0.01777
  52        4PZ         0.00103  -0.00331   0.00161   0.00500   0.00368
                          11        12        13        14        15
                           O         O         O         O         O
     Eigenvalues --    -7.98528  -7.98512  -7.98512  -7.98494  -7.98490
   1 1   Al 1S         -0.00001   0.00000  -0.00000   0.00000   0.00000
   2        2S          0.00023  -0.00001   0.00001  -0.00000  -0.00000
   3        2PX         0.00000   0.00004  -0.00000  -0.00000  -0.00000
   4        2PY         0.00000  -0.00000  -0.00004   0.00000  -0.00000
   5        2PZ         0.00014  -0.00000   0.00000  -0.00000  -0.00000
   6        3S          0.00061  -0.00002   0.00002  -0.00000  -0.00000
   7        3PX        -0.00000  -0.00017   0.00002  -0.00003   0.00007
   8        3PY        -0.00000   0.00002   0.00019   0.00006   0.00039
   9        3PZ        -0.00041   0.00002  -0.00001   0.00000   0.00000
  10        4S         -0.00557   0.00020  -0.00015   0.00000   0.00004
  11        4PX        -0.00024  -0.00812   0.00093  -0.00074   0.00170
  12        4PY        -0.00014   0.00091   0.00853   0.00134   0.00917
  13        4PZ         0.00974  -0.00035   0.00026  -0.00000  -0.00007
  14 2   Cl 1S          0.00000  -0.00007  -0.00007  -0.00001  -0.00003
  15        2S          0.00005   0.00026   0.00028   0.00004   0.00017
  16        2PX         0.06704  -0.28209   0.14268  -0.41301   0.50434
  17        2PY        -0.10364  -0.07388   0.24408  -0.34008   0.30921
  18        2PZ         0.54330  -0.49601  -0.47226   0.07976   0.25092
  19        3S         -0.00158  -0.00145  -0.00170  -0.00043  -0.00176
  20        3PX         0.00562  -0.02334   0.01204  -0.03373   0.04111
  21        3PY        -0.00870  -0.00636   0.02012  -0.02775   0.02529
  22        3PZ         0.04484  -0.04032  -0.03837   0.00637   0.01998
  23        4S          0.00383   0.00409   0.00475   0.00117   0.00479
  24        4PX        -0.00261   0.00786  -0.00543   0.01033  -0.01392
  25        4PY         0.00395   0.00348  -0.00629   0.00875  -0.00772
  26        4PZ        -0.01551   0.01248   0.01183  -0.00168  -0.00508
  27 3   Cl 1S          0.00000   0.00009  -0.00002   0.00000  -0.00002
  28        2S          0.00003  -0.00037   0.00009  -0.00001   0.00008
  29        2PX        -0.12978  -0.15856  -0.01783  -0.07913  -0.10019
  30        2PY        -0.02077   0.07413   0.39347   0.65792   0.56350
  31        2PZ         0.57961   0.64961  -0.14553  -0.02628   0.10994
  32        3S         -0.00150   0.00217  -0.00058   0.00016  -0.00080
  33        3PX        -0.01086  -0.01285  -0.00156  -0.00646  -0.00814
  34        3PY        -0.00174   0.00621   0.03271   0.05369   0.04598
  35        3PZ         0.04778   0.05275  -0.01181  -0.00210   0.00874
  36        4S          0.00361  -0.00606   0.00161  -0.00043   0.00219
  37        4PX         0.00483   0.00277   0.00108   0.00195   0.00303
  38        4PY         0.00076  -0.00255  -0.01203  -0.01682  -0.01529
  39        4PZ        -0.01641  -0.01619   0.00361   0.00055  -0.00220
  40 4   Cl 1S         -0.00000  -0.00003   0.00009   0.00000   0.00005
  41        2S          0.00006   0.00010  -0.00037  -0.00002  -0.00024
  42        2PX         0.03989  -0.33513  -0.03630   0.42177  -0.24136
  43        2PY         0.11109   0.08697   0.17757  -0.18952   0.00279
  44        2PZ         0.52077  -0.21335   0.66101  -0.05384  -0.37211
  45        3S         -0.00162  -0.00055   0.00216   0.00027   0.00259
  46        3PX         0.00335  -0.02790  -0.00316   0.03445  -0.01966
  47        3PY         0.00933   0.00735   0.01448  -0.01546   0.00031
  48        3PZ         0.04301  -0.01736   0.05374  -0.00430  -0.02965
  49        4S          0.00396   0.00156  -0.00606  -0.00074  -0.00705
  50        4PX        -0.00159   0.01026   0.00197  -0.01052   0.00678
  51        4PY        -0.00434  -0.00327  -0.00357   0.00486   0.00092
  52        4PZ        -0.01496   0.00541  -0.01667   0.00114   0.00760
                          16        17        18        19        20
                           O         O         O         O         O
     Eigenvalues --    -7.98489  -5.04545  -3.34973  -3.34973  -3.34945
   1 1   Al 1S          0.00000  -0.28412  -0.00000  -0.00000   0.00109
   2        2S         -0.00000   1.01101   0.00000   0.00000  -0.00389
   3        2PX        -0.00000  -0.00000   0.94670   0.24490  -0.00002
   4        2PY         0.00000  -0.00000  -0.24490   0.94670  -0.00012
   5        2PZ        -0.00000   0.00429  -0.00001   0.00012   0.97954
   6        3S         -0.00000   0.09377   0.00000  -0.00000  -0.00124
   7        3PX         0.00040   0.00000   0.09046   0.02340  -0.00000
   8        3PY        -0.00007   0.00000  -0.02340   0.09045  -0.00001
   9        3PZ         0.00000  -0.00187  -0.00000   0.00001   0.08328
  10        4S          0.00004  -0.02533   0.00000   0.00000  -0.00367
  11        4PX         0.00958   0.00000  -0.02430  -0.00629   0.00000
  12        4PY        -0.00158   0.00000   0.00629  -0.02430   0.00000
  13        4PZ        -0.00007  -0.00146   0.00000  -0.00000  -0.02854
  14 2   Cl 1S          0.00004   0.00001   0.00007  -0.00005  -0.00002
  15        2S         -0.00019   0.00005  -0.00014   0.00011   0.00007
  16        2PX         0.29460  -0.00002   0.00005  -0.00015  -0.00004
  17        2PY         0.30539   0.00002  -0.00018   0.00006   0.00005
  18        2PZ        -0.26115   0.00005  -0.00005   0.00004   0.00006
  19        3S          0.00201   0.00268   0.00046  -0.00036  -0.00041
  20        3PX         0.02409  -0.00018   0.00089  -0.00028  -0.00012
  21        3PY         0.02487   0.00023  -0.00074   0.00090   0.00016
  22        3PZ        -0.02078  -0.00017  -0.00014   0.00011  -0.00032
  23        4S         -0.00547  -0.00534  -0.00422   0.00330   0.00158
  24        4PX        -0.00757   0.00508   0.00485  -0.00591  -0.00146
  25        4PY        -0.00897  -0.00664  -0.00846   0.00501   0.00192
  26        4PZ         0.00526  -0.00086  -0.00210   0.00165   0.00067
  27 3   Cl 1S         -0.00005   0.00001  -0.00008  -0.00003  -0.00002
  28        2S          0.00025   0.00005   0.00017   0.00007   0.00007
  29        2PX        -0.06179   0.00003   0.00020   0.00010   0.00007
  30        2PY        -0.15136   0.00000   0.00007  -0.00009   0.00001
  31        2PZ         0.33142   0.00005   0.00006   0.00003   0.00006
  32        3S         -0.00261   0.00268  -0.00054  -0.00022  -0.00041
  33        3PX        -0.00495   0.00029   0.00133   0.00048   0.00020
  34        3PY        -0.01234   0.00004   0.00002   0.00045   0.00003
  35        3PZ         0.02634  -0.00017   0.00016   0.00006  -0.00032
  36        4S          0.00712  -0.00534   0.00497   0.00200   0.00158
  37        4PX         0.00269  -0.00829   0.01119   0.00479   0.00239
  38        4PY         0.00433  -0.00108   0.00224  -0.00134   0.00031
  39        4PZ        -0.00659  -0.00086   0.00248   0.00100   0.00067
  40 4   Cl 1S          0.00001   0.00001   0.00001   0.00009  -0.00002
  41        2S         -0.00006   0.00005  -0.00003  -0.00018   0.00007
  42        2PX         0.68157  -0.00001  -0.00009   0.00010  -0.00003
  43        2PY        -0.30529  -0.00003   0.00007   0.00020  -0.00006
  44        2PZ        -0.08207   0.00005  -0.00001  -0.00007   0.00006
  45        3S          0.00064   0.00268   0.00008   0.00058  -0.00041
  46        3PX         0.05564  -0.00011   0.00045   0.00049  -0.00008
  47        3PY        -0.02490  -0.00027   0.00003   0.00133  -0.00018
  48        3PZ        -0.00654  -0.00017  -0.00002  -0.00017  -0.00032
  49        4S         -0.00173  -0.00534  -0.00076  -0.00530   0.00158
  50        4PX        -0.01824   0.00321  -0.00125   0.00494  -0.00093
  51        4PY         0.00846   0.00772   0.00239   0.01111  -0.00223
  52        4PZ         0.00167  -0.00086  -0.00038  -0.00264   0.00067
                          21        22        23        24        25
                           O         O         O         O         O
     Eigenvalues --    -1.12536  -1.10679  -1.10677  -0.62220  -0.54239
   1 1   Al 1S          0.01795  -0.00000   0.00000   0.04297   0.00000
   2        2S         -0.08374   0.00002  -0.00002  -0.20428  -0.00000
   3        2PX         0.00001   0.05128  -0.00507  -0.00000   0.12049
   4        2PY         0.00001  -0.00507  -0.05127   0.00000  -0.00503
   5        2PZ         0.01138  -0.00000   0.00000   0.01500  -0.00000
   6        3S          0.13089  -0.00003   0.00003   0.39326  -0.00000
   7        3PX        -0.00001  -0.07279   0.00719   0.00000  -0.27064
   8        3PY        -0.00002   0.00719   0.07278  -0.00000   0.01129
   9        3PZ        -0.01262   0.00000  -0.00000  -0.02769   0.00000
  10        4S         -0.04931   0.00001  -0.00001   0.06131   0.00000
  11        4PX         0.00001   0.04298  -0.00425  -0.00001  -0.01326
  12        4PY         0.00001  -0.00425  -0.04297  -0.00000   0.00055
  13        4PZ         0.01521  -0.00000   0.00000   0.01925   0.00000
  14 2   Cl 1S          0.04411  -0.04411  -0.04719  -0.01470   0.00722
  15        2S         -0.25937   0.25953   0.27766   0.08846  -0.04380
  16        2PX         0.01315  -0.00938  -0.01186   0.07357   0.00529
  17        2PY        -0.01719   0.01415   0.01374  -0.09618   0.13900
  18        2PZ        -0.00421   0.00380   0.00407  -0.01710   0.02304
  19        3S          0.31460  -0.31708  -0.33923  -0.12963   0.06307
  20        3PX        -0.02568   0.01834   0.02265  -0.15602  -0.01380
  21        3PY         0.03357  -0.02711  -0.02667   0.20396  -0.29831
  22        3PZ         0.00839  -0.00706  -0.00755   0.03587  -0.04900
  23        4S          0.30740  -0.30513  -0.32644  -0.10003   0.06470
  24        4PX        -0.02664   0.01649   0.02571  -0.12014  -0.01958
  25        4PY         0.03481  -0.02989  -0.02581   0.15705  -0.23094
  26        4PZ         0.00673  -0.00904  -0.00968   0.02623  -0.03673
  27 3   Cl 1S          0.04413   0.06292  -0.01458  -0.01470  -0.01111
  28        2S         -0.25948  -0.37019   0.08578   0.08846   0.06742
  29        2PX        -0.02148  -0.02391   0.00575  -0.12009  -0.16110
  30        2PY        -0.00279  -0.00347  -0.00080  -0.01561  -0.04074
  31        2PZ        -0.00421  -0.00542   0.00126  -0.01710  -0.03548
  32        3S          0.31473   0.45228  -0.10480  -0.12963  -0.09709
  33        3PX         0.04192   0.04613  -0.01103   0.25466   0.34341
  34        3PY         0.00545   0.00659   0.00113   0.03310   0.08757
  35        3PZ         0.00839   0.01007  -0.00233   0.03587   0.07545
  36        4S          0.30752   0.43523  -0.10085  -0.10002  -0.09959
  37        4PX         0.04348   0.04755  -0.01193   0.19609   0.25741
  38        4PY         0.00565   0.00776   0.00526   0.02549   0.06827
  39        4PZ         0.00673   0.01290  -0.00299   0.02624   0.05656
  40 4   Cl 1S          0.04409  -0.01884   0.06180  -0.01470   0.00389
  41        2S         -0.25924   0.11085  -0.36364   0.08845  -0.02363
  42        2PX         0.00832  -0.00139   0.00954   0.04652   0.07775
  43        2PY         0.01998  -0.00726   0.02173   0.11179  -0.09500
  44        2PZ        -0.00421   0.00162  -0.00533  -0.01710   0.01243
  45        3S          0.31444  -0.13543   0.44427  -0.12962   0.03403
  46        3PX        -0.01623   0.00306  -0.01829  -0.09866  -0.16935
  47        3PY        -0.03900   0.01384  -0.04196  -0.23706   0.20405
  48        3PZ         0.00838  -0.00301   0.00989   0.03587  -0.02644
  49        4S          0.30725  -0.13032   0.42752  -0.10002   0.03492
  50        4PX        -0.01684  -0.00058  -0.02004  -0.07596  -0.14018
  51        4PY        -0.04045   0.01586  -0.04290  -0.18253   0.15858
  52        4PZ         0.00672  -0.00386   0.01267   0.02623  -0.01981
                          26        27        28        29        30
                           O         O         O         O         O
     Eigenvalues --    -0.54238  -0.51627  -0.49188  -0.49188  -0.48853
   1 1   Al 1S          0.00000   0.00359  -0.00000   0.00000   0.00000
   2        2S         -0.00000  -0.01730   0.00001  -0.00001  -0.00000
   3        2PX        -0.00502  -0.00000   0.03156  -0.00171  -0.02055
   4        2PY        -0.12047  -0.00000  -0.00171  -0.03160   0.00129
   5        2PZ         0.00000  -0.06542   0.00001  -0.00001   0.00001
   6        3S          0.00001   0.03060  -0.00001   0.00001   0.00001
   7        3PX         0.01128   0.00000  -0.06441   0.00350   0.03920
   8        3PY         0.27060   0.00000   0.00348   0.06449  -0.00245
   9        3PZ        -0.00000   0.14175  -0.00002   0.00001  -0.00002
  10        4S          0.00000   0.00518  -0.00002   0.00001   0.00000
  11        4PX         0.00056  -0.00001   0.05724  -0.00311  -0.09599
  12        4PY         0.01329  -0.00000  -0.00309  -0.05738   0.00600
  13        4PZ        -0.00000   0.08208  -0.00001   0.00001  -0.00001
  14 2   Cl 1S          0.00866  -0.00056   0.00246   0.00288  -0.00152
  15        2S         -0.05256   0.00328  -0.01481  -0.01735   0.00902
  16        2PX        -0.13684  -0.01652  -0.11339   0.04746   0.11807
  17        2PY         0.05728   0.02159  -0.03629   0.09556  -0.00567
  18        2PZ         0.02766  -0.14908   0.10299   0.12036   0.10228
  19        3S          0.07569  -0.01238   0.03448   0.04041  -0.02836
  20        3PX         0.29386   0.03680   0.24368  -0.10452  -0.25574
  21        3PY        -0.12053  -0.04809   0.08057  -0.20426   0.00936
  22        3PZ        -0.05882   0.32319  -0.22068  -0.25789  -0.22161
  23        4S          0.07765   0.01727  -0.01755  -0.02061   0.03771
  24        4PX         0.22823   0.02279   0.21788  -0.08663  -0.22080
  25        4PY        -0.08459  -0.02977   0.06509  -0.18558   0.02732
  26        4PZ        -0.04409   0.26748  -0.20473  -0.23928  -0.19363
  27 3   Cl 1S          0.00192  -0.00056  -0.00372   0.00069   0.00227
  28        2S         -0.01164   0.00328   0.02241  -0.00416  -0.01350
  29        2PX         0.04291   0.02697  -0.06364  -0.00750   0.11611
  30        2PY        -0.10913   0.00350   0.01887   0.14537  -0.00795
  31        2PZ         0.00613  -0.14913  -0.15583   0.02884  -0.15307
  32        3S          0.01676  -0.01238  -0.05219   0.00970   0.04244
  33        3PX        -0.09201  -0.06008   0.13374   0.01695  -0.24810
  34        3PY         0.23673  -0.00780  -0.04133  -0.31435   0.01812
  35        3PZ        -0.01303   0.32329   0.33391  -0.06180   0.33166
  36        4S          0.01719   0.01726   0.02659  -0.00495  -0.05645
  37        4PX        -0.07098  -0.03721   0.12774   0.01290  -0.23651
  38        4PY         0.19243  -0.00483  -0.03487  -0.27581   0.00977
  39        4PZ        -0.00976   0.26757   0.30979  -0.05734   0.28978
  40 4   Cl 1S         -0.01058  -0.00056   0.00126  -0.00358  -0.00075
  41        2S          0.06420   0.00328  -0.00761   0.02152   0.00448
  42        2PX         0.09717  -0.01044  -0.13613  -0.02295   0.11888
  43        2PY         0.12975  -0.02509   0.03434   0.07276  -0.00845
  44        2PZ        -0.03378  -0.14904   0.05290  -0.14924   0.05085
  45        3S         -0.09246  -0.01238   0.01772  -0.05011  -0.01409
  46        3PX        -0.20851   0.02326   0.29394   0.05109  -0.25911
  47        3PY        -0.27612   0.05588  -0.07552  -0.15388   0.02021
  48        3PZ         0.07183   0.32309  -0.11334   0.31978  -0.11018
  49        4S         -0.09485   0.01727  -0.00902   0.02556   0.01873
  50        4PX        -0.16130   0.01440   0.25908   0.04088  -0.21310
  51        4PY        -0.20523   0.03460  -0.06290  -0.14429   0.00481
  52        4PZ         0.05384   0.26739  -0.10515   0.29670  -0.09627
                          31        32        33        34        35
                           O         O         V         V         V
     Eigenvalues --    -0.48852  -0.47947  -0.04191   0.07490   0.13121
   1 1   Al 1S         -0.00000  -0.00000   0.03339   0.03294   0.00001
   2        2S          0.00000   0.00000  -0.18645  -0.18255  -0.00003
   3        2PX         0.00128   0.00001   0.00001   0.00003  -0.00261
   4        2PY         0.02052  -0.00002   0.00000   0.00001  -0.12081
   5        2PZ        -0.00001   0.00000  -0.13259   0.12512   0.00001
   6        3S         -0.00000   0.00000   0.20285   0.24081   0.00006
   7        3PX        -0.00244  -0.00002  -0.00003  -0.00009   0.00650
   8        3PY        -0.03914   0.00004  -0.00001  -0.00003   0.30062
   9        3PZ         0.00002  -0.00000   0.31011  -0.31316  -0.00001
  10        4S         -0.00000   0.00000   0.90061   0.98729   0.00011
  11        4PX         0.00598   0.00005  -0.00004  -0.00022   0.03299
  12        4PY         0.09589  -0.00010  -0.00002  -0.00009   1.52713
  13        4PZ         0.00001  -0.00000   0.39417  -0.74868  -0.00007
  14 2   Cl 1S         -0.00174   0.00000  -0.00758  -0.01203   0.01273
  15        2S          0.01036  -0.00001   0.04719   0.07536  -0.08112
  16        2PX        -0.00880   0.13046  -0.03809  -0.04865   0.06097
  17        2PY        -0.11716   0.09994   0.04978   0.06356  -0.00303
  18        2PZ         0.11786  -0.00002   0.05907  -0.03619  -0.02402
  19        3S         -0.03258   0.00004  -0.03721  -0.07406   0.03108
  20        3PX         0.02191  -0.28374   0.08098   0.10426  -0.12721
  21        3PY         0.25260  -0.21735  -0.10583  -0.13621   0.00021
  22        3PZ        -0.25537   0.00005  -0.12569   0.07947   0.05394
  23        4S          0.04337  -0.00006  -0.22435  -0.36291   0.67023
  24        4PX         0.00016  -0.24515   0.13262   0.21079  -0.35261
  25        4PY         0.22587  -0.18782  -0.17332  -0.27544   0.12198
  26        4PZ        -0.22315   0.00003  -0.19889   0.13081   0.10336
  27 3   Cl 1S         -0.00044  -0.00000  -0.00759  -0.01203   0.00245
  28        2S          0.00261   0.00000   0.04720   0.07539  -0.01561
  29        2PX        -0.00682   0.02112   0.06216   0.07940  -0.01703
  30        2PY        -0.11916  -0.16280   0.00808   0.01032   0.07215
  31        2PZ         0.02974   0.00001   0.05908  -0.03618  -0.00462
  32        3S         -0.00822  -0.00002  -0.03722  -0.07408   0.00598
  33        3PX         0.01381  -0.04594  -0.13216  -0.17014   0.03536
  34        3PY         0.26030   0.35406  -0.01717  -0.02210  -0.15647
  35        3PZ        -0.06444  -0.00002  -0.12569   0.07945   0.01038
  36        4S          0.01094   0.00002  -0.22438  -0.36308   0.12895
  37        4PX         0.01828  -0.03969  -0.21645  -0.34406   0.10137
  38        4PY         0.21022   0.30594  -0.02813  -0.04471  -0.31554
  39        4PZ        -0.05631  -0.00001  -0.19889   0.13078   0.01990
  40 4   Cl 1S          0.00218  -0.00000  -0.00758  -0.01203  -0.01518
  41        2S         -0.01298   0.00001   0.04719   0.07535   0.09676
  42        2PX        -0.00637  -0.15181  -0.02409  -0.03077  -0.04316
  43        2PY        -0.11633   0.06325  -0.05786  -0.07389  -0.03301
  44        2PZ        -0.14765   0.00001   0.05907  -0.03619   0.02864
  45        3S          0.04080  -0.00003  -0.03721  -0.07406  -0.03708
  46        3PX         0.01181   0.33015   0.05121   0.06593   0.08983
  47        3PY         0.24918  -0.13757   0.12302   0.15833   0.06271
  48        3PZ         0.31992  -0.00003  -0.12568   0.07947  -0.06432
  49        4S         -0.05430   0.00004  -0.22433  -0.36283  -0.79937
  50        4PX         0.02332   0.28526   0.08387   0.13330   0.25347
  51        4PY         0.23351  -0.11887   0.20147   0.32016   0.29650
  52        4PZ         0.27955  -0.00002  -0.19888   0.13083  -0.12325
                          36        37        38        39        40
                           V         V         V         V         V
     Eigenvalues --     0.13124   0.23157   0.28956   0.32643   0.32645
   1 1   Al 1S          0.00001  -0.05220   0.02009   0.00000   0.00000
   2        2S         -0.00006   0.08731  -0.03715  -0.00000  -0.00001
   3        2PX        -0.12078  -0.00002   0.00002  -0.03028  -0.32720
   4        2PY         0.00261  -0.00001   0.00000  -0.32719   0.03028
   5        2PZ         0.00001   0.10060   0.27714   0.00000   0.00001
   6        3S          0.00011  -1.72246   0.64797   0.00004   0.00013
   7        3PX         0.30054   0.00008  -0.00009   0.14226   1.53739
   8        3PY        -0.00649   0.00003  -0.00002   1.53730  -0.14226
   9        3PZ        -0.00003  -0.43200  -1.25417  -0.00001  -0.00006
  10        4S          0.00031   1.98905  -0.64463  -0.00004  -0.00009
  11        4PX         1.52745   0.00006   0.00006  -0.11107  -1.20017
  12        4PY        -0.03300   0.00005  -0.00000  -1.20026   0.11106
  13        4PZ        -0.00016   0.28758   1.25658   0.00001   0.00005
  14 2   Cl 1S         -0.01019  -0.00239   0.00003   0.00369  -0.00341
  15        2S          0.06491   0.01596  -0.00045  -0.02339   0.02159
  16        2PX         0.02708   0.02451  -0.01662   0.03631  -0.02982
  17        2PY         0.06046  -0.03203   0.02172  -0.04366   0.04313
  18        2PZ         0.01921  -0.01224   0.01270  -0.00925   0.00854
  19        3S         -0.02488   0.01205  -0.00959   0.03882  -0.03584
  20        3PX        -0.06255  -0.05988   0.03881  -0.08220   0.06215
  21        3PY        -0.12588   0.07827  -0.05073   0.09331  -0.09662
  22        3PZ        -0.04314   0.03090  -0.02685   0.01875  -0.01732
  23        4S         -0.53628  -0.32470   0.14553  -0.13540   0.12494
  24        4PX        -0.05326   0.01682   0.02511  -0.12759   0.20334
  25        4PY        -0.35422  -0.02202  -0.03282   0.25516  -0.17005
  26        4PZ        -0.08266  -0.01762  -0.11144   0.04654  -0.04296
  27 3   Cl 1S          0.01612  -0.00238   0.00003   0.00110   0.00490
  28        2S         -0.10270   0.01595  -0.00044  -0.00699  -0.03105
  29        2PX        -0.04806  -0.04000   0.02713  -0.01725  -0.07460
  30        2PY        -0.01755  -0.00520   0.00353   0.00111  -0.01046
  31        2PZ        -0.03041  -0.01224   0.01270  -0.00277  -0.01228
  32        3S          0.03935   0.01206  -0.00960   0.01160   0.05154
  33        3PX         0.09406   0.09774  -0.06336   0.03837   0.16294
  34        3PY         0.03671   0.01270  -0.00824  -0.00749   0.02400
  35        3PZ         0.06830   0.03091  -0.02685   0.00561   0.02490
  36        4S          0.84855  -0.32464   0.14553  -0.04048  -0.17968
  37        4PX         0.38416  -0.02743  -0.04102   0.07312   0.37111
  38        4PY         0.09992  -0.00358  -0.00533   0.08740   0.03070
  39        4PZ         0.13087  -0.01761  -0.11144   0.01391   0.06178
  40 4   Cl 1S         -0.00594  -0.00239   0.00003  -0.00480  -0.00150
  41        2S          0.03786   0.01597  -0.00045   0.03038   0.00947
  42        2PX         0.05705   0.01550  -0.01051  -0.02926  -0.00582
  43        2PY        -0.04369   0.03723  -0.02525  -0.06767  -0.02247
  44        2PZ         0.01120  -0.01223   0.01270   0.01202   0.00375
  45        3S         -0.01451   0.01205  -0.00960  -0.05045  -0.01573
  46        3PX        -0.12501  -0.03787   0.02454   0.06540   0.00811
  47        3PY         0.09119  -0.09098   0.05897   0.14735   0.05104
  48        3PZ        -0.02515   0.03090  -0.02685  -0.02436  -0.00760
  49        4S         -0.31274  -0.32474   0.14554   0.17595   0.05483
  50        4PX        -0.22774   0.01065   0.01587   0.11811   0.11337
  51        4PY         0.25207   0.02562   0.03814   0.34509   0.07570
  52        4PZ        -0.04819  -0.01763  -0.11144  -0.06045  -0.01885
                          41        42        43        44        45
                           V         V         V         V         V
     Eigenvalues --     0.72568   0.72569   0.75802   0.77120   0.77123
   1 1   Al 1S         -0.00000   0.00000  -0.00062   0.00000  -0.00000
   2        2S          0.00002  -0.00001   0.05960  -0.00001   0.00000
   3        2PX        -0.00817   0.00013   0.00000  -0.00676   0.00022
   4        2PY         0.00013   0.00817   0.00000   0.00022   0.00676
   5        2PZ        -0.00000   0.00000  -0.00431   0.00000  -0.00000
   6        3S          0.00008  -0.00004   0.39699  -0.00001   0.00000
   7        3PX        -0.01800   0.00030   0.00002  -0.00205   0.00007
   8        3PY         0.00030   0.01799   0.00001   0.00007   0.00209
   9        3PZ         0.00000   0.00000  -0.02808  -0.00001   0.00000
  10        4S         -0.00021   0.00010  -0.44064   0.00013  -0.00006
  11        4PX         0.13733  -0.00226  -0.00002   0.18459  -0.00609
  12        4PY        -0.00227  -0.13736  -0.00001  -0.00609  -0.18453
  13        4PZ         0.00001  -0.00000  -0.02323  -0.00001  -0.00000
  14 2   Cl 1S          0.02478   0.03135  -0.02586   0.00920   0.01123
  15        2S         -0.15142  -0.19152   0.15810  -0.05604  -0.06840
  16        2PX         0.05506  -0.13994   0.09218  -0.04208   0.02892
  17        2PY         0.13931   0.01588  -0.12062  -0.02658   0.02898
  18        2PZ        -0.01188  -0.01503   0.02715   0.17184   0.20997
  19        3S          0.67162   0.84949  -0.70565   0.26378   0.32194
  20        3PX        -0.18806   0.48145  -0.32195   0.14841  -0.10413
  21        3PY        -0.47935  -0.05603   0.42131   0.09590  -0.10119
  22        3PZ         0.04156   0.05257  -0.09484  -0.59885  -0.73173
  23        4S         -0.67680  -0.85608   0.73912  -0.30671  -0.37430
  24        4PX         0.16437  -0.42940   0.30645  -0.15225   0.13016
  25        4PY         0.42766   0.05336  -0.40101  -0.12212   0.09273
  26        4PZ        -0.04367  -0.05525   0.09677   0.57120   0.69797
  27 3   Cl 1S         -0.03954   0.00581  -0.02585  -0.01433   0.00234
  28        2S          0.24161  -0.03550   0.15804   0.08726  -0.01427
  29        2PX        -0.11908   0.03882  -0.15049  -0.00821  -0.00703
  30        2PY        -0.03947  -0.15823  -0.01959   0.00937   0.06285
  31        2PZ         0.01897  -0.00279   0.02711  -0.26776   0.04384
  32        3S         -1.07167   0.15748  -0.70537  -0.41069   0.06718
  33        3PX         0.41110  -0.13360   0.52563   0.02633   0.02542
  34        3PY         0.13579   0.54304   0.06842  -0.03367  -0.22325
  35        3PZ        -0.06635   0.00975  -0.09473   0.93311  -0.15279
  36        4S          1.08000  -0.15871   0.73885   0.47749  -0.07810
  37        4PX        -0.37008   0.11923  -0.50032   0.00167  -0.03320
  38        4PY        -0.12108  -0.48103  -0.06512   0.04130   0.24665
  39        4PZ         0.06972  -0.01025   0.09667  -0.89004   0.14574
  40 4   Cl 1S          0.01473  -0.03714  -0.02587   0.00514  -0.01358
  41        2S         -0.08999   0.22693   0.15814  -0.03129   0.08271
  42        2PX         0.12282   0.10014   0.05829  -0.05628  -0.01838
  43        2PY        -0.10081   0.08362   0.14020   0.02073   0.01478
  44        2PZ        -0.00706   0.01780   0.02715   0.09591  -0.25380
  45        3S          0.39915  -1.00654  -0.70582   0.14729  -0.38929
  46        3PX        -0.42119  -0.34458  -0.20359   0.19957   0.06635
  47        3PY         0.34682  -0.28911  -0.48967  -0.07459  -0.05001
  48        3PZ         0.02469  -0.06228  -0.09487  -0.33423   0.88449
  49        4S         -0.40222   1.01432   0.73929  -0.17127   0.45262
  50        4PX         0.37233   0.30742   0.19378  -0.21679  -0.08483
  51        4PY        -0.30932   0.26128   0.46608   0.09294   0.02817
  52        4PZ        -0.02595   0.06544   0.09680   0.31880  -0.84367
                          46        47        48        49        50
                           V         V         V         V         V
     Eigenvalues --     0.84971   0.85372   0.87700   0.87704   0.96657
   1 1   Al 1S         -0.00000  -0.00488   0.00000   0.00000   0.00001
   2        2S         -0.00000  -0.00203   0.00000   0.00000  -0.00006
   3        2PX        -0.00000   0.00000   0.00369   0.00008  -0.02950
   4        2PY         0.00001   0.00000  -0.00008   0.00369   0.00058
   5        2PZ        -0.00000  -0.00415   0.00000   0.00000   0.00001
   6        3S         -0.00000  -0.32446   0.00005   0.00003   0.00008
   7        3PX        -0.00014  -0.00002   0.29838   0.00626   0.44722
   8        3PY         0.00031   0.00000  -0.00626   0.29825  -0.00884
   9        3PZ         0.00000   0.08598  -0.00001  -0.00000  -0.00008
  10        4S         -0.00000  -0.35356  -0.00004  -0.00003   0.00118
  11        4PX         0.00013  -0.00009  -0.37841  -0.00795   1.16885
  12        4PY        -0.00028  -0.00004   0.00793  -0.37872  -0.02309
  13        4PZ        -0.00000  -0.41422   0.00005   0.00004  -0.00039
  14 2   Cl 1S          0.00000  -0.00791   0.00178  -0.00223   0.02480
  15        2S         -0.00001   0.04743  -0.01082   0.01355  -0.14904
  16        2PX        -0.16150  -0.03937   0.19412  -0.02353  -0.04222
  17        2PY        -0.12320   0.05149  -0.03222   0.20821  -0.13405
  18        2PZ        -0.00005   0.18935   0.02702  -0.03389  -0.05332
  19        3S         -0.00000  -0.27983   0.05721  -0.07156   0.85916
  20        3PX         0.57351   0.14775  -0.69826   0.08608   0.15813
  21        3PY         0.43746  -0.19321   0.11734  -0.74968   0.51352
  22        3PZ         0.00016  -0.68092  -0.09617   0.12062   0.19946
  23        4S         -0.00003   0.37482  -0.00838   0.01033  -1.27580
  24        4PX        -0.58531  -0.21167   0.77135  -0.09849  -0.17708
  25        4PY        -0.44637   0.27679  -0.13307   0.82982  -0.83430
  26        4PZ        -0.00016   0.77325   0.09770  -0.12258  -0.28130
  27 3   Cl 1S         -0.00000  -0.00791  -0.00283  -0.00043  -0.03932
  28        2S          0.00000   0.04741   0.01716   0.00260   0.23623
  29        2PX        -0.02629   0.06430   0.22881   0.01218   0.12423
  30        2PY         0.20160   0.00836   0.00382   0.17332   0.03817
  31        2PZ         0.00001   0.18933  -0.04286  -0.00650   0.08475
  32        3S         -0.00000  -0.27973  -0.09069  -0.01372  -1.36174
  33        3PX         0.09336  -0.24128  -0.82485  -0.04423  -0.47938
  34        3PY        -0.71589  -0.03138  -0.01413  -0.62239  -0.14612
  35        3PZ        -0.00005  -0.68087   0.15251   0.02314  -0.31702
  36        4S          0.00002   0.37466   0.01336   0.00199   2.02204
  37        4PX        -0.09530   0.34559   0.91545   0.04984   0.85644
  38        4PY         0.73059   0.04494   0.01655   0.68507   0.23533
  39        4PZ         0.00005   0.77319  -0.15496  -0.02353   0.44700
  40 4   Cl 1S         -0.00000  -0.00792   0.00104   0.00266   0.01457
  41        2S          0.00000   0.04743  -0.00632  -0.01613  -0.08756
  42        2PX         0.18754  -0.02489   0.18051   0.02401  -0.10805
  43        2PY        -0.07784  -0.05983   0.01574   0.22191   0.09640
  44        2PZ         0.00003   0.18936   0.01579   0.04037  -0.03129
  45        3S          0.00001  -0.27984   0.03341   0.08522   0.50477
  46        3PX        -0.66596   0.09341  -0.64859  -0.08742   0.41030
  47        3PY         0.27640   0.22451  -0.05764  -0.79968  -0.36917
  48        3PZ        -0.00011  -0.68096  -0.05618  -0.14364   0.11705
  49        4S          0.00001   0.37484  -0.00486  -0.01222  -0.74955
  50        4PX         0.67962  -0.13383   0.71475   0.09905  -0.58601
  51        4PY        -0.28201  -0.32165   0.06612   0.88672   0.59713
  52        4PZ         0.00011   0.77328   0.05707   0.14597  -0.16508
                          51        52
                           V         V
     Eigenvalues --     0.96658   0.99338
   1 1   Al 1S         -0.00000   0.01196
   2        2S          0.00003  -0.07362
   3        2PX         0.00058   0.00001
   4        2PY         0.02948   0.00000
   5        2PZ        -0.00000   0.01046
   6        3S         -0.00002   0.23874
   7        3PX        -0.00883  -0.00022
   8        3PY        -0.44719  -0.00008
   9        3PZ         0.00003  -0.13177
  10        4S         -0.00048   1.67445
  11        4PX        -0.02308  -0.00062
  12        4PY        -1.16842  -0.00023
  13        4PZ         0.00015  -0.59448
  14 2   Cl 1S          0.03110   0.03049
  15        2S         -0.18688  -0.18313
  16        2PX         0.13435   0.07141
  17        2PY        -0.02492  -0.09315
  18        2PZ        -0.06699   0.06877
  19        3S          1.07718   1.08282
  20        3PX        -0.51450  -0.28373
  21        3PY         0.09900   0.37015
  22        3PZ         0.25058  -0.25550
  23        4S         -1.59937  -1.59046
  24        4PX         0.83257   0.52957
  25        4PY        -0.23955  -0.69123
  26        4PZ        -0.35333   0.31849
  27 3   Cl 1S          0.00590   0.03052
  28        2S         -0.03544  -0.18332
  29        2PX        -0.03781  -0.11652
  30        2PY         0.14167  -0.01512
  31        2PZ        -0.01273   0.06872
  32        3S          0.20428   1.08388
  33        3PX         0.14490   0.46297
  34        3PY        -0.53906   0.06007
  35        3PZ         0.04763  -0.25531
  36        4S         -0.30330  -1.59201
  37        4PX        -0.23643  -0.86428
  38        4PY         0.79480  -0.11219
  39        4PZ        -0.06715   0.31820
  40 4   Cl 1S         -0.03702   0.03048
  41        2S          0.22247  -0.18307
  42        2PX        -0.09602   0.04517
  43        2PY        -0.09081   0.10830
  44        2PZ         0.07967   0.06879
  45        3S         -1.28234   1.08247
  46        3PX         0.36785  -0.17945
  47        3PY         0.35138  -0.43032
  48        3PZ        -0.29801  -0.25556
  49        4S          1.90400  -1.58995
  50        4PX        -0.59799   0.33492
  51        4PY        -0.64879   0.80353
  52        4PZ         0.42023   0.31857
     Density Matrix:
                           1         2         3         4         5
   1 1   Al 1S          2.12020
   2        2S         -0.50785   2.14629
   3        2PX        -0.00000   0.00000   1.94967
   4        2PY         0.00000  -0.00000  -0.00000   1.94967
   5        2PZ         0.00084  -0.00472   0.00000   0.00000   1.92830
   6        3S         -0.03761   0.00496  -0.00000  -0.00000   0.00915
   7        3PX        -0.00000  -0.00000   0.10418   0.00000  -0.00000
   8        3PY        -0.00000  -0.00000   0.00000   0.10418  -0.00000
   9        3PZ         0.00044   0.00413  -0.00000  -0.00000   0.14346
  10        4S          0.01948  -0.06814   0.00001   0.00000  -0.00736
  11        4PX        -0.00000   0.00001  -0.04023  -0.00000  -0.00000
  12        4PY        -0.00000   0.00000  -0.00000  -0.04025  -0.00000
  13        4PZ         0.00500  -0.01590  -0.00000  -0.00000  -0.06574
  14 2   Cl 1S          0.00027  -0.00081  -0.00219   0.00286   0.00058
  15        2S         -0.00160   0.00620   0.01252  -0.01636  -0.00351
  16        2PX         0.00678  -0.03238  -0.01065   0.03159   0.00467
  17        2PY        -0.00886   0.04232   0.03158  -0.02778  -0.00611
  18        2PZ        -0.00281   0.01346   0.00780  -0.01020   0.01915
  19        3S         -0.00390   0.00585  -0.01079   0.01411   0.00412
  20        3PX        -0.01388   0.06637   0.02319  -0.06808  -0.01031
  21        3PY         0.01814  -0.08675  -0.06807   0.06010   0.01348
  22        3PZ         0.00600  -0.02754  -0.01665   0.02177  -0.04164
  23        4S          0.01062  -0.02172  -0.02203   0.02879   0.00479
  24        4PX        -0.01641   0.06294   0.02383  -0.06699  -0.01002
  25        4PY         0.02145  -0.08226  -0.06699   0.06016   0.01310
  26        4PZ         0.00500  -0.02285  -0.01713   0.02239  -0.03275
  27 3   Cl 1S          0.00027  -0.00081   0.00357   0.00046   0.00058
  28        2S         -0.00160   0.00620  -0.02043  -0.00266  -0.00351
  29        2PX        -0.01106   0.05284  -0.05086  -0.00837  -0.00762
  30        2PY        -0.00144   0.00687  -0.00837   0.01242  -0.00099
  31        2PZ        -0.00281   0.01346  -0.01273  -0.00166   0.01915
  32        3S         -0.00390   0.00585   0.01761   0.00229   0.00412
  33        3PX         0.02265  -0.10831   0.10983   0.01803   0.01683
  34        3PY         0.00294  -0.01408   0.01803  -0.02655   0.00219
  35        3PZ         0.00600  -0.02754   0.02718   0.00353  -0.04164
  36        4S          0.01062  -0.02171   0.03595   0.00467   0.00478
  37        4PX         0.02678  -0.10272   0.10910   0.01775   0.01636
  38        4PY         0.00348  -0.01335   0.01775  -0.02511   0.00213
  39        4PZ         0.00500  -0.02285   0.02796   0.00363  -0.03275
  40 4   Cl 1S          0.00027  -0.00081  -0.00138  -0.00333   0.00058
  41        2S         -0.00160   0.00620   0.00791   0.01902  -0.00351
  42        2PX         0.00429  -0.02048   0.00384  -0.02322   0.00295
  43        2PY         0.01030  -0.04919  -0.02321  -0.04228   0.00710
  44        2PZ        -0.00281   0.01346   0.00493   0.01185   0.01915
  45        3S         -0.00390   0.00586  -0.00682  -0.01640   0.00412
  46        3PX        -0.00878   0.04197  -0.00806   0.05004  -0.00652
  47        3PY        -0.02108   0.10083   0.05004   0.09135  -0.01566
  48        3PZ         0.00600  -0.02754  -0.01053  -0.02531  -0.04163
  49        4S          0.01062  -0.02172  -0.01393  -0.03346   0.00479
  50        4PX        -0.01038   0.03980  -0.00692   0.04924  -0.00634
  51        4PY        -0.02493   0.09562   0.04924   0.09091  -0.01523
  52        4PZ         0.00500  -0.02285  -0.01083  -0.02603  -0.03275
                           6         7         8         9        10
   6        3S          0.36336
   7        3PX         0.00001   0.18638
   8        3PY         0.00000  -0.00000   0.18636
   9        3PZ        -0.01699  -0.00000   0.00000   0.05592
  10        4S          0.03095   0.00000   0.00000  -0.00136   0.01710
  11        4PX        -0.00001  -0.01852   0.00000   0.00000  -0.00000
  12        4PY        -0.00000   0.00000  -0.01851   0.00000  -0.00000
  13        4PZ         0.02393   0.00000   0.00000   0.01710   0.00120
  14 2   Cl 1S          0.00038  -0.00044   0.00058   0.00047  -0.02672
  15        2S          0.00097  -0.00460   0.00602   0.00070   0.07831
  16        2PX         0.05722   0.01763  -0.06710  -0.00835  -0.00304
  17        2PY        -0.07480  -0.06709   0.05402   0.01092   0.00399
  18        2PZ        -0.02182  -0.01651   0.02158  -0.04196  -0.00568
  19        3S         -0.01992   0.00336  -0.00439  -0.00465  -0.04052
  20        3PX        -0.12748  -0.04052   0.15023   0.01977  -0.01729
  21        3PY         0.16664   0.15023  -0.12199  -0.02585   0.02257
  22        3PZ         0.05031   0.03667  -0.04794   0.08931   0.00672
  23        4S          0.00179   0.01031  -0.01349   0.00315  -0.04613
  24        4PX        -0.09900  -0.03161   0.11698   0.01347  -0.01127
  25        4PY         0.12940   0.11696  -0.09505  -0.01761   0.01471
  26        4PZ         0.03855   0.03033  -0.03964   0.07434   0.00549
  27 3   Cl 1S          0.00038   0.00072   0.00009   0.00047  -0.02671
  28        2S          0.00097   0.00752   0.00098   0.00070   0.07830
  29        2PX        -0.09339   0.10304   0.01778   0.01363   0.00497
  30        2PY        -0.01214   0.01777  -0.03139   0.00177   0.00065
  31        2PZ        -0.02182   0.02695   0.00350  -0.04196  -0.00568
  32        3S         -0.01992  -0.00548  -0.00071  -0.00465  -0.04052
  33        3PX         0.20806  -0.23174  -0.03980  -0.03227   0.02820
  34        3PY         0.02704  -0.03980   0.06923  -0.00419   0.00366
  35        3PZ         0.05031  -0.05986  -0.00778   0.08931   0.00670
  36        4S          0.00178  -0.01684  -0.00219   0.00315  -0.04613
  37        4PX         0.16157  -0.18049  -0.03099  -0.02199   0.01837
  38        4PY         0.02100  -0.03099   0.05384  -0.00286   0.00238
  39        4PZ         0.03855  -0.04950  -0.00643   0.07434   0.00548
  40 4   Cl 1S          0.00039  -0.00028  -0.00067   0.00047  -0.02672
  41        2S          0.00097  -0.00291  -0.00700   0.00070   0.07831
  42        2PX         0.03619  -0.01317   0.04932  -0.00528  -0.00192
  43        2PY         0.08694   0.04932   0.08482  -0.01269  -0.00463
  44        2PZ        -0.02181  -0.01044  -0.02509  -0.04196  -0.00568
  45        3S         -0.01992   0.00212   0.00510  -0.00465  -0.04052
  46        3PX        -0.08062   0.02844  -0.11043   0.01250  -0.01094
  47        3PY        -0.19370  -0.11042  -0.19095   0.03004  -0.02625
  48        3PZ         0.05031   0.02319   0.05572   0.08931   0.00672
  49        4S          0.00179   0.00652   0.01568   0.00315  -0.04612
  50        4PX        -0.06261   0.02208  -0.08598   0.00852  -0.00713
  51        4PY        -0.15042  -0.08597  -0.14874   0.02047  -0.01711
  52        4PZ         0.03855   0.01918   0.04608   0.07434   0.00550
                          11        12        13        14        15
  11        4PX         0.03178
  12        4PY        -0.00000   0.03177
  13        4PZ         0.00000   0.00000   0.01665
  14 2   Cl 1S         -0.01341   0.01753   0.00518   2.14405
  15        2S          0.03895  -0.05091  -0.01306  -0.57293   2.38762
  16        2PX        -0.02722   0.00534   0.00341  -0.00284   0.01517
  17        2PY         0.00534  -0.03011  -0.00446   0.00371  -0.01982
  18        2PZ        -0.00370   0.00483  -0.01510   0.00115  -0.00641
  19        3S         -0.01393   0.01821   0.00109  -0.03325  -0.27282
  20        3PX         0.08070   0.01860  -0.00046   0.00775  -0.03581
  21        3PY         0.01860   0.07061   0.00060  -0.01013   0.04681
  22        3PZ         0.01688  -0.02206   0.05555  -0.00295   0.01481
  23        4S         -0.03543   0.04631   0.00917   0.16414  -0.68046
  24        4PX         0.06939   0.00929  -0.00184  -0.00636   0.00328
  25        4PY         0.00930   0.06434   0.00241   0.00832  -0.00429
  26        4PZ         0.01265  -0.01652   0.04479   0.00120   0.00227
  27 3   Cl 1S          0.02189   0.00284   0.00518  -0.00002   0.00005
  28        2S         -0.06357  -0.00826  -0.01306   0.00005   0.00010
  29        2PX        -0.03401  -0.00141  -0.00556   0.00101  -0.00571
  30        2PY        -0.00141  -0.02332  -0.00072  -0.00082   0.00411
  31        2PZ         0.00603   0.00078  -0.01510  -0.00014   0.00041
  32        3S          0.02274   0.00296   0.00109  -0.00089   0.00095
  33        3PX         0.05702  -0.00493   0.00075  -0.00249   0.01271
  34        3PY        -0.00493   0.09429   0.00010   0.00256  -0.01035
  35        3PZ        -0.02755  -0.00358   0.05555   0.00066  -0.00154
  36        4S          0.05782   0.00752   0.00918   0.00243  -0.00604
  37        4PX         0.05755  -0.00246   0.00301   0.00142   0.00162
  38        4PY        -0.00246   0.07617   0.00039  -0.00387   0.00598
  39        4PZ        -0.02064  -0.00268   0.04479  -0.00190   0.00436
  40 4   Cl 1S         -0.00848  -0.02038   0.00518  -0.00002   0.00005
  41        2S          0.02463   0.05918  -0.01306   0.00005   0.00010
  42        2PX        -0.02477  -0.00392   0.00216   0.00053  -0.00247
  43        2PY        -0.00392  -0.03256   0.00518  -0.00119   0.00659
  44        2PZ        -0.00234  -0.00561  -0.01510  -0.00014   0.00041
  45        3S         -0.00881  -0.02117   0.00109  -0.00090   0.00096
  46        3PX         0.08925  -0.01368  -0.00029  -0.00182   0.00666
  47        3PY        -0.01368   0.06207  -0.00070   0.00308  -0.01498
  48        3PZ         0.01067   0.02564   0.05555   0.00066  -0.00154
  49        4S         -0.02240  -0.05383   0.00917   0.00244  -0.00606
  50        4PX         0.07366  -0.00683  -0.00116   0.00337  -0.00620
  51        4PY        -0.00684   0.06008  -0.00280  -0.00239  -0.00001
  52        4PZ         0.00800   0.01921   0.04479  -0.00190   0.00436
                          16        17        18        19        20
  16        2PX         2.03910
  17        2PY         0.01527   2.03083
  18        2PZ         0.00533  -0.00697   2.04481
  19        3S         -0.03568   0.04664   0.01355   0.73504
  20        3PX        -0.14916  -0.03543  -0.01225   0.05875   0.67395
  21        3PY        -0.03543  -0.12996   0.01601  -0.07678   0.07746
  22        3PZ        -0.01221   0.01596  -0.16152  -0.02383   0.02672
  23        4S          0.01091  -0.01426   0.00277   0.62230   0.01479
  24        4PX        -0.31083  -0.02808  -0.01045   0.04154   0.54876
  25        4PY        -0.02809  -0.29561   0.01365  -0.05428   0.07488
  26        4PZ        -0.00978   0.01278  -0.32574  -0.01693   0.02508
  27 3   Cl 1S         -0.00129   0.00014  -0.00014  -0.00089   0.00357
  28        2S          0.00694  -0.00116   0.00041   0.00095  -0.01630
  29        2PX         0.01437  -0.00766  -0.00159   0.00521  -0.03135
  30        2PY        -0.00571   0.00109   0.00103   0.00011   0.01229
  31        2PZ         0.00186  -0.00040  -0.00605   0.00081  -0.00367
  32        3S         -0.00360   0.00377   0.00081   0.00251  -0.00257
  33        3PX        -0.03066   0.01676   0.00363  -0.00643   0.06681
  34        3PY         0.01298  -0.00248  -0.00157  -0.01001  -0.02736
  35        3PZ        -0.00342   0.00101   0.01259  -0.00623   0.00584
  36        4S         -0.02602  -0.00689  -0.00504   0.00448   0.08557
  37        4PX        -0.03854   0.00754  -0.00073  -0.00175   0.09039
  38        4PY         0.01064  -0.00270  -0.00533  -0.01117  -0.02575
  39        4PZ        -0.00697  -0.00014   0.01482  -0.00513   0.01657
  40 4   Cl 1S          0.00021   0.00129  -0.00014  -0.00090  -0.00097
  41        2S         -0.00070  -0.00701   0.00041   0.00096   0.00260
  42        2PX        -0.00138  -0.00144  -0.00058  -0.00146   0.00336
  43        2PY        -0.00338   0.01684   0.00181  -0.00500   0.00666
  44        2PZ        -0.00010  -0.00190  -0.00605   0.00080  -0.00045
  45        3S         -0.00269   0.00446   0.00080   0.00251   0.01188
  46        3PX         0.00311   0.00381   0.00057   0.01134  -0.00695
  47        3PY         0.00761  -0.03625  -0.00391   0.00359  -0.01523
  48        3PZ        -0.00008   0.00357   0.01260  -0.00622   0.00389
  49        4S          0.01346   0.02331  -0.00503   0.00447  -0.04791
  50        4PX        -0.00056   0.00033   0.00533   0.01124  -0.00039
  51        4PY        -0.00275  -0.04069  -0.00070  -0.00123   0.01005
  52        4PZ         0.00196   0.00669   0.01482  -0.00513  -0.00824
                          21        22        23        24        25
  21        3PY         0.63198
  22        3PZ        -0.03492   0.69525
  23        4S         -0.01934  -0.01812   0.65082
  24        4PX         0.07488   0.02651  -0.00829   0.46778
  25        4PY         0.50818  -0.03465   0.01084   0.06715   0.43138
  26        4PZ        -0.03278   0.59352  -0.00798   0.02357  -0.03081
  27 3   Cl 1S          0.00004   0.00066   0.00243  -0.00375  -0.00172
  28        2S          0.00172  -0.00154  -0.00604   0.00310   0.00537
  29        2PX         0.01607   0.00313   0.01345  -0.02960   0.01642
  30        2PY        -0.00179  -0.00171  -0.02331   0.01953  -0.01164
  31        2PZ         0.00146   0.01259  -0.00504  -0.00327  -0.00427
  32        3S         -0.01162  -0.00623   0.00448  -0.00669  -0.00912
  33        3PX        -0.03523  -0.00810  -0.04155   0.06701  -0.03778
  34        3PY         0.00461   0.00018   0.07933  -0.04899   0.02724
  35        3PZ        -0.00562  -0.02372   0.02305   0.00676   0.01518
  36        4S          0.02645   0.02304  -0.00354   0.06546   0.01816
  37        4PX        -0.01455   0.00599  -0.03326   0.08430  -0.02015
  38        4PY         0.00386   0.01549   0.05923  -0.04239   0.02215
  39        4PZ         0.00405  -0.03665   0.01602   0.01605   0.01948
  40 4   Cl 1S         -0.00344   0.00066   0.00244   0.00264   0.00317
  41        2S          0.01619  -0.00154  -0.00606  -0.00599  -0.00158
  42        2PX         0.00287   0.00083   0.01897  -0.00379   0.01251
  43        2PY        -0.03650  -0.00347  -0.01910   0.00944  -0.03747
  44        2PZ         0.00393   0.01260  -0.00503   0.00498   0.00204
  45        3S         -0.00057  -0.00622   0.00447   0.01055   0.00406
  46        3PX        -0.00734   0.00195  -0.06567   0.00804  -0.03296
  47        3PY         0.07837   0.00787   0.06091  -0.02182   0.08623
  48        3PZ        -0.00710  -0.02373   0.02302  -0.01641  -0.00257
  49        4S         -0.07567   0.02302  -0.00354  -0.03465  -0.05844
  50        4PX        -0.00110  -0.01652  -0.04844   0.01061  -0.02236
  51        4PY         0.09466  -0.00171   0.04763  -0.00020   0.09587
  52        4PZ        -0.01494  -0.03666   0.01600  -0.02299  -0.01040
                          26        27        28        29        30
  26        4PZ         0.52571
  27 3   Cl 1S         -0.00190   2.14405
  28        2S          0.00436  -0.57293   2.38762
  29        2PX         0.00481   0.00463  -0.02475   2.01968
  30        2PY        -0.00504   0.00060  -0.00322  -0.00404   2.05026
  31        2PZ         0.01482   0.00115  -0.00641  -0.00870  -0.00113
  32        3S         -0.00513  -0.03325  -0.27282   0.05823   0.00757
  33        3PX        -0.00881  -0.01265   0.05845  -0.10407   0.00938
  34        3PY         0.01461  -0.00164   0.00760   0.00938  -0.17505
  35        3PZ        -0.03665  -0.00295   0.01481   0.01992   0.00259
  36        4S          0.01601   0.16414  -0.68046  -0.01780  -0.00231
  37        4PX         0.00250   0.01039  -0.00535  -0.27508   0.00744
  38        4PY         0.02511   0.00135  -0.00070   0.00744  -0.33135
  39        4PZ        -0.04525   0.00120   0.00227   0.01596   0.00207
  40 4   Cl 1S         -0.00190  -0.00002   0.00005   0.00077   0.00105
  41        2S          0.00436   0.00005   0.00010  -0.00447  -0.00543
  42        2PX         0.00360  -0.00122   0.00642   0.01020   0.00812
  43        2PY        -0.00596  -0.00047   0.00289   0.01007   0.00526
  44        2PZ         0.01482  -0.00014   0.00041  -0.00127  -0.00141
  45        3S         -0.00513  -0.00089   0.00095   0.00506   0.00123
  46        3PX        -0.01179   0.00346  -0.01532  -0.02241  -0.01774
  47        3PY         0.01233   0.00088  -0.00584  -0.02153  -0.01073
  48        3PZ        -0.03666   0.00066  -0.00154   0.00259   0.00246
  49        4S          0.01600   0.00244  -0.00605   0.00704   0.02597
  50        4PX        -0.02489  -0.00407   0.00437  -0.01954  -0.02161
  51        4PY         0.00418   0.00070  -0.00440  -0.01852  -0.02171
  52        4PZ        -0.04525  -0.00190   0.00436   0.00336   0.00610
                          31        32        33        34        35
  31        2PZ         2.04481
  32        3S          0.01355   0.73505
  33        3PX         0.01999  -0.09587   0.57538
  34        3PY         0.00260  -0.01246  -0.02051   0.73055
  35        3PZ        -0.16152  -0.02383  -0.04360  -0.00567   0.69525
  36        4S          0.00277   0.62230  -0.02414  -0.00314  -0.01813
  37        4PX         0.01705  -0.06778   0.45346  -0.01983  -0.04327
  38        4PY         0.00222  -0.00881  -0.01983   0.60347  -0.00562
  39        4PZ        -0.32574  -0.01693  -0.04094  -0.00532   0.59352
  40 4   Cl 1S         -0.00014  -0.00089  -0.00176  -0.00311   0.00066
  41        2S          0.00041   0.00095   0.00964   0.01325  -0.00154
  42        2PX         0.00169  -0.00251  -0.02146  -0.01800  -0.00305
  43        2PY         0.00086  -0.00456  -0.02179  -0.01167  -0.00185
  44        2PZ        -0.00605   0.00081   0.00310   0.00245   0.01259
  45        3S          0.00081   0.00251  -0.00878   0.00803  -0.00623
  46        3PX        -0.00318  -0.00545   0.04727   0.03864   0.00421
  47        3PY        -0.00235   0.01057   0.04652   0.02415   0.00693
  48        3PZ         0.01259  -0.00623  -0.00778  -0.00225  -0.02373
  49        4S         -0.00504   0.00448  -0.01989  -0.08732   0.02304
  50        4PX        -0.00425  -0.00880   0.04296   0.05314   0.01042
  51        4PY         0.00329   0.00710   0.04195   0.05130  -0.01294
  52        4PZ         0.01482  -0.00513  -0.00478  -0.01637  -0.03665
                          36        37        38        39        40
  36        4S          0.65082
  37        4PX         0.01354   0.38231
  38        4PY         0.00176  -0.01779   0.51684
  39        4PZ        -0.00798  -0.03847  -0.00500   0.52571
  40 4   Cl 1S          0.00244   0.00039   0.00411  -0.00190   2.14405
  41        2S         -0.00605   0.00310  -0.00537   0.00436  -0.57293
  42        2PX        -0.02692  -0.03170  -0.01831  -0.00677  -0.00179
  43        2PY         0.00001  -0.01522  -0.00954  -0.00165  -0.00431
  44        2PZ        -0.00504  -0.00206   0.00497   0.01482   0.00115
  45        3S          0.00448  -0.00455   0.01035  -0.00513  -0.03325
  46        3PX         0.08949   0.07477   0.04450   0.01706   0.00490
  47        3PY        -0.00368   0.03332   0.01949   0.00033   0.01178
  48        3PZ         0.02303   0.00975  -0.01344  -0.03665  -0.00295
  49        4S         -0.00354  -0.01702  -0.06576   0.01602   0.16414
  50        4PX         0.06793   0.06478   0.05366   0.02050  -0.00402
  51        4PY        -0.00081   0.03144   0.04168  -0.01472  -0.00967
  52        4PZ         0.01601   0.00883  -0.02364  -0.04525   0.00120
                          41        42        43        44        45
  41        2S          2.38762
  42        2PX         0.00959   2.04611
  43        2PY         0.02304  -0.01122   2.02382
  44        2PZ        -0.00641   0.00337   0.00810   2.04481
  45        3S         -0.27282  -0.02256  -0.05421   0.01355   0.73504
  46        3PX        -0.02265  -0.16543   0.02605  -0.00775   0.03715
  47        3PY        -0.05441   0.02605  -0.11369  -0.01861   0.08925
  48        3PZ         0.01481  -0.00772  -0.01855  -0.16152  -0.02383
  49        4S         -0.68046   0.00690   0.01657   0.00277   0.62230
  50        4PX         0.00207  -0.32372   0.02065  -0.00661   0.02627
  51        4PY         0.00498   0.02065  -0.28271  -0.01587   0.06310
  52        4PZ         0.00227  -0.00618  -0.01486  -0.32574  -0.01693
                          46        47        48        49        50
  46        3PX         0.70951
  47        3PY        -0.05694   0.59642
  48        3PZ         0.01690   0.04059   0.69524
  49        4S          0.00935   0.02248  -0.01812   0.65082
  50        4PX         0.58314  -0.05505   0.01676  -0.00525   0.49861
  51        4PY        -0.05505   0.47380   0.04028  -0.01260  -0.04936
  52        4PZ         0.01586   0.03811   0.59352  -0.00798   0.01490
                          51        52
  51        4PY         0.40056
  52        4PZ         0.03581   0.52572
    Full Mulliken population analysis:
                           1         2         3         4         5
   1 1   Al 1S          2.12020
   2        2S         -0.12241   2.14629
   3        2PX         0.00000   0.00000   1.94967
   4        2PY         0.00000   0.00000   0.00000   1.94967
   5        2PZ         0.00000   0.00000  -0.00000  -0.00000   1.92830
   6        3S         -0.00046   0.00127   0.00000   0.00000   0.00000
   7        3PX         0.00000   0.00000   0.02518  -0.00000   0.00000
   8        3PY         0.00000   0.00000  -0.00000   0.02518   0.00000
   9        3PZ         0.00000   0.00000   0.00000   0.00000   0.03467
  10        4S          0.00049  -0.01487   0.00000   0.00000   0.00000
  11        4PX         0.00000   0.00000  -0.00236   0.00000   0.00000
  12        4PY         0.00000   0.00000   0.00000  -0.00237   0.00000
  13        4PZ         0.00000   0.00000   0.00000   0.00000  -0.00386
  14 2   Cl 1S          0.00000  -0.00000  -0.00000  -0.00000  -0.00000
  15        2S         -0.00000   0.00000   0.00000   0.00000   0.00000
  16        2PX        -0.00000   0.00000   0.00000   0.00000   0.00000
  17        2PY        -0.00000   0.00000   0.00000   0.00000   0.00000
  18        2PZ        -0.00000   0.00000   0.00000   0.00000  -0.00000
  19        3S         -0.00000   0.00000  -0.00001  -0.00002  -0.00000
  20        3PX         0.00000  -0.00011  -0.00003  -0.00015  -0.00001
  21        3PY         0.00000  -0.00018  -0.00015  -0.00015  -0.00001
  22        3PZ         0.00000  -0.00001  -0.00001  -0.00001  -0.00001
  23        4S          0.00003  -0.00065  -0.00027  -0.00047  -0.00002
  24        4PX         0.00010  -0.00349  -0.00026  -0.00202  -0.00007
  25        4PY         0.00017  -0.00596  -0.00202  -0.00164  -0.00012
  26        4PZ         0.00001  -0.00039  -0.00012  -0.00021  -0.00033
  27 3   Cl 1S          0.00000  -0.00000  -0.00000  -0.00000  -0.00000
  28        2S         -0.00000   0.00000   0.00000   0.00000   0.00000
  29        2PX        -0.00000   0.00000   0.00000   0.00000   0.00000
  30        2PY        -0.00000   0.00000   0.00000   0.00000   0.00000
  31        2PZ        -0.00000   0.00000   0.00000   0.00000  -0.00000
  32        3S         -0.00000   0.00000  -0.00002  -0.00000  -0.00000
  33        3PX         0.00000  -0.00028  -0.00045  -0.00001  -0.00001
  34        3PY         0.00000  -0.00000  -0.00001  -0.00001  -0.00000
  35        3PZ         0.00000  -0.00001  -0.00002  -0.00000  -0.00001
  36        4S          0.00003  -0.00065  -0.00073  -0.00001  -0.00002
  37        4PX         0.00026  -0.00929  -0.00537  -0.00014  -0.00019
  38        4PY         0.00000  -0.00016  -0.00014  -0.00028  -0.00000
  39        4PZ         0.00001  -0.00039  -0.00032  -0.00001  -0.00033
  40 4   Cl 1S          0.00000  -0.00000  -0.00000  -0.00000  -0.00000
  41        2S         -0.00000   0.00000   0.00000   0.00000   0.00000
  42        2PX        -0.00000   0.00000  -0.00000   0.00000   0.00000
  43        2PY        -0.00000   0.00000   0.00000   0.00000   0.00000
  44        2PZ        -0.00000   0.00000   0.00000   0.00000  -0.00000
  45        3S         -0.00000   0.00000  -0.00000  -0.00002  -0.00000
  46        3PX         0.00000  -0.00004   0.00000  -0.00008  -0.00000
  47        3PY         0.00000  -0.00024  -0.00008  -0.00032  -0.00001
  48        3PZ         0.00000  -0.00001  -0.00000  -0.00002  -0.00001
  49        4S          0.00003  -0.00065  -0.00011  -0.00063  -0.00002
  50        4PX         0.00004  -0.00139  -0.00002  -0.00109  -0.00003
  51        4PY         0.00023  -0.00805  -0.00109  -0.00373  -0.00016
  52        4PZ         0.00001  -0.00039  -0.00005  -0.00028  -0.00033
                           6         7         8         9        10
   6        3S          0.36336
   7        3PX         0.00000   0.18638
   8        3PY         0.00000   0.00000   0.18636
   9        3PZ         0.00000   0.00000  -0.00000   0.05592
  10        4S          0.02555   0.00000   0.00000   0.00000   0.01710
  11        4PX         0.00000  -0.01230  -0.00000  -0.00000   0.00000
  12        4PY         0.00000  -0.00000  -0.01229  -0.00000   0.00000
  13        4PZ         0.00000  -0.00000  -0.00000   0.01136   0.00000
  14 2   Cl 1S          0.00000  -0.00000  -0.00000  -0.00000  -0.00015
  15        2S          0.00001  -0.00010  -0.00017  -0.00000   0.00336
  16        2PX        -0.00024  -0.00007  -0.00064  -0.00002   0.00001
  17        2PY        -0.00041  -0.00064  -0.00050  -0.00003   0.00002
  18        2PZ        -0.00003  -0.00004  -0.00006  -0.00010  -0.00001
  19        3S         -0.00175   0.00039   0.00066   0.00016  -0.00795
  20        3PX         0.00892   0.00178   0.01899   0.00059   0.00111
  21        3PY         0.01524   0.01899   0.01371   0.00100   0.00189
  22        3PZ         0.00108   0.00109   0.00185   0.00392   0.00013
  23        4S          0.00041   0.00210   0.00359  -0.00020  -0.01764
  24        4PX         0.02391   0.00082   0.03473   0.00094   0.00242
  25        4PY         0.04085   0.03473   0.01777   0.00160   0.00412
  26        4PZ         0.00285   0.00211   0.00360   0.01337   0.00036
  27 3   Cl 1S          0.00000  -0.00000  -0.00000  -0.00000  -0.00015
  28        2S          0.00001  -0.00026  -0.00000  -0.00000   0.00336
  29        2PX        -0.00063  -0.00168  -0.00004  -0.00005   0.00004
  30        2PY        -0.00001  -0.00004  -0.00009  -0.00000   0.00000
  31        2PZ        -0.00003  -0.00010  -0.00000  -0.00010  -0.00001
  32        3S         -0.00175   0.00104   0.00002   0.00016  -0.00795
  33        3PX         0.02376   0.04745   0.00133   0.00156   0.00295
  34        3PY         0.00040   0.00133   0.00336   0.00003   0.00005
  35        3PZ         0.00108   0.00289   0.00005   0.00392   0.00013
  36        4S          0.00040   0.00559   0.00009  -0.00020  -0.01764
  37        4PX         0.06368   0.07290   0.00244   0.00249   0.00643
  38        4PY         0.00108   0.00244   0.01028   0.00004   0.00011
  39        4PZ         0.00285   0.00562   0.00009   0.01337   0.00036
  40 4   Cl 1S          0.00000  -0.00000  -0.00000  -0.00000  -0.00015
  41        2S          0.00001  -0.00004  -0.00023  -0.00000   0.00336
  42        2PX        -0.00009  -0.00000  -0.00034  -0.00001   0.00001
  43        2PY        -0.00055  -0.00034  -0.00116  -0.00004   0.00003
  44        2PZ        -0.00003  -0.00001  -0.00008  -0.00010  -0.00001
  45        3S         -0.00175   0.00016   0.00090   0.00016  -0.00795
  46        3PX         0.00357   0.00040   0.01026   0.00023   0.00044
  47        3PY         0.02059   0.01026   0.03254   0.00135   0.00256
  48        3PZ         0.00108   0.00043   0.00251   0.00391   0.00013
  49        4S          0.00041   0.00084   0.00485  -0.00020  -0.01764
  50        4PX         0.00956   0.00244   0.01877   0.00037   0.00097
  51        4PY         0.05520   0.01877   0.04809   0.00216   0.00557
  52        4PZ         0.00285   0.00084   0.00487   0.01337   0.00036
                          11        12        13        14        15
  11        4PX         0.03178
  12        4PY         0.00000   0.03177
  13        4PZ        -0.00000  -0.00000   0.01665
  14 2   Cl 1S         -0.00009  -0.00016  -0.00001   2.14405
[...]
  39        4PZ         0.00200   0.00003   0.01452  -0.00000   0.00000
  40 4   Cl 1S         -0.00004  -0.00021  -0.00001   0.00000   0.00000
  41        2S          0.00082   0.00475   0.00021   0.00000   0.00000
  42        2PX        -0.00013   0.00002   0.00000   0.00000   0.00000
  43        2PY         0.00002   0.00019   0.00001   0.00000   0.00000
  44        2PZ        -0.00000  -0.00002  -0.00011   0.00000   0.00000
  45        3S         -0.00121  -0.00700  -0.00007  -0.00000   0.00000
  46        3PX         0.00656   0.00095  -0.00000  -0.00000   0.00000
  47        3PY         0.00095  -0.00397  -0.00002  -0.00000   0.00000
  48        3PZ         0.00015   0.00086   0.00531  -0.00000   0.00000
  49        4S         -0.00491  -0.02833  -0.00097   0.00000  -0.00000
  50        4PX         0.01949   0.00128  -0.00004   0.00000  -0.00000
  51        4PY         0.00128  -0.00638  -0.00025   0.00000   0.00000
  52        4PZ         0.00030   0.00173   0.01452   0.00000  -0.00000
                          16        17        18        19        20
  16        2PX         2.03910
  17        2PY        -0.00000   2.03083
  18        2PZ        -0.00000   0.00000   2.04481
  19        3S          0.00000   0.00000   0.00000   0.73504
  20        3PX        -0.04793   0.00000   0.00000   0.00000   0.67395
  21        3PY         0.00000  -0.04176  -0.00000   0.00000  -0.00000
  22        3PZ         0.00000  -0.00000  -0.05190   0.00000  -0.00000
  23        4S          0.00000   0.00000   0.00000   0.51296   0.00000
  24        4PX        -0.02180   0.00000   0.00000   0.00000   0.34180
  25        4PY         0.00000  -0.02074  -0.00000   0.00000  -0.00000
  26        4PZ         0.00000  -0.00000  -0.02285   0.00000  -0.00000
  27 3   Cl 1S          0.00000   0.00000   0.00000  -0.00000  -0.00000
  28        2S          0.00000   0.00000   0.00000   0.00000   0.00000
  29        2PX         0.00000   0.00000   0.00000   0.00000   0.00000
  30        2PY         0.00000   0.00000   0.00000  -0.00000   0.00000
  31        2PZ         0.00000   0.00000   0.00000   0.00000   0.00000
  32        3S          0.00000   0.00000  -0.00000   0.00000   0.00000
  33        3PX         0.00000   0.00000  -0.00000  -0.00000  -0.00000
  34        3PY         0.00000   0.00000  -0.00000   0.00000  -0.00000
  35        3PZ         0.00000   0.00000   0.00000  -0.00000  -0.00000
  36        4S          0.00000  -0.00000   0.00000   0.00001  -0.00024
  37        4PX         0.00001   0.00000   0.00000  -0.00001  -0.00092
  38        4PY         0.00000   0.00000  -0.00000   0.00003  -0.00012
  39        4PZ         0.00000  -0.00000   0.00000  -0.00000  -0.00000
  40 4   Cl 1S          0.00000   0.00000   0.00000  -0.00000   0.00000
  41        2S          0.00000   0.00000   0.00000   0.00000  -0.00000
  42        2PX         0.00000   0.00000   0.00000  -0.00000   0.00000
  43        2PY         0.00000   0.00000   0.00000   0.00000   0.00000
  44        2PZ         0.00000   0.00000   0.00000  -0.00000  -0.00000
  45        3S          0.00000   0.00000   0.00000   0.00000  -0.00000
  46        3PX         0.00000   0.00000   0.00000   0.00000  -0.00000
  47        3PY         0.00000   0.00000   0.00000  -0.00000  -0.00000
  48        3PZ        -0.00000  -0.00000   0.00000   0.00000   0.00000
  49        4S         -0.00000   0.00000  -0.00000   0.00001   0.00002
  50        4PX        -0.00000   0.00000   0.00000   0.00001  -0.00000
  51        4PY        -0.00000   0.00001   0.00000   0.00001   0.00002
  52        4PZ         0.00000  -0.00000   0.00000   0.00000  -0.00000
                          21        22        23        24        25
  21        3PY         0.63198
  22        3PZ         0.00000   0.69525
  23        4S          0.00000   0.00000   0.65082
  24        4PX        -0.00000  -0.00000   0.00000   0.46778
  25        4PY         0.31652   0.00000   0.00000  -0.00000   0.43138
  26        4PZ         0.00000   0.36968   0.00000  -0.00000   0.00000
  27 3   Cl 1S          0.00000  -0.00000   0.00000   0.00000  -0.00000
  28        2S          0.00000   0.00000  -0.00000  -0.00000   0.00000
  29        2PX         0.00000  -0.00000   0.00000   0.00001   0.00000
  30        2PY         0.00000  -0.00000   0.00000   0.00000   0.00000
  31        2PZ         0.00000   0.00000  -0.00000   0.00000  -0.00000
  32        3S         -0.00000   0.00000   0.00001   0.00004  -0.00002
  33        3PX        -0.00000   0.00000  -0.00011  -0.00069  -0.00018
  34        3PY        -0.00000   0.00000  -0.00009  -0.00023  -0.00002
  35        3PZ        -0.00000  -0.00000   0.00000  -0.00000   0.00000
  36        4S          0.00003  -0.00000  -0.00006  -0.00272   0.00031
  37        4PX        -0.00007  -0.00000  -0.00138  -0.00801  -0.00093
  38        4PY        -0.00000   0.00000  -0.00102  -0.00195  -0.00008
  39        4PZ         0.00000  -0.00004   0.00000  -0.00000   0.00000
  40 4   Cl 1S         -0.00000   0.00000   0.00000  -0.00000   0.00000
  41        2S          0.00000  -0.00000  -0.00000   0.00000  -0.00000
  42        2PX         0.00000   0.00000   0.00000  -0.00000   0.00000
  43        2PY         0.00000   0.00000   0.00000   0.00000   0.00001
  44        2PZ        -0.00000   0.00000   0.00000   0.00000  -0.00000
  45        3S         -0.00000  -0.00000   0.00001  -0.00001   0.00003
  46        3PX        -0.00000   0.00000  -0.00003   0.00001  -0.00006
  47        3PY        -0.00000  -0.00000  -0.00018  -0.00004  -0.00103
  48        3PZ         0.00000  -0.00000  -0.00000  -0.00000   0.00000
  49        4S         -0.00023   0.00000  -0.00006   0.00020  -0.00261
  50        4PX        -0.00000  -0.00000  -0.00028   0.00014  -0.00037
  51        4PY        -0.00113   0.00000  -0.00213  -0.00000  -0.01075
  52        4PZ         0.00000  -0.00004  -0.00000  -0.00000   0.00000
                          26        27        28        29        30
  26        4PZ         0.52571
  27 3   Cl 1S          0.00000   2.14405
  28        2S         -0.00000  -0.14864   2.38762
  29        2PX        -0.00000   0.00000   0.00000   2.01968
  30        2PY        -0.00000   0.00000   0.00000   0.00000   2.05026
  31        2PZ         0.00000   0.00000   0.00000   0.00000   0.00000
  32        3S          0.00000  -0.00196  -0.11862   0.00000   0.00000
  33        3PX         0.00000   0.00000   0.00000  -0.03344  -0.00000
  34        3PY         0.00000   0.00000   0.00000  -0.00000  -0.05625
  35        3PZ        -0.00004   0.00000   0.00000  -0.00000  -0.00000
  36        4S         -0.00000   0.00556  -0.17006   0.00000   0.00000
  37        4PX        -0.00000   0.00000   0.00000  -0.01930  -0.00000
  38        4PY         0.00000   0.00000   0.00000  -0.00000  -0.02324
  39        4PZ        -0.00071   0.00000   0.00000  -0.00000  -0.00000
  40 4   Cl 1S         -0.00000   0.00000   0.00000   0.00000   0.00000
  41        2S          0.00000   0.00000   0.00000   0.00000   0.00000
  42        2PX         0.00000   0.00000   0.00000   0.00000   0.00000
  43        2PY         0.00000   0.00000   0.00000   0.00000   0.00000
  44        2PZ         0.00000   0.00000   0.00000   0.00000   0.00000
  45        3S         -0.00000  -0.00000   0.00000   0.00000   0.00000
  46        3PX        -0.00000  -0.00000   0.00000   0.00000   0.00000
  47        3PY        -0.00000  -0.00000   0.00000   0.00000   0.00000
  48        3PZ        -0.00004  -0.00000   0.00000  -0.00000  -0.00000
  49        4S          0.00000   0.00000  -0.00000   0.00000   0.00000
  50        4PX        -0.00000   0.00000  -0.00000   0.00000   0.00000
  51        4PY        -0.00000  -0.00000   0.00000   0.00000   0.00000
  52        4PZ        -0.00071   0.00000  -0.00000  -0.00000  -0.00000
                          31        32        33        34        35
  31        2PZ         2.04481
  32        3S          0.00000   0.73505
  33        3PX        -0.00000   0.00000   0.57538
  34        3PY        -0.00000   0.00000   0.00000   0.73055
  35        3PZ        -0.05190   0.00000   0.00000   0.00000   0.69525
  36        4S          0.00000   0.51296   0.00000   0.00000   0.00000
  37        4PX        -0.00000   0.00000   0.28244   0.00000   0.00000
  38        4PY        -0.00000   0.00000   0.00000   0.37588   0.00000
  39        4PZ        -0.02285   0.00000   0.00000   0.00000   0.36968
  40 4   Cl 1S          0.00000  -0.00000  -0.00000  -0.00000   0.00000
  41        2S          0.00000   0.00000   0.00000   0.00000  -0.00000
  42        2PX         0.00000   0.00000   0.00000   0.00000   0.00000
  43        2PY         0.00000   0.00000   0.00000   0.00000   0.00000
  44        2PZ         0.00000  -0.00000  -0.00000  -0.00000   0.00000
  45        3S          0.00000   0.00000  -0.00000   0.00000  -0.00000
  46        3PX         0.00000   0.00000  -0.00000  -0.00000  -0.00000
  47        3PY         0.00000  -0.00000  -0.00000  -0.00000  -0.00000
  48        3PZ         0.00000   0.00000   0.00000   0.00000  -0.00000
  49        4S         -0.00000   0.00001  -0.00005  -0.00016   0.00000
  50        4PX         0.00000   0.00005  -0.00031  -0.00034  -0.00000
  51        4PY        -0.00000  -0.00003  -0.00027  -0.00020   0.00000
  52        4PZ         0.00000   0.00000   0.00000   0.00000  -0.00004
                          36        37        38        39        40
  36        4S          0.65082
  37        4PX         0.00000   0.38231
  38        4PY         0.00000   0.00000   0.51684
  39        4PZ         0.00000   0.00000   0.00000   0.52571
  40 4   Cl 1S          0.00000   0.00000   0.00000  -0.00000   2.14405
  41        2S         -0.00000   0.00000  -0.00000   0.00000  -0.14864
  42        2PX         0.00000   0.00001   0.00000   0.00000   0.00000
  43        2PY        -0.00000   0.00000   0.00000   0.00000   0.00000
  44        2PZ         0.00000   0.00000  -0.00000   0.00000   0.00000
  45        3S          0.00001  -0.00003   0.00004  -0.00000  -0.00196
  46        3PX        -0.00021  -0.00055  -0.00028  -0.00000   0.00000
  47        3PY         0.00001  -0.00021  -0.00007  -0.00000   0.00000
  48        3PZ        -0.00000  -0.00000   0.00000  -0.00004   0.00000
  49        4S         -0.00006  -0.00061  -0.00180   0.00000   0.00556
  50        4PX        -0.00243  -0.00430  -0.00336  -0.00000   0.00000
  51        4PY         0.00002  -0.00197  -0.00135   0.00000   0.00000
  52        4PZ        -0.00000  -0.00000   0.00000  -0.00071   0.00000
                          41        42        43        44        45
  41        2S          2.38762
  42        2PX         0.00000   2.04611
  43        2PY         0.00000   0.00000   2.02382
  44        2PZ         0.00000  -0.00000  -0.00000   2.04481
  45        3S         -0.11862   0.00000   0.00000   0.00000   0.73504
  46        3PX         0.00000  -0.05315  -0.00000   0.00000   0.00000
  47        3PY         0.00000  -0.00000  -0.03653   0.00000   0.00000
  48        3PZ         0.00000   0.00000   0.00000  -0.05190   0.00000
  49        4S         -0.17006   0.00000   0.00000   0.00000   0.51296
  50        4PX         0.00000  -0.02271  -0.00000   0.00000   0.00000
  51        4PY         0.00000  -0.00000  -0.01983   0.00000   0.00000
  52        4PZ         0.00000   0.00000   0.00000  -0.02285   0.00000
                          46        47        48        49        50
  46        3PX         0.70951
  47        3PY         0.00000   0.59642
  48        3PZ        -0.00000  -0.00000   0.69524
  49        4S          0.00000   0.00000   0.00000   0.65082
  50        4PX         0.36322   0.00000  -0.00000   0.00000   0.49861
  51        4PY         0.00000   0.29511  -0.00000   0.00000   0.00000
  52        4PZ        -0.00000  -0.00000   0.36968   0.00000  -0.00000
                          51        52
  51        4PY         0.40056
  52        4PZ        -0.00000   0.52572
     Gross orbital populations:
                           1
   1 1   Al 1S          1.99876
   2        2S          1.97794
   3        2PX         1.96119
   4        2PY         1.96119
   5        2PZ         1.95742
   6        3S          0.66225
   7        3PX         0.43132
   8        3PY         0.43127
   9        3PZ         0.16562
  10        4S         -0.00868
  11        4PX        -0.00219
  12        4PY        -0.00217
  13        4PZ         0.07983
  14 2   Cl 1S          1.99860
  15        2S          1.95918
  16        2PX         1.96844
  17        2PY         1.96693
  18        2PZ         1.96970
  19        3S          1.11068
  20        3PX         1.00185
  21        3PY         0.95595
  22        3PZ         1.02729
  23        4S          0.94663
  24        4PX         0.84413
  25        4PY         0.80382
  26        4PZ         0.90886
  27 3   Cl 1S          1.99860
  28        2S          1.95918
  29        2PX         1.96489
  30        2PY         1.97047
  31        2PZ         1.96970
  32        3S          1.11068
  33        3PX         0.89405
  34        3PY         1.06375
  35        3PZ         1.02729
  36        4S          0.94663
  37        4PX         0.74951
  38        4PY         0.89844
  39        4PZ         0.90886
  40 4   Cl 1S          1.99860
  41        2S          1.95918
  42        2PX         1.96971
  43        2PY         1.96565
  44        2PZ         1.96970
  45        3S          1.11068
  46        3PX         1.04074
  47        3PY         0.91706
  48        3PZ         1.02729
  49        4S          0.94664
  50        4PX         0.87826
  51        4PY         0.76971
  52        4PZ         0.90887
          Condensed to atoms (all electrons):
               1          2          3          4
     1  Al  10.888979   0.241595   0.241592   0.241594
     2  Cl   0.241595  17.258873  -0.019184  -0.019203
     3  Cl   0.241592  -0.019184  17.258849  -0.019189
     4  Cl   0.241594  -0.019203  -0.019189  17.258891
 Mulliken charges:
               1
     1  Al   1.386241
     2  Cl  -0.462080
     3  Cl  -0.462069
     4  Cl  -0.462092
 Sum of Mulliken charges =  -0.00000
 Mulliken charges with hydrogens summed into heavy atoms:
               1
     1  Al   1.386241
     2  Cl  -0.462080
     3  Cl  -0.462069
     4  Cl  -0.462092
 Electronic spatial extent (au):  <R**2>=            981.8350
 Charge=              0.0000 electrons
 Dipole moment (field-independent basis, Debye):
    X=             -0.0010    Y=             -0.0006    Z=              2.6785  Tot=              2.6785
 Quadrupole moment (field-independent basis, Debye-Ang):
   XX=            -62.2586   YY=            -62.2564   ZZ=            -46.8232
   XY=             -0.0001   XZ=             -0.0004   YZ=             -0.0002
 Traceless Quadrupole moment (field-independent basis, Debye-Ang):
   XX=             -5.1459   YY=             -5.1436   ZZ=             10.2895
   XY=             -0.0001   XZ=             -0.0004   YZ=             -0.0002
 Octapole moment (field-independent basis, Debye-Ang**2):
  XXX=             10.4135  YYY=             -4.2557  ZZZ=              4.5212  XYY=            -10.4137
  XXY=              4.2550  XXZ=              0.2527  XZZ=             -0.0007  YZZ=             -0.0004
  YYZ=              0.2530  XYZ=              0.0000
 Hexadecapole moment (field-independent basis, Debye-Ang**3):
 XXXX=           -659.2899 YYYY=           -659.1457 ZZZZ=            -60.4060 XXXY=             -0.0008
 XXXZ=              1.5836 YYYX=              0.0001 YYYZ=             -0.6475 ZZZX=             -0.0006
 ZZZY=             -0.0003 XXYY=           -219.7386 XXZZ=           -115.9831 YYZZ=           -115.9600
 XXYZ=              0.6472 YYXZ=             -1.5842 ZZXY=             -0.0001
 N-N= 2.825281681977D+02 E-N=-4.406990506886D+03  KE= 1.610955198553D+03
 Orbital energies and kinetic energies (alpha):
                                 1                 2
   1         O              -104.133859        136.076731
   2         O              -104.133783        136.078691
   3         O              -104.133772        136.078702
   4         O               -58.247531         78.663481
   5         O               -10.525555         22.339138
   6         O               -10.525300         22.345559
   7         O               -10.525288         22.345566
   8         O                -7.988289         20.340112
   9         O                -7.988278         20.340104
  10         O                -7.988172         20.343872
  11         O                -7.985281         20.359940
  12         O                -7.985124         20.365014
  13         O                -7.985118         20.364640
  14         O                -7.984936         20.365483
  15         O                -7.984898         20.368850
  16         O                -7.984892         20.368526
  17         O                -5.045451         11.072509
  18         O                -3.349726          9.715853
  19         O                -3.349725          9.715864
  20         O                -3.349450          9.743061
  21         O                -1.125364          2.790897
  22         O                -1.106789          2.953592
  23         O                -1.106774          2.953614
  24         O                -0.622201          2.010635
  25         O                -0.542390          2.090087
  26         O                -0.542377          2.090037
  27         O                -0.516268          2.007070
  28         O                -0.491882          2.196772
  29         O                -0.491875          2.196870
  30         O                -0.488527          2.242044
  31         O                -0.488517          2.242049
  32         O                -0.479466          2.312236
  33         V                -0.041907          1.355726
  34         V                 0.074900          1.535286
  35         V                 0.131208          1.010068
  36         V                 0.131242          1.010004
  37         V                 0.231566          1.144849
  38         V                 0.289564          1.334404
  39         V                 0.326429          1.838888
  40         V                 0.326445          1.839099
  41         V                 0.725678          3.295839
  42         V                 0.725685          3.295755
  43         V                 0.758023          3.282241
  44         V                 0.771204          3.515328
  45         V                 0.771230          3.515369
  46         V                 0.849709          3.569858
  47         V                 0.853720          3.590230
  48         V                 0.876997          3.671866
  49         V                 0.877043          3.671836
  50         V                 0.966575          3.607682
  51         V                 0.966578          3.607871
  52         V                 0.993383          3.566207
 Total kinetic energy from orbitals= 1.610955198553D+03
 1\1\GINC-IISERK51\SP\RHF\3-21G\Al1Cl3\GAUSSIAN\17-Jun-2025\0\\# hf/3-2
 1g pop=full geom=connectivity\\Title Card Required\\0,1\Al,0,0.330273,
 0.001428,0.000544\Cl,0,0.740577,-1.300255,-1.719087\Cl,0,0.722818,2.14
 4846,-0.266929\Cl,0,0.731306,-0.835478,1.9902\\Version=EM64L-G16RevB.0
 1\State=1-A\HF=-1612.6863459\RMSD=4.193e-09\Dipole=-1.0537812,-0.00415
 74,-0.0022796\Quadrupole=7.6497482,-3.8256181,-3.8241301,0.0494696,0.0
 225627,0.0001269\PG=C01 [X(Al1Cl3)]\\@


 ALTHOUGH J.J. COULD DIAGNOSE THE FAULTS OF AN
 APPARATUS WITH UNCANNY ACCURACY, IT WAS JUST AS
 WELL NOT TO LET HIM HANDLE IT.
   -- GEORGE THOMPSON, ABOUT HIS FATHER
 Job cpu time:       0 days  0 hours  0 minutes  0.4 seconds.
 Elapsed time:       0 days  0 hours  0 minutes  0.4 seconds.
 File lengths (MBytes):  RWF=      6 Int=      0 D2E=      0 Chk=      1 Scr=      1
 Normal termination of Gaussian 16 at Tue Jun 17 15:18:12 2025.
