 Entering Gaussian System, Link 0=g16
 Input=/home/gaussian/Documents/Summer_Internship/Acid_Base_adduct/Adduct/PH3-AlCl3/PH3_only_adduct_sp.com
 Output=/home/gaussian/Documents/Summer_Internship/Acid_Base_adduct/Adduct/PH3-AlCl3/PH3_only_adduct_sp.log
 Initial command:
 /usr/local/g16/l1.exe "/home/gaussian/tmp/Gau-92274.inp" -scrdir="/home/gaussian/tmp/"
 Entering Link 1 = /usr/local/g16/l1.exe PID=     92277.
  
 Copyright (c) 1988-2017, Gaussian, Inc.  All Rights Reserved.
  
 This is part of the Gaussian(R) 16 program.  It is based on
 the Gaussian(R) 09 system (copyright 2009, Gaussian, Inc.),
 the Gaussian(R) 03 system (copyright 2003, Gaussian, Inc.),
 the Gaussian(R) 98 system (copyright 1998, Gaussian, Inc.),
 the Gaussian(R) 94 system (copyright 1995, Gaussian, Inc.),
 the Gaussian 92(TM) system (copyright 1992, Gaussian, Inc.),
 the Gaussian 90(TM) system (copyright 1990, Gaussian, Inc.),
 the Gaussian 88(TM) system (copyright 1988, Gaussian, Inc.),
 the Gaussian 86(TM) system (copyright 1986, Carnegie Mellon
 University), and the Gaussian 82(TM) system (copyright 1983,
 Carnegie Mellon University). Gaussian is a federally registered
 trademark of Gaussian, Inc.
  
 This software contains proprietary and confidential information,
 including trade secrets, belonging to Gaussian, Inc.
  
 This software is provided under written license and may be
 used, copied, transmitted, or stored only in accord with that
 written license.
  
 The following legend is applicable only to US Government
 contracts under FAR:
  
                    RESTRICTED RIGHTS LEGEND
  
 Use, reproduction and disclosure by the US Government is
 subject to restrictions as set forth in subparagraphs (a)
 and (c) of the Commercial Computer Software - Restricted
 Rights clause in FAR 52.227-19.
  
 Gaussian, Inc.
 340 Quinnipiac St., Bldg. 40, Wallingford CT 06492
  
  
 ---------------------------------------------------------------
 Warning -- This program may not be used in any manner that
 competes with the business of Gaussian, Inc. or will provide
 assistance to any competitor of Gaussian, Inc.  The licensee
 of this program is prohibited from giving any competitor of
 Gaussian, Inc. access to this program.  By using this program,
 the user acknowledges that Gaussian, Inc. is engaged in the
 business of creating and licensing software in the field of
 computational chemistry and represents and warrants to the
 licensee that it is not a competitor of Gaussian, Inc. and that
 it will not use this program in any manner prohibited above.
 ---------------------------------------------------------------
  

 Cite this work as:
 Gaussian 16, Revision B.01,
 M. J. Frisch, G. W. Trucks, H. B. Schlegel, G. E. Scuseria, 
 M. A. Robb, J. R. Cheeseman, G. Scalmani, V. Barone, 
 G. A. Petersson, H. Nakatsuji, X. Li, M. Caricato, A. V. Marenich, 
 J. Bloino, B. G. Janesko, R. Gomperts, B. Mennucci, H. P. Hratchian, 
 J. V. Ortiz, A. F. Izmaylov, J. L. Sonnenberg, D. Williams-Young, 
 F. Ding, F. Lipparini, F. Egidi, J. Goings, B. Peng, A. Petrone, 
 T. Henderson, D. Ranasinghe, V. G. Zakrzewski, J. Gao, N. Rega, 
 G. Zheng, W. Liang, M. Hada, M. Ehara, K. Toyota, R. Fukuda, 
 J. Hasegawa, M. Ishida, T. Nakajima, Y. Honda, O. Kitao, H. Nakai, 
 T. Vreven, K. Throssell, J. A. Montgomery, Jr., J. E. Peralta, 
 F. Ogliaro, M. J. Bearpark, J. J. Heyd, E. N. Brothers, K. N. Kudin, 
 V. N. Staroverov, T. A. Keith, R. Kobayashi, J. Normand, 
 K. Raghavachari, A. P. Rendell, J. C. Burant, S. S. Iyengar, 
 J. Tomasi, M. Cossi, J. M. Millam, M. Klene, C. Adamo, R. Cammi, 
 J. W. Ochterski, R. L. Martin, K. Morokuma, O. Farkas, 
 J. B. Foresman, and D. J. Fox, Gaussian, Inc., Wallingford CT, 2016.
 
 ******************************************
 Gaussian 16:  EM64L-G16RevB.01 20-Dec-2017
                17-Jun-2025 
 ******************************************
 %chk=PH3_only_adduct_sp.chk
 -------------------------------------
 # hf/3-21g pop=full geom=connectivity
 -------------------------------------
 1/38=1,57=2,172=1/1;
 2/12=2,17=6,18=5,40=1/2;
 3/5=5,11=9,25=1,30=1/1,2,3;
 4//1;
 5/5=2,38=5/2;
 6/7=3,28=1/1;
 99/5=1,9=1/99;
 -------------------
 Title Card Required
 -------------------
 Symbolic Z-matrix:
 Charge =  0 Multiplicity = 1
 P                    -2.21135  -0.00922  -0.00419 
 H                    -2.81587   0.75233   1.00564 
 H                    -2.80628  -1.26904   0.15127 
 H                    -2.8111    0.48158  -1.17232 
 
                          Input orientation:                          
 ---------------------------------------------------------------------
 Center     Atomic      Atomic             Coordinates (Angstroms)
 Number     Number       Type             X           Y           Z
 ---------------------------------------------------------------------
      1         15           0       -2.211347   -0.009224   -0.004186
      2          1           0       -2.815870    0.752329    1.005643
      3          1           0       -2.806283   -1.269039    0.151269
      4          1           0       -2.811103    0.481582   -1.172316
 ---------------------------------------------------------------------
                    Distance matrix (angstroms):
                    1          2          3          4
     1  P    0.000000
     2  H    1.401844   0.000000
     3  H    1.401873   2.194533   0.000000
     4  H    1.401829   2.194728   2.194670   0.000000
 Stoichiometry    H3P
 Framework group  C1[X(H3P)]
 Deg. of freedom     6
 Full point group                 C1      NOp   1
 Largest Abelian subgroup         C1      NOp   1
 Largest concise Abelian subgroup C1      NOp   1
                         Standard orientation:                         
 ---------------------------------------------------------------------
 Center     Atomic      Atomic             Coordinates (Angstroms)
 Number     Number       Type             X           Y           Z
 ---------------------------------------------------------------------
      1         15           0        0.000021   -0.000014   -0.099957
      2          1           0       -0.789305   -0.991200    0.499775
      3          1           0       -0.464058    1.179097    0.499691
      4          1           0        1.253049   -0.187694    0.499894
 ---------------------------------------------------------------------
 Rotational constants (GHZ):         147.8743025         147.8521751         104.1127789
 Standard basis: 3-21G (6D, 7F)
 There are    19 symmetry adapted cartesian basis functions of A   symmetry.
 There are    19 symmetry adapted basis functions of A   symmetry.
    19 basis functions,    36 primitive gaussians,    19 cartesian basis functions
     9 alpha electrons        9 beta electrons
       nuclear repulsion energy        17.7102018158 Hartrees.
 NAtoms=    4 NActive=    4 NUniq=    4 SFac= 1.00D+00 NAtFMM=   60 NAOKFM=F Big=F
 Integral buffers will be    131072 words long.
 Raffenetti 1 integral format.
 Two-electron integral symmetry is turned on.
 One-electron integrals computed using PRISM.
 NBasis=    19 RedAO= T EigKep=  2.85D-02  NBF=    19
 NBsUse=    19 1.00D-06 EigRej= -1.00D+00 NBFU=    19
 ExpMin= 1.23D-01 ExpMax= 1.05D+03 ExpMxC= 1.05D+03 IAcc=3 IRadAn=         5 AccDes= 0.00D+00
 Harris functional with IExCor=  205 and IRadAn=       5 diagonalized for initial guess.
 HarFok:  IExCor=  205 AccDes= 0.00D+00 IRadAn=         5 IDoV= 1 UseB2=F ITyADJ=14
 ICtDFT=  3500011 ScaDFX=  1.000000  1.000000  1.000000  1.000000
 FoFCou: FMM=F IPFlag=           0 FMFlag=      100000 FMFlg1=           0
         NFxFlg=           0 DoJE=T BraDBF=F KetDBF=T FulRan=T
         wScrn=  0.000000 ICntrl=       500 IOpCl=  0 I1Cent=   200000004 NGrid=           0
         NMat0=    1 NMatS0=      1 NMatT0=    0 NMatD0=    1 NMtDS0=    0 NMtDT0=    0
 Petite list used in FoFCou.
 Keep R1 ints in memory in canonical form, NReq=822634.
 Requested convergence on RMS density matrix=1.00D-08 within 128 cycles.
 Requested convergence on MAX density matrix=1.00D-06.
 Requested convergence on             energy=1.00D-06.
 No special actions if energy rises.
 SCF Done:  E(RHF) =  -340.700440560     A.U. after    9 cycles
            NFock=  9  Conv=0.28D-08     -V/T= 2.0005

 **********************************************************************

            Population analysis using the SCF Density.

 **********************************************************************

 Orbital symmetries:
       Occupied  (A) (A) (A) (A) (A) (A) (A) (A) (A)
       Virtual   (A) (A) (A) (A) (A) (A) (A) (A) (A) (A)
 The electronic state is 1-A.
 Alpha  occ. eigenvalues --  -79.37880  -7.45518  -5.34024  -5.34024  -5.33665
 Alpha  occ. eigenvalues --   -0.87536  -0.54277  -0.54273  -0.36003
 Alpha virt. eigenvalues --    0.19477   0.19480   0.24825   0.59834   0.59835
 Alpha virt. eigenvalues --    0.61890   0.66667   1.19832   1.27428   1.27431
     Molecular Orbital Coefficients:
                           1         2         3         4         5
                           O         O         O         O         O
     Eigenvalues --   -79.37880  -7.45518  -5.34024  -5.34024  -5.33665
   1 1   P  1S          0.98703  -0.29569  -0.00000  -0.00000   0.00439
   2        2S          0.04872   0.99707   0.00000   0.00000  -0.01534
   3        2PX        -0.00000  -0.00000   0.96951  -0.07907  -0.00008
   4        2PY         0.00000   0.00000   0.07907   0.96951   0.00006
   5        2PZ         0.00017   0.01298   0.00008  -0.00007   0.97353
   6        3S         -0.01512   0.12645  -0.00000   0.00000   0.00361
   7        3PX         0.00000  -0.00000   0.08810  -0.00718  -0.00001
   8        3PY        -0.00000   0.00000   0.00718   0.08810   0.00001
   9        3PZ        -0.00027   0.00456   0.00001  -0.00001   0.08573
  10        4S          0.00967  -0.07575   0.00000  -0.00000  -0.00954
  11        4PX        -0.00000   0.00000  -0.03071   0.00250   0.00000
  12        4PY         0.00000  -0.00000  -0.00250  -0.03070  -0.00000
  13        4PZ         0.00129  -0.01338  -0.00000   0.00000  -0.02826
  14 2   H  1S          0.00093  -0.00488   0.00438   0.00467  -0.00283
  15        2S         -0.00195   0.01693  -0.00649  -0.00691   0.00551
  16 3   H  1S          0.00093  -0.00488   0.00185  -0.00613  -0.00283
  17        2S         -0.00195   0.01693  -0.00274   0.00907   0.00551
  18 4   H  1S          0.00093  -0.00488  -0.00623   0.00146  -0.00283
  19        2S         -0.00195   0.01693   0.00923  -0.00216   0.00551
                           6         7         8         9        10
                           O         O         O         O         V
     Eigenvalues --    -0.87536  -0.54277  -0.54273  -0.36003   0.19477
   1 1   P  1S          0.06296   0.00000  -0.00000  -0.02689  -0.00000
   2        2S         -0.33892  -0.00001   0.00000   0.14950   0.00001
   3        2PX         0.00001  -0.18654   0.01231   0.00002   0.00729
   4        2PY        -0.00000  -0.01231  -0.18654  -0.00001  -0.12947
   5        2PZ        -0.05081  -0.00001   0.00001  -0.21512   0.00001
   6        3S          0.38643   0.00001  -0.00000  -0.18626  -0.00000
   7        3PX        -0.00001   0.36717  -0.02423  -0.00003  -0.01296
   8        3PY         0.00000   0.02423   0.36716   0.00002   0.23001
   9        3PZ         0.09818   0.00003  -0.00002   0.42391  -0.00003
  10        4S          0.44104   0.00001   0.00001  -0.35128  -0.00015
  11        4PX        -0.00001   0.15941  -0.01052  -0.00005  -0.07790
  12        4PY         0.00001   0.01052   0.15945   0.00003   1.38280
  13        4PZ         0.04885   0.00001  -0.00001   0.50617  -0.00016
  14 2   H  1S          0.13010  -0.17150  -0.18848   0.07581   0.09516
  15        2S          0.06538  -0.24698  -0.27145   0.10109   0.92047
  16 3   H  1S          0.13009  -0.07749   0.24276   0.07581  -0.12111
  17        2S          0.06537  -0.11160   0.34963   0.10108  -1.17148
  18 4   H  1S          0.13010   0.24898  -0.05427   0.07582   0.02597
  19        2S          0.06538   0.35856  -0.07816   0.10112   0.25121
                          11        12        13        14        15
                           V         V         V         V         V
     Eigenvalues --     0.19480   0.24825   0.59834   0.59835   0.61890
   1 1   P  1S          0.00001   0.04512   0.00001  -0.00001  -0.02511
   2        2S         -0.00004  -0.26617  -0.00003   0.00003   0.04293
   3        2PX        -0.12946   0.00004  -0.33784   0.03210  -0.00011
   4        2PY        -0.00729  -0.00002  -0.03210  -0.33785   0.00011
   5        2PZ        -0.00003  -0.09138  -0.00007   0.00008   0.27319
   6        3S          0.00003   0.30750   0.00040  -0.00047  -1.12509
   7        3PX         0.23000  -0.00007   1.25522  -0.11928   0.00042
   8        3PY         0.01296   0.00003   0.11927   1.25524  -0.00041
   9        3PZ         0.00005   0.19993   0.00028  -0.00032  -1.05225
  10        4S          0.00031   1.81250  -0.00065   0.00079   2.13961
  11        4PX         1.38306  -0.00042  -1.18799   0.11289  -0.00057
  12        4PY         0.07791   0.00018  -0.11288  -1.18796   0.00048
  13        4PZ         0.00028   0.98839  -0.00040   0.00048   1.50462
  14 2   H  1S          0.08489  -0.06375  -0.11714  -0.12159  -0.16160
  15        2S          0.82136  -1.15035   0.03608   0.03711  -0.55085
  16 3   H  1S          0.03992  -0.06376  -0.04664   0.16218  -0.16166
  17        2S          0.38629  -1.15040   0.01445  -0.04994  -0.55089
  18 4   H  1S         -0.12486  -0.06373   0.16389  -0.04075  -0.16156
  19        2S         -1.20814  -1.15002  -0.05011   0.01230  -0.55077
                          16        17        18        19
                           V         V         V         V
     Eigenvalues --     0.66667   1.19832   1.27428   1.27431
   1 1   P  1S         -0.04957  -0.02975  -0.00000  -0.00000
   2        2S          0.14165   0.10691   0.00001   0.00000
   3        2PX        -0.00001  -0.00001   0.01150  -0.15322
   4        2PY         0.00001   0.00001  -0.15320  -0.01150
   5        2PZ        -0.20871   0.10551   0.00001  -0.00001
   6        3S         -1.72019  -0.79886  -0.00003  -0.00002
   7        3PX         0.00006   0.00002  -0.03380   0.45042
   8        3PY        -0.00006  -0.00003   0.45035   0.03381
   9        3PZ         0.72498  -0.32090  -0.00005   0.00003
  10        4S          2.72897   2.18126   0.00007   0.00006
  11        4PX        -0.00021  -0.00011   0.06259  -0.83401
  12        4PY         0.00015   0.00009  -0.83388  -0.06261
  13        4PZ        -0.08250   0.77541   0.00008  -0.00004
  14 2   H  1S         -0.09194   0.73771   0.79925   0.74054
  15        2S         -0.61686  -1.24654  -1.04414  -0.96743
  16 3   H  1S         -0.09195   0.73775  -1.04091   0.32196
  17        2S         -0.61688  -1.24657   1.35979  -0.42060
  18 4   H  1S         -0.09192   0.73781   0.24167  -1.06239
  19        2S         -0.61679  -1.24666  -0.31573   1.38788
     Density Matrix:
                           1         2         3         4         5
   1 1   P  1S          2.13274
   2        2S         -0.54433   2.26795
   3        2PX        -0.00000   0.00000   1.96230
   4        2PY         0.00000  -0.00000   0.00000   1.96229
   5        2PZ         0.00638  -0.03384  -0.00000   0.00000   1.99359
   6        3S         -0.04592  -0.06705  -0.00001   0.00001   0.05118
   7        3PX         0.00000  -0.00001   0.03438  -0.00000   0.00001
   8        3PY        -0.00000   0.00001  -0.00000   0.03438  -0.00000
   9        3PZ        -0.01291   0.06664   0.00001  -0.00000  -0.02533
  10        4S          0.13822  -0.55381  -0.00000   0.00000   0.08578
  11        4PX        -0.00000  -0.00000  -0.11967   0.00000   0.00002
  12        4PY         0.00000   0.00000   0.00000  -0.11967  -0.00001
  13        4PZ        -0.01086   0.09255   0.00001  -0.00001  -0.27811
  14 2   H  1S          0.01699  -0.07507   0.06711   0.08428  -0.05146
  15        2S         -0.01101   0.01932   0.07398   0.09292  -0.03897
  16 3   H  1S          0.01699  -0.07506   0.03945  -0.10025  -0.05145
  17        2S         -0.01101   0.01932   0.04349  -0.11053  -0.03895
  18 4   H  1S          0.01700  -0.07507  -0.10654   0.01596  -0.05148
  19        2S         -0.01101   0.01931  -0.11746   0.01760  -0.03899
                           6         7         8         9        10
   6        3S          0.40051
   7        3PX         0.00001   0.28643
   8        3PY        -0.00001   0.00000   0.28642
   9        3PZ        -0.08026  -0.00001   0.00000   0.39342
  10        4S          0.45220   0.00002  -0.00001  -0.21356   0.64767
  11        4PX         0.00002   0.11213  -0.00000  -0.00004   0.00003
  12        4PY        -0.00001  -0.00000   0.11215   0.00002  -0.00002
  13        4PZ        -0.15443  -0.00003   0.00002   0.43377  -0.30993
  14 2   H  1S          0.07102  -0.11611  -0.14583   0.08929   0.06230
  15        2S          0.01725  -0.16927  -0.21261   0.09964  -0.01607
  16 3   H  1S          0.07102  -0.06826   0.17346   0.08927   0.06230
  17        2S          0.01724  -0.09951   0.25290   0.09961  -0.01606
  18 4   H  1S          0.07103   0.18434  -0.02762   0.08932   0.06231
  19        2S          0.01725   0.26874  -0.04027   0.09969  -0.01607
                          11        12        13        14        15
  11        4PX         0.05294
  12        4PY        -0.00000   0.05297
  13        4PZ        -0.00005   0.00003   0.51914
  14 2   H  1S         -0.05097  -0.06402   0.08975   0.17537
  15        2S         -0.07268  -0.09130   0.10796   0.21906   0.29918
  16 3   H  1S         -0.02997   0.07616   0.08974  -0.01957  -0.06132
  17        2S         -0.04273   0.10861   0.10794  -0.06132  -0.10515
  18 4   H  1S          0.08090  -0.01212   0.08977  -0.01957  -0.06132
  19        2S          0.11537  -0.01729   0.10799  -0.06132  -0.10514
                          16        17        18        19
  16 3   H  1S          0.17536
  17        2S          0.21906   0.29919
  18 4   H  1S         -0.01957  -0.06132   0.17537
  19        2S         -0.06132  -0.10514   0.21906   0.29917
    Full Mulliken population analysis:
                           1         2         3         4         5
   1 1   P  1S          2.13274
   2        2S         -0.13673   2.26795
   3        2PX         0.00000   0.00000   1.96230
   4        2PY         0.00000   0.00000   0.00000   1.96229
   5        2PZ         0.00000   0.00000   0.00000  -0.00000   1.99359
   6        3S         -0.00156  -0.02370   0.00000   0.00000   0.00000
   7        3PX         0.00000   0.00000   0.01040  -0.00000  -0.00000
   8        3PY         0.00000   0.00000  -0.00000   0.01040   0.00000
   9        3PZ         0.00000   0.00000  -0.00000   0.00000  -0.00766
  10        4S          0.00454  -0.14123   0.00000   0.00000   0.00000
  11        4PX         0.00000   0.00000  -0.00885   0.00000  -0.00000
  12        4PY         0.00000   0.00000   0.00000  -0.00885   0.00000
  13        4PZ         0.00000   0.00000  -0.00000   0.00000  -0.02057
  14 2   H  1S          0.00001  -0.00060  -0.00042  -0.00066  -0.00024
  15        2S         -0.00014   0.00193  -0.00163  -0.00258  -0.00065
  16 3   H  1S          0.00001  -0.00060  -0.00014  -0.00093  -0.00024
  17        2S         -0.00014   0.00193  -0.00056  -0.00365  -0.00065
  18 4   H  1S          0.00001  -0.00060  -0.00106  -0.00002  -0.00024
  19        2S         -0.00014   0.00193  -0.00412  -0.00009  -0.00065
                           6         7         8         9        10
   6        3S          0.40051
   7        3PX         0.00000   0.28643
   8        3PY         0.00000   0.00000   0.28642
   9        3PZ         0.00000   0.00000  -0.00000   0.39342
  10        4S          0.37713   0.00000   0.00000   0.00000   0.64767
  11        4PX         0.00000   0.07250  -0.00000   0.00000   0.00000
  12        4PY         0.00000  -0.00000   0.07252  -0.00000   0.00000
  13        4PZ         0.00000   0.00000  -0.00000   0.28048   0.00000
  14 2   H  1S          0.01097   0.01847   0.02913   0.01079   0.01533
  15        2S          0.00701   0.03623   0.05715   0.01621  -0.00931
  16 3   H  1S          0.01097   0.00638   0.04122   0.01079   0.01533
  17        2S          0.00701   0.01252   0.08086   0.01620  -0.00930
  18 4   H  1S          0.01097   0.04656   0.00104   0.01080   0.01533
  19        2S          0.00701   0.09132   0.00205   0.01622  -0.00931
                          11        12        13        14        15
  11        4PX         0.05294
  12        4PY        -0.00000   0.05297
  13        4PZ         0.00000  -0.00000   0.51914
  14 2   H  1S          0.01147   0.01809   0.01535   0.17537
  15        2S          0.02636   0.04157   0.02975   0.14149   0.29918
  16 3   H  1S          0.00396   0.02560   0.01534  -0.00001  -0.00295
  17        2S          0.00911   0.05883   0.02974  -0.00295  -0.02176
  18 4   H  1S          0.02890   0.00065   0.01535  -0.00001  -0.00295
  19        2S          0.06642   0.00149   0.02976  -0.00295  -0.02175
                          16        17        18        19
  16 3   H  1S          0.17536
  17        2S          0.14149   0.29919
  18 4   H  1S         -0.00001  -0.00295   0.17537
  19        2S         -0.00295  -0.02176   0.14149   0.29917
     Gross orbital populations:
                           1
   1 1   P  1S          1.99861
   2        2S          1.97027
   3        2PX         1.95591
   4        2PY         1.95591
   5        2PZ         1.96267
   6        3S          0.80633
   7        3PX         0.58082
   8        3PY         0.58079
   9        3PZ         0.74725
  10        4S          0.90616
  11        4PX         0.26281
  12        4PY         0.26287
  13        4PZ         0.91434
  14 2   H  1S          0.43861
  15        2S          0.59315
  16 3   H  1S          0.43860
  17        2S          0.59316
  18 4   H  1S          0.43861
  19        2S          0.59314
          Condensed to atoms (all electrons):
               1          2          3          4
     1  P   13.916031   0.329567   0.329572   0.329564
     2  H    0.329567   0.757528  -0.027675  -0.027662
     3  H    0.329572  -0.027675   0.757524  -0.027666
     4  H    0.329564  -0.027662  -0.027666   0.757519
 Mulliken charges:
               1
     1  P    0.095267
     2  H   -0.031757
     3  H   -0.031755
     4  H   -0.031755
 Sum of Mulliken charges =   0.00000
 Mulliken charges with hydrogens summed into heavy atoms:
               1
     1  P    0.000000
 Electronic spatial extent (au):  <R**2>=             56.4207
 Charge=              0.0000 electrons
 Dipole moment (field-independent basis, Debye):
    X=             -0.0000    Y=              0.0000    Z=              1.4506  Tot=              1.4506
 Quadrupole moment (field-independent basis, Debye-Ang):
   XX=            -15.0260   YY=            -15.0264   ZZ=            -18.3818
   XY=              0.0000   XZ=              0.0003   YZ=             -0.0002
 Traceless Quadrupole moment (field-independent basis, Debye-Ang):
   XX=              1.1187   YY=              1.1183   ZZ=             -2.2371
   XY=              0.0000   XZ=              0.0003   YZ=             -0.0002
 Octapole moment (field-independent basis, Debye-Ang**2):
  XXX=             -0.3482  YYY=             -0.1671  ZZZ=              2.3077  XYY=              0.3488
  XXY=              0.1667  XXZ=              0.1090  XZZ=             -0.0002  YZZ=              0.0001
  YYZ=              0.1090  XYZ=             -0.0000
 Hexadecapole moment (field-independent basis, Debye-Ang**3):
 XXXX=            -32.8476 YYYY=            -32.8463 ZZZZ=            -34.0595 XXXY=              0.0001
 XXXZ=              0.0397 YYYX=             -0.0000 YYYZ=              0.0184 ZZZX=              0.0005
 ZZZY=             -0.0004 XXYY=            -10.9490 XXZZ=            -11.1067 YYZZ=            -11.1064
 XXYZ=             -0.0189 YYXZ=             -0.0390 ZZXY=              0.0000
 N-N= 1.771020181580D+01 E-N=-8.470089305423D+02  KE= 3.405316476722D+02
 Orbital energies and kinetic energies (alpha):
                                 1                 2
   1         O               -79.378799        105.410794
   2         O                -7.455183         16.232746
   3         O                -5.340236         14.560863
   4         O                -5.340236         14.560868
   5         O                -5.336653         14.584292
   6         O                -0.875361          1.503664
   7         O                -0.542768          1.041660
   8         O                -0.542732          1.041631
   9         O                -0.360034          1.329307
  10         V                 0.194766          0.795420
  11         V                 0.194800          0.795394
  12         V                 0.248246          1.376297
  13         V                 0.598339          2.446778
  14         V                 0.598352          2.446863
  15         V                 0.618902          2.051206
  16         V                 0.666670          2.106850
  17         V                 1.198321          2.555518
  18         V                 1.274281          2.549037
  19         V                 1.274306          2.549190
 Total kinetic energy from orbitals= 3.405316476722D+02
 1\1\GINC-IISERK51\SP\RHF\3-21G\H3P1\GAUSSIAN\17-Jun-2025\0\\# hf/3-21g
  pop=full geom=connectivity\\Title Card Required\\0,1\P,0,-2.211347,-0
 .009224,-0.004186\H,0,-2.81587,0.752329,1.005643\H,0,-2.806283,-1.2690
 39,0.151269\H,0,-2.811103,0.481582,-1.172316\\Version=EM64L-G16RevB.01
 \State=1-A\HF=-340.7004406\RMSD=2.804e-09\Dipole=-0.5707009,-0.0022652
 ,-0.0009928\Quadrupole=-1.6631461,0.8314226,0.8317235,-0.0100903,-0.00
 41768,-0.0000792\PG=C01 [X(H3P1)]\\@


 NOT WHAT WE DID SHALL BE THE TEST
 WHEN ACT AND WILL ARE DONE,
 BUT WHAT OUR LORD INFERS WE WOULD-
 HAD WE DIVINER BEEN.
           EMILY DICKINSON  POEMS NO. CLXXV
 Job cpu time:       0 days  0 hours  0 minutes  0.4 seconds.
 Elapsed time:       0 days  0 hours  0 minutes  0.4 seconds.
 File lengths (MBytes):  RWF=      6 Int=      0 D2E=      0 Chk=      1 Scr=      1
 Normal termination of Gaussian 16 at Tue Jun 17 15:17:07 2025.
