 Entering Gaussian System, Link 0=g16
 Input=/home/gaussian/Documents/Summer_Internship/Acid_Base_adduct/Adduct/PH3-AlCl3/PH3_AlCl3_adduct_sp.com
 Output=/home/gaussian/Documents/Summer_Internship/Acid_Base_adduct/Adduct/PH3-AlCl3/PH3_AlCl3_adduct_sp.log
 Initial command:
 /usr/local/g16/l1.exe "/home/gaussian/tmp/Gau-92218.inp" -scrdir="/home/gaussian/tmp/"
 Entering Link 1 = /usr/local/g16/l1.exe PID=     92221.
  
 Copyright (c) 1988-2017, Gaussian, Inc.  All Rights Reserved.
  
 This is part of the Gaussian(R) 16 program.  It is based on
 the Gaussian(R) 09 system (copyright 2009, Gaussian, Inc.),
 the Gaussian(R) 03 system (copyright 2003, Gaussian, Inc.),
 the Gaussian(R) 98 system (copyright 1998, Gaussian, Inc.),
 the Gaussian(R) 94 system (copyright 1995, Gaussian, Inc.),
 the Gaussian 92(TM) system (copyright 1992, Gaussian, Inc.),
 the Gaussian 90(TM) system (copyright 1990, Gaussian, Inc.),
 the Gaussian 88(TM) system (copyright 1988, Gaussian, Inc.),
 the Gaussian 86(TM) system (copyright 1986, Carnegie Mellon
 University), and the Gaussian 82(TM) system (copyright 1983,
 Carnegie Mellon University). Gaussian is a federally registered
 trademark of Gaussian, Inc.
  
 This software contains proprietary and confidential information,
 including trade secrets, belonging to Gaussian, Inc.
  
 This software is provided under written license and may be
 used, copied, transmitted, or stored only in accord with that
 written license.
  
 The following legend is applicable only to US Government
 contracts under FAR:
  
                    RESTRICTED RIGHTS LEGEND
  
 Use, reproduction and disclosure by the US Government is
 subject to restrictions as set forth in subparagraphs (a)
 and (c) of the Commercial Computer Software - Restricted
 Rights clause in FAR 52.227-19.
  
 Gaussian, Inc.
 340 Quinnipiac St., Bldg. 40, Wallingford CT 06492
  
  
 ---------------------------------------------------------------
 Warning -- This program may not be used in any manner that
 competes with the business of Gaussian, Inc. or will provide
 assistance to any competitor of Gaussian, Inc.  The licensee
 of this program is prohibited from giving any competitor of
 Gaussian, Inc. access to this program.  By using this program,
 the user acknowledges that Gaussian, Inc. is engaged in the
 business of creating and licensing software in the field of
 computational chemistry and represents and warrants to the
 licensee that it is not a competitor of Gaussian, Inc. and that
 it will not use this program in any manner prohibited above.
 ---------------------------------------------------------------
  

 Cite this work as:
 Gaussian 16, Revision B.01,
 M. J. Frisch, G. W. Trucks, H. B. Schlegel, G. E. Scuseria, 
 M. A. Robb, J. R. Cheeseman, G. Scalmani, V. Barone, 
 G. A. Petersson, H. Nakatsuji, X. Li, M. Caricato, A. V. Marenich, 
 J. Bloino, B. G. Janesko, R. Gomperts, B. Mennucci, H. P. Hratchian, 
 J. V. Ortiz, A. F. Izmaylov, J. L. Sonnenberg, D. Williams-Young, 
 F. Ding, F. Lipparini, F. Egidi, J. Goings, B. Peng, A. Petrone, 
 T. Henderson, D. Ranasinghe, V. G. Zakrzewski, J. Gao, N. Rega, 
 G. Zheng, W. Liang, M. Hada, M. Ehara, K. Toyota, R. Fukuda, 
 J. Hasegawa, M. Ishida, T. Nakajima, Y. Honda, O. Kitao, H. Nakai, 
 T. Vreven, K. Throssell, J. A. Montgomery, Jr., J. E. Peralta, 
 F. Ogliaro, M. J. Bearpark, J. J. Heyd, E. N. Brothers, K. N. Kudin, 
 V. N. Staroverov, T. A. Keith, R. Kobayashi, J. Normand, 
 K. Raghavachari, A. P. Rendell, J. C. Burant, S. S. Iyengar, 
 J. Tomasi, M. Cossi, J. M. Millam, M. Klene, C. Adamo, R. Cammi, 
 J. W. Ochterski, R. L. Martin, K. Morokuma, O. Farkas, 
 J. B. Foresman, and D. J. Fox, Gaussian, Inc., Wallingford CT, 2016.
 
 ******************************************
 Gaussian 16:  EM64L-G16RevB.01 20-Dec-2017
                17-Jun-2025 
 ******************************************
 %chk=PH3_AlCl3_adduct_sp.chk
 -------------------------------------
 # hf/3-21g pop=full geom=connectivity
 -------------------------------------
 1/38=1,57=2,172=1/1;
 2/12=2,17=6,18=5,40=1/2;
 3/5=5,11=9,25=1,30=1/1,2,3;
 4//1;
 5/5=2,38=5/2;
 6/7=3,28=1/1;
 99/5=1,9=1/99;
 -------------------
 Title Card Required
 -------------------
 Symbolic Z-matrix:
 Charge =  0 Multiplicity = 1
 Al                    0.33027  -0.00143  -0.00055 
 Cl                    0.74058   1.29987   1.71938 
 Cl                    0.72282  -2.14491   0.26644 
 Cl                    0.7313    0.83593  -1.99001 
 P                    -2.21135   0.00922   0.00419 
 H                    -2.81587  -0.75211  -1.00581 
 H                    -2.80629   1.26907  -0.15098 
 H                    -2.8111   -0.48185   1.17221 
 
                          Input orientation:                          
 ---------------------------------------------------------------------
 Center     Atomic      Atomic             Coordinates (Angstroms)
 Number     Number       Type             X           Y           Z
 ---------------------------------------------------------------------
      1         13           0        0.330273   -0.001427   -0.000545
      2         17           0        0.740577    1.299868    1.719380
      3         17           0        0.722821   -2.144905    0.266444
      4         17           0        0.731303    0.835928   -1.990012
      5         15           0       -2.211347    0.009220    0.004190
      6          1           0       -2.815870   -0.752106   -1.005811
      7          1           0       -2.806285    1.269070   -0.150981
      8          1           0       -2.811101   -0.481850    1.172209
 ---------------------------------------------------------------------
                    Distance matrix (angstroms):
                    1          2          3          4          5
     1  Al   0.000000
     2  Cl   2.195418   0.000000
     3  Cl   2.195421   3.738690   0.000000
     4  Cl   2.195442   3.738304   3.738587   0.000000
     5  P    2.541647   3.649864   3.649435   3.649586   0.000000
     6  H    3.387078   4.928040   4.010094   4.009107   1.401844
     7  H    3.387446   4.009916   4.927886   4.010508   1.401874
     8  H    3.387387   4.011026   4.009335   4.927962   1.401828
                    6          7          8
     6  H    0.000000
     7  H    2.194534   0.000000
     8  H    2.194728   2.194670   0.000000
 Stoichiometry    AlCl3H3P
 Framework group  C1[X(AlCl3H3P)]
 Deg. of freedom    18
 Full point group                 C1      NOp   1
 Largest Abelian subgroup         C1      NOp   1
 Largest concise Abelian subgroup C1      NOp   1
                         Standard orientation:                         
 ---------------------------------------------------------------------
 Center     Atomic      Atomic             Coordinates (Angstroms)
 Number     Number       Type             X           Y           Z
 ---------------------------------------------------------------------
      1         13           0        0.330273    0.001428    0.000544
      2         17           0        0.740577   -1.300255   -1.719087
      3         17           0        0.722818    2.144846   -0.266929
      4         17           0        0.731306   -0.835478    1.990200
      5         15           0       -2.211347   -0.009224   -0.004186
      6          1           0       -2.815870    0.752329    1.005643
      7          1           0       -2.806283   -1.269039    0.151269
      8          1           0       -2.811103    0.481582   -1.172316
 ---------------------------------------------------------------------
 Rotational constants (GHZ):           1.0511964           1.0510653           1.0238649
 Standard basis: 3-21G (6D, 7F)
 There are    71 symmetry adapted cartesian basis functions of A   symmetry.
 There are    71 symmetry adapted basis functions of A   symmetry.
    71 basis functions,   144 primitive gaussians,    71 cartesian basis functions
    41 alpha electrons       41 beta electrons
       nuclear repulsion energy       476.7885214452 Hartrees.



 Warning!  P  atom    5 may be hypervalent but has no d functions.



 NAtoms=    8 NActive=    8 NUniq=    8 SFac= 1.00D+00 NAtFMM=   60 NAOKFM=F Big=F
 Integral buffers will be    131072 words long.
 Raffenetti 1 integral format.
 Two-electron integral symmetry is turned on.
 One-electron integrals computed using PRISM.
 NBasis=    71 RedAO= T EigKep=  1.61D-02  NBF=    71
 NBsUse=    71 1.00D-06 EigRej= -1.00D+00 NBFU=    71
 ExpMin= 6.39D-02 ExpMax= 1.38D+03 ExpMxC= 1.38D+03 IAcc=3 IRadAn=         5 AccDes= 0.00D+00
 Harris functional with IExCor=  205 and IRadAn=       5 diagonalized for initial guess.
 HarFok:  IExCor=  205 AccDes= 0.00D+00 IRadAn=         5 IDoV= 1 UseB2=F ITyADJ=14
 ICtDFT=  3500011 ScaDFX=  1.000000  1.000000  1.000000  1.000000
 FoFCou: FMM=F IPFlag=           0 FMFlag=      100000 FMFlg1=           0
         NFxFlg=           0 DoJE=T BraDBF=F KetDBF=T FulRan=T
         wScrn=  0.000000 ICntrl=       500 IOpCl=  0 I1Cent=   200000004 NGrid=           0
         NMat0=    1 NMatS0=      1 NMatT0=    0 NMatD0=    1 NMtDS0=    0 NMtDT0=    0
 Petite list used in FoFCou.
 Keep R1 ints in memory in canonical form, NReq=4089259.
 Requested convergence on RMS density matrix=1.00D-08 within 128 cycles.
 Requested convergence on MAX density matrix=1.00D-06.
 Requested convergence on             energy=1.00D-06.
 No special actions if energy rises.
 SCF Done:  E(RHF) =  -1953.44405786     A.U. after   10 cycles
            NFock= 10  Conv=0.85D-08     -V/T= 2.0010

 **********************************************************************

            Population analysis using the SCF Density.

 **********************************************************************

 Orbital symmetries:
       Occupied  (A) (A) (A) (A) (A) (A) (A) (A) (A) (A) (A) (A)
                 (A) (A) (A) (A) (A) (A) (A) (A) (A) (A) (A) (A)
                 (A) (A) (A) (A) (A) (A) (A) (A) (A) (A) (A) (A)
                 (A) (A) (A) (A) (A)
       Virtual   (A) (A) (A) (A) (A) (A) (A) (A) (A) (A) (A) (A)
                 (A) (A) (A) (A) (A) (A) (A) (A) (A) (A) (A) (A)
                 (A) (A) (A) (A) (A) (A)
 The electronic state is 1-A.
 Alpha  occ. eigenvalues -- -104.10043-104.10018-104.10018 -79.48657 -58.20259
 Alpha  occ. eigenvalues --  -10.49211 -10.49131 -10.49130  -7.95447  -7.95446
 Alpha  occ. eigenvalues --   -7.95439  -7.95169  -7.95143  -7.95143  -7.95134
 Alpha  occ. eigenvalues --   -7.95134  -7.95130  -7.56383  -5.44884  -5.44884
 Alpha  occ. eigenvalues --   -5.44779  -4.99985  -3.30490  -3.30490  -3.30412
 Alpha  occ. eigenvalues --   -1.09590  -1.07685  -1.07684  -0.97527  -0.63089
 Alpha  occ. eigenvalues --   -0.63085  -0.61825  -0.52781  -0.51481  -0.51480
 Alpha  occ. eigenvalues --   -0.46764  -0.46763  -0.46017  -0.46016  -0.45180
 Alpha  occ. eigenvalues --   -0.45020
 Alpha virt. eigenvalues --    0.08939   0.09432   0.09433   0.12072   0.18515
 Alpha virt. eigenvalues --    0.18929   0.18931   0.29647   0.33498   0.35788
 Alpha virt. eigenvalues --    0.35790   0.53536   0.54323   0.54324   0.74461
 Alpha virt. eigenvalues --    0.75030   0.75030   0.83003   0.84531   0.84533
 Alpha virt. eigenvalues --    0.87499   0.91502   0.91507   0.95789   1.01715
 Alpha virt. eigenvalues --    1.01716   1.08626   1.21919   1.22321   1.22323
     Molecular Orbital Coefficients:
                           1         2         3         4         5
                           O         O         O         O         O
     Eigenvalues --  -104.10043-104.10018-104.10018 -79.48657 -58.20259
   1 1   Al 1S         -0.00001   0.00000  -0.00000  -0.00000   0.98851
   2        2S          0.00046  -0.00001   0.00001   0.00017   0.04454
   3        2PX         0.00000   0.00000   0.00000   0.00001  -0.00000
   4        2PY        -0.00000  -0.00005   0.00000   0.00000  -0.00000
   5        2PZ         0.00000  -0.00000  -0.00005   0.00000   0.00000
   6        3S          0.00128  -0.00003   0.00002   0.00061  -0.01050
   7        3PX        -0.00048   0.00001  -0.00000   0.00028  -0.00024
   8        3PY        -0.00002  -0.00069   0.00003   0.00000  -0.00000
   9        3PZ         0.00001  -0.00003  -0.00069   0.00000  -0.00000
  10        4S         -0.01208   0.00030  -0.00015  -0.00383  -0.00589
  11        4PX         0.00163  -0.00002   0.00003   0.00187   0.00252
  12        4PY        -0.00011  -0.00474   0.00018   0.00001   0.00001
  13        4PZ         0.00005  -0.00019  -0.00474   0.00000   0.00000
  14 2   Cl 1S          0.56392  -0.52460  -0.61540  -0.00000  -0.00002
  15        2S          0.03048  -0.02829  -0.03318   0.00001   0.00009
  16        2PX        -0.00004   0.00003   0.00003   0.00001  -0.00001
  17        2PY         0.00010  -0.00001  -0.00012  -0.00000  -0.00001
  18        2PZ         0.00012  -0.00013  -0.00007  -0.00000  -0.00002
  19        3S         -0.01223   0.01053   0.01232  -0.00024  -0.00209
  20        3PX         0.00018  -0.00011  -0.00013  -0.00005   0.00011
  21        3PY        -0.00042  -0.00004   0.00053   0.00001  -0.00012
  22        3PZ        -0.00053   0.00056   0.00020   0.00001  -0.00016
  23        4S          0.00990  -0.00742  -0.00862   0.00084   0.00459
  24        4PX        -0.00069   0.00037   0.00043  -0.00014  -0.00087
  25        4PY         0.00153   0.00014  -0.00162   0.00014   0.00163
  26        4PZ         0.00196  -0.00170  -0.00059   0.00018   0.00215
  27 3   Cl 1S          0.58995   0.78003  -0.12432  -0.00000  -0.00002
  28        2S          0.03188   0.04206  -0.00670   0.00001   0.00009
  29        2PX        -0.00004  -0.00004   0.00001   0.00001  -0.00001
  30        2PY        -0.00016  -0.00016   0.00004   0.00000   0.00002
  31        2PZ         0.00002   0.00003   0.00008  -0.00000  -0.00000
  32        3S         -0.01275  -0.01560   0.00248  -0.00024  -0.00209
  33        3PX         0.00018   0.00016  -0.00002  -0.00005   0.00011
  34        3PY         0.00069   0.00059  -0.00015  -0.00001   0.00019
  35        3PZ        -0.00008  -0.00015  -0.00046   0.00000  -0.00002
  36        4S          0.01027   0.01091  -0.00172   0.00084   0.00459
  37        4PX        -0.00069  -0.00053   0.00008  -0.00014  -0.00085
  38        4PY        -0.00253  -0.00178   0.00046  -0.00022  -0.00268
  39        4PZ         0.00030   0.00046   0.00141   0.00003   0.00033
  40 4   Cl 1S          0.55305  -0.29715   0.76012  -0.00000  -0.00002
  41        2S          0.02989  -0.01602   0.04099   0.00001   0.00009
  42        2PX        -0.00004   0.00002  -0.00004   0.00001  -0.00001
  43        2PY         0.00006   0.00005   0.00009  -0.00000  -0.00001
  44        2PZ        -0.00014   0.00009  -0.00014   0.00000   0.00002
  45        3S         -0.01201   0.00598  -0.01524  -0.00024  -0.00210
  46        3PX         0.00018  -0.00006   0.00016  -0.00005   0.00011
  47        3PY        -0.00027  -0.00032  -0.00039   0.00000  -0.00008
  48        3PZ         0.00061  -0.00039   0.00049  -0.00001   0.00018
  49        4S          0.00975  -0.00423   0.01071   0.00084   0.00459
  50        4PX        -0.00067   0.00021  -0.00053  -0.00014  -0.00086
  51        4PY         0.00098   0.00099   0.00118   0.00009   0.00105
  52        4PZ        -0.00226   0.00121  -0.00148  -0.00021  -0.00249
  53 5   P  1S         -0.00001   0.00000  -0.00000   0.98701  -0.00003
  54        2S         -0.00010   0.00000  -0.00000   0.04869  -0.00016
  55        2PX         0.00000  -0.00000   0.00000  -0.00001  -0.00000
  56        2PY         0.00000   0.00001  -0.00000  -0.00000  -0.00000
  57        2PZ        -0.00000   0.00000   0.00001   0.00000  -0.00000
  58        3S         -0.00144   0.00004  -0.00002  -0.01667  -0.00292
  59        3PX        -0.00012   0.00000  -0.00000  -0.00037  -0.00037
  60        3PY        -0.00000  -0.00013   0.00001  -0.00000  -0.00000
  61        3PZ         0.00000  -0.00001  -0.00013  -0.00000  -0.00000
  62        4S          0.00428  -0.00011   0.00005   0.01308   0.00734
  63        4PX         0.00233  -0.00006   0.00003   0.00084   0.00289
  64        4PY         0.00003   0.00092  -0.00003   0.00000   0.00001
  65        4PZ        -0.00001   0.00004   0.00092   0.00000   0.00001
  66 6   H  1S         -0.00020  -0.00009  -0.00011   0.00082  -0.00005
  67        2S          0.00034  -0.00000   0.00001  -0.00185  -0.00060
  68 7   H  1S         -0.00019   0.00015  -0.00003   0.00082  -0.00005
  69        2S          0.00033  -0.00002   0.00001  -0.00185  -0.00060
  70 8   H  1S         -0.00020  -0.00005   0.00013   0.00082  -0.00005
  71        2S          0.00034  -0.00000  -0.00001  -0.00185  -0.00060
                           6         7         8         9        10
                           O         O         O         O         O
     Eigenvalues --   -10.49211 -10.49131 -10.49130  -7.95447  -7.95446
   1 1   Al 1S          0.00011  -0.00000   0.00000   0.00000  -0.00000
   2        2S         -0.00254   0.00002  -0.00001  -0.00005   0.00003
   3        2PX        -0.00001  -0.00000  -0.00000  -0.00000   0.00000
   4        2PY         0.00000   0.00021  -0.00001  -0.00048   0.00000
   5        2PZ        -0.00000   0.00001   0.00021  -0.00001  -0.00048
   6        3S         -0.00729   0.00005  -0.00003  -0.00023   0.00014
   7        3PX         0.00270  -0.00004   0.00000  -0.00013   0.00009
   8        3PY         0.00004   0.00403  -0.00019  -0.00386   0.00004
   9        3PZ        -0.00001   0.00019   0.00403  -0.00005  -0.00387
  10        4S          0.06843  -0.00051   0.00027  -0.00183   0.00106
  11        4PX        -0.00907  -0.00005  -0.00009   0.00021  -0.00010
  12        4PY         0.00016   0.02705  -0.00128  -0.00414   0.00004
  13        4PZ        -0.00011   0.00128   0.02704  -0.00006  -0.00415
  14 2   Cl 1S         -0.17610   0.16136   0.19104   0.00145   0.00215
  15        2S          0.56559  -0.51839  -0.61374  -0.00500  -0.00746
  16        2PX        -0.00117   0.00111   0.00131  -0.07941  -0.11919
  17        2PY         0.00279  -0.00284  -0.00295   0.26711   0.38436
  18        2PZ         0.00369  -0.00333  -0.00425   0.34155   0.51654
  19        3S          0.08902  -0.07701  -0.09111   0.00251   0.00406
  20        3PX        -0.00125   0.00085   0.00101  -0.00676  -0.01017
  21        3PY         0.00285  -0.00032  -0.00358   0.02263   0.03247
  22        3PZ         0.00373  -0.00373  -0.00197   0.02885   0.04371
  23        4S         -0.05731   0.04268   0.05039  -0.00416  -0.00709
  24        4PX         0.00394  -0.00214  -0.00255   0.00257   0.00396
  25        4PY        -0.00866  -0.00062   0.00942  -0.00775  -0.01214
  26        4PZ        -0.01133   0.00969   0.00368  -0.01065  -0.01573
  27 3   Cl 1S         -0.17851  -0.24476   0.04206  -0.00273   0.00044
  28        2S          0.57334   0.78634  -0.13513   0.00946  -0.00152
  29        2PX        -0.00115  -0.00163   0.00028   0.14463  -0.02341
  30        2PY        -0.00466  -0.00660   0.00109   0.81167  -0.12865
  31        2PZ         0.00058   0.00076  -0.00047  -0.10009   0.02475
  32        3S          0.09017   0.11672  -0.02004  -0.00519   0.00090
  33        3PX        -0.00122  -0.00126   0.00021   0.01234  -0.00200
  34        3PY        -0.00471  -0.00470   0.00113   0.06864  -0.01087
  35        3PZ         0.00058   0.00103   0.00244  -0.00846   0.00216
  36        4S         -0.05795  -0.06454   0.01106   0.00911  -0.00164
  37        4PX         0.00386   0.00316  -0.00052  -0.00484   0.00080
  38        4PY         0.01429   0.01079  -0.00288  -0.02508   0.00411
  39        4PZ        -0.00176  -0.00277  -0.00784   0.00317  -0.00020
  40 4   Cl 1S         -0.17499   0.08730  -0.23517   0.00082  -0.00232
  41        2S          0.56201  -0.28048   0.75551  -0.00285   0.00805
  42        2PX        -0.00114   0.00059  -0.00159  -0.04408   0.12512
  43        2PY         0.00178  -0.00121   0.00236   0.10353  -0.26713
  44        2PZ        -0.00424   0.00206  -0.00592  -0.22549   0.64350
  45        3S          0.08849  -0.04169   0.11220   0.00136  -0.00419
  46        3PX        -0.00123   0.00045  -0.00123  -0.00375   0.01066
  47        3PY         0.00182   0.00158   0.00261   0.00881  -0.02257
  48        3PZ        -0.00430   0.00253  -0.00391  -0.01905   0.05443
  49        4S         -0.05702   0.02313  -0.06212  -0.00219   0.00714
  50        4PX         0.00387  -0.00112   0.00310   0.00141  -0.00411
  51        4PY        -0.00555  -0.00559  -0.00676  -0.00263   0.00837
  52        4PZ         0.01310  -0.00670   0.00874   0.00699  -0.01960
  53 5   P  1S          0.00002  -0.00000   0.00000  -0.00000   0.00000
  54        2S          0.00064  -0.00000   0.00000  -0.00001   0.00001
  55        2PX        -0.00002   0.00000   0.00000  -0.00001   0.00000
  56        2PY        -0.00000  -0.00007   0.00000  -0.00008   0.00000
  57        2PZ         0.00000  -0.00000  -0.00007  -0.00000  -0.00008
  58        3S          0.00801  -0.00006   0.00003  -0.00008   0.00005
  59        3PX         0.00068  -0.00001   0.00000   0.00004  -0.00003
  60        3PY         0.00001   0.00079  -0.00004   0.00061  -0.00001
  61        3PZ        -0.00000   0.00004   0.00079   0.00001   0.00061
  62        4S         -0.02411   0.00018  -0.00010   0.00041  -0.00024
  63        4PX        -0.01308   0.00012  -0.00004   0.00023  -0.00013
  64        4PY        -0.00009  -0.00530   0.00025  -0.00173   0.00002
  65        4PZ        -0.00000  -0.00025  -0.00530  -0.00002  -0.00174
  66 6   H  1S          0.00101   0.00046   0.00056  -0.00020  -0.00022
  67        2S         -0.00181   0.00005   0.00004   0.00101   0.00117
  68 7   H  1S          0.00100  -0.00072   0.00013   0.00027  -0.00003
  69        2S         -0.00180  -0.00005  -0.00000  -0.00145   0.00017
  70 8   H  1S          0.00101   0.00024  -0.00068  -0.00013   0.00029
  71        2S         -0.00180   0.00004  -0.00006   0.00064  -0.00146
                          11        12        13        14        15
                           O         O         O         O         O
     Eigenvalues --    -7.95439  -7.95169  -7.95143  -7.95143  -7.95134
   1 1   Al 1S          0.00006  -0.00000   0.00000   0.00000   0.00000
   2        2S         -0.00062   0.00040  -0.00000  -0.00001  -0.00000
   3        2PX        -0.00006   0.00024  -0.00000  -0.00000  -0.00000
   4        2PY         0.00004   0.00000  -0.00000   0.00001  -0.00001
   5        2PZ        -0.00002   0.00000  -0.00001  -0.00000  -0.00000
   6        3S         -0.00284   0.00252  -0.00002  -0.00004  -0.00003
   7        3PX        -0.00180  -0.00188   0.00001   0.00003   0.00002
   8        3PY         0.00031  -0.00001   0.00002  -0.00031  -0.00003
   9        3PZ        -0.00018  -0.00000   0.00030   0.00001  -0.00002
  10        4S         -0.02231  -0.00791   0.00005   0.00014   0.00008
  11        4PX         0.00235   0.01787  -0.00014  -0.00025  -0.00023
  12        4PY         0.00035   0.00002   0.00055  -0.01207   0.01115
  13        4PZ        -0.00019   0.00006   0.01324   0.00068   0.00339
  14 2   Cl 1S         -0.00191  -0.00010  -0.00017   0.00012   0.00004
  15        2S          0.00663   0.00036   0.00067  -0.00047  -0.00007
  16        2PX         0.11107   0.54749   0.40438  -0.32328  -0.47904
  17        2PY        -0.33791   0.06482  -0.22255  -0.41522   0.24117
  18        2PZ        -0.44500   0.08779   0.25492   0.24372  -0.29984
  19        3S         -0.00540  -0.00029  -0.00305   0.00193  -0.00228
  20        3PX         0.00959   0.04591   0.03304  -0.02641  -0.03878
  21        3PY        -0.02857   0.00531  -0.01859  -0.03437   0.01994
  22        3PZ        -0.03762   0.00719   0.02102   0.02034  -0.02456
  23        4S          0.01130   0.00044   0.00829  -0.00519   0.00663
  24        4PX        -0.00428  -0.01792  -0.01072   0.00851   0.01109
  25        4PY         0.01145  -0.00172   0.00802   0.01173  -0.00647
  26        4PZ         0.01518  -0.00235  -0.00615  -0.00844   0.00915
  27 3   Cl 1S         -0.00165  -0.00011  -0.00001  -0.00021  -0.00003
  28        2S          0.00573   0.00038   0.00006   0.00081   0.00004
  29        2PX         0.09267   0.56904   0.02753   0.54064   0.48882
  30        2PY         0.47754  -0.10706   0.07503  -0.09376  -0.05658
  31        2PZ        -0.05925   0.01563   0.63533  -0.03387   0.28629
  32        3S         -0.00492  -0.00032  -0.00030  -0.00342   0.00259
  33        3PX         0.00803   0.04767   0.00224   0.04412   0.03952
  34        3PY         0.04037  -0.00876   0.00623  -0.00755  -0.00451
  35        3PZ        -0.00501   0.00128   0.05267  -0.00284   0.02352
  36        4S          0.01047   0.00051   0.00083   0.00925  -0.00752
  37        4PX        -0.00366  -0.01846  -0.00072  -0.01409  -0.01116
  38        4PY        -0.01651   0.00280  -0.00244   0.00049   0.00250
  39        4PZ         0.00207  -0.00042  -0.01905   0.00129  -0.00821
  40 4   Cl 1S         -0.00207  -0.00010   0.00019   0.00009  -0.00000
  41        2S          0.00719   0.00035  -0.00073  -0.00036   0.00002
  42        2PX         0.11737   0.53862  -0.44440  -0.24114  -0.02888
  43        2PY        -0.23606   0.04161   0.19296  -0.47715   0.45543
  44        2PZ         0.55989  -0.09653   0.16128  -0.15647   0.19800
  45        3S         -0.00570  -0.00028   0.00336   0.00151  -0.00031
  46        3PX         0.01013   0.04519  -0.03633  -0.01971  -0.00234
  47        3PY        -0.01996   0.00341   0.01611  -0.03958   0.03754
  48        3PZ         0.04733  -0.00791   0.01321  -0.01309   0.01631
  49        4S          0.01181   0.00041  -0.00914  -0.00409   0.00087
  50        4PX        -0.00448  -0.01770   0.01184   0.00638   0.00067
  51        4PY         0.00794  -0.00111  -0.00679   0.01409  -0.01335
  52        4PZ        -0.01892   0.00257  -0.00288   0.00572  -0.00595
  53 5   P  1S         -0.00001  -0.00002   0.00000   0.00000   0.00000
  54        2S         -0.00011  -0.00009   0.00000   0.00000   0.00000
  55        2PX        -0.00009  -0.00007   0.00000   0.00000   0.00000
  56        2PY         0.00001  -0.00000   0.00000  -0.00005  -0.00025
  57        2PZ        -0.00000   0.00000   0.00003   0.00000  -0.00009
  58        3S         -0.00102  -0.00106   0.00001   0.00002   0.00001
  59        3PX         0.00053   0.00048  -0.00000  -0.00001  -0.00001
  60        3PY        -0.00005   0.00003  -0.00002   0.00031   0.00203
  61        3PZ         0.00003  -0.00001  -0.00008   0.00000   0.00070
  62        4S          0.00506   0.00705  -0.00004  -0.00012  -0.00007
  63        4PX         0.00272   0.00456  -0.00003  -0.00008  -0.00001
  64        4PY         0.00015  -0.00008   0.00001   0.00032  -0.00772
  65        4PZ        -0.00008   0.00005  -0.00118  -0.00009  -0.00262
  66 6   H  1S         -0.00029  -0.00050   0.00027  -0.00019  -0.00018
  67        2S          0.00079   0.00207  -0.00049   0.00053   0.00307
  68 7   H  1S         -0.00031  -0.00049   0.00003   0.00036   0.00019
  69        2S          0.00094   0.00198  -0.00002  -0.00098  -0.00335
  70 8   H  1S         -0.00027  -0.00051  -0.00029  -0.00014   0.00000
  71        2S          0.00069   0.00210   0.00047   0.00035   0.00021
                          16        17        18        19        20
                           O         O         O         O         O
     Eigenvalues --    -7.95134  -7.95130  -7.56383  -5.44884  -5.44884
   1 1   Al 1S         -0.00000   0.00000   0.00008   0.00000   0.00000
   2        2S          0.00000  -0.00000  -0.00167   0.00000   0.00000
   3        2PX         0.00000   0.00000   0.00014  -0.00000  -0.00000
   4        2PY         0.00000  -0.00000   0.00000  -0.00001   0.00005
   5        2PZ        -0.00001  -0.00000   0.00000   0.00005   0.00001
   6        3S          0.00003  -0.00000  -0.00573   0.00000   0.00000
   7        3PX        -0.00002  -0.00000  -0.00238   0.00000   0.00000
   8        3PY         0.00001   0.00000  -0.00001   0.00009  -0.00091
   9        3PZ        -0.00006   0.00000  -0.00000  -0.00091  -0.00009
  10        4S         -0.00008   0.00000   0.03414   0.00000  -0.00000
  11        4PX         0.00018  -0.00001  -0.01653  -0.00002  -0.00005
  12        4PY        -0.00390   0.00089  -0.00007  -0.00104   0.01076
  13        4PZ         0.00981   0.00166  -0.00003   0.01076   0.00104
  14 2   Cl 1S          0.00004  -0.00000   0.00005  -0.00000  -0.00000
  15        2S         -0.00009   0.00002  -0.00021   0.00001   0.00001
  16        2PX        -0.34072  -0.05144  -0.00007   0.00025   0.00023
  17        2PY        -0.34275  -0.46193   0.00001   0.00008  -0.00013
  18        2PZ         0.17703   0.33656   0.00001  -0.00011   0.00005
  19        3S         -0.00129  -0.00047   0.00274  -0.00065  -0.00060
  20        3PX        -0.02758  -0.00415  -0.00005  -0.00102  -0.00094
  21        3PY        -0.02817  -0.03777   0.00008  -0.00035   0.00056
  22        3PZ         0.01468   0.02753   0.00011   0.00046  -0.00025
  23        4S          0.00380   0.00133  -0.00834   0.00357   0.00329
  24        4PX         0.00790   0.00112   0.00219   0.00199   0.00184
  25        4PY         0.01025   0.01190  -0.00151   0.00164  -0.00140
  26        4PZ        -0.00498  -0.00840  -0.00200  -0.00086   0.00142
  27 3   Cl 1S          0.00002   0.00000   0.00005  -0.00000   0.00001
  28        2S         -0.00003  -0.00001  -0.00021   0.00000  -0.00001
  29        2PX        -0.25034   0.01788  -0.00008   0.00007  -0.00033
  30        2PY         0.10638  -0.06228  -0.00002  -0.00001  -0.00006
  31        2PZ         0.47541  -0.47081   0.00000  -0.00018  -0.00003
  32        3S         -0.00123   0.00017   0.00274  -0.00019   0.00086
  33        3PX        -0.02024   0.00144  -0.00004  -0.00031   0.00135
  34        3PY         0.00868  -0.00508  -0.00013   0.00005   0.00024
  35        3PZ         0.03911  -0.03843   0.00002   0.00079   0.00015
  36        4S          0.00358  -0.00049  -0.00833   0.00107  -0.00473
  37        4PX         0.00573  -0.00039   0.00216   0.00060  -0.00265
  38        4PY        -0.00344   0.00162   0.00250  -0.00041   0.00031
  39        4PZ        -0.01353   0.01162  -0.00031  -0.00259  -0.00064
  40 4   Cl 1S         -0.00006   0.00000   0.00005   0.00001  -0.00000
  41        2S          0.00013  -0.00001  -0.00021  -0.00001   0.00000
  42        2PX         0.60810   0.03307  -0.00007  -0.00032   0.00010
  43        2PY         0.01326   0.58020   0.00001  -0.00003  -0.00017
  44        2PZ        -0.11944   0.23694  -0.00002  -0.00007  -0.00005
  45        3S          0.00252   0.00030   0.00274   0.00084  -0.00026
  46        3PX         0.04925   0.00266  -0.00004   0.00132  -0.00042
  47        3PY         0.00103   0.04748   0.00005   0.00015   0.00074
  48        3PZ        -0.00966   0.01940  -0.00012   0.00029   0.00024
  49        4S         -0.00737  -0.00085  -0.00834  -0.00463   0.00145
  50        4PX        -0.01418  -0.00072   0.00218  -0.00258   0.00082
  51        4PY        -0.00077  -0.01504  -0.00097  -0.00090  -0.00232
  52        4PZ         0.00404  -0.00599   0.00232   0.00004  -0.00111
  53 5   P  1S         -0.00000  -0.00000  -0.29555  -0.00000  -0.00000
  54        2S         -0.00000   0.00000   0.99733   0.00000   0.00000
  55        2PX        -0.00000   0.00000  -0.00652  -0.00113  -0.00388
  56        2PY         0.00009  -0.00001  -0.00003  -0.09363   0.96795
  57        2PZ        -0.00025  -0.00003  -0.00001   0.96796   0.09362
  58        3S         -0.00001   0.00000   0.13910   0.00000   0.00000
  59        3PX         0.00000  -0.00000   0.00172  -0.00010  -0.00036
  60        3PY        -0.00072   0.00012   0.00001  -0.00868   0.08971
  61        3PZ         0.00205   0.00024   0.00000   0.08972   0.00868
  62        4S          0.00007  -0.00000  -0.10413  -0.00000   0.00000
  63        4PX         0.00005   0.00000  -0.00491   0.00004   0.00015
  64        4PY         0.00271  -0.00048  -0.00002   0.00364  -0.03762
  65        4PZ        -0.00762  -0.00094  -0.00001  -0.03762  -0.00364
  66 6   H  1S         -0.00015  -0.00002  -0.00400  -0.00482  -0.00444
  67        2S          0.00213   0.00044   0.01587   0.00921   0.00847
  68 7   H  1S         -0.00010   0.00000  -0.00400  -0.00143   0.00640
  69        2S          0.00169  -0.00015   0.01587   0.00273  -0.01221
  70 8   H  1S          0.00024   0.00001  -0.00400   0.00626  -0.00196
  71        2S         -0.00375  -0.00029   0.01587  -0.01194   0.00374
                          21        22        23        24        25
                           O         O         O         O         O
     Eigenvalues --    -5.44779  -4.99985  -3.30490  -3.30490  -3.30412
   1 1   Al 1S          0.00009  -0.28405   0.00000  -0.00000  -0.00027
   2        2S         -0.00049   1.01038  -0.00000   0.00000   0.00116
   3        2PX        -0.00034  -0.00080  -0.00467  -0.00101   0.97875
   4        2PY        -0.00000  -0.00000   0.95193  -0.22292   0.00432
   5        2PZ        -0.00000  -0.00000   0.22291   0.95194   0.00205
   6        3S         -0.00154   0.09353   0.00000  -0.00000   0.00049
   7        3PX        -0.00122   0.00015  -0.00045  -0.00010   0.08755
   8        3PY        -0.00001   0.00000   0.09165  -0.02146   0.00039
   9        3PZ        -0.00000   0.00000   0.02146   0.09165   0.00018
  10        4S          0.01677  -0.01704  -0.00000   0.00001  -0.00202
  11        4PX        -0.00895  -0.00136   0.00012   0.00003  -0.02913
  12        4PY        -0.00004  -0.00001  -0.02436   0.00571  -0.00013
  13        4PZ        -0.00002  -0.00000  -0.00571  -0.02437  -0.00006
  14 2   Cl 1S         -0.00001   0.00003  -0.00007  -0.00005   0.00001
  15        2S          0.00004  -0.00003   0.00014   0.00011  -0.00002
  16        2PX        -0.00010  -0.00005  -0.00003  -0.00003   0.00009
  17        2PY         0.00005   0.00000   0.00004   0.00015  -0.00002
  18        2PZ         0.00006   0.00001   0.00017   0.00006  -0.00003
  19        3S          0.00019   0.00365  -0.00042  -0.00035  -0.00027
  20        3PX         0.00039   0.00011  -0.00023  -0.00019  -0.00047
  21        3PY        -0.00019   0.00026   0.00091   0.00030  -0.00020
  22        3PZ        -0.00025   0.00034   0.00074   0.00095  -0.00026
  23        4S         -0.00222  -0.00789   0.00416   0.00345   0.00030
  24        4PX        -0.00010   0.00146  -0.00195  -0.00163   0.00088
  25        4PY        -0.00011  -0.00559   0.00462   0.00608  -0.00106
  26        4PZ        -0.00014  -0.00739   0.00841   0.00526  -0.00140
  27 3   Cl 1S         -0.00001   0.00003   0.00008  -0.00003   0.00001
  28        2S          0.00004  -0.00003  -0.00017   0.00006  -0.00002
  29        2PX        -0.00010  -0.00005   0.00004  -0.00001   0.00009
  30        2PY        -0.00008  -0.00001   0.00019  -0.00009   0.00004
  31        2PZ         0.00001   0.00000  -0.00006  -0.00010  -0.00000
  32        3S          0.00019   0.00365   0.00051  -0.00019  -0.00027
  33        3PX         0.00039   0.00012   0.00027  -0.00010  -0.00047
  34        3PY         0.00032  -0.00042   0.00139  -0.00046   0.00032
  35        3PZ        -0.00004   0.00005  -0.00002   0.00047  -0.00004
  36        4S         -0.00221  -0.00789  -0.00507   0.00188   0.00030
  37        4PX        -0.00010   0.00138   0.00229  -0.00084   0.00087
  38        4PY         0.00018   0.00921   0.01140  -0.00451   0.00175
  39        4PZ        -0.00002  -0.00115  -0.00218  -0.00150  -0.00022
  40 4   Cl 1S         -0.00001   0.00003  -0.00001   0.00008   0.00001
  41        2S          0.00004  -0.00003   0.00003  -0.00018  -0.00002
  42        2PX        -0.00010  -0.00005  -0.00001   0.00004   0.00009
  43        2PY         0.00003   0.00000  -0.00009  -0.00010  -0.00002
  44        2PZ        -0.00007  -0.00001  -0.00008   0.00019   0.00004
  45        3S          0.00019   0.00365  -0.00009   0.00054  -0.00027
  46        3PX         0.00039   0.00012  -0.00005   0.00029  -0.00047
  47        3PY        -0.00012   0.00017   0.00049  -0.00050  -0.00013
  48        3PZ         0.00029  -0.00039  -0.00006   0.00137   0.00029
  49        4S         -0.00221  -0.00789   0.00091  -0.00533   0.00030
  50        4PX        -0.00010   0.00142  -0.00041   0.00246   0.00088
  51        4PY        -0.00007  -0.00360  -0.00117  -0.00505  -0.00068
  52        4PZ         0.00016   0.00855  -0.00275   0.01107   0.00162
  53 5   P  1S         -0.00195   0.00004  -0.00000   0.00000  -0.00002
  54        2S          0.00723   0.00044   0.00000   0.00000  -0.00077
  55        2PX         0.97270   0.00066   0.00000   0.00000  -0.00064
  56        2PY         0.00375   0.00000   0.00004  -0.00001  -0.00000
  57        2PZ         0.00150   0.00000   0.00001   0.00004  -0.00000
  58        3S          0.00452   0.00578   0.00000   0.00000  -0.00611
  59        3PX         0.09025   0.00029  -0.00000  -0.00000   0.00221
  60        3PY         0.00035   0.00000   0.00005  -0.00001   0.00001
  61        3PZ         0.00014   0.00000   0.00001   0.00005   0.00000
  62        4S         -0.00650  -0.01400  -0.00001  -0.00001   0.01657
  63        4PX        -0.04005  -0.00429   0.00001   0.00000   0.00240
  64        4PY        -0.00016  -0.00002  -0.00255   0.00060   0.00001
  65        4PZ        -0.00006  -0.00001  -0.00060  -0.00255   0.00001
  66 6   H  1S          0.00328  -0.00052  -0.00052  -0.00043   0.00097
  67        2S         -0.00628   0.00365   0.00309   0.00257  -0.00755
  68 7   H  1S          0.00328  -0.00052   0.00064  -0.00024   0.00097
  69        2S         -0.00628   0.00365  -0.00377   0.00139  -0.00754
  70 8   H  1S          0.00328  -0.00052  -0.00012   0.00067   0.00097
  71        2S         -0.00628   0.00364   0.00068  -0.00396  -0.00754
                          26        27        28        29        30
                           O         O         O         O         O
     Eigenvalues --    -1.09590  -1.07685  -1.07684  -0.97527  -0.63089
   1 1   Al 1S          0.01788  -0.00001   0.00000   0.00349   0.00001
   2        2S         -0.08256   0.00002  -0.00001  -0.01378  -0.00007
   3        2PX        -0.00986   0.00023   0.00009   0.02048   0.00003
   4        2PY        -0.00005  -0.05072   0.00156   0.00009   0.00240
   5        2PZ        -0.00001  -0.00156  -0.05071   0.00004  -0.01232
   6        3S          0.13296  -0.00004   0.00002   0.04309   0.00013
   7        3PX         0.01014  -0.00031  -0.00013  -0.03407  -0.00006
   8        3PY         0.00006   0.06997  -0.00215  -0.00014  -0.00520
   9        3PZ         0.00001   0.00215   0.06996  -0.00007   0.02667
  10        4S         -0.07409   0.00002  -0.00001  -0.05677   0.00000
  11        4PX         0.00362   0.00021   0.00009   0.04396   0.00001
  12        4PY         0.00001  -0.04823   0.00148   0.00019   0.00078
  13        4PZ         0.00001  -0.00149  -0.04822   0.00008  -0.00396
  14 2   Cl 1S          0.04385  -0.04051  -0.05017  -0.00445   0.00134
  15        2S         -0.25779   0.23833   0.29518   0.02628  -0.00807
  16        2PX         0.00493  -0.00414  -0.00514   0.00209  -0.00771
  17        2PY        -0.01277   0.00820   0.01203  -0.00028   0.00685
  18        2PZ        -0.01688   0.01274   0.01436  -0.00038   0.00186
  19        3S          0.30884  -0.28861  -0.35747  -0.03491   0.01095
  20        3PX        -0.00946   0.00797   0.00988  -0.00409   0.01633
  21        3PY         0.02490  -0.01630  -0.02285   0.00071  -0.01444
  22        3PZ         0.03291  -0.02425  -0.02801   0.00095  -0.00397
  23        4S          0.31471  -0.28585  -0.35404  -0.02177   0.01051
  24        4PX        -0.01192   0.00934   0.01159  -0.00666   0.01328
  25        4PY         0.02690  -0.01319  -0.02724   0.00036  -0.01049
  26        4PZ         0.03555  -0.02851  -0.02706   0.00050  -0.00019
  27 3   Cl 1S          0.04387   0.06369  -0.00998  -0.00446   0.00063
  28        2S         -0.25793  -0.37472   0.05869   0.02630  -0.00377
  29        2PX         0.00476   0.00632  -0.00099   0.00209  -0.00357
  30        2PY         0.02105   0.02360  -0.00388   0.00049  -0.00331
  31        2PZ        -0.00262  -0.00317  -0.00099  -0.00006  -0.00519
  32        3S          0.30901   0.45378  -0.07107  -0.03493   0.00512
  33        3PX        -0.00913  -0.01216   0.00190  -0.00408   0.00756
  34        3PY        -0.04104  -0.04557   0.00740  -0.00121   0.00700
  35        3PZ         0.00512   0.00601   0.00118   0.00014   0.01090
  36        4S          0.31488   0.44943  -0.07039  -0.02179   0.00489
  37        4PX        -0.01156  -0.01431   0.00222  -0.00665   0.00616
  38        4PY        -0.04435  -0.04784   0.00857  -0.00066   0.00435
  39        4PZ         0.00553   0.00730   0.00749   0.00007   0.01011
  40 4   Cl 1S          0.04384  -0.02322   0.06017  -0.00446  -0.00198
  41        2S         -0.25773   0.13661  -0.35398   0.02630   0.01193
  42        2PX         0.00484  -0.00233   0.00606   0.00209   0.01132
  43        2PY        -0.00821   0.00209  -0.00919  -0.00018  -0.00431
  44        2PZ         0.01953  -0.00853   0.02050   0.00045   0.00727
  45        3S          0.30876  -0.16544   0.42867  -0.03493  -0.01620
  46        3PX        -0.00928   0.00449  -0.01166  -0.00409  -0.02396
  47        3PY         0.01601  -0.00467   0.01750   0.00045   0.00910
  48        3PZ        -0.03807   0.01620  -0.03969  -0.00112  -0.01539
  49        4S          0.31464  -0.16385   0.42456  -0.02178  -0.01551
  50        4PX        -0.01173   0.00525  -0.01371  -0.00666  -0.01952
  51        4PY         0.01729   0.00056   0.02053   0.00022   0.00580
  52        4PZ        -0.04114   0.01936  -0.04088  -0.00060  -0.00811
  53 5   P  1S          0.00475  -0.00000   0.00000   0.06457   0.00000
  54        2S         -0.02611   0.00000  -0.00001  -0.34925  -0.00000
  55        2PX        -0.00358   0.00001   0.00000   0.03463   0.00013
  56        2PY        -0.00002  -0.00156   0.00005   0.00014   0.03765
  57        2PZ        -0.00001  -0.00005  -0.00156   0.00005  -0.19279
  58        3S          0.02266   0.00000   0.00001   0.38445  -0.00001
  59        3PX         0.00691  -0.00001  -0.00000  -0.07193  -0.00026
  60        3PY         0.00003   0.00192  -0.00006  -0.00029  -0.07571
  61        3PZ         0.00001   0.00006   0.00192  -0.00012   0.38767
  62        4S          0.05630  -0.00001   0.00001   0.51771   0.00006
  63        4PX         0.01463  -0.00004  -0.00001   0.00407  -0.00010
  64        4PY         0.00006   0.01030  -0.00032   0.00002  -0.03787
  65        4PZ         0.00003   0.00032   0.01030   0.00003   0.19391
  66 6   H  1S          0.00572   0.00003   0.00004   0.12358   0.16704
  67        2S          0.00277   0.00008   0.00010   0.04951   0.20892
  68 7   H  1S          0.00572  -0.00005   0.00001   0.12357   0.07792
  69        2S          0.00276  -0.00012   0.00002   0.04951   0.09746
  70 8   H  1S          0.00572   0.00002  -0.00004   0.12358  -0.24501
  71        2S          0.00277   0.00005  -0.00011   0.04952  -0.30646
                          31        32        33        34        35
                           O         O         O         O         O
     Eigenvalues --    -0.63085  -0.61825  -0.52781  -0.51481  -0.51480
   1 1   Al 1S          0.00003   0.04052  -0.01073  -0.00000  -0.00000
   2        2S         -0.00012  -0.19340   0.04894   0.00001   0.00000
   3        2PX         0.00008   0.02558   0.09452  -0.00049  -0.00022
   4        2PY        -0.01232   0.00011   0.00038   0.11813  -0.00042
   5        2PZ        -0.00241   0.00005   0.00017   0.00042   0.11812
   6        3S          0.00022   0.35729  -0.11484  -0.00001  -0.00001
   7        3PX        -0.00017  -0.05029  -0.18842   0.00107   0.00048
   8        3PY         0.02668  -0.00022  -0.00074  -0.25730   0.00091
   9        3PZ         0.00521  -0.00011  -0.00034  -0.00091  -0.25728
  10        4S          0.00002   0.03925   0.00829  -0.00000  -0.00000
  11        4PX         0.00002   0.00037  -0.03477   0.00004   0.00002
  12        4PY        -0.00396   0.00001  -0.00016  -0.01238   0.00005
  13        4PZ        -0.00078  -0.00000  -0.00007  -0.00005  -0.01242
  14 2   Cl 1S          0.00150  -0.01344   0.00436  -0.00660  -0.00865
  15        2S         -0.00901   0.08079  -0.02631   0.04002   0.05245
  16        2PX        -0.00860   0.02955   0.07516   0.02754   0.03647
  17        2PY         0.00066  -0.05632   0.05177   0.00605  -0.13358
  18        2PZ         0.00736  -0.07445   0.06809  -0.13388  -0.06824
  19        3S          0.01224  -0.11284   0.04278  -0.05714  -0.07488
  20        3PX         0.01821  -0.06332  -0.16327  -0.05902  -0.07817
  21        3PY        -0.00145   0.11932  -0.11008  -0.01499   0.28590
  22        3PZ        -0.01554   0.15773  -0.14475   0.28654   0.14402
  23        4S          0.01172  -0.09914   0.02254  -0.05945  -0.07789
  24        4PX         0.01483  -0.04454  -0.12722  -0.04545  -0.06025
  25        4PY         0.00157   0.08961  -0.09333  -0.01970   0.22719
  26        4PZ        -0.01025   0.11845  -0.12277   0.22763   0.10666
  27 3   Cl 1S         -0.00193  -0.01344   0.00436   0.01079  -0.00139
  28        2S          0.01160   0.08078  -0.02628  -0.06544   0.00843
  29        2PX         0.01097   0.02877   0.07591  -0.04393   0.00540
  30        2PY         0.00791   0.09287  -0.08417  -0.16590   0.03487
  31        2PZ        -0.00280  -0.01156   0.01072   0.03454   0.10333
  32        3S         -0.01576  -0.11282   0.04274   0.09344  -0.01203
  33        3PX        -0.02322  -0.06167  -0.16486   0.09416  -0.01158
  34        3PY        -0.01675  -0.19678   0.17891   0.35304  -0.07461
  35        3PZ         0.00591   0.02449  -0.02279  -0.07394  -0.22318
  36        4S         -0.01509  -0.09913   0.02248   0.09718  -0.01252
  37        4PX        -0.01892  -0.04330  -0.12855   0.07255  -0.00889
  38        4PY        -0.00906  -0.14775   0.15184   0.27271  -0.05926
  39        4PZ         0.00459   0.01839  -0.01932  -0.05878  -0.18511
  40 4   Cl 1S          0.00040  -0.01344   0.00436  -0.00419   0.01004
  41        2S         -0.00244   0.08078  -0.02629   0.02541  -0.06088
  42        2PX        -0.00232   0.02914   0.07554   0.01687  -0.04166
  43        2PY        -0.00462  -0.03618   0.03339   0.06618   0.09904
  44        2PZ        -0.00379   0.08618  -0.07835   0.09901  -0.12860
  45        3S          0.00330  -0.11282   0.04276  -0.03628   0.08693
  46        3PX         0.00490  -0.06244  -0.16407  -0.03615   0.08930
  47        3PY         0.00971   0.07666  -0.07101  -0.14369  -0.21196
  48        3PZ         0.00798  -0.18259   0.16655  -0.21190   0.27320
  49        4S          0.00318  -0.09913   0.02251  -0.03775   0.09043
  50        4PX         0.00399  -0.04388  -0.12789  -0.02780   0.06883
  51        4PY         0.00929   0.05758  -0.06019  -0.12194  -0.16839
  52        4PZ         0.00602  -0.13710   0.14132  -0.16839   0.20929
  53 5   P  1S          0.00000   0.00400   0.01009   0.00000   0.00000
  54        2S         -0.00002  -0.02422  -0.05750  -0.00002  -0.00001
  55        2PX         0.00077  -0.11145  -0.13086   0.00003   0.00002
  56        2PY        -0.19278  -0.00034  -0.00052  -0.01469   0.00005
  57        2PZ        -0.03765  -0.00009  -0.00021  -0.00006  -0.01468
  58        3S          0.00001   0.01014   0.05356   0.00001   0.00000
  59        3PX        -0.00154   0.22329   0.26065  -0.00006  -0.00003
  60        3PY         0.38766   0.00069   0.00103   0.03030  -0.00010
  61        3PZ         0.07571   0.00019   0.00042   0.00011   0.03029
  62        4S          0.00007   0.11960   0.16675   0.00005   0.00003
  63        4PX        -0.00071   0.19409   0.25384   0.00003   0.00000
  64        4PY         0.19394   0.00068   0.00104   0.00815  -0.00003
  65        4PZ         0.03787   0.00024   0.00043   0.00004   0.00815
  66 6   H  1S          0.18640  -0.04877  -0.05045   0.01653   0.02170
  67        2S          0.23317  -0.05757  -0.06336   0.02436   0.03200
  68 7   H  1S         -0.23792  -0.04846  -0.05041  -0.02708   0.00346
  69        2S         -0.29761  -0.05716  -0.06327  -0.03993   0.00509
  70 8   H  1S          0.05141  -0.04853  -0.05043   0.01052  -0.02517
  71        2S          0.06432  -0.05725  -0.06332   0.01552  -0.03711
                          36        37        38        39        40
                           O         O         O         O         O
     Eigenvalues --    -0.46764  -0.46763  -0.46017  -0.46016  -0.45180
   1 1   Al 1S          0.00000   0.00000   0.00000  -0.00000  -0.00255
   2        2S         -0.00001  -0.00000  -0.00001   0.00000   0.01413
   3        2PX        -0.00008  -0.00004  -0.00012  -0.00004   0.01657
   4        2PY         0.01977   0.00092   0.02494  -0.00051   0.00007
   5        2PZ        -0.00091   0.01980   0.00051   0.02494   0.00004
   6        3S         -0.00000  -0.00000   0.00001  -0.00001  -0.01121
   7        3PX         0.00014   0.00008   0.00024   0.00009  -0.03066
   8        3PY        -0.03719  -0.00172  -0.04978   0.00102  -0.00013
   9        3PZ         0.00172  -0.03725  -0.00102  -0.04978  -0.00007
  10        4S          0.00005   0.00003   0.00000  -0.00001  -0.04910
  11        4PX        -0.00036  -0.00021  -0.00049  -0.00019   0.13210
  12        4PY         0.08369   0.00386   0.11023  -0.00226   0.00056
  13        4PZ        -0.00387   0.08376   0.00226   0.11016   0.00025
  14 2   Cl 1S         -0.00166  -0.00241  -0.00146  -0.00185   0.00143
  15        2S          0.00987   0.01438   0.00869   0.01098  -0.00856
  16        2PX         0.09826   0.14243  -0.08283  -0.10541  -0.13279
  17        2PY        -0.10261   0.04267  -0.13088   0.00855   0.01498
  18        2PZ         0.05046  -0.07216   0.00374  -0.12721   0.02035
  19        3S         -0.02712  -0.03951  -0.02798  -0.03537   0.02367
  20        3PX        -0.21058  -0.30522   0.17895   0.22775   0.28793
  21        3PY         0.22062  -0.09357   0.28228  -0.02156  -0.03078
  22        3PZ        -0.11026   0.15395  -0.01123   0.27274  -0.04188
  23        4S          0.02753   0.04010   0.03932   0.04971  -0.01526
  24        4PX        -0.19642  -0.28478   0.15857   0.20176   0.24437
  25        4PY         0.19699  -0.07308   0.24839   0.00101  -0.03609
  26        4PZ        -0.08829   0.14434   0.01031   0.25040  -0.04870
  27 3   Cl 1S          0.00292  -0.00023   0.00233  -0.00034   0.00143
  28        2S         -0.01739   0.00137  -0.01386   0.00202  -0.00856
  29        2PX        -0.17221   0.01389   0.13363  -0.01921  -0.13255
  30        2PY        -0.04080  -0.01381  -0.12173   0.00077  -0.02623
  31        2PZ        -0.00612  -0.13545  -0.00422  -0.13530   0.00290
  32        3S          0.04776  -0.00376   0.04463  -0.00652   0.02368
  33        3PX         0.36907  -0.02978  -0.28868   0.04150   0.28744
  34        3PY         0.08526   0.03004   0.25860  -0.00077   0.05408
  35        3PZ         0.01357   0.29251   0.00994   0.29414  -0.00593
  36        4S         -0.04850   0.00382  -0.06274   0.00916  -0.01526
  37        4PX         0.34424  -0.02772  -0.25595   0.03683   0.24382
  38        4PY         0.09033   0.02478   0.25275  -0.00631   0.06229
  39        4PZ         0.00979   0.25396   0.00332   0.24404  -0.00708
  40 4   Cl 1S         -0.00126   0.00264  -0.00087   0.00219   0.00143
  41        2S          0.00751  -0.01575   0.00518  -0.01301  -0.00857
  42        2PX         0.07502  -0.15569  -0.04909   0.12531  -0.13274
  43        2PY        -0.11968  -0.04103  -0.13375  -0.00139   0.00952
  44        2PZ        -0.03217  -0.05575  -0.00743  -0.12371  -0.02403
  45        3S         -0.02062   0.04326  -0.01668   0.04190   0.02368
  46        3PX        -0.16078   0.33366   0.10604  -0.27072   0.28784
  47        3PY         0.25800   0.08960   0.28997   0.00528  -0.01954
  48        3PZ         0.07062   0.11802   0.01829   0.26368   0.04950
  49        4S          0.02092  -0.04393   0.02343  -0.05887  -0.01525
  50        4PX        -0.14990   0.31129   0.09406  -0.23992   0.24424
  51        4PY         0.22657   0.07208   0.24558  -0.01002  -0.02301
  52        4PZ         0.05475   0.11612   0.00165   0.25200   0.05722
  53 5   P  1S          0.00000  -0.00000  -0.00000   0.00000   0.01534
  54        2S         -0.00002   0.00001   0.00002  -0.00001  -0.08907
  55        2PX         0.00001   0.00003  -0.00001  -0.00003  -0.13029
  56        2PY        -0.00798  -0.00037   0.00740  -0.00015  -0.00053
  57        2PZ         0.00038  -0.00797   0.00015   0.00740  -0.00023
  58        3S          0.00002  -0.00000  -0.00002   0.00000   0.07104
  59        3PX        -0.00005  -0.00009   0.00003   0.00006   0.25871
  60        3PY         0.02474   0.00114  -0.01745   0.00036   0.00105
  61        3PZ        -0.00116   0.02472  -0.00036  -0.01746   0.00045
  62        4S          0.00003  -0.00006  -0.00005   0.00004   0.32709
  63        4PX         0.00029   0.00006  -0.00006   0.00004   0.33095
  64        4PY        -0.06342  -0.00288   0.00336  -0.00008   0.00136
  65        4PZ         0.00290  -0.06343   0.00007   0.00341   0.00056
  66 6   H  1S          0.00850   0.01241  -0.00787  -0.01000  -0.04386
  67        2S          0.03354   0.04887  -0.01886  -0.02395  -0.06504
  68 7   H  1S         -0.01501   0.00117   0.01260  -0.00183  -0.04387
  69        2S         -0.05915   0.00464   0.03016  -0.00440  -0.06503
  70 8   H  1S          0.00650  -0.01355  -0.00471   0.01181  -0.04388
  71        2S          0.02556  -0.05349  -0.01127   0.02832  -0.06508
                          41        42        43        44        45
                           O         V         V         V         V
     Eigenvalues --    -0.45020   0.08939   0.09432   0.09433   0.12072
   1 1   Al 1S          0.00000   0.04942  -0.00007   0.00000  -0.00666
   2        2S         -0.00000  -0.28001   0.00044  -0.00001   0.05043
   3        2PX        -0.00001  -0.01180   0.00032   0.00007  -0.15315
   4        2PY        -0.00001  -0.00016  -0.05972   0.01722  -0.00066
   5        2PZ        -0.00002  -0.00003  -0.01722  -0.05976  -0.00031
   6        3S          0.00000   0.31189  -0.00034   0.00011   0.03193
   7        3PX         0.00001   0.02193  -0.00085  -0.00020   0.37238
   8        3PY         0.00002   0.00039   0.15615  -0.04503   0.00160
   9        3PZ         0.00004   0.00007   0.04503   0.15627   0.00077
  10        4S          0.00002   1.57516  -0.00278  -0.00015  -0.49589
  11        4PX        -0.00005   0.07744  -0.00218  -0.00032   1.28736
  12        4PY        -0.00005   0.00119   0.46200  -0.13334   0.00542
  13        4PZ        -0.00011   0.00024   0.13323   0.46233   0.00257
  14 2   Cl 1S          0.00000  -0.01496   0.00718   0.00535  -0.00156
  15        2S         -0.00000   0.09357  -0.04502  -0.03357   0.00961
  16        2PX         0.00045  -0.00505   0.03223   0.02420   0.05653
  17        2PY        -0.13013   0.05623  -0.00052  -0.03167   0.00980
  18        2PZ         0.09870   0.07415  -0.03199  -0.00010   0.01273
  19        3S          0.00002  -0.09330   0.04222   0.03153  -0.01651
  20        3PX        -0.00097   0.00994  -0.07658  -0.05749  -0.11885
  21        3PY         0.28180  -0.11985   0.00032   0.06635  -0.02108
  22        3PZ        -0.21372  -0.15806   0.06661  -0.00053  -0.02738
  23        4S         -0.00006  -0.43948   0.23894   0.17808  -0.02091
  24        4PX        -0.00085   0.03807  -0.07164  -0.05386  -0.27024
  25        4PY         0.24913  -0.24221   0.02519   0.14964  -0.03946
  26        4PZ        -0.18896  -0.31955   0.16401   0.02296  -0.05112
  27 3   Cl 1S         -0.00000  -0.01498  -0.00819   0.00352  -0.00156
  28        2S          0.00001   0.09373   0.05136  -0.02209   0.00961
  29        2PX         0.00044  -0.00438  -0.03684   0.01569   0.05666
  30        2PY        -0.02024  -0.09247  -0.02786   0.01627  -0.01546
  31        2PZ        -0.16189   0.01158   0.01591   0.02717   0.00209
  32        3S         -0.00002  -0.09344  -0.04822   0.02068  -0.01652
  33        3PX        -0.00095   0.00855   0.08758  -0.03732  -0.11913
  34        3PY         0.04383   0.19710   0.05753  -0.03380   0.03328
  35        3PZ         0.35057  -0.02468  -0.03344  -0.05751  -0.00448
  36        4S          0.00002  -0.44035  -0.27249   0.11740  -0.02082
  37        4PX        -0.00084   0.03499   0.08102  -0.03443  -0.27073
  38        4PY         0.03875   0.39868   0.15902  -0.08636   0.06177
  39        4PZ         0.30996  -0.04990  -0.07204  -0.11129  -0.00843
  40 4   Cl 1S         -0.00000  -0.01497   0.00108  -0.00888  -0.00156
  41        2S          0.00001   0.09361  -0.00678   0.05567   0.00962
  42        2PX        -0.00075  -0.00468   0.00463  -0.03992   0.05659
  43        2PY         0.15053   0.03621   0.02728   0.01569   0.00640
  44        2PZ         0.06356  -0.08577   0.01579  -0.02813  -0.01449
  45        3S         -0.00003  -0.09335   0.00641  -0.05222  -0.01652
  46        3PX         0.00162   0.00918  -0.01105   0.09486  -0.11897
  47        3PY        -0.32596  -0.07718  -0.05773  -0.03252  -0.01375
  48        3PZ        -0.13762   0.18283  -0.03321   0.05808   0.03117
  49        4S          0.00005  -0.43967   0.03579  -0.29544  -0.02097
  50        4PX         0.00144   0.03641  -0.00995   0.08830  -0.27047
  51        4PY        -0.28817  -0.15595  -0.11193  -0.08413  -0.02583
  52        4PZ        -0.12169   0.36970  -0.07117   0.16055   0.05799
  53 5   P  1S         -0.00001  -0.02216   0.00004  -0.00000   0.03324
  54        2S          0.00003   0.12639  -0.00022   0.00002  -0.20128
  55        2PX         0.00005   0.03256   0.00042   0.00005  -0.00316
  56        2PY        -0.00000  -0.00002  -0.10260   0.02953   0.00001
  57        2PZ        -0.00000   0.00000  -0.02953  -0.10256  -0.00000
  58        3S         -0.00003  -0.17000   0.00027  -0.00003   0.16253
  59        3PX        -0.00009  -0.04680  -0.00080  -0.00009  -0.04752
  60        3PY         0.00000   0.00010   0.18968  -0.05460  -0.00024
  61        3PZ         0.00000   0.00002   0.05458   0.18961  -0.00010
  62        4S         -0.00009  -0.58021   0.00117  -0.00012   1.41194
  63        4PX        -0.00013  -0.24739  -0.00440  -0.00050   0.36000
  64        4PY         0.00001   0.00051   1.05810  -0.30456   0.00137
  65        4PZ         0.00002   0.00008   0.30460   1.05806   0.00073
  66 6   H  1S          0.00002   0.01792  -0.11116  -0.08324  -0.02872
  67        2S          0.00001   0.16060  -0.85195  -0.63819  -0.35023
  68 7   H  1S          0.00001   0.01830   0.12765  -0.05458  -0.02875
  69        2S          0.00001   0.16337   0.97824  -0.41830  -0.35042
  70 8   H  1S          0.00001   0.01809  -0.01659   0.13786  -0.02872
  71        2S          0.00001   0.16182  -0.12726   1.05665  -0.35022
                          46        47        48        49        50
                           V         V         V         V         V
     Eigenvalues --     0.18515   0.18929   0.18931   0.29647   0.33498
   1 1   Al 1S          0.02995   0.00012   0.00010  -0.04557   0.00217
   2        2S         -0.08446  -0.00037  -0.00026   0.03666   0.05321
   3        2PX         0.13125   0.00079   0.00083   0.11035   0.25289
   4        2PY         0.00099  -0.02360  -0.09527   0.00048   0.00118
   5        2PZ         0.00053  -0.09527   0.02360   0.00018   0.00060
   6        3S          0.76105   0.00301   0.00260  -1.75647   0.43264
   7        3PX        -0.52498  -0.00266  -0.00265  -0.46986  -1.20509
   8        3PY        -0.00315   0.05118   0.20656  -0.00207  -0.00560
   9        3PZ        -0.00160   0.20656  -0.05118  -0.00078  -0.00281
  10        4S         -0.38115  -0.00114  -0.00149   2.55685  -1.23496
  11        4PX        -0.09667  -0.00559  -0.00680  -0.06213   1.82485
  12        4PY        -0.00782   0.40691   1.64228  -0.00022   0.00814
  13        4PZ        -0.00518   1.64189  -0.40679  -0.00002   0.00381
  14 2   Cl 1S         -0.00101   0.01309   0.00563  -0.00484   0.00536
  15        2S          0.00589  -0.08412  -0.03615   0.03126  -0.03377
  16        2PX        -0.02000   0.00259   0.00092  -0.00257   0.02732
  17        2PY         0.01297  -0.04206   0.04656  -0.02536  -0.00508
  18        2PZ         0.01740  -0.00690  -0.05189  -0.03347  -0.00680
  19        3S         -0.02431   0.00769   0.00334  -0.02314   0.05935
  20        3PX         0.04510   0.00105   0.00085   0.00632  -0.06183
  21        3PY        -0.03061   0.08462  -0.10539   0.06214   0.00902
  22        3PZ        -0.04101   0.00504   0.10946   0.08200   0.01212
  23        4S          0.07537   0.83509   0.35879  -0.39377   0.10820
  24        4PX         0.05680  -0.09854  -0.04139   0.03394  -0.19576
  25        4PY        -0.01044   0.30850  -0.15654  -0.02303   0.06128
  26        4PZ        -0.01495   0.18995   0.30058  -0.03056   0.08164
  27 3   Cl 1S         -0.00088  -0.00169  -0.01416  -0.00484   0.00536
  28        2S          0.00507   0.01083   0.09096   0.03127  -0.03379
  29        2PX        -0.01978  -0.00056  -0.00259  -0.00290   0.02725
  30        2PY        -0.02144   0.00515  -0.03441   0.04164   0.00870
  31        2PZ         0.00238   0.07388  -0.00456  -0.00521  -0.00103
  32        3S         -0.02423  -0.00107  -0.00852  -0.02315   0.05938
  33        3PX         0.04464   0.00037  -0.00146   0.00714  -0.06170
  34        3PY         0.05069  -0.01290   0.06186  -0.10203  -0.01562
  35        3PZ        -0.00569  -0.16184   0.01168   0.01277   0.00182
  36        4S          0.08350  -0.10704  -0.90193  -0.39383   0.10816
  37        4PX         0.05572   0.01338   0.10352   0.03362  -0.19495
  38        4PY         0.01546   0.00217   0.36802   0.03829  -0.10319
  39        4PZ        -0.00062  -0.33365  -0.00624  -0.00473   0.01242
  40 4   Cl 1S         -0.00092  -0.01142   0.00853  -0.00484   0.00536
  41        2S          0.00534   0.07338  -0.05482   0.03129  -0.03380
  42        2PX        -0.01988  -0.00245   0.00125  -0.00275   0.02729
  43        2PY         0.00794   0.05161   0.04715  -0.01631  -0.00324
  44        2PZ        -0.02009  -0.00767   0.04173   0.03866   0.00802
  45        3S         -0.02426  -0.00692   0.00498  -0.02317   0.05940
  46        3PX         0.04485  -0.00043   0.00163   0.00676  -0.06178
  47        3PY        -0.01883  -0.10894  -0.10660   0.03997   0.00575
  48        3PZ         0.04742   0.00664  -0.08389  -0.09474  -0.01438
  49        4S          0.08081  -0.72732   0.54433  -0.39390   0.10817
  50        4PX         0.05610   0.08575  -0.06175   0.03380  -0.19536
  51        4PY        -0.00449  -0.29801  -0.16058  -0.01484   0.03922
  52        4PZ         0.01578   0.19438  -0.30689   0.03557  -0.09542
  53 5   P  1S          0.02189   0.00008   0.00008   0.00083  -0.01698
  54        2S         -0.14082  -0.00052  -0.00052  -0.00865   0.08317
  55        2PX         0.11817   0.00019   0.00006   0.02725  -0.02433
  56        2PY         0.00006   0.02438   0.09836   0.00010  -0.00007
  57        2PZ        -0.00009   0.09838  -0.02440   0.00004   0.00000
  58        3S          0.06537   0.00026   0.00033  -0.02802  -0.26597
  59        3PX        -0.23002  -0.00032  -0.00007  -0.01877   0.06902
  60        3PY        -0.00007  -0.05018  -0.20247  -0.00005   0.00021
  61        3PZ         0.00019  -0.20250   0.05023  -0.00000   0.00000
  62        4S          1.49932   0.00550   0.00521   0.13904   0.30441
  63        4PX        -1.13622  -0.00198  -0.00061  -0.82666   0.62273
  64        4PY        -0.00050  -0.23682  -0.95565  -0.00339   0.00243
  65        4PZ         0.00095  -0.95599   0.23715  -0.00141   0.00089
  66 6   H  1S         -0.05120   0.02549   0.01077  -0.05725   0.06793
  67        2S         -0.97454   0.66780   0.28355  -0.39367   0.44882
  68 7   H  1S         -0.05095  -0.00354  -0.02791  -0.05721   0.06793
  69        2S         -0.96830  -0.09053  -0.72860  -0.39358   0.44844
  70 8   H  1S         -0.05104  -0.02257   0.01659  -0.05722   0.06793
  71        2S         -0.97034  -0.58856   0.43452  -0.39358   0.44842
                          51        52        53        54        55
                           V         V         V         V         V
     Eigenvalues --     0.35788   0.35790   0.53536   0.54323   0.54324
   1 1   Al 1S          0.00000  -0.00000   0.00144  -0.00000  -0.00000
   2        2S          0.00001   0.00003   0.01760   0.00001  -0.00001
   3        2PX         0.00056   0.00156  -0.04295  -0.00001   0.00011
   4        2PY         0.03284  -0.33056  -0.00019   0.00180  -0.01855
   5        2PZ        -0.33055  -0.03284  -0.00006  -0.01855  -0.00180
   6        3S          0.00027   0.00007   0.23015   0.00012  -0.00025
   7        3PX        -0.00264  -0.00735   0.02359  -0.00009  -0.00046
   8        3PY        -0.15396   1.54971   0.00017  -0.01117   0.11498
   9        3PZ         1.54965   0.15396  -0.00010   0.11497   0.01116
  10        4S         -0.00057  -0.00038   0.13854   0.00013  -0.00023
  11        4PX         0.00234   0.00594  -0.07770   0.00082   0.00301
  12        4PY         0.11846  -1.19212  -0.00095   0.06335  -0.65262
  13        4PZ        -1.19220  -0.11844   0.00027  -0.65257  -0.06334
  14 2   Cl 1S          0.00358   0.00332   0.00385  -0.00126  -0.00117
  15        2S         -0.02275  -0.02110  -0.02322   0.00860   0.00799
  16        2PX         0.00851   0.00789   0.01974   0.05299   0.04896
  17        2PY        -0.03472  -0.02966  -0.00311   0.01867  -0.02670
  18        2PZ        -0.04326  -0.04201  -0.00413  -0.02103   0.01389
  19        3S          0.03339   0.03097   0.10474   0.01137   0.01024
  20        3PX        -0.01701  -0.01576  -0.05843  -0.16847  -0.15566
  21        3PY         0.07734   0.06219   0.01222  -0.05582   0.08000
  22        3PZ         0.09234   0.09279   0.01617   0.06308  -0.04148
  23        4S         -0.12455  -0.11543  -0.12074  -0.19735  -0.18180
  24        4PX        -0.04726  -0.04403   0.02063   0.11494   0.10593
  25        4PY         0.13173   0.20202  -0.02880  -0.02749  -0.01602
  26        4PZ         0.25684   0.17748  -0.03815  -0.02707  -0.03195
  27 3   Cl 1S          0.00108  -0.00476   0.00385  -0.00037   0.00166
  28        2S         -0.00689   0.03022  -0.02323   0.00255  -0.01136
  29        2PX         0.00244  -0.01069   0.01960   0.01594  -0.07037
  30        2PY         0.01694  -0.07317   0.00529  -0.00315  -0.00891
  31        2PZ         0.00016   0.00966  -0.00059  -0.03938  -0.00801
  32        3S          0.01012  -0.04434   0.10468   0.00347  -0.01527
  33        3PX        -0.00484   0.02125  -0.05795  -0.05065   0.22373
  34        3PY        -0.03719   0.15865  -0.02059   0.00936   0.02699
  35        3PZ        -0.00394  -0.02177   0.00237   0.11789   0.02397
  36        4S         -0.03763   0.16565  -0.12037  -0.05902   0.26213
  37        4PX        -0.01383   0.05969   0.01999   0.03421  -0.15214
  38        4PY        -0.07651   0.37747   0.04748   0.01265  -0.05131
  39        4PZ         0.08184  -0.03069  -0.00589   0.00695   0.00797
  40 4   Cl 1S         -0.00466   0.00145   0.00385   0.00163  -0.00051
  41        2S          0.02961  -0.00918  -0.02321  -0.01117   0.00350
  42        2PX        -0.01076   0.00333   0.01975  -0.06881   0.02164
  43        2PY         0.02866  -0.00663  -0.00199  -0.00852  -0.03643
  44        2PZ        -0.06635   0.02147   0.00487  -0.01162  -0.01286
  45        3S         -0.04346   0.01349   0.10473  -0.01472   0.00449
  46        3PX         0.02144  -0.00662  -0.05847   0.21877  -0.06877
  47        3PY        -0.06320   0.01113   0.00782   0.02548   0.10906
  48        3PZ         0.14353  -0.04797  -0.01900   0.03504   0.03843
  49        4S          0.16240  -0.05017  -0.12092   0.25623  -0.07978
  50        4PX         0.05986  -0.01896   0.02048  -0.14901   0.04640
  51        4PY        -0.12363   0.10921  -0.01852   0.02119   0.00170
  52        4PZ         0.34986  -0.07837   0.04415  -0.04545   0.01763
  53 5   P  1S         -0.00001  -0.00001  -0.01852  -0.00001   0.00001
  54        2S          0.00004   0.00004   0.02985   0.00001  -0.00002
  55        2PX         0.00001   0.00007  -0.29458  -0.00066  -0.00110
  56        2PY         0.00181  -0.01821  -0.00090  -0.03105   0.31982
  57        2PZ        -0.01820  -0.00181  -0.00073   0.31982   0.03106
  58        3S         -0.00016  -0.00013  -0.84399  -0.00053   0.00064
  59        3PX        -0.00004  -0.00025   1.14817   0.00256   0.00418
  60        3PY        -0.00684   0.06875   0.00354   0.11883  -1.22391
  61        3PZ         0.06874   0.00683   0.00283  -1.22392  -0.11886
  62        4S          0.00012   0.00012   1.63811   0.00112  -0.00132
  63        4PX         0.00024   0.00020  -1.62696  -0.00317  -0.00443
  64        4PY         0.00049  -0.00526  -0.00541  -0.13656   1.40649
  65        4PZ        -0.00530  -0.00053  -0.00369   1.40657   0.13653
  66 6   H  1S          0.02835   0.02621  -0.14407  -0.10874  -0.09985
  67        2S          0.02842   0.02623  -0.47598  -0.05556  -0.05031
  68 7   H  1S          0.00855  -0.03760  -0.14394  -0.03240   0.14418
  69        2S          0.00863  -0.03723  -0.47599  -0.01679   0.07365
  70 8   H  1S         -0.03682   0.01146  -0.14424   0.14080  -0.04396
  71        2S         -0.03646   0.01153  -0.47599   0.07125  -0.02195
                          56        57        58        59        60
                           V         V         V         V         V
     Eigenvalues --     0.74461   0.75030   0.75030   0.83003   0.84531
   1 1   Al 1S         -0.00555   0.00001   0.00001  -0.00231  -0.00001
   2        2S          0.03103  -0.00002  -0.00004   0.10852   0.00017
   3        2PX        -0.03343  -0.00000   0.00003  -0.02275  -0.00004
   4        2PY        -0.00013   0.00935  -0.00152  -0.00009  -0.00209
   5        2PZ        -0.00004   0.00152   0.00935  -0.00003  -0.00141
   6        3S         -0.12788   0.00029   0.00015   0.63126   0.00093
   7        3PX         0.20908  -0.00033  -0.00026   0.22316   0.00031
   8        3PY         0.00084   0.01545  -0.00251   0.00080   0.02348
   9        3PZ         0.00034   0.00252   0.01545   0.00033   0.01599
  10        4S         -0.93045   0.00088   0.00110  -1.32286  -0.00221
  11        4PX         0.68348  -0.00018  -0.00062   0.79448   0.00259
  12        4PY         0.00271  -0.12717   0.02070   0.00338  -0.19173
  13        4PZ         0.00108  -0.02073  -0.12721   0.00179  -0.12977
  14 2   Cl 1S          0.01760   0.02972   0.02833  -0.01053   0.00555
  15        2S         -0.10876  -0.18155  -0.17303   0.06390  -0.03353
  16        2PX        -0.03142   0.00194   0.00139  -0.01148  -0.25907
  17        2PY         0.05545  -0.02862   0.14309  -0.09192  -0.02897
  18        2PZ         0.07330   0.13902   0.00342  -0.12147  -0.03168
  19        3S          0.41595   0.80249   0.76480  -0.30662   0.16995
  20        3PX         0.11804  -0.00739  -0.00549   0.04942   0.91386
  21        3PY        -0.19517   0.09674  -0.49102   0.32626   0.10108
  22        3PZ        -0.25803  -0.47753  -0.01328   0.43111   0.11214
  23        4S         -0.24972  -0.80439  -0.76664   0.43924  -0.24880
  24        4PX        -0.21636   0.01346   0.01147  -0.15925  -0.91244
  25        4PY         0.22864  -0.08155   0.43448  -0.31846  -0.10190
  26        4PZ         0.30256   0.42389   0.01595  -0.42044  -0.13087
  27 3   Cl 1S          0.01748  -0.03945   0.01158  -0.01052  -0.00442
  28        2S         -0.10803   0.24097  -0.07073   0.06384   0.02672
  29        2PX        -0.03080  -0.00305   0.00132  -0.01338   0.20592
  30        2PY        -0.09116   0.11784  -0.05456   0.15104  -0.03249
  31        2PZ         0.01113  -0.05879  -0.14278  -0.01891  -0.00238
  32        3S          0.41271  -1.06495   0.31270  -0.30639  -0.13545
  33        3PX         0.11583   0.01143  -0.00481   0.05615  -0.72633
  34        3PY         0.32095  -0.40613   0.18758  -0.53600   0.11400
  35        3PZ        -0.03920   0.20161   0.48868   0.06712   0.00616
  36        4S         -0.24638   1.06706  -0.31357   0.43906   0.19849
  37        4PX        -0.21364  -0.01903   0.00703  -0.16582   0.72486
  38        4PY        -0.37724   0.36429  -0.16683   0.52186  -0.12351
  39        4PZ         0.04612  -0.17804  -0.42891  -0.06565   0.01701
  40 4   Cl 1S          0.01750   0.00964  -0.03996  -0.01052  -0.00115
  41        2S         -0.10812  -0.05888   0.24409   0.06381   0.00696
  42        2PX        -0.03115   0.00141  -0.00255  -0.01279   0.05338
  43        2PY         0.03527  -0.12681  -0.08243  -0.05920  -0.00597
  44        2PZ        -0.08468  -0.08634   0.10182   0.14035  -0.01148
  45        3S          0.41310   0.26029  -1.07874  -0.30619  -0.03528
  46        3PX         0.11708  -0.00509   0.00971   0.05403  -0.18827
  47        3PY        -0.12418   0.43385   0.28327   0.21014   0.01793
  48        3PZ         0.29812   0.29618  -0.35111  -0.49806   0.03909
  49        4S         -0.24677  -0.26102   1.08086   0.43871   0.05173
  50        4PX        -0.21511   0.00683  -0.01762  -0.16374   0.18758
  51        4PY         0.14575  -0.38034  -0.25185  -0.20529   0.01321
  52        4PZ        -0.35014  -0.26172   0.31554   0.48521  -0.02939
  53 5   P  1S         -0.04235   0.00005   0.00005  -0.03568  -0.00007
  54        2S          0.09526  -0.00011  -0.00011   0.07601   0.00014
  55        2PX         0.13462  -0.00013  -0.00013   0.09248  -0.00013
  56        2PY         0.00053  -0.00860   0.00139   0.00032   0.04984
  57        2PZ         0.00023  -0.00137  -0.00859   0.00009   0.03371
  58        3S         -1.71611   0.00203   0.00196  -1.48641  -0.00274
  59        3PX        -0.54430   0.00048   0.00054  -0.40502   0.00065
  60        3PY        -0.00212   0.04313  -0.00702  -0.00136  -0.24213
  61        3PZ        -0.00092   0.00692   0.04309  -0.00036  -0.16384
  62        4S          3.08709  -0.00361  -0.00355   2.82178   0.00525
  63        4PX         0.59831  -0.00043  -0.00058   0.62526  -0.00153
  64        4PY         0.00233  -0.05620   0.00920   0.00205   0.49043
  65        4PZ         0.00115  -0.00907  -0.05614   0.00051   0.33200
  66 6   H  1S         -0.05697   0.03998   0.03801   0.00191  -0.14261
  67        2S         -0.46093  -0.01379  -0.01308  -0.39125  -0.07998
  68 7   H  1S         -0.05715  -0.05273   0.01564   0.00150   0.11332
  69        2S         -0.46084   0.01950  -0.00505  -0.39134   0.06230
  70 8   H  1S         -0.05713   0.01299  -0.05345   0.00152   0.02943
  71        2S         -0.46077  -0.00405   0.01975  -0.39133   0.01539
                          61        62        63        64        65
                           V         V         V         V         V
     Eigenvalues --     0.84533   0.87499   0.91502   0.91507   0.95789
   1 1   Al 1S          0.00000   0.00000  -0.00000   0.00000  -0.00154
   2        2S         -0.00006  -0.00002   0.00001   0.00001   0.00595
   3        2PX         0.00002   0.00001   0.00000  -0.00001  -0.00959
   4        2PY        -0.00142   0.00000  -0.00218   0.00037  -0.00004
   5        2PZ         0.00208   0.00000  -0.00036  -0.00218  -0.00002
   6        3S         -0.00031  -0.00013   0.00004   0.00008  -0.03624
   7        3PX        -0.00017  -0.00005  -0.00178  -0.00044   0.13502
   8        3PY         0.01590   0.00011   0.38983  -0.06511   0.00062
   9        3PZ        -0.02352   0.00027   0.06504   0.38973   0.00031
  10        4S          0.00076   0.00027  -0.00014  -0.00018  -0.00444
  11        4PX        -0.00030  -0.00023   0.00193   0.00072  -0.88704
  12        4PY        -0.12973  -0.00011  -0.37736   0.06289  -0.00377
  13        4PZ         0.19165  -0.00026  -0.06289  -0.37761  -0.00201
  14 2   Cl 1S         -0.00188   0.00000  -0.00633  -0.00598  -0.00245
  15        2S          0.01138  -0.00000   0.03837   0.03625   0.01465
  16        2PX         0.08800  -0.00052  -0.02761  -0.02561   0.19501
  17        2PY         0.00102   0.16277   0.18849   0.01302   0.00933
  18        2PZ         0.01742  -0.12303   0.07786   0.19864   0.01163
  19        3S         -0.05768  -0.00001  -0.20074  -0.18957  -0.08655
  20        3PX        -0.31042   0.00185   0.10102   0.09372  -0.71586
  21        3PY        -0.00618  -0.57695  -0.68034  -0.05089  -0.03589
  22        3PZ        -0.05933   0.43607  -0.28506  -0.71786  -0.04488
  23        4S          0.08444  -0.00004   0.16534   0.15596   0.15475
  24        4PX         0.30986  -0.00187  -0.11981  -0.11130   0.88691
  25        4PY         0.03431   0.58602   0.76914   0.07769   0.06487
  26        4PZ         0.04458  -0.44284   0.34320   0.81599   0.08255
  27 3   Cl 1S         -0.00386  -0.00000   0.00835  -0.00249  -0.00245
  28        2S          0.02332   0.00000  -0.05061   0.01512   0.01462
  29        2PX         0.18057  -0.00048   0.03410  -0.01063   0.19519
  30        2PY        -0.02702   0.02540   0.23574  -0.05082  -0.01309
  31        2PZ         0.01177   0.20255   0.01383   0.15159   0.00217
  32        3S         -0.11824  -0.00001   0.26474  -0.07911  -0.08640
  33        3PX        -0.63695   0.00171  -0.12484   0.03888  -0.71655
  34        3PY         0.09537  -0.09003  -0.85500   0.18513   0.05078
  35        3PZ        -0.03886  -0.71796  -0.04839  -0.54395  -0.00830
  36        4S          0.17318  -0.00000  -0.21803   0.06522   0.15459
  37        4PX         0.63605  -0.00170   0.14834  -0.04609   0.88802
  38        4PY        -0.10913   0.09146   0.98784  -0.21804  -0.09644
  39        4PZ         0.01550   0.72922   0.04677   0.59833   0.01449
  40 4   Cl 1S          0.00575  -0.00000  -0.00201   0.00848  -0.00245
  41        2S         -0.03478   0.00000   0.01221  -0.05139   0.01466
  42        2PX        -0.26846   0.00103  -0.00923   0.03542   0.19513
  43        2PY        -0.01977  -0.18801   0.15671  -0.05911   0.00631
  44        2PZ         0.03821  -0.07914   0.00526   0.23075  -0.01255
  45        3S          0.17631   0.00001  -0.06386   0.26875  -0.08666
  46        3PX         0.94696  -0.00365   0.03374  -0.12965  -0.71631
  47        3PY         0.06894   0.66640  -0.56285   0.21578  -0.02422
  48        3PZ        -0.13469   0.28052  -0.01669  -0.83655   0.04860
  49        4S         -0.25826  -0.00001   0.05255  -0.22123   0.15502
  50        4PX        -0.94530   0.00375  -0.03983   0.15397   0.88756
  51        4PY        -0.06921  -0.67684   0.62182  -0.25654   0.04315
  52        4PZ         0.15196  -0.28486   0.00699   0.96467  -0.09141
  53 5   P  1S          0.00002   0.00001  -0.00000  -0.00001  -0.00473
  54        2S         -0.00004  -0.00001   0.00001   0.00001   0.01206
  55        2PX        -0.00009  -0.00003  -0.00010  -0.00003   0.07834
  56        2PY         0.03372   0.00001   0.02308  -0.00383   0.00033
  57        2PZ        -0.04983   0.00002   0.00381   0.02306   0.00017
  58        3S          0.00094   0.00039  -0.00020  -0.00024  -0.20048
  59        3PX         0.00044   0.00013   0.00056   0.00015  -0.29919
  60        3PY        -0.16388  -0.00006  -0.12906   0.02152  -0.00129
  61        3PZ         0.24207  -0.00012  -0.02141  -0.12900  -0.00069
  62        4S         -0.00185  -0.00074   0.00042   0.00056  -0.07979
  63        4PX        -0.00077  -0.00014  -0.00135  -0.00032   0.14528
[...]
  51        4PY        -0.00270   0.00000  -0.00401  -0.00364   0.00000
  52        4PZ         0.00026  -0.00000  -0.00131  -0.00119   0.00000
  53 5   P  1S          0.00000  -0.00000  -0.00000  -0.00000   0.00000
  54        2S         -0.00000   0.00001   0.00001   0.00000   0.00000
  55        2PX         0.00000   0.00001   0.00001   0.00000   0.00000
  56        2PY        -0.00000   0.00000   0.00000  -0.00000   0.00000
  57        2PZ        -0.00000   0.00000  -0.00000  -0.00000   0.00000
  58        3S         -0.00003  -0.00019  -0.00019  -0.00000  -0.00000
  59        3PX        -0.00022  -0.00072  -0.00068  -0.00001  -0.00000
  60        3PY        -0.00003  -0.00022  -0.00004  -0.00000  -0.00000
  61        3PZ        -0.00000  -0.00000  -0.00000   0.00000  -0.00000
  62        4S         -0.00028  -0.00635  -0.00234  -0.00003   0.00000
  63        4PX        -0.00199  -0.00888  -0.00635  -0.00009   0.00000
  64        4PY         0.00064   0.00552   0.00046  -0.00002   0.00000
  65        4PZ         0.00001   0.00009  -0.00002  -0.00093   0.00000
  66 6   H  1S          0.00000   0.00000   0.00000  -0.00000  -0.00000
  67        2S          0.00005  -0.00026   0.00003   0.00004   0.00000
  68 7   H  1S          0.00000   0.00000   0.00000   0.00000  -0.00000
  69        2S          0.00001   0.00009   0.00003   0.00000   0.00000
  70 8   H  1S          0.00000   0.00000   0.00000  -0.00000   0.00000
  71        2S          0.00005  -0.00026   0.00005   0.00003   0.00000
                          41        42        43        44        45
  41        2S          2.38327
  42        2PX         0.00000   2.04647
  43        2PY         0.00000   0.00000   2.04426
  44        2PZ         0.00000  -0.00000  -0.00000   2.02574
  45        3S         -0.11142   0.00000   0.00000   0.00000   0.71788
  46        3PX         0.00000  -0.05287  -0.00000   0.00000   0.00000
  47        3PY         0.00000  -0.00000  -0.05152   0.00000   0.00000
  48        3PZ         0.00000   0.00000   0.00000  -0.03758   0.00000
  49        4S         -0.17606   0.00000   0.00000   0.00000   0.51038
  50        4PX         0.00000  -0.02351  -0.00000   0.00000   0.00000
  51        4PY         0.00000  -0.00000  -0.02287   0.00000   0.00000
  52        4PZ         0.00000   0.00000   0.00000  -0.02055   0.00000
  53 5   P  1S          0.00000   0.00000   0.00000   0.00000  -0.00000
  54        2S          0.00000   0.00000   0.00000   0.00000   0.00000
  55        2PX         0.00000   0.00000   0.00000   0.00000   0.00000
  56        2PY         0.00000   0.00000   0.00000   0.00000   0.00000
  57        2PZ         0.00000   0.00000   0.00000   0.00000   0.00000
  58        3S          0.00000   0.00000   0.00000   0.00000  -0.00000
  59        3PX         0.00000   0.00000   0.00000   0.00000  -0.00000
  60        3PY         0.00000   0.00000  -0.00000   0.00000  -0.00000
  61        3PZ         0.00000   0.00000   0.00000   0.00000  -0.00000
  62        4S         -0.00002   0.00001   0.00000   0.00000  -0.00003
  63        4PX        -0.00003   0.00003   0.00000   0.00002  -0.00000
  64        4PY        -0.00000  -0.00000   0.00000   0.00000  -0.00001
  65        4PZ        -0.00002  -0.00001   0.00000  -0.00000  -0.00004
  66 6   H  1S          0.00000   0.00000   0.00000  -0.00000  -0.00000
  67        2S         -0.00000   0.00000  -0.00000  -0.00000   0.00000
  68 7   H  1S          0.00000   0.00000   0.00000   0.00000  -0.00000
  69        2S         -0.00000   0.00000   0.00000  -0.00000   0.00000
  70 8   H  1S          0.00000   0.00000   0.00000   0.00000   0.00000
  71        2S         -0.00000  -0.00000  -0.00000  -0.00000   0.00000
                          46        47        48        49        50
  46        3PX         0.70390
  47        3PY         0.00000   0.69818
  48        3PZ        -0.00000  -0.00000   0.60226
  49        4S          0.00000   0.00000   0.00000   0.68362
  50        4PX         0.37710   0.00000  -0.00000   0.00000   0.54161
  51        4PY         0.00000   0.36230  -0.00000   0.00000   0.00000
  52        4PZ        -0.00000  -0.00000   0.30664   0.00000  -0.00000
  53 5   P  1S         -0.00000  -0.00000  -0.00000   0.00000  -0.00000
  54        2S          0.00000   0.00000   0.00000  -0.00000   0.00001
  55        2PX         0.00000   0.00000   0.00000   0.00000   0.00001
  56        2PY         0.00000  -0.00000   0.00000  -0.00000   0.00000
  57        2PZ         0.00000   0.00000  -0.00000  -0.00000   0.00000
  58        3S         -0.00000  -0.00000  -0.00000  -0.00003  -0.00019
  59        3PX        -0.00001  -0.00000  -0.00000  -0.00022  -0.00073
  60        3PY        -0.00000  -0.00000  -0.00000  -0.00000  -0.00003
  61        3PZ        -0.00000  -0.00000  -0.00000  -0.00002  -0.00019
  62        4S         -0.00092  -0.00004  -0.00022  -0.00028  -0.00638
  63        4PX        -0.00179  -0.00013  -0.00080  -0.00200  -0.00895
  64        4PY         0.00017  -0.00007  -0.00004   0.00010   0.00086
  65        4PZ         0.00093  -0.00004   0.00011   0.00056   0.00478
  66 6   H  1S         -0.00000  -0.00000   0.00000   0.00000   0.00000
  67        2S         -0.00001   0.00000  -0.00000   0.00005  -0.00026
  68 7   H  1S         -0.00000  -0.00000  -0.00000   0.00000   0.00000
  69        2S         -0.00001   0.00000   0.00000   0.00005  -0.00026
  70 8   H  1S          0.00000   0.00000   0.00000   0.00000   0.00000
  71        2S          0.00000   0.00000   0.00000   0.00001   0.00009
                          51        52        53        54        55
  51        4PY         0.50493
  52        4PZ        -0.00000   0.42856
  53 5   P  1S         -0.00000  -0.00000   2.13219
  54        2S          0.00000   0.00001  -0.13637   2.26315
  55        2PX         0.00000   0.00001   0.00000   0.00000   1.98789
  56        2PY        -0.00000  -0.00000   0.00000   0.00000   0.00000
  57        2PZ        -0.00000   0.00000   0.00000   0.00000   0.00000
  58        3S         -0.00003  -0.00016  -0.00210  -0.00463   0.00000
  59        3PX        -0.00010  -0.00058   0.00000   0.00000  -0.00450
  60        3PY         0.00000  -0.00000   0.00000   0.00000  -0.00000
  61        3PZ        -0.00001  -0.00003   0.00000   0.00000  -0.00000
  62        4S         -0.00034  -0.00200   0.00556  -0.16688   0.00000
  63        4PX        -0.00093  -0.00545   0.00000   0.00000  -0.02024
  64        4PY        -0.00057  -0.00018   0.00000   0.00000  -0.00000
  65        4PZ        -0.00020   0.00043   0.00000   0.00000  -0.00000
  66 6   H  1S         -0.00000   0.00000   0.00001  -0.00063  -0.00024
  67        2S          0.00006   0.00001  -0.00013   0.00183  -0.00064
  68 7   H  1S         -0.00000   0.00000   0.00001  -0.00063  -0.00024
  69        2S          0.00001   0.00007  -0.00013   0.00183  -0.00061
  70 8   H  1S          0.00000   0.00000   0.00001  -0.00063  -0.00024
  71        2S          0.00000   0.00003  -0.00013   0.00183  -0.00063
                          56        57        58        59        60
  56        2PY         1.96925
  57        2PZ        -0.00000   1.96925
  58        3S          0.00000   0.00000   0.35226
  59        3PX        -0.00000  -0.00000   0.00000   0.39622
  60        3PY         0.00562   0.00000   0.00000   0.00000   0.33197
  61        3PZ         0.00000   0.00562   0.00000   0.00000   0.00000
  62        4S          0.00000   0.00000   0.36452   0.00000   0.00000
  63        4PX        -0.00000  -0.00000   0.00000   0.24741   0.00000
  64        4PY        -0.01112   0.00000   0.00000   0.00000   0.09474
  65        4PZ        -0.00000  -0.01112   0.00000   0.00000  -0.00000
  66 6   H  1S         -0.00041  -0.00071   0.01260   0.01079   0.01840
  67        2S         -0.00130  -0.00228   0.01037   0.01663   0.03181
  68 7   H  1S         -0.00111  -0.00002   0.01260   0.01044   0.05033
  69        2S         -0.00355  -0.00005   0.01038   0.01605   0.08695
  70 8   H  1S         -0.00017  -0.00096   0.01260   0.01062   0.00764
  71        2S         -0.00054  -0.00305   0.01038   0.01634   0.01321
                          61        62        63        64        65
  61        3PZ         0.33198
  62        4S          0.00000   0.86509
  63        4PX         0.00000   0.00000   0.42746
  64        4PY        -0.00000   0.00000   0.00000   0.08960
  65        4PZ         0.09472   0.00000   0.00000  -0.00000   0.08957
  66 6   H  1S          0.03235   0.01777   0.01257   0.01275   0.02244
  67        2S          0.05589  -0.01699   0.02696   0.02426   0.04271
  68 7   H  1S          0.00077   0.01777   0.01225   0.03499   0.00053
  69        2S          0.00133  -0.01697   0.02628   0.06664   0.00101
  70 8   H  1S          0.04328   0.01777   0.01241   0.00529   0.03006
  71        2S          0.07477  -0.01699   0.02663   0.01006   0.05724
                          66        67        68        69        70
  66 6   H  1S          0.17201
  67        2S          0.12342   0.23732
  68 7   H  1S         -0.00001  -0.00245   0.17200
  69        2S         -0.00245  -0.01564   0.12342   0.23732
  70 8   H  1S         -0.00001  -0.00245  -0.00001  -0.00245   0.17201
  71        2S         -0.00245  -0.01563  -0.00245  -0.01564   0.12343
                          71
  71        2S          0.23732
     Gross orbital populations:
                           1
   1 1   Al 1S          1.99868
   2        2S          1.97646
   3        2PX         1.95886
   4        2PY         1.96045
   5        2PZ         1.96045
   6        3S          0.64722
   7        3PX         0.29083
   8        3PY         0.40931
   9        3PZ         0.40927
  10        4S         -0.07533
  11        4PX         0.02922
  12        4PY         0.00265
  13        4PZ         0.00268
  14 2   Cl 1S          1.99857
  15        2S          1.95828
  16        2PX         1.96982
  17        2PY         1.96831
  18        2PZ         1.96701
  19        3S          1.09959
  20        3PX         1.04052
  21        3PY         0.99989
  22        3PZ         0.96001
  23        4S          0.95976
  24        4PX         0.91904
  25        4PY         0.85876
  26        4PZ         0.82372
  27 3   Cl 1S          1.99857
  28        2S          1.95828
  29        2PX         1.96983
  30        2PY         1.96533
  31        2PZ         1.96997
  32        3S          1.09959
  33        3PX         1.04090
  34        3PY         0.90830
  35        3PZ         1.05122
  36        4S          0.95976
  37        4PX         0.91952
  38        4PY         0.77825
  39        4PZ         0.90376
  40 4   Cl 1S          1.99857
  41        2S          1.95828
  42        2PX         1.96983
  43        2PY         1.96933
  44        2PZ         1.96598
  45        3S          1.09959
  46        3PX         1.04072
  47        3PY         1.03133
  48        3PZ         0.92838
  49        4S          0.95976
  50        4PX         0.91930
  51        4PY         0.88633
  52        4PZ         0.79592
  53 5   P  1S          1.99852
  54        2S          1.96982
  55        2PX         1.96054
  56        2PY         1.95687
  57        2PZ         1.95687
  58        3S          0.76282
  59        3PX         0.74234
  60        3PY         0.64028
  61        3PZ         0.64031
  62        4S          0.98378
  63        4PX         0.75650
  64        4PY         0.33449
  65        4PZ         0.33443
  66 6   H  1S          0.42731
  67        2S          0.51328
  68 7   H  1S          0.42730
  69        2S          0.51329
  70 8   H  1S          0.42732
  71        2S          0.51329
          Condensed to atoms (all electrons):
               1          2          3          4          5          6
     1  Al  10.877576   0.230224   0.230189   0.230203   0.006058  -0.001166
     2  Cl   0.230224  17.355001  -0.018002  -0.018021  -0.025772   0.000130
     3  Cl   0.230189  -0.018002  17.355047  -0.018007  -0.025783  -0.000139
     4  Cl   0.230203  -0.018021  -0.018007  17.355052  -0.025773  -0.000140
     5  P    0.006058  -0.025772  -0.025783  -0.025773  14.128348   0.326828
     6  H   -0.001166   0.000130  -0.000139  -0.000140   0.326828   0.656180
     7  H   -0.001161  -0.000140   0.000131  -0.000139   0.326836  -0.020558
     8  H   -0.001159  -0.000138  -0.000140   0.000131   0.326827  -0.020545
               7          8
     1  Al  -0.001161  -0.001159
     2  Cl  -0.000140  -0.000138
     3  Cl   0.000131  -0.000140
     4  Cl  -0.000139   0.000131
     5  P    0.326836   0.326827
     6  H   -0.020558  -0.020545
     7  H    0.656171  -0.020552
     8  H   -0.020552   0.656181
 Mulliken charges:
               1
     1  Al   1.429235
     2  Cl  -0.523281
     3  Cl  -0.523295
     4  Cl  -0.523305
     5  P   -0.037570
     6  H    0.059409
     7  H    0.059411
     8  H    0.059396
 Sum of Mulliken charges =  -0.00000
 Mulliken charges with hydrogens summed into heavy atoms:
               1
     1  Al   1.429235
     2  Cl  -0.523281
     3  Cl  -0.523295
     4  Cl  -0.523305
     5  P    0.140646
 Electronic spatial extent (au):  <R**2>=           1473.6872
 Charge=              0.0000 electrons
 Dipole moment (field-independent basis, Debye):
    X=             -7.4771    Y=             -0.0306    Z=             -0.0147  Tot=              7.4772
 Quadrupole moment (field-independent basis, Debye-Ang):
   XX=            -55.3578   YY=            -79.1539   ZZ=            -79.1505
   XY=              0.1019   XZ=              0.0456   YZ=              0.0003
 Traceless Quadrupole moment (field-independent basis, Debye-Ang):
   XX=             15.8629   YY=             -7.9331   ZZ=             -7.9298
   XY=              0.1019   XZ=              0.0456   YZ=              0.0003
 Octapole moment (field-independent basis, Debye-Ang**2):
  XXX=            -28.6801  YYY=            -13.8712  ZZZ=             -5.4518  XYY=            -12.7986
  XXY=             -0.0098  XXZ=             -0.0053  XZZ=            -12.8951  YZZ=             13.6547
  YYZ=              5.3535  XYZ=             -0.0494
 Hexadecapole moment (field-independent basis, Debye-Ang**3):
 XXXX=           -629.8645 YYYY=           -710.4736 ZZZZ=           -710.2230 XXXY=              0.2790
 XXXZ=              0.1292 YYYX=             -6.9468 YYYZ=              0.0227 ZZZX=             -2.7193
 ZZZY=              0.0298 XXYY=           -227.8677 XXZZ=           -227.9429 YYZZ=           -236.6888
 XXYZ=             -0.0531 YYXZ=              2.8168 ZZXY=              7.1613
 N-N= 4.767885214452D+02 E-N=-5.607383671977D+03  KE= 1.951477376500D+03
 Orbital energies and kinetic energies (alpha):
                                 1                 2
   1         O              -104.100428        136.071310
   2         O              -104.100185        136.077457
   3         O              -104.100175        136.077462
   4         O               -79.486567        105.407367
   5         O               -58.202586         78.658223
   6         O               -10.492112         22.321282
   7         O               -10.491306         22.340814
   8         O               -10.491296         22.340822
   9         O                -7.954469         20.341059
  10         O                -7.954459         20.341047
  11         O                -7.954393         20.342820
  12         O                -7.951689         20.352998
  13         O                -7.951430         20.360497
  14         O                -7.951428         20.361223
  15         O                -7.951338         20.365331
  16         O                -7.951337         20.365929
  17         O                -7.951302         20.363889
  18         O                -7.563834         16.217038
  19         O                -5.448837         14.555347
  20         O                -5.448836         14.555352
  21         O                -5.447794         14.562495
  22         O                -4.999846         11.064874
  23         O                -3.304898          9.712919
  24         O                -3.304898          9.712930
  25         O                -3.304119          9.730160
  26         O                -1.095896          2.763916
  27         O                -1.076849          2.941241
  28         O                -1.076835          2.941266
  29         O                -0.975272          1.571410
  30         O                -0.630887          1.103724
  31         O                -0.630851          1.103704
  32         O                -0.618254          1.742767
  33         O                -0.527813          1.695691
  34         O                -0.514810          2.083670
  35         O                -0.514797          2.083623
  36         O                -0.467641          2.161594
  37         O                -0.467634          2.161652
  38         O                -0.460167          2.218535
  39         O                -0.460159          2.218585
  40         O                -0.451802          2.058636
  41         O                -0.450203          2.288028
  42         V                 0.089389          2.092829
  43         V                 0.094316          0.926571
  44         V                 0.094329          0.926597
  45         V                 0.120721          1.270913
  46         V                 0.185146          1.338449
  47         V                 0.189289          1.070040
  48         V                 0.189314          1.070064
  49         V                 0.296471          1.141125
  50         V                 0.334978          1.339643
  51         V                 0.357879          1.867629
  52         V                 0.357896          1.867813
  53         V                 0.535360          2.214184
  54         V                 0.543228          2.510605
  55         V                 0.543242          2.510716
  56         V                 0.744614          2.661714
  57         V                 0.750297          3.300396
  58         V                 0.750302          3.300333
  59         V                 0.830025          3.047554
  60         V                 0.845305          3.479258
  61         V                 0.845330          3.479256
  62         V                 0.874986          3.595503
  63         V                 0.915020          3.698349
  64         V                 0.915067          3.698396
  65         V                 0.957890          3.575007
  66         V                 1.017146          3.570414
  67         V                 1.017160          3.570342
  68         V                 1.086261          3.224921
  69         V                 1.219192          3.013937
  70         V                 1.223208          2.662452
  71         V                 1.223229          2.662569
 Total kinetic energy from orbitals= 1.951477376500D+03
 1\1\GINC-IISERK51\SP\RHF\3-21G\Al1Cl3H3P1\GAUSSIAN\17-Jun-2025\0\\# hf
 /3-21g pop=full geom=connectivity\\Title Card Required\\0,1\Al,0,0.330
 273,-0.001427,-0.000545\Cl,0,0.740577,1.299868,1.71938\Cl,0,0.722821,-
 2.144905,0.266444\Cl,0,0.731303,0.835928,-1.990012\P,0,-2.211347,0.009
 22,0.00419\H,0,-2.81587,-0.752106,-1.005811\H,0,-2.806285,1.26907,-0.1
 50981\H,0,-2.811101,-0.48185,1.172209\\Version=EM64L-G16RevB.01\State=
 1-A\HF=-1953.4440579\RMSD=8.527e-09\Dipole=-2.9417319,0.0120368,0.0057
 786\Quadrupole=11.793693,-5.8980915,-5.8956015,-0.0757397,-0.0339647,0
 .0002014\PG=C01 [X(Al1Cl3H3P1)]\\@


 THERE ARE PEOPLE SO ADDICTED TO EXAGERATING THEY
 CAN'T TELL THE TRUTH WITHOUT LYING. -- FORTUNE COOKIE
 Job cpu time:       0 days  0 hours  0 minutes  0.6 seconds.
 Elapsed time:       0 days  0 hours  0 minutes  0.6 seconds.
 File lengths (MBytes):  RWF=      6 Int=      0 D2E=      0 Chk=      1 Scr=      1
 Normal termination of Gaussian 16 at Tue Jun 17 15:12:39 2025.
