 Entering Gaussian System, Link 0=g16
 Input=/home/gaussian/Documents/Summer_Internship/Acid_Base_adduct/Adduct/PH3-AlCl3/PH3_AlCl3_adduct_opt.com
 Output=/home/gaussian/Documents/Summer_Internship/Acid_Base_adduct/Adduct/PH3-AlCl3/PH3_AlCl3_adduct_opt.log
 Initial command:
 /usr/local/g16/l1.exe "/home/gaussian/tmp/Gau-92205.inp" -scrdir="/home/gaussian/tmp/"
 Entering Link 1 = /usr/local/g16/l1.exe PID=     92208.
  
 Copyright (c) 1988-2017, Gaussian, Inc.  All Rights Reserved.
  
 This is part of the Gaussian(R) 16 program.  It is based on
 the Gaussian(R) 09 system (copyright 2009, Gaussian, Inc.),
 the Gaussian(R) 03 system (copyright 2003, Gaussian, Inc.),
 the Gaussian(R) 98 system (copyright 1998, Gaussian, Inc.),
 the Gaussian(R) 94 system (copyright 1995, Gaussian, Inc.),
 the Gaussian 92(TM) system (copyright 1992, Gaussian, Inc.),
 the Gaussian 90(TM) system (copyright 1990, Gaussian, Inc.),
 the Gaussian 88(TM) system (copyright 1988, Gaussian, Inc.),
 the Gaussian 86(TM) system (copyright 1986, Carnegie Mellon
 University), and the Gaussian 82(TM) system (copyright 1983,
 Carnegie Mellon University). Gaussian is a federally registered
 trademark of Gaussian, Inc.
  
 This software contains proprietary and confidential information,
 including trade secrets, belonging to Gaussian, Inc.
  
 This software is provided under written license and may be
 used, copied, transmitted, or stored only in accord with that
 written license.
  
 The following legend is applicable only to US Government
 contracts under FAR:
  
                    RESTRICTED RIGHTS LEGEND
  
 Use, reproduction and disclosure by the US Government is
 subject to restrictions as set forth in subparagraphs (a)
 and (c) of the Commercial Computer Software - Restricted
 Rights clause in FAR 52.227-19.
  
 Gaussian, Inc.
 340 Quinnipiac St., Bldg. 40, Wallingford CT 06492
  
  
 ---------------------------------------------------------------
 Warning -- This program may not be used in any manner that
 competes with the business of Gaussian, Inc. or will provide
 assistance to any competitor of Gaussian, Inc.  The licensee
 of this program is prohibited from giving any competitor of
 Gaussian, Inc. access to this program.  By using this program,
 the user acknowledges that Gaussian, Inc. is engaged in the
 business of creating and licensing software in the field of
 computational chemistry and represents and warrants to the
 licensee that it is not a competitor of Gaussian, Inc. and that
 it will not use this program in any manner prohibited above.
 ---------------------------------------------------------------
  

 Cite this work as:
 Gaussian 16, Revision B.01,
 M. J. Frisch, G. W. Trucks, H. B. Schlegel, G. E. Scuseria, 
 M. A. Robb, J. R. Cheeseman, G. Scalmani, V. Barone, 
 G. A. Petersson, H. Nakatsuji, X. Li, M. Caricato, A. V. Marenich, 
 J. Bloino, B. G. Janesko, R. Gomperts, B. Mennucci, H. P. Hratchian, 
 J. V. Ortiz, A. F. Izmaylov, J. L. Sonnenberg, D. Williams-Young, 
 F. Ding, F. Lipparini, F. Egidi, J. Goings, B. Peng, A. Petrone, 
 T. Henderson, D. Ranasinghe, V. G. Zakrzewski, J. Gao, N. Rega, 
 G. Zheng, W. Liang, M. Hada, M. Ehara, K. Toyota, R. Fukuda, 
 J. Hasegawa, M. Ishida, T. Nakajima, Y. Honda, O. Kitao, H. Nakai, 
 T. Vreven, K. Throssell, J. A. Montgomery, Jr., J. E. Peralta, 
 F. Ogliaro, M. J. Bearpark, J. J. Heyd, E. N. Brothers, K. N. Kudin, 
 V. N. Staroverov, T. A. Keith, R. Kobayashi, J. Normand, 
 K. Raghavachari, A. P. Rendell, J. C. Burant, S. S. Iyengar, 
 J. Tomasi, M. Cossi, J. M. Millam, M. Klene, C. Adamo, R. Cammi, 
 J. W. Ochterski, R. L. Martin, K. Morokuma, O. Farkas, 
 J. B. Foresman, and D. J. Fox, Gaussian, Inc., Wallingford CT, 2016.
 
 ******************************************
 Gaussian 16:  EM64L-G16RevB.01 20-Dec-2017
                17-Jun-2025 
 ******************************************
 %chk=PH3_AlCl3_adduct_opt.chk
 ----------------------------------------------
 # opt freq hf/3-21g pop=full geom=connectivity
 ----------------------------------------------
 1/18=20,19=15,38=1,57=2/1,3;
 2/9=110,12=2,17=6,18=5,40=1/2;
 3/5=5,11=9,25=1,30=1,71=1/1,2,3;
 4//1;
 5/5=2,38=5/2;
 6/7=3,28=1/1;
 7//1,2,3,16;
 1/18=20,19=15/3(2);
 2/9=110/2;
 99//99;
 2/9=110/2;
 3/5=5,11=9,25=1,30=1,71=1/1,2,3;
 4/5=5,16=3,69=1/1;
 5/5=2,38=5/2;
 7//1,2,3,16;
 1/18=20,19=15/3(-5);
 2/9=110/2;
 6/7=3,19=2,28=1/1;
 99/9=1/99;
 -------------------
 Title Card Required
 -------------------
 Symbolic Z-matrix:
 Charge =  0 Multiplicity = 1
 Al                   -0.29459   0.0795   -0.55483 
 Cl                   -1.41459   2.01939  -0.55483 
 Cl                   -1.41459  -1.8604   -0.55483 
 Cl                    1.94541   0.0795   -0.55483 
 P                    -0.06513   0.35675  -3.0692 
 H                     0.38486  -0.91605  -3.0692 
 H                     0.38488   0.99314  -1.96693 
 H                     0.38488   0.99314  -4.17147 
 

 GradGradGradGradGradGradGradGradGradGradGradGradGradGradGradGradGradGrad
 Berny optimization.
 Initialization pass.
                           ----------------------------
                           !    Initial Parameters    !
                           ! (Angstroms and Degrees)  !
 --------------------------                            --------------------------
 ! Name  Definition              Value          Derivative Info.                !
 --------------------------------------------------------------------------------
 ! R1    R(1,2)                  2.24           estimate D2E/DX2                !
 ! R2    R(1,3)                  2.24           estimate D2E/DX2                !
 ! R3    R(1,4)                  2.24           estimate D2E/DX2                !
 ! R4    R(1,5)                  2.54           estimate D2E/DX2                !
 ! R5    R(5,6)                  1.35           estimate D2E/DX2                !
 ! R6    R(5,7)                  1.35           estimate D2E/DX2                !
 ! R7    R(5,8)                  1.35           estimate D2E/DX2                !
 ! A1    A(2,1,3)              120.0            estimate D2E/DX2                !
 ! A2    A(2,1,4)              120.0            estimate D2E/DX2                !
 ! A3    A(2,1,5)               87.1707         estimate D2E/DX2                !
 ! A4    A(3,1,4)              120.0            estimate D2E/DX2                !
 ! A5    A(3,1,5)               98.0304         estimate D2E/DX2                !
 ! A6    A(4,1,5)               84.817          estimate D2E/DX2                !
 ! A7    A(1,5,6)               85.8252         estimate D2E/DX2                !
 ! A8    A(1,5,7)               43.3903         estimate D2E/DX2                !
 ! A9    A(1,5,8)              152.8516         estimate D2E/DX2                !
 ! A10   A(6,5,7)              109.4712         estimate D2E/DX2                !
 ! A11   A(6,5,8)              109.4712         estimate D2E/DX2                !
 ! A12   A(7,5,8)              109.4713         estimate D2E/DX2                !
 ! D1    D(2,1,5,6)           -169.537          estimate D2E/DX2                !
 ! D2    D(2,1,5,7)             66.1487         estimate D2E/DX2                !
 ! D3    D(2,1,5,8)             64.2977         estimate D2E/DX2                !
 ! D4    D(3,1,5,6)            -49.6299         estimate D2E/DX2                !
 ! D5    D(3,1,5,7)           -173.9442         estimate D2E/DX2                !
 ! D6    D(3,1,5,8)           -175.7952         estimate D2E/DX2                !
 ! D7    D(4,1,5,6)             69.9889         estimate D2E/DX2                !
 ! D8    D(4,1,5,7)            -54.3254         estimate D2E/DX2                !
 ! D9    D(4,1,5,8)            -56.1763         estimate D2E/DX2                !
 --------------------------------------------------------------------------------
 Trust Radius=3.00D-01 FncErr=1.00D-07 GrdErr=1.00D-07 EigMax=2.50D+02 EigMin=1.00D-04
 Number of steps in this run=     38 maximum allowed number of steps=    100.
 GradGradGradGradGradGradGradGradGradGradGradGradGradGradGradGradGradGrad

                          Input orientation:                          
 ---------------------------------------------------------------------
 Center     Atomic      Atomic             Coordinates (Angstroms)
 Number     Number       Type             X           Y           Z
 ---------------------------------------------------------------------
      1         13           0       -0.294586    0.079495   -0.554828
      2         17           0       -1.414586    2.019392   -0.554828
      3         17           0       -1.414586   -1.860402   -0.554828
      4         17           0        1.945414    0.079495   -0.554828
      5         15           0       -0.065127    0.356746   -3.069203
      6          1           0        0.384857   -0.916052   -3.069203
      7          1           0        0.384880    0.993136   -1.966932
      8          1           0        0.384880    0.993136   -4.171473
 ---------------------------------------------------------------------
                    Distance matrix (angstroms):
                    1          2          3          4          5
     1  Al   0.000000
     2  Cl   2.240000   0.000000
     3  Cl   2.240000   3.879794   0.000000
     4  Cl   2.240000   3.879794   3.879794   0.000000
     5  P    2.540000   3.302652   3.613705   3.231289   0.000000
     6  H    2.788340   4.263438   3.232936   3.122264   1.350000
     7  H    1.813960   2.507054   3.657157   2.294350   1.350000
     8  H    3.791641   4.167902   4.945794   4.043529   1.350000
                    6          7          8
     6  H    0.000000
     7  H    2.204541   0.000000
     8  H    2.204541   2.204541   0.000000
 Stoichiometry    AlCl3H3P
 Framework group  C1[X(AlCl3H3P)]
 Deg. of freedom    18
 Full point group                 C1      NOp   1
 Largest Abelian subgroup         C1      NOp   1
 Largest concise Abelian subgroup C1      NOp   1
                         Standard orientation:                         
 ---------------------------------------------------------------------
 Center     Atomic      Atomic             Coordinates (Angstroms)
 Number     Number       Type             X           Y           Z
 ---------------------------------------------------------------------
      1         13           0        0.252778    0.036323   -0.497582
      2         17           0       -0.480885    2.148668   -0.629255
      3         17           0        2.355457   -0.380535    0.152473
      4         17           0       -1.116238   -1.659164   -1.015964
      5         15           0       -0.852929   -0.072379    1.786536
      6          1           0       -0.197460   -1.242704    1.938853
      7          1           0       -1.258800    0.052608    0.505074
      8          1           0       -1.927590   -0.048885    2.603268
 ---------------------------------------------------------------------
 Rotational constants (GHZ):           1.1721236           1.1429530           0.9355680
 Standard basis: 3-21G (6D, 7F)
 There are    71 symmetry adapted cartesian basis functions of A   symmetry.
 There are    71 symmetry adapted basis functions of A   symmetry.
    71 basis functions,   144 primitive gaussians,    71 cartesian basis functions
    41 alpha electrons       41 beta electrons
       nuclear repulsion energy       485.8438628896 Hartrees.



 Warning!  P  atom    5 may be hypervalent but has no d functions.



 NAtoms=    8 NActive=    8 NUniq=    8 SFac= 1.00D+00 NAtFMM=   60 NAOKFM=F Big=F
 Integral buffers will be    131072 words long.
 Raffenetti 1 integral format.
 Two-electron integral symmetry is turned on.
 One-electron integrals computed using PRISM.
 NBasis=    71 RedAO= T EigKep=  1.60D-02  NBF=    71
 NBsUse=    71 1.00D-06 EigRej= -1.00D+00 NBFU=    71
 ExpMin= 6.39D-02 ExpMax= 1.38D+03 ExpMxC= 1.38D+03 IAcc=3 IRadAn=         5 AccDes= 0.00D+00
 Harris functional with IExCor=  205 and IRadAn=       5 diagonalized for initial guess.
 HarFok:  IExCor=  205 AccDes= 0.00D+00 IRadAn=         5 IDoV= 1 UseB2=F ITyADJ=14
 ICtDFT=  3500011 ScaDFX=  1.000000  1.000000  1.000000  1.000000
 FoFCou: FMM=F IPFlag=           0 FMFlag=      100000 FMFlg1=           0
         NFxFlg=           0 DoJE=T BraDBF=F KetDBF=T FulRan=T
         wScrn=  0.000000 ICntrl=       500 IOpCl=  0 I1Cent=   200000004 NGrid=           0
         NMat0=    1 NMatS0=      1 NMatT0=    0 NMatD0=    1 NMtDS0=    0 NMtDT0=    0
 Petite list used in FoFCou.
 Keep R1 ints in memory in canonical form, NReq=4089796.
 Requested convergence on RMS density matrix=1.00D-08 within 128 cycles.
 Requested convergence on MAX density matrix=1.00D-06.
 Requested convergence on             energy=1.00D-06.
 No special actions if energy rises.
 SCF Done:  E(RHF) =  -1953.31842087     A.U. after   12 cycles
            NFock= 12  Conv=0.22D-08     -V/T= 2.0008

 **********************************************************************

            Population analysis using the SCF Density.

 **********************************************************************

 Orbital symmetries:
       Occupied  (A) (A) (A) (A) (A) (A) (A) (A) (A) (A) (A) (A)
                 (A) (A) (A) (A) (A) (A) (A) (A) (A) (A) (A) (A)
                 (A) (A) (A) (A) (A) (A) (A) (A) (A) (A) (A) (A)
                 (A) (A) (A) (A) (A)
       Virtual   (A) (A) (A) (A) (A) (A) (A) (A) (A) (A) (A) (A)
                 (A) (A) (A) (A) (A) (A) (A) (A) (A) (A) (A) (A)
                 (A) (A) (A) (A) (A) (A)
 The electronic state is 1-A.
 Alpha  occ. eigenvalues -- -104.12464-104.12231-104.11322 -79.43590 -58.25042
 Alpha  occ. eigenvalues --  -10.51473 -10.51364 -10.50412  -7.97737  -7.97644
 Alpha  occ. eigenvalues --   -7.97443  -7.97425  -7.97352  -7.97335  -7.96694
 Alpha  occ. eigenvalues --   -7.96398  -7.96380  -7.51829  -5.40535  -5.40364
 Alpha  occ. eigenvalues --   -5.39908  -5.04458  -3.35045  -3.34873  -3.34834
 Alpha  occ. eigenvalues --   -1.11791  -1.09665  -1.09069  -0.97746  -0.70998
 Alpha  occ. eigenvalues --   -0.63912  -0.58096  -0.53447  -0.52153  -0.49603
 Alpha  occ. eigenvalues --   -0.48636  -0.48244  -0.47811  -0.47055  -0.46808
 Alpha  occ. eigenvalues --   -0.39696
 Alpha virt. eigenvalues --    0.00956   0.04869   0.10491   0.14432   0.16412
 Alpha virt. eigenvalues --    0.18710   0.22402   0.28119   0.33367   0.34305
 Alpha virt. eigenvalues --    0.35923   0.54264   0.55487   0.60288   0.70080
 Alpha virt. eigenvalues --    0.73826   0.74072   0.80172   0.83328   0.83560
 Alpha virt. eigenvalues --    0.84561   0.87870   0.88353   0.92282   1.01569
 Alpha virt. eigenvalues --    1.02291   1.11849   1.22414   1.27173   1.31809
     Molecular Orbital Coefficients:
                           1         2         3         4         5
                           O         O         O         O         O
     Eigenvalues --  -104.12464-104.12231-104.11322 -79.43590 -58.25042
   1 1   Al 1S         -0.00001  -0.00000  -0.00001   0.00000   0.98851
   2        2S          0.00033   0.00031   0.00030   0.00010   0.04461
   3        2PX        -0.00002   0.00001  -0.00001   0.00001  -0.00010
   4        2PY         0.00000   0.00002  -0.00002   0.00000  -0.00000
   5        2PZ         0.00000  -0.00001   0.00002  -0.00001   0.00013
   6        3S          0.00110   0.00115   0.00089   0.00047  -0.01004
   7        3PX        -0.00058   0.00036   0.00024   0.00002   0.00057
   8        3PY         0.00012   0.00042  -0.00057   0.00004  -0.00002
   9        3PZ        -0.00008   0.00038   0.00002  -0.00031  -0.00071
  10        4S         -0.00748  -0.00694  -0.00669  -0.00271  -0.00706
  11        4PX        -0.00262   0.00313   0.00203   0.00045   0.00165
  12        4PY         0.00100   0.00275  -0.00326  -0.00015   0.00013
  13        4PZ        -0.00315  -0.00113  -0.00148  -0.00131  -0.00370
  14 2   Cl 1S          0.00683   0.00813   0.98582   0.00000  -0.00002
  15        2S          0.00041   0.00048   0.05318  -0.00000   0.00011
  16        2PX         0.00006  -0.00006   0.00007   0.00001   0.00000
  17        2PY        -0.00000  -0.00004  -0.00022   0.00001   0.00000
  18        2PZ         0.00004  -0.00001   0.00002  -0.00002   0.00001
  19        3S         -0.00064  -0.00065  -0.02013  -0.00006  -0.00220
  20        3PX        -0.00032   0.00031  -0.00027  -0.00005  -0.00009
  21        3PY         0.00004   0.00025   0.00088  -0.00005   0.00026
  22        3PZ        -0.00020   0.00004  -0.00011   0.00013  -0.00010
  23        4S          0.00119   0.00123   0.01463   0.00052   0.00490
  24        4PX         0.00098  -0.00084   0.00085   0.00015   0.00082
  25        4PY        -0.00032  -0.00095  -0.00287  -0.00006  -0.00267
  26        4PZ         0.00066  -0.00002   0.00042  -0.00021   0.00057
  27 3   Cl 1S          0.98502  -0.04045  -0.00650  -0.00000  -0.00002
  28        2S          0.05315  -0.00213  -0.00031   0.00000   0.00011
  29        2PX        -0.00023  -0.00004  -0.00002   0.00001  -0.00002
  30        2PY         0.00004  -0.00006   0.00007  -0.00000   0.00000
  31        2PZ        -0.00006   0.00001   0.00002  -0.00001   0.00002
  32        3S         -0.02024   0.00025  -0.00032  -0.00013  -0.00212
  33        3PX         0.00093   0.00022   0.00011  -0.00007   0.00036
  34        3PY        -0.00016   0.00032  -0.00036  -0.00000  -0.00005
  35        3PZ         0.00020  -0.00007  -0.00012   0.00006  -0.00006
  36        4S          0.01490   0.00060   0.00083   0.00059   0.00454
  37        4PX        -0.00306  -0.00084  -0.00050  -0.00011  -0.00281
  38        4PY         0.00051  -0.00090   0.00107   0.00007   0.00049
  39        4PZ        -0.00056   0.00020   0.00034  -0.00007  -0.00014
  40 4   Cl 1S          0.04038   0.98501  -0.00841   0.00000  -0.00002
  41        2S          0.00223   0.05315  -0.00042  -0.00002   0.00010
  42        2PX         0.00006   0.00014  -0.00004   0.00001  -0.00000
  43        2PY        -0.00002   0.00018   0.00005  -0.00001  -0.00001
  44        2PZ         0.00004   0.00007  -0.00000  -0.00003   0.00000
  45        3S         -0.00142  -0.02019  -0.00033   0.00017  -0.00206
  46        3PX        -0.00034  -0.00052   0.00021  -0.00003  -0.00017
  47        3PY         0.00008  -0.00072  -0.00031   0.00006  -0.00015
  48        3PZ        -0.00021  -0.00029   0.00001   0.00017  -0.00007
  49        4S          0.00191   0.01479   0.00103   0.00004   0.00466
  50        4PX         0.00112   0.00170  -0.00048   0.00010   0.00162
  51        4PY        -0.00005   0.00234   0.00110  -0.00003   0.00196
  52        4PZ         0.00076   0.00102   0.00012  -0.00036   0.00085
  53 5   P  1S         -0.00000   0.00000  -0.00000   0.98701  -0.00001
  54        2S         -0.00006  -0.00003  -0.00005   0.04876  -0.00012
  55        2PX        -0.00000   0.00001   0.00001  -0.00004   0.00003
  56        2PY         0.00001   0.00003  -0.00002  -0.00010   0.00001
  57        2PZ         0.00002   0.00003   0.00002  -0.00012  -0.00001
  58        3S         -0.00073  -0.00008  -0.00059  -0.01595  -0.00190
  59        3PX        -0.00007  -0.00007  -0.00008  -0.00015  -0.00043
  60        3PY        -0.00005  -0.00018   0.00015   0.00015  -0.00001
  61        3PZ        -0.00005  -0.00019  -0.00011   0.00053   0.00038
  62        4S          0.00257   0.00110   0.00262   0.01090   0.00401
  63        4PX         0.00117   0.00051   0.00097   0.00085   0.00385
  64        4PY         0.00033   0.00077  -0.00023  -0.00067  -0.00017
  65        4PZ        -0.00138  -0.00093  -0.00082  -0.00170  -0.00352
  66 6   H  1S         -0.00019  -0.00021  -0.00000   0.00097  -0.00037
  67        2S          0.00070   0.00135  -0.00053  -0.00182  -0.00011
  68 7   H  1S          0.00004   0.00011   0.00015   0.00079   0.00005
  69        2S         -0.00051   0.00017   0.00021  -0.00102   0.00160
  70 8   H  1S         -0.00003  -0.00010  -0.00009   0.00100  -0.00023
  71        2S          0.00057   0.00067   0.00044  -0.00092   0.00268
                           6         7         8         9        10
                           O         O         O         O         O
     Eigenvalues --   -10.51473 -10.51364 -10.50412  -7.97737  -7.97644
   1 1   Al 1S          0.00009   0.00004   0.00007   0.00002  -0.00002
   2        2S         -0.00226  -0.00119  -0.00159  -0.00011   0.00028
   3        2PX         0.00006  -0.00002   0.00007  -0.00029  -0.00024
   4        2PY        -0.00002  -0.00006   0.00006   0.00006  -0.00022
   5        2PZ        -0.00001   0.00005  -0.00010  -0.00012  -0.00001
   6        3S         -0.00785  -0.00468  -0.00485  -0.00091   0.00152
   7        3PX         0.00261  -0.00294  -0.00144  -0.00329  -0.00157
   8        3PY        -0.00125  -0.00209   0.00334   0.00057  -0.00266
   9        3PZ        -0.00009  -0.00218  -0.00007  -0.00051  -0.00143
  10        4S          0.05217   0.02710   0.03674  -0.01384   0.01116
  11        4PX         0.00947  -0.02140  -0.01162  -0.00229  -0.00277
  12        4PY        -0.00932  -0.01332   0.01899   0.00123  -0.00343
  13        4PZ         0.01897   0.00140   0.00797  -0.00424   0.00122
  14 2   Cl 1S         -0.00908  -0.00543  -0.30568  -0.00002   0.00002
  15        2S          0.02905   0.01740   0.98200   0.00010  -0.00007
  16        2PX        -0.00008   0.00032   0.00256   0.00001  -0.00091
  17        2PY        -0.00019   0.00001  -0.00813  -0.00048   0.00002
  18        2PZ        -0.00013   0.00007  -0.00003  -0.00066   0.00045
  19        3S          0.00765   0.00443   0.14774  -0.00117   0.00083
  20        3PX         0.00126  -0.00202   0.00198  -0.00013  -0.00020
  21        3PY        -0.00068  -0.00131  -0.00649   0.00004  -0.00016
  22        3PZ         0.00100  -0.00050   0.00062  -0.00018   0.00008
  23        4S         -0.00988  -0.00584  -0.08472   0.00302  -0.00202
  24        4PX        -0.00410   0.00592  -0.00493   0.00095   0.00058
  25        4PY         0.00342   0.00481   0.01658  -0.00092   0.00116
  26        4PZ        -0.00356   0.00109  -0.00232   0.00072  -0.00013
  27 3   Cl 1S         -0.29092   0.09415   0.00704  -0.00326   0.00003
  28        2S          0.93455  -0.30257  -0.02269   0.01130  -0.00015
  29        2PX        -0.00756   0.00263   0.00026   0.91202  -0.00478
  30        2PY         0.00124  -0.00017  -0.00028  -0.16994  -0.00173
  31        2PZ        -0.00263   0.00080  -0.00002   0.29472   0.00468
  32        3S          0.14214  -0.04268  -0.00103  -0.00717   0.00122
  33        3PX        -0.00681   0.00073  -0.00046   0.07736  -0.00059
  34        3PY         0.00066  -0.00195   0.00194  -0.01437  -0.00024
  35        3PZ        -0.00144   0.00084   0.00069   0.02469   0.00043
  36        4S         -0.08408   0.02012  -0.00296   0.01362  -0.00295
  37        4PX         0.01840  -0.00030   0.00237  -0.02959   0.00154
  38        4PY        -0.00161   0.00559  -0.00599   0.00540   0.00065
  39        4PZ         0.00288  -0.00200  -0.00194  -0.00854  -0.00006
  40 4   Cl 1S         -0.09388  -0.29098   0.00803  -0.00002   0.00327
  41        2S          0.30148   0.93477  -0.02589   0.00010  -0.01134
  42        2PX         0.00145   0.00518   0.00001   0.00116   0.59909
  43        2PY         0.00204   0.00605  -0.00038   0.00321   0.73493
  44        2PZ         0.00048   0.00193  -0.00004  -0.00154   0.22004
  45        3S          0.04867   0.14029  -0.00124  -0.00139   0.00713
  46        3PX         0.00282   0.00332  -0.00124  -0.00007   0.05072
  47        3PY         0.00108   0.00524   0.00156   0.00026   0.06232
  48        3PZ         0.00167   0.00167  -0.00010  -0.00026   0.01881
  49        4S         -0.03338  -0.07985  -0.00406   0.00359  -0.01330
  50        4PX        -0.00861  -0.00789   0.00297   0.00129  -0.01886
  51        4PY        -0.00348  -0.01327  -0.00586   0.00037  -0.02359
  52        4PZ        -0.00566  -0.00454  -0.00048   0.00093  -0.00780
  53 5   P  1S          0.00001  -0.00001   0.00000  -0.00001   0.00001
  54        2S          0.00041   0.00006   0.00032  -0.00004   0.00000
  55        2PX        -0.00001  -0.00003  -0.00004  -0.00008   0.00001
  56        2PY        -0.00009  -0.00012   0.00012   0.00001  -0.00000
  57        2PZ        -0.00011  -0.00013  -0.00010   0.00007  -0.00007
  58        3S          0.00416  -0.00055   0.00323  -0.00040  -0.00011
  59        3PX         0.00052   0.00025   0.00042   0.00053  -0.00008
  60        3PY         0.00049   0.00083  -0.00083  -0.00011   0.00013
  61        3PZ         0.00051   0.00091   0.00056  -0.00045   0.00060
  62        4S         -0.01598  -0.00241  -0.01435   0.00315  -0.00251
  63        4PX        -0.00729  -0.00104  -0.00532  -0.00008   0.00015
  64        4PY        -0.00289  -0.00358   0.00132   0.00077  -0.00139
  65        4PZ         0.00906   0.00305   0.00438  -0.00051   0.00086
  66 6   H  1S          0.00128   0.00078  -0.00002  -0.00010   0.00001
  67        2S         -0.00569  -0.00615   0.00313   0.00128  -0.00134
  68 7   H  1S         -0.00037  -0.00046  -0.00071  -0.00009   0.00001
  69        2S          0.00243  -0.00190  -0.00150   0.00079   0.00225
  70 8   H  1S          0.00032   0.00046   0.00046   0.00013   0.00006
  71        2S         -0.00419  -0.00270  -0.00232  -0.00051  -0.00007
                          11        12        13        14        15
                           O         O         O         O         O
     Eigenvalues --    -7.97443  -7.97425  -7.97352  -7.97335  -7.96694
   1 1   Al 1S          0.00000   0.00000  -0.00000   0.00000   0.00002
   2        2S         -0.00043  -0.00013  -0.00003  -0.00001  -0.00027
   3        2PX        -0.00002  -0.00001  -0.00004   0.00001   0.00014
   4        2PY        -0.00000  -0.00004   0.00003   0.00002  -0.00029
   5        2PZ         0.00016   0.00005   0.00014  -0.00003   0.00000
   6        3S         -0.00254  -0.00076  -0.00035   0.00019  -0.00173
   7        3PX         0.00044   0.00021   0.00011  -0.00014   0.00072
   8        3PY         0.00005   0.00016  -0.00043  -0.00011  -0.00321
   9        3PZ        -0.00131  -0.00043  -0.00109   0.00033   0.00055
  10        4S          0.00766   0.00258   0.00078   0.00032  -0.01097
  11        4PX        -0.00682  -0.00023   0.00059   0.00870   0.00176
  12        4PY        -0.00366   0.01210   0.00118  -0.00745  -0.00370
  13        4PZ         0.00772   0.00401   0.00596   0.00281  -0.00143
  14 2   Cl 1S          0.00001   0.00008   0.00001  -0.00008  -0.00324
  15        2S         -0.00004  -0.00038  -0.00003   0.00034   0.01122
  16        2PX        -0.00420   0.00304   0.00046   0.00203  -0.32432
  17        2PY        -0.00250  -0.00006  -0.00036   0.00266   0.91752
  18        2PZ         0.00644   0.00088   0.00719   0.00348  -0.02228
  19        3S          0.00027   0.00348   0.00019  -0.00297  -0.00696
  20        3PX        -0.00074   0.00060   0.00007   0.00036  -0.02739
  21        3PY        -0.00039  -0.00014  -0.00004   0.00056   0.07776
  22        3PZ         0.00108   0.00020   0.00114   0.00054  -0.00204
  23        4S         -0.00089  -0.00934  -0.00050   0.00777   0.01300
  24        4PX         0.00146  -0.00182  -0.00013  -0.00059   0.01002
  25        4PY         0.00089   0.00181   0.00001  -0.00235  -0.02933
  26        4PZ        -0.00190  -0.00080  -0.00177  -0.00076   0.00142
  27 3   Cl 1S          0.00002  -0.00008   0.00002   0.00006  -0.00002
  28        2S         -0.00010   0.00027  -0.00007  -0.00031   0.00010
  29        2PX        -0.33634   0.04809   0.01989   0.00358   0.00007
  30        2PY        -0.33553   0.89659  -0.04574   0.03850   0.00048
  31        2PZ         0.84811   0.36848  -0.08169   0.01675   0.00145
  32        3S          0.00047   0.00014   0.00062   0.00310  -0.00107
  33        3PX        -0.02781   0.00390   0.00145   0.00006   0.00013
  34        3PY        -0.02752   0.07365  -0.00353   0.00286  -0.00010
  35        3PZ         0.06940   0.03018  -0.00615   0.00120   0.00006
  36        4S         -0.00058  -0.00014  -0.00171  -0.00817   0.00259
  37        4PX         0.00979  -0.00121   0.00024   0.00195  -0.00102
  38        4PY         0.00918  -0.02501   0.00058  -0.00009   0.00097
  39        4PZ        -0.02268  -0.01001   0.00068   0.00037   0.00001
  40 4   Cl 1S          0.00003  -0.00006   0.00005   0.00003  -0.00002
  41        2S         -0.00018   0.00026  -0.00022  -0.00011   0.00010
  42        2PX        -0.02482  -0.05400  -0.32148   0.69467  -0.00179
  43        2PY        -0.00535   0.02681  -0.01123  -0.63803   0.00098
  44        2PZ         0.05727   0.05788   0.91450   0.23968   0.00025
  45        3S          0.00219  -0.00248   0.00052  -0.00023  -0.00103
  46        3PX        -0.00207  -0.00491  -0.02628   0.05712  -0.00007
  47        3PY        -0.00032   0.00234  -0.00080  -0.05250  -0.00014
  48        3PZ         0.00518   0.00500   0.07501   0.01966  -0.00004
  49        4S         -0.00602   0.00671  -0.00006   0.00043   0.00246
  50        4PX         0.00016   0.00378   0.00830  -0.01923  -0.00010
  51        4PY        -0.00098  -0.00051  -0.00010   0.01784   0.00143
  52        4PZ        -0.00348  -0.00189  -0.02462  -0.00638   0.00036
  53 5   P  1S          0.00002   0.00001   0.00006  -0.00000   0.00000
  54        2S         -0.00002  -0.00002  -0.00034  -0.00002  -0.00008
  55        2PX         0.00018   0.00004  -0.00012  -0.00003  -0.00002
  56        2PY        -0.00002  -0.00005  -0.00011   0.00001  -0.00001
  57        2PZ        -0.00006  -0.00003  -0.00010   0.00003   0.00006
  58        3S         -0.00002  -0.00009  -0.00228  -0.00013  -0.00041
  59        3PX        -0.00142  -0.00033   0.00092   0.00025   0.00010
  60        3PY         0.00019   0.00050   0.00107  -0.00012   0.00018
  61        3PZ         0.00044   0.00021   0.00097  -0.00023  -0.00055
  62        4S         -0.00370  -0.00102   0.00294   0.00195   0.00420
  63        4PX         0.00263   0.00035  -0.00286  -0.00224   0.00014
  64        4PY        -0.00080  -0.00270  -0.00396   0.00117  -0.00073
  65        4PZ        -0.00063  -0.00032  -0.00063  -0.00047  -0.00082
  66 6   H  1S         -0.00031  -0.00004  -0.00040  -0.00011  -0.00012
  67        2S         -0.00126  -0.00056  -0.00152   0.00007  -0.00051
  68 7   H  1S          0.00034   0.00010  -0.00012   0.00034   0.00057
  69        2S         -0.00314  -0.00072   0.00172  -0.00215  -0.00241
  70 8   H  1S         -0.00024  -0.00006   0.00035   0.00004  -0.00005
  71        2S          0.00202   0.00042  -0.00260  -0.00125  -0.00026
                          16        17        18        19        20
                           O         O         O         O         O
     Eigenvalues --    -7.96398  -7.96380  -7.51829  -5.40535  -5.40364
   1 1   Al 1S         -0.00000   0.00000   0.00004  -0.00006   0.00001
   2        2S          0.00009  -0.00005  -0.00114   0.00007  -0.00017
   3        2PX         0.00003  -0.00003  -0.00011   0.00002  -0.00010
   4        2PY         0.00002  -0.00002   0.00002   0.00001   0.00010
   5        2PZ        -0.00010   0.00002  -0.00010  -0.00003   0.00006
   6        3S          0.00054  -0.00003  -0.00484  -0.00106  -0.00151
   7        3PX        -0.00019   0.00006   0.00030   0.00179   0.00147
   8        3PY        -0.00047   0.00036  -0.00037   0.00007  -0.00082
   9        3PZ         0.00083  -0.00009   0.00264  -0.00380  -0.00106
  10        4S         -0.00193   0.00144   0.02618  -0.01173  -0.00035
  11        4PX         0.00636   0.00887  -0.00471   0.00031  -0.00470
  12        4PY         0.00443   0.00218   0.00090   0.00057   0.00255
  13        4PZ        -0.00343   0.00644   0.01243  -0.00566  -0.00149
  14 2   Cl 1S         -0.00007  -0.00010   0.00002   0.00002  -0.00003
  15        2S          0.00027   0.00033  -0.00009  -0.00010   0.00013
  16        2PX         0.70606   0.58738  -0.00013   0.00003  -0.00008
  17        2PY         0.23426   0.22568  -0.00004   0.00011  -0.00002
  18        2PZ        -0.62888   0.74361   0.00032  -0.00004   0.00024
  19        3S         -0.00050   0.00023   0.00156   0.00099  -0.00130
  20        3PX         0.05798   0.04835   0.00029  -0.00014   0.00031
  21        3PY         0.01941   0.01851   0.00008  -0.00054   0.00020
  22        3PZ        -0.05144   0.06086  -0.00068   0.00031  -0.00113
  23        4S          0.00027  -0.00015  -0.00636  -0.00071   0.00125
  24        4PX        -0.01926  -0.01658  -0.00102   0.00072  -0.00053
  25        4PY        -0.00697  -0.00609   0.00152   0.00127  -0.00088
  26        4PZ         0.01660  -0.01988   0.00074  -0.00127   0.00328
  27 3   Cl 1S          0.00002   0.00007   0.00003   0.00002   0.00001
  28        2S         -0.00011  -0.00033  -0.00014  -0.00012  -0.00005
  29        2PX        -0.00307   0.00099  -0.00012   0.00023   0.00014
  30        2PY        -0.00447  -0.00176  -0.00000  -0.00002  -0.00002
  31        2PZ         0.00591  -0.00199   0.00012  -0.00016  -0.00020
  32        3S          0.00101   0.00306   0.00209   0.00048   0.00010
  33        3PX        -0.00006  -0.00016   0.00007  -0.00097  -0.00060
  34        3PY         0.00003   0.00009   0.00005   0.00006   0.00010
  35        3PZ        -0.00001  -0.00003  -0.00021   0.00068   0.00085
  36        4S         -0.00266  -0.00806  -0.00675   0.00138   0.00147
  37        4PX        -0.00006   0.00191   0.00224   0.00127   0.00110
  38        4PY        -0.00129  -0.00119  -0.00065   0.00002  -0.00023
  39        4PZ         0.00136  -0.00011   0.00003  -0.00150  -0.00208
  40 4   Cl 1S         -0.00005  -0.00005  -0.00002   0.00002   0.00001
  41        2S          0.00022   0.00025   0.00012  -0.00013  -0.00004
  42        2PX        -0.00090  -0.00105  -0.00014   0.00000   0.00001
  43        2PY         0.00052   0.00322   0.00008  -0.00010  -0.00001
  44        2PZ         0.00488  -0.00684   0.00049  -0.00007   0.00003
  45        3S         -0.00212  -0.00238  -0.00030   0.00145   0.00069
  46        3PX        -0.00004  -0.00004   0.00026   0.00001  -0.00006
  47        3PY        -0.00012  -0.00012  -0.00019   0.00052   0.00010
  48        3PZ        -0.00001  -0.00009  -0.00115   0.00053  -0.00003
  49        4S          0.00559   0.00628  -0.00257  -0.00168  -0.00171
  50        4PX         0.00029   0.00026  -0.00102   0.00026   0.00026
  51        4PY         0.00127   0.00206  -0.00063  -0.00143  -0.00079
  52        4PZ         0.00136  -0.00088   0.00216  -0.00223  -0.00040
  53 5   P  1S         -0.00004   0.00002  -0.29555  -0.00088   0.00008
  54        2S          0.00014  -0.00010   0.99670   0.00279  -0.00034
  55        2PX         0.00002  -0.00005  -0.00689  -0.37483  -0.65605
  56        2PY        -0.00016   0.00007  -0.00823   0.00629   0.66089
  57        2PZ         0.00007  -0.00001  -0.00469   0.89624  -0.27921
  58        3S          0.00093  -0.00060   0.13311  -0.00622  -0.00101
  59        3PX        -0.00017   0.00047   0.00014  -0.03716  -0.06148
  60        3PY         0.00133  -0.00059  -0.00269   0.00062   0.06172
  61        3PZ        -0.00071   0.00016  -0.00504   0.08692  -0.02544
  62        4S          0.00193   0.00112  -0.08565   0.00631   0.00228
  63        4PX         0.00064  -0.00314  -0.00592   0.02375   0.02546
  64        4PY        -0.00406   0.00135   0.00666  -0.00139  -0.02458
  65        4PZ        -0.00012  -0.00028   0.01491  -0.03993   0.00667
  66 6   H  1S         -0.00009   0.00016  -0.00436   0.00007   0.00714
  67        2S         -0.00095   0.00007   0.01436  -0.00213  -0.01232
  68 7   H  1S          0.00071   0.00024  -0.00344   0.00332  -0.00371
  69        2S         -0.00208  -0.00066   0.00899  -0.00138   0.00361
  70 8   H  1S         -0.00023   0.00016  -0.00465  -0.00759  -0.00322
  71        2S          0.00070  -0.00188   0.00739   0.01809   0.00672
                          21        22        23        24        25
                           O         O         O         O         O
     Eigenvalues --    -5.39908  -5.04458  -3.35045  -3.34873  -3.34834
   1 1   Al 1S          0.00001  -0.28405   0.00101  -0.00003  -0.00016
   2        2S         -0.00030   1.01049  -0.00432  -0.00011   0.00056
   3        2PX         0.00008  -0.00153  -0.64518  -0.60623   0.41405
   4        2PY         0.00012  -0.00097  -0.18113   0.66587   0.69302
   5        2PZ         0.00003   0.00097   0.71224  -0.38104   0.55233
   6        3S         -0.00121   0.09372   0.00128  -0.00129   0.00071
   7        3PX        -0.00116  -0.00297  -0.06366  -0.05982   0.04024
   8        3PY        -0.00108  -0.00038  -0.01686   0.06364   0.06561
   9        3PZ        -0.00000   0.00428   0.06517  -0.03494   0.05051
  10        4S          0.00685  -0.01825   0.01661   0.00301   0.00239
  11        4PX         0.00308   0.00008   0.01543   0.01171  -0.00902
  12        4PY         0.00329   0.00080   0.00591  -0.01785  -0.01841
  13        4PZ         0.00512   0.00242  -0.01776   0.01142  -0.01521
  14 2   Cl 1S         -0.00001   0.00003   0.00003   0.00006   0.00004
  15        2S          0.00004  -0.00008  -0.00018  -0.00011  -0.00007
  16        2PX        -0.00007  -0.00002  -0.00000   0.00002  -0.00011
  17        2PY        -0.00002  -0.00000   0.00002   0.00011   0.00005
  18        2PZ         0.00010  -0.00002   0.00007  -0.00002  -0.00003
  19        3S         -0.00033   0.00380   0.00256   0.00149   0.00082
  20        3PX         0.00034   0.00030   0.00008  -0.00059   0.00022
  21        3PY         0.00017  -0.00057  -0.00021   0.00090   0.00057
  22        3PZ        -0.00050   0.00013  -0.00037   0.00003   0.00006
  23        4S         -0.00063  -0.00750  -0.00691  -0.00610  -0.00294
  24        4PX        -0.00127  -0.00311  -0.00031  -0.00259  -0.00356
  25        4PY        -0.00050   0.00833   0.00248   0.01117   0.00569
  26        4PZ         0.00128  -0.00092   0.00033  -0.00083  -0.00087
  27 3   Cl 1S          0.00001   0.00002  -0.00001  -0.00006   0.00004
  28        2S         -0.00003  -0.00002  -0.00004   0.00013  -0.00008
  29        2PX        -0.00008  -0.00002  -0.00005  -0.00009   0.00002
  30        2PY        -0.00005  -0.00001   0.00002  -0.00003  -0.00011
  31        2PZ         0.00013   0.00005   0.00006  -0.00011   0.00007
  32        3S          0.00075   0.00322   0.00063  -0.00167   0.00113
  33        3PX         0.00033  -0.00045  -0.00039  -0.00092   0.00058
  34        3PY         0.00020   0.00015   0.00005   0.00036   0.00032
  35        3PZ        -0.00052  -0.00034  -0.00055   0.00014  -0.00015
  36        4S         -0.00326  -0.00646  -0.00132   0.00625  -0.00408
  37        4PX        -0.00002   0.00773  -0.00359  -0.01029   0.00525
  38        4PY        -0.00087  -0.00173   0.00091   0.00136  -0.00262
  39        4PZ         0.00104   0.00255  -0.00080  -0.00428   0.00224
  40 4   Cl 1S          0.00003   0.00001   0.00004   0.00001  -0.00007
  41        2S         -0.00015   0.00004  -0.00009  -0.00004   0.00011
  42        2PX         0.00009  -0.00001  -0.00006   0.00009   0.00006
  43        2PY         0.00001   0.00006   0.00001  -0.00003   0.00009
  44        2PZ        -0.00026   0.00005   0.00013   0.00003   0.00011
  45        3S          0.00164   0.00267   0.00157   0.00063  -0.00117
  46        3PX        -0.00034   0.00042  -0.00007  -0.00031   0.00076
  47        3PY         0.00007   0.00021  -0.00050   0.00018   0.00084
  48        3PZ         0.00125  -0.00007  -0.00081  -0.00007  -0.00015
  49        4S         -0.00228  -0.00516  -0.00594  -0.00210   0.00487
  50        4PX         0.00052  -0.00536  -0.00403   0.00135   0.00677
  51        4PY        -0.00068  -0.00597  -0.00454  -0.00077   0.00871
  52        4PZ        -0.00411  -0.00147  -0.00004   0.00031   0.00361
  53 5   P  1S         -0.00385  -0.00001  -0.00001  -0.00001   0.00001
  54        2S          0.01363   0.00033   0.00040  -0.00033   0.00027
  55        2PX         0.61216   0.00002   0.00003  -0.00009   0.00009
  56        2PY         0.71384   0.00013  -0.00004   0.00015   0.00022
  57        2PZ         0.25117  -0.00034  -0.00013   0.00002  -0.00001
  58        3S         -0.00104   0.00266   0.00169  -0.00332   0.00233
  59        3PX         0.05510   0.00113   0.00075   0.00024  -0.00014
  60        3PY         0.06391  -0.00032  -0.00010  -0.00047  -0.00096
  61        3PZ         0.02185  -0.00094   0.00002   0.00019  -0.00031
  62        4S          0.00316  -0.00263   0.00310   0.01196  -0.00574
  63        4PX        -0.02119  -0.01210  -0.01847  -0.00134  -0.00291
  64        4PY        -0.02290   0.00390   0.00364  -0.00076   0.00411
  65        4PZ        -0.00329   0.00853   0.01158  -0.00724   0.00767
  66 6   H  1S          0.00240  -0.00005   0.00087  -0.00013  -0.00005
  67        2S         -0.00479   0.00651   0.00595  -0.00527   0.00401
  68 7   H  1S          0.00236  -0.00116  -0.00264  -0.00064   0.00030
  69        2S         -0.00249  -0.00288  -0.00916  -0.01245   0.00465
  70 8   H  1S          0.00271   0.00067   0.00055  -0.00013   0.00024
  71        2S         -0.00693  -0.00936  -0.01415  -0.00058  -0.00319
                          26        27        28        29        30
                           O         O         O         O         O
     Eigenvalues --    -1.11791  -1.09665  -1.09069  -0.97746  -0.70998
   1 1   Al 1S          0.01730   0.00524   0.00240   0.00555   0.02219
   2        2S         -0.07873  -0.02379  -0.01112  -0.02463  -0.10382
   3        2PX         0.01690  -0.03967   0.02420   0.01797   0.04280
   4        2PY         0.01282  -0.01995  -0.04300   0.00115  -0.00055
   5        2PZ        -0.00301  -0.01284   0.00356  -0.02916  -0.03190
   6        3S          0.13981   0.04257   0.01848   0.05291   0.20492
   7        3PX        -0.02728   0.05850  -0.03731  -0.02969  -0.08281
   8        3PY        -0.01911   0.02825   0.06360  -0.00174   0.00072
   9        3PZ         0.00807   0.01892  -0.00555   0.04244   0.06023
  10        4S         -0.07978  -0.02523  -0.00614  -0.04754  -0.02028
  11        4PX         0.02378  -0.03399   0.02187   0.02151   0.03117
  12        4PY         0.01215  -0.01874  -0.04002  -0.00079  -0.00547
  13        4PZ        -0.02274  -0.01944   0.00258  -0.03920  -0.02622
  14 2   Cl 1S          0.02989   0.02148   0.06772  -0.01232  -0.01142
  15        2S         -0.17567  -0.12635  -0.39836   0.07290   0.06847
  16        2PX        -0.00358  -0.00355  -0.00669   0.00260   0.00204
  17        2PY         0.01584   0.00853   0.02591   0.00374   0.04789
  18        2PZ        -0.00195  -0.00110  -0.00275  -0.00508  -0.01713
  19        3S          0.20957   0.15162   0.48339  -0.08929  -0.09113
  20        3PX         0.00698   0.00618   0.01274  -0.00554  -0.00506
  21        3PY        -0.03066  -0.01649  -0.04968  -0.00887  -0.10177
  22        3PZ         0.00388   0.00189   0.00583   0.01072   0.03617
  23        4S          0.21703   0.15473   0.47487  -0.08510  -0.08185
  24        4PX         0.00685   0.01217   0.01305  -0.00331  -0.00334
  25        4PY        -0.03467  -0.01864  -0.05420   0.00580  -0.06186
  26        4PZ         0.00472   0.00485   0.00435   0.00465   0.02621
  27 3   Cl 1S          0.02895   0.06337  -0.03541  -0.00508  -0.00450
  28        2S         -0.17022  -0.37288   0.20841   0.02999   0.02691
  29        2PX         0.01398   0.02296  -0.01187   0.00303   0.02202
  30        2PY        -0.00198  -0.00443   0.00099   0.00010  -0.00439
  31        2PZ         0.00389   0.00685  -0.00364  -0.00252   0.00258
  32        3S          0.20335   0.45338  -0.25469  -0.03750  -0.03732
  33        3PX        -0.02664  -0.04385   0.02256  -0.00725  -0.04670
  34        3PY         0.00400   0.00809  -0.00243  -0.00024   0.00914
  35        3PZ        -0.00779  -0.01311   0.00677   0.00543  -0.00527
  36        4S          0.20982   0.44422  -0.24598  -0.03153  -0.03107
  37        4PX        -0.03498  -0.04982   0.02509  -0.00225  -0.03781
  38        4PY         0.00329   0.01217   0.00237   0.00035   0.00869
  39        4PZ        -0.00616  -0.01370   0.00833   0.00413  -0.00430
  40 4   Cl 1S          0.06124  -0.04143  -0.01866  -0.01627  -0.01260
  41        2S         -0.36004   0.24377   0.10982   0.09635   0.07566
  42        2PX        -0.01600   0.00800   0.00459   0.00200  -0.01279
  43        2PY        -0.02304   0.01209   0.00404  -0.00427  -0.05003
  44        2PZ        -0.01089   0.00558   0.00225  -0.00908  -0.03048
  45        3S          0.43199  -0.29636  -0.13254  -0.11598  -0.09834
  46        3PX         0.03049  -0.01523  -0.00819  -0.00388   0.02619
  47        3PY         0.04444  -0.02290  -0.00800   0.00974   0.10645
  48        3PZ         0.02120  -0.01124  -0.00420   0.01947   0.06404
  49        4S          0.43827  -0.28945  -0.13361  -0.12219  -0.10165
  50        4PX         0.03489  -0.01552  -0.01388  -0.00730   0.01554
  51        4PY         0.04830  -0.02637  -0.00703  -0.00759   0.06154
  52        4PZ         0.02387  -0.00961  -0.00690   0.00249   0.04211
  53 5   P  1S          0.01051  -0.00044   0.00262   0.06074  -0.01551
  54        2S         -0.05593   0.00221  -0.01410  -0.32580   0.08470
  55        2PX         0.00113  -0.00245   0.00128   0.01851  -0.02599
  56        2PY         0.00403  -0.00174  -0.00239   0.02888  -0.04537
  57        2PZ         0.01521  -0.00131   0.00415   0.03093   0.14908
  58        3S          0.06208  -0.00360   0.01465   0.37013  -0.10123
  59        3PX        -0.00251   0.00427  -0.00209  -0.04005   0.05184
  60        3PY        -0.00788   0.00341   0.00458  -0.05677   0.08933
  61        3PZ        -0.02744   0.00198  -0.00757  -0.05173  -0.28587
  62        4S          0.07247   0.00132   0.02430   0.39993  -0.15841
  63        4PX         0.01046   0.00983  -0.00113   0.03793   0.06534
  64        4PY        -0.00051   0.00389   0.00002  -0.03066   0.02682
  65        4PZ        -0.01516  -0.00069  -0.00119  -0.05770  -0.08370
  66 6   H  1S          0.01696  -0.00089   0.00190   0.12022  -0.09715
  67        2S          0.01506   0.00219  -0.00885   0.04632  -0.10021
  68 7   H  1S          0.04939  -0.00738   0.01482   0.15821   0.19894
  69        2S          0.03904  -0.00107   0.00897   0.12740   0.33339
  70 8   H  1S          0.01180  -0.00110   0.00345   0.11123  -0.17037
  71        2S          0.00988   0.00315  -0.00112   0.08497  -0.14849
                          31        32        33        34        35
                           O         O         O         O         O
     Eigenvalues --    -0.63912  -0.58096  -0.53447  -0.52153  -0.49603
   1 1   Al 1S          0.00614   0.03489   0.00061  -0.00364   0.00062
   2        2S         -0.02902  -0.16550  -0.00312   0.01748  -0.00152
   3        2PX        -0.01839  -0.03853   0.05110  -0.07699  -0.02429
   4        2PY         0.01552   0.00494   0.09832   0.06363  -0.01371
   5        2PZ        -0.01291   0.02206   0.03771  -0.05027   0.00684
   6        3S          0.05696   0.32873   0.00479  -0.03473   0.01236
   7        3PX         0.03566   0.07426  -0.11656   0.18086   0.05955
   8        3PY        -0.03479  -0.01319  -0.22178  -0.14497   0.03477
   9        3PZ         0.02881  -0.03585  -0.08001   0.10818  -0.01584
  10        4S          0.01484   0.07799   0.00965  -0.02260  -0.03544
  11        4PX        -0.01085  -0.00591   0.00308   0.01576   0.02685
  12        4PY        -0.00339   0.00021  -0.00070  -0.01956   0.05151
  13        4PZ        -0.00504  -0.00896   0.00027   0.01902  -0.01122
  14 2   Cl 1S          0.00149  -0.00899   0.00716   0.00886   0.00045
  15        2S         -0.00902   0.05410  -0.04341  -0.05372  -0.00260
  16        2PX        -0.01321  -0.05656   0.07466   0.01716  -0.07696
  17        2PY        -0.00839   0.07932  -0.07540  -0.15010  -0.02535
  18        2PZ         0.00816   0.01370   0.06509  -0.04902   0.09463
  19        3S          0.01046  -0.08497   0.06160   0.07833   0.00953
  20        3PX         0.02811   0.12050  -0.16028  -0.03529   0.16631
  21        3PY         0.01792  -0.16648   0.15968   0.31928   0.05428
  22        3PZ        -0.01689  -0.02966  -0.14026   0.10591  -0.20340
  23        4S          0.01586  -0.05251   0.06116   0.08004  -0.01630
  24        4PX         0.02505   0.09854  -0.12687  -0.02426   0.13937
  25        4PY         0.00794  -0.14635   0.11942   0.25406   0.05327
  26        4PZ        -0.01534  -0.02080  -0.11669   0.08670  -0.18141
  27 3   Cl 1S         -0.00563  -0.01387   0.00352  -0.00774  -0.00163
  28        2S          0.03389   0.08364  -0.02134   0.04705   0.00991
  29        2PX         0.03905   0.13003  -0.04366   0.13981  -0.00230
  30        2PY         0.00177  -0.02855   0.09485   0.02025  -0.08707
  31        2PZ        -0.00713   0.05658   0.01575   0.01689   0.09355
  32        3S         -0.04755  -0.12640   0.03054  -0.06568  -0.01792
  33        3PX        -0.08287  -0.27491   0.09304  -0.29910   0.00670
  34        3PY        -0.00409   0.06070  -0.20510  -0.04466   0.18889
  35        3PZ         0.01533  -0.12051  -0.03466  -0.03484  -0.20128
  36        4S         -0.04035  -0.09155   0.02847  -0.07614  -0.00581
  37        4PX        -0.05838  -0.22112   0.06878  -0.22708   0.00307
  38        4PY        -0.00372   0.04815  -0.16681  -0.03958   0.15558
  39        4PZ         0.01584  -0.09470  -0.03044  -0.02615  -0.17665
  40 4   Cl 1S         -0.00195  -0.00786  -0.01196   0.00185  -0.00030
  41        2S          0.01167   0.04725   0.07239  -0.01114   0.00145
  42        2PX        -0.02312  -0.09091  -0.11126  -0.04039   0.09961
  43        2PY         0.00553  -0.05644  -0.12750   0.09823  -0.01874
  44        2PZ        -0.01216   0.02064  -0.06237  -0.06378  -0.16139
  45        3S         -0.01812  -0.07592  -0.11177   0.01954  -0.01690
  46        3PX         0.04934   0.19330   0.23603   0.08836  -0.21522
  47        3PY        -0.01273   0.11830   0.26992  -0.21094   0.04042
  48        3PZ         0.02514  -0.04491   0.13241   0.13811   0.34652
  49        4S         -0.01311  -0.04261  -0.08245   0.00834   0.05154
  50        4PX         0.03727   0.16081   0.18861   0.07255  -0.17625
  51        4PY        -0.00522   0.10700   0.21889  -0.18019   0.05019
  52        4PZ         0.02677  -0.03137   0.11536   0.11350   0.32265
  53 5   P  1S         -0.00080  -0.00120  -0.00536   0.00126  -0.00636
  54        2S          0.00300   0.00753   0.03047  -0.00746   0.03481
  55        2PX        -0.15491   0.02168   0.03111   0.01767   0.03647
  56        2PY         0.11174  -0.01655   0.03511  -0.03840   0.04571
  57        2PZ         0.01288  -0.07024  -0.01277   0.03090   0.00231
  58        3S         -0.01484   0.00306  -0.02889   0.00381  -0.04737
  59        3PX         0.30603  -0.04299  -0.06178  -0.03582  -0.07110
  60        3PY        -0.22099   0.03400  -0.07067   0.07684  -0.08757
  61        3PZ        -0.02738   0.13471   0.02488  -0.05917  -0.00229
  62        4S          0.04581  -0.01539  -0.08669   0.01823  -0.06905
  63        4PX         0.12676  -0.01765  -0.07086   0.00148  -0.08203
  64        4PY        -0.08150   0.02895  -0.05923   0.04662  -0.12243
  65        4PZ        -0.05378   0.06228   0.02398  -0.04316   0.00384
  66 6   H  1S          0.23395  -0.02661   0.01292  -0.06517   0.01389
  67        2S          0.29054  -0.02496   0.03159  -0.08561   0.01268
  68 7   H  1S         -0.08302  -0.08451  -0.00056   0.03549   0.01033
  69        2S         -0.16750  -0.15807   0.00118   0.07053   0.06273
  70 8   H  1S         -0.18227   0.09177   0.02939   0.00207   0.01842
  71        2S         -0.20966   0.12120   0.02513   0.01628   0.00691
                          36        37        38        39        40
                           O         O         O         O         O
     Eigenvalues --    -0.48636  -0.48244  -0.47811  -0.47055  -0.46808
   1 1   Al 1S          0.00292  -0.00124  -0.00113   0.00148  -0.00011
   2        2S         -0.01599   0.00541   0.00665  -0.00637   0.00099
   3        2PX         0.02674  -0.02603   0.01656   0.00184   0.00527
   4        2PY        -0.00339   0.02696   0.02348   0.00769  -0.00248
   5        2PZ        -0.02188  -0.00466   0.00431  -0.00543   0.00060
   6        3S          0.01734  -0.01598  -0.00185   0.01818   0.00234
   7        3PX        -0.06276   0.05950  -0.03542  -0.00593  -0.01160
   8        3PY         0.00978  -0.05866  -0.04874  -0.01710   0.00801
   9        3PZ         0.04950   0.00769  -0.00584   0.01323  -0.00026
  10        4S          0.05628   0.00113  -0.02224  -0.00768  -0.00770
  11        4PX        -0.04014  -0.08162   0.08062  -0.02278   0.04752
  12        4PY         0.01650   0.07753   0.07941   0.01183  -0.00486
  13        4PZ         0.09300  -0.03083   0.01040   0.03790   0.00837
  14 2   Cl 1S         -0.00117   0.00430   0.00254   0.00055   0.00008
  15        2S          0.00717  -0.02576  -0.01521  -0.00341  -0.00050
  16        2PX        -0.02473   0.05575  -0.08119   0.10113  -0.19291
  17        2PY         0.02923  -0.09525  -0.09666   0.02861  -0.06083
  18        2PZ        -0.02336   0.05722  -0.06906  -0.20308  -0.07607
  19        3S         -0.00751   0.06564   0.03749   0.00592  -0.00085
  20        3PX         0.05241  -0.11891   0.17764  -0.21778   0.41768
  21        3PY        -0.06235   0.20011   0.20598  -0.06313   0.13207
  22        3PZ         0.05269  -0.12429   0.14878   0.43912   0.16497
  23        4S         -0.02788  -0.05404  -0.02402   0.00174   0.00949
  24        4PX         0.04926  -0.10676   0.14094  -0.19672   0.36504
  25        4PY        -0.04829   0.20263   0.19099  -0.05613   0.11350
  26        4PZ         0.02818  -0.10616   0.13198   0.39023   0.14285
  27 3   Cl 1S          0.00114  -0.00323   0.00239  -0.00097   0.00067
  28        2S         -0.00693   0.01933  -0.01430   0.00578  -0.00392
  29        2PX         0.04427   0.09307  -0.09223   0.00042  -0.00887
  30        2PY        -0.01306  -0.06837  -0.17550  -0.02232   0.14604
  31        2PZ        -0.22590  -0.03820  -0.01621   0.08073   0.01416
  32        3S          0.01294  -0.05238   0.03934  -0.01727   0.01591
  33        3PX        -0.09721  -0.19683   0.19636   0.00079   0.01758
  34        3PY         0.02916   0.14790   0.38181   0.04782  -0.31679
  35        3PZ         0.48918   0.08369   0.03410  -0.17279  -0.03164
  36        4S          0.00236   0.05214  -0.03607   0.01614  -0.02856
  37        4PX        -0.08191  -0.19398   0.18743  -0.00759   0.02562
  38        4PY         0.02111   0.12612   0.32081   0.04458  -0.27862
  39        4PZ         0.41712   0.07023   0.03500  -0.16676  -0.02225
  40 4   Cl 1S         -0.00161   0.00006  -0.00319  -0.00070  -0.00037
  41        2S          0.00963  -0.00035   0.01904   0.00408   0.00216
  42        2PX         0.01303   0.11809  -0.11371   0.06431   0.06142
  43        2PY        -0.04452  -0.13143  -0.04266  -0.08182  -0.07875
  44        2PZ        -0.12249   0.11910   0.02205  -0.06693   0.02938
  45        3S         -0.02229   0.00204  -0.05830  -0.01360  -0.01047
  46        3PX        -0.02996  -0.25619   0.24206  -0.14025  -0.13354
  47        3PY         0.09476   0.28471   0.08747   0.17651   0.16944
  48        3PZ         0.26557  -0.25699  -0.04831   0.14575  -0.06356
  49        4S          0.00460  -0.00354   0.07204   0.01619   0.02140
  50        4PX        -0.01850  -0.21723   0.23306  -0.11874  -0.11602
  51        4PY         0.09005   0.24215   0.10278   0.16247   0.16026
  52        4PZ         0.22799  -0.22973  -0.03847   0.12773  -0.05577
  53 5   P  1S         -0.00573   0.00206   0.00302  -0.00483   0.00105
  54        2S          0.03236  -0.01094  -0.01724   0.02741  -0.00604
  55        2PX         0.01304  -0.00575  -0.01170  -0.01267  -0.00380
  56        2PY        -0.00610  -0.00396  -0.01227   0.01795  -0.00574
  57        2PZ        -0.04340   0.00833   0.00828  -0.05217   0.00234
  58        3S         -0.03199   0.01728   0.01656  -0.02674   0.00535
  59        3PX        -0.02737   0.00881   0.02396   0.02982   0.00798
  60        3PY         0.01610   0.00748   0.02375  -0.03851   0.01138
  61        3PZ         0.08661  -0.01648  -0.01772   0.10683  -0.00509
  62        4S         -0.08103  -0.00356   0.06482  -0.08414   0.02589
  63        4PX        -0.02278   0.04165   0.01703  -0.01901   0.00563
  64        4PY        -0.00814   0.00218   0.02228   0.00722   0.01020
  65        4PZ         0.05219  -0.00258  -0.02124   0.07977  -0.00630
  66 6   H  1S         -0.02011  -0.00224  -0.00594   0.03595  -0.00346
  67        2S         -0.02542  -0.00331  -0.01253   0.07850  -0.01079
  68 7   H  1S         -0.05201   0.01571   0.00745  -0.07647   0.00280
  69        2S         -0.12547   0.04099  -0.01029  -0.07150  -0.00251
  70 8   H  1S          0.05010  -0.01106  -0.01249   0.02127  -0.00305
  71        2S          0.07373   0.00335  -0.01973   0.01781  -0.00579
                          41        42        43        44        45
                           O         V         V         V         V
     Eigenvalues --    -0.39696   0.00956   0.04869   0.10491   0.14432
   1 1   Al 1S          0.00143   0.04190   0.02820  -0.01241  -0.00027
   2        2S         -0.00717  -0.22214  -0.12903   0.05988   0.04117
   3        2PX         0.00936  -0.02688   0.03538  -0.11498  -0.00850
   4        2PY         0.00669   0.00109   0.02292   0.01883  -0.09681
   5        2PZ        -0.01409   0.08334  -0.16843   0.00503  -0.01724
   6        3S          0.01394   0.34076   0.37852  -0.15076   0.24272
   7        3PX        -0.02705   0.05799  -0.11676   0.32773   0.00594
   8        3PY        -0.01673  -0.00508  -0.06034  -0.04749   0.24040
   9        3PZ         0.03425  -0.19483   0.45810  -0.01436   0.07699
  10        4S          0.01678   0.89005   0.24236  -0.29122  -0.82898
  11        4PX         0.00695   0.15686  -0.03518   0.63860   0.38122
  12        4PY         0.02628  -0.00536  -0.13534  -0.14422   1.21561
  13        4PZ        -0.00433  -0.44734   0.49755  -0.17440  -0.42094
  14 2   Cl 1S         -0.00110  -0.01006  -0.00014   0.00699  -0.00623
  15        2S          0.00680   0.06254   0.00092  -0.04419   0.04008
  16        2PX         0.01507   0.04192   0.01690   0.02959   0.04793
  17        2PY        -0.01594  -0.08045  -0.01759   0.05991  -0.01837
  18        2PZ         0.06563  -0.03176   0.02720   0.00522  -0.01527
  19        3S         -0.00238  -0.06290   0.00452   0.02928   0.00743
  20        3PX        -0.03223  -0.08933  -0.03987  -0.06862  -0.10414
  21        3PY         0.03419   0.17169   0.03730  -0.12961   0.03433
  22        3PZ        -0.14324   0.06768  -0.05519  -0.01240   0.03364
  23        4S         -0.03539  -0.25111  -0.00244   0.27458  -0.41011
  24        4PX        -0.03441  -0.14655  -0.02361  -0.07229  -0.21553
  25        4PY         0.03975   0.28127   0.05587  -0.25395   0.14639
  26        4PZ        -0.13454   0.11328  -0.13024   0.00161   0.06257
  27 3   Cl 1S         -0.00056  -0.01122  -0.00745  -0.00625   0.00306
  28        2S          0.00348   0.06974   0.04645   0.03981  -0.01946
  29        2PX        -0.04073  -0.07726  -0.07165  -0.02590   0.02092
  30        2PY         0.01464   0.01651   0.00389   0.00395   0.06386
  31        2PZ         0.03608  -0.05867   0.03112  -0.01881  -0.00244
  32        3S          0.00048  -0.07297  -0.04624  -0.01009   0.01230
  33        3PX         0.08750   0.16608   0.15370   0.05221  -0.04448
  34        3PY        -0.03144  -0.03524  -0.00891  -0.00777  -0.14413
  35        3PZ        -0.07929   0.12443  -0.06805   0.03725   0.00477
  36        4S         -0.01854  -0.27692  -0.18907  -0.30963   0.15920
  37        4PX         0.08764   0.26550   0.26010   0.16480  -0.13729
  38        4PY        -0.03304  -0.05875  -0.00862  -0.02815  -0.22866
  39        4PZ        -0.07021   0.21788  -0.10457   0.11766   0.01900
  40 4   Cl 1S          0.00217  -0.01083  -0.00271   0.00706   0.01239
  41        2S         -0.01331   0.06737   0.01715  -0.04459  -0.07917
  42        2PX         0.02068   0.06908   0.02918   0.01245  -0.05107
  43        2PY        -0.03125   0.06677   0.01100  -0.07029  -0.00563
  44        2PZ        -0.07311  -0.01439   0.04045  -0.00815  -0.01464
  45        3S          0.01784  -0.06695  -0.00377   0.03249   0.03014
  46        3PX        -0.04491  -0.14739  -0.06387  -0.03030   0.10864
  47        3PY         0.06924  -0.14266  -0.02299   0.15305   0.00464
  48        3PZ         0.16086   0.03065  -0.08478   0.01522   0.03254
  49        4S          0.02917  -0.27903  -0.10825   0.24926   0.70411
  50        4PX        -0.04395  -0.24752  -0.09225  -0.01288   0.29268
  51        4PY         0.06192  -0.24072  -0.04605   0.28474   0.16552
  52        4PZ         0.14874   0.05105  -0.17335   0.06885   0.11088
  53 5   P  1S          0.01963  -0.00428  -0.01707   0.02035   0.01470
  54        2S         -0.11101   0.01987   0.10132  -0.13041  -0.09458
  55        2PX        -0.13115  -0.00249  -0.02806   0.04124  -0.02412
  56        2PY        -0.16273   0.00536   0.03412  -0.00794   0.08164
  57        2PZ        -0.05295  -0.00562   0.01743   0.10513  -0.00446
  58        3S          0.12274  -0.06996  -0.08637   0.03777   0.02764
  59        3PX         0.26479  -0.00036   0.05672  -0.09166   0.02990
  60        3PY         0.33211  -0.00938  -0.05809   0.00708  -0.16138
  61        3PZ         0.10768   0.02053  -0.03406  -0.19002   0.02080
  62        4S          0.32372   0.05547  -0.52424   1.13797   0.91423
  63        4PX         0.33566   0.10528   0.37654  -0.25048   0.50330
  64        4PY         0.34740  -0.03508  -0.28666   0.08839  -0.79805
  65        4PZ         0.05350  -0.10751  -0.32198  -1.12154  -0.14075
  66 6   H  1S         -0.07277  -0.00955  -0.04603  -0.01779  -0.07190
  67        2S         -0.12508  -0.03709  -0.32508  -0.10248  -0.88072
  68 7   H  1S         -0.08644  -0.01364  -0.05198  -0.12923  -0.00620
  69        2S         -0.16792  -0.05700  -0.32842  -1.12373   0.09328
  70 8   H  1S         -0.04249   0.02087   0.12757  -0.01043   0.00020
  71        2S         -0.00658   0.15356   0.82044  -0.04447   0.06280
                          46        47        48        49        50
                           V         V         V         V         V
     Eigenvalues --     0.16412   0.18710   0.22402   0.28119   0.33367
   1 1   Al 1S          0.00663  -0.00154  -0.03284  -0.03441  -0.00082
   2        2S         -0.07751   0.01585   0.14431  -0.02702  -0.00707
   3        2PX        -0.03057  -0.05739   0.08093  -0.05140  -0.03938
   4        2PY        -0.09780   0.00177  -0.02761   0.02095  -0.31561
   5        2PZ        -0.00585  -0.01424  -0.05417  -0.11984   0.00052
   6        3S         -0.19913   0.02495  -0.51843  -1.67879  -0.08409
   7        3PX         0.11464   0.08640  -0.36096   0.25709   0.19128
   8        3PY         0.26215   0.00824   0.09306  -0.07844   1.49769
   9        3PZ        -0.03315   0.01401   0.30575   0.47064  -0.01205
  10        4S          1.05971  -0.14090  -0.52366   2.91470   0.15851
  11        4PX        -0.23757   1.75104   0.71053  -0.64785  -0.24370
  12        4PY         0.93357  -0.23992   0.08084   0.03344  -1.39533
  13        4PZ         0.82096   0.49075  -1.19415   0.37109   0.05479
  14 2   Cl 1S         -0.01651   0.00515   0.00142  -0.00492  -0.00279
  15        2S          0.10462  -0.03362  -0.00908   0.03239   0.01746
  16        2PX         0.02905   0.03636  -0.00588  -0.01142   0.01942
  17        2PY        -0.04048   0.01917   0.01264   0.03759  -0.06560
  18        2PZ         0.02986   0.02643  -0.01337  -0.00333   0.00780
  19        3S         -0.08086  -0.01862   0.00483   0.00404  -0.03718
  20        3PX        -0.05956  -0.07854   0.01742   0.02567  -0.04407
  21        3PY         0.08030  -0.03449  -0.02869  -0.09425   0.14459
  22        3PZ        -0.06422  -0.06227   0.02817   0.01101  -0.02140
  23        4S         -0.71572   0.45481   0.10281  -0.54328   0.23931
  24        4PX        -0.17244  -0.17550  -0.03666   0.01181  -0.04081
  25        4PY         0.33935  -0.22648  -0.05705   0.10021   0.28647
  26        4PZ        -0.16425  -0.06995   0.11078  -0.03664  -0.00641
  27 3   Cl 1S         -0.00434  -0.01492   0.00498  -0.00887  -0.00007
  28        2S          0.02734   0.09544  -0.03135   0.05652   0.00049
  29        2PX        -0.01393  -0.01716   0.05127  -0.00600   0.00323
  30        2PY         0.04730   0.00913  -0.00767   0.00156  -0.00739
  31        2PZ         0.01735  -0.02640   0.00308   0.01677   0.00356
  32        3S         -0.03325  -0.03799   0.03744  -0.06815   0.00068
  33        3PX         0.02921   0.02352  -0.10718   0.00222  -0.00811
  34        3PY        -0.10260  -0.01676   0.01904  -0.00365   0.01339
  35        3PZ        -0.03781   0.06007  -0.01625  -0.04011  -0.00804
  36        4S         -0.13975  -0.87116   0.06587  -0.34672  -0.02944
  37        4PX         0.10382   0.30195  -0.25721   0.24930   0.01193
  38        4PY        -0.21469  -0.08649   0.01050  -0.03036   0.11522
  39        4PZ        -0.08706   0.12367   0.10679  -0.02290  -0.01407
  40 4   Cl 1S          0.00671   0.00613   0.00651  -0.00898   0.00193
  41        2S         -0.04253  -0.03973  -0.04075   0.05739  -0.01177
  42        2PX        -0.03697   0.01761  -0.01416  -0.02765  -0.03635
  43        2PY        -0.01051  -0.03042  -0.01603  -0.02455  -0.05030
  44        2PZ         0.00230   0.02409  -0.02874   0.00507  -0.02021
  45        3S          0.02744  -0.00819   0.06523  -0.06684   0.03816
  46        3PX         0.07702  -0.04152   0.03158   0.06957   0.08159
  47        3PY         0.02079   0.06229   0.03671   0.05985   0.11141
  48        3PZ        -0.00800  -0.05679   0.06433  -0.01176   0.05167
  49        4S          0.25323   0.50523   0.17228  -0.53370  -0.29890
  50        4PX         0.20271  -0.03178   0.04086  -0.03479   0.10652
  51        4PY         0.06267   0.25323   0.07611  -0.08751   0.21701
  52        4PZ        -0.00335  -0.04309   0.16244  -0.07631   0.01719
  53 5   P  1S         -0.01934  -0.00869  -0.01679  -0.00589   0.00262
  54        2S          0.11965   0.05690   0.10374   0.02373  -0.01501
  55        2PX         0.03784   0.02368  -0.05678  -0.00545  -0.00880
  56        2PY        -0.04743  -0.00334  -0.02688   0.02521  -0.01112
  57        2PZ         0.02069  -0.03913   0.04756  -0.01914   0.00394
  58        3S         -0.07569  -0.01376  -0.08213  -0.13516   0.02301
  59        3PX        -0.04683  -0.04402   0.11740   0.03220   0.01594
  60        3PY         0.10314   0.01096   0.05050  -0.03451   0.03534
  61        3PZ        -0.05660   0.06165  -0.08839   0.00821  -0.00939
  62        4S         -0.99678  -0.57749  -0.81062   0.13057   0.05282
  63        4PX        -0.73878  -0.15411   0.74434  -0.32083   0.12101
  64        4PY         0.53195   0.01607   0.44801  -0.49802  -0.03257
  65        4PZ         0.02274   0.88889  -0.66003   0.67805   0.02145
  66 6   H  1S          0.10518  -0.00433   0.06659  -0.09327  -0.01781
  67        2S          1.04615   0.13760   0.77875  -0.70477  -0.28204
  68 7   H  1S         -0.01185   0.08739   0.03587  -0.00112  -0.00104
  69        2S         -0.31855   1.41689   0.51647  -0.27413  -0.03756
  70 8   H  1S          0.00060  -0.01582   0.10058  -0.03253   0.00292
  71        2S         -0.09349  -0.31457   1.31072  -0.52589   0.03715
                          51        52        53        54        55
                           V         V         V         V         V
     Eigenvalues --     0.34305   0.35923   0.54264   0.55487   0.60288
   1 1   Al 1S         -0.01850  -0.00522   0.00626  -0.00045   0.00438
   2        2S         -0.00132   0.04698   0.01840  -0.01174  -0.01732
   3        2PX         0.08648  -0.29463   0.04925   0.00347   0.01560
   4        2PY        -0.00047   0.03827  -0.00674  -0.00605  -0.00748
   5        2PZ         0.25800   0.05929  -0.01599  -0.00568  -0.02265
   6        3S         -0.82530   0.06082   0.42124  -0.10697   0.11930
   7        3PX        -0.39429   1.39172  -0.29188   0.00221  -0.11893
   8        3PY         0.01837  -0.18054   0.03479   0.04015   0.04170
   9        3PZ        -1.23035  -0.24723   0.16872  -0.01981   0.20273
  10        4S          1.20014  -0.60690  -0.46367   0.15703   0.34278
  11        4PX         0.04319  -0.82038   0.45756   0.27861  -0.24109
  12        4PY        -0.02835   0.11925   0.02358  -0.33405  -0.27347
  13        4PZ         1.38055  -0.06998  -0.26372   0.22396  -0.03510
  14 2   Cl 1S         -0.00035   0.00677   0.00423  -0.00846  -0.00402
  15        2S          0.00329  -0.04247  -0.02641   0.05128   0.02467
  16        2PX         0.00218  -0.01400   0.01332  -0.02930  -0.01525
  17        2PY         0.00744   0.02808   0.00281  -0.01027   0.00388
  18        2PZ        -0.00596  -0.00949   0.01630   0.06478   0.02766
  19        3S          0.03827   0.08690   0.07667  -0.21159  -0.09431
  20        3PX        -0.00618   0.03005  -0.03578   0.09211   0.04978
  21        3PY        -0.02341  -0.05787  -0.01027   0.02646  -0.01815
  22        3PZ         0.02270   0.02502  -0.05955  -0.19443  -0.09184
  23        4S         -0.21307   0.02450   0.05103   0.28384   0.08271
  24        4PX        -0.02423   0.11183  -0.03286  -0.04728  -0.02140
  25        4PY         0.08690  -0.17911  -0.01822  -0.00656   0.06004
  26        4PZ        -0.11402   0.01771   0.09927   0.03606   0.07599
  27 3   Cl 1S         -0.00058  -0.00278   0.00893  -0.00259   0.00187
  28        2S          0.00393   0.01740  -0.05466   0.01686  -0.01149
  29        2PX         0.04000  -0.05378   0.03158   0.02549  -0.00665
  30        2PY        -0.00675   0.01182   0.00722  -0.00866  -0.02068
  31        2PZ         0.03270  -0.01810  -0.04236  -0.05052   0.01568
  32        3S          0.00095  -0.03671   0.21128  -0.01957   0.04470
  33        3PX        -0.09134   0.11977  -0.09282  -0.08367   0.01933
  34        3PY         0.01315  -0.02711  -0.02349   0.02494   0.06451
  35        3PZ        -0.07630   0.03760   0.13174   0.16276  -0.05153
  36        4S         -0.24088   0.21285  -0.20423  -0.16976  -0.02164
  37        4PX        -0.07593   0.22154  -0.00912   0.11265   0.00166
  38        4PY         0.02764  -0.04096   0.01456   0.00694  -0.01011
  39        4PZ        -0.15320   0.07953  -0.04598  -0.10124   0.03562
  40 4   Cl 1S         -0.00502   0.00591  -0.00302  -0.00050   0.01076
  41        2S          0.03213  -0.03703   0.01773   0.00330  -0.06519
  42        2PX         0.00341  -0.02544  -0.00838   0.00486   0.04262
  43        2PY         0.01265  -0.01556  -0.01118   0.00158  -0.00830
  44        2PZ         0.00909  -0.01236   0.05062  -0.00919  -0.07944
  45        3S         -0.04107   0.08004  -0.10042  -0.00056   0.28085
  46        3PX        -0.00131   0.05543   0.03361  -0.01427  -0.13569
  47        3PY        -0.02793   0.02886   0.03769  -0.00672   0.02295
  48        3PZ        -0.01596   0.03117  -0.16289   0.03305   0.24321
  49        4S         -0.15203  -0.00183   0.23906  -0.04174  -0.39341
  50        4PX        -0.09891   0.16687  -0.05492  -0.02092   0.04385
  51        4PY        -0.10462   0.11203   0.00497   0.02254  -0.02421
  52        4PZ        -0.15706   0.03049   0.13636  -0.05852  -0.08026
  53 5   P  1S          0.00072  -0.01142  -0.03250   0.00546  -0.00552
  54        2S          0.00100   0.06927   0.08231  -0.01105   0.02311
  55        2PX        -0.06610  -0.09453  -0.18816  -0.17320   0.11051
  56        2PY         0.02017   0.00064  -0.05943   0.23245   0.20485
  57        2PZ         0.08449   0.06206   0.10708  -0.13953   0.23622
  58        3S          0.04622  -0.07993  -1.21096   0.22813  -0.12084
  59        3PX         0.16789   0.24546   0.74019   0.65455  -0.37602
  60        3PY        -0.03593  -0.00151   0.22829  -0.87653  -0.76164
  61        3PZ        -0.22145  -0.17917  -0.42057   0.51795  -0.91299
  62        4S         -0.45989  -0.86145   2.18666  -0.43977   0.21046
  63        4PX         0.35614   0.75756  -1.06514  -0.64362   0.06904
  64        4PY        -0.43585  -0.05300  -0.34230   0.88292   0.74118
  65        4PZ        -0.15330   0.06449   0.34731  -0.37927   1.01901
  66 6   H  1S         -0.04232   0.02604  -0.06710   0.18133   0.02810
  67        2S         -0.71353   0.00421  -0.26189  -0.07312  -0.01675
  68 7   H  1S          0.01395   0.08681  -0.07215  -0.07314   0.03873
  69        2S         -0.19509   0.85685  -0.44801   0.23886  -0.26339
  70 8   H  1S          0.02890   0.00763  -0.24684  -0.01910  -0.08893
  71        2S          0.59228   0.95729  -0.48416   0.04827  -0.21821
                          56        57        58        59        60
                           V         V         V         V         V
     Eigenvalues --     0.70080   0.73826   0.74072   0.80172   0.83328
   1 1   Al 1S         -0.00657  -0.00192   0.00114   0.00048  -0.00164
   2        2S          0.05803   0.00922   0.00283  -0.09669  -0.00036
   3        2PX        -0.01443   0.00526   0.02327   0.01509  -0.00076
   4        2PY        -0.00812   0.00316  -0.00522   0.00038   0.00927
   5        2PZ         0.04077   0.01541  -0.00025  -0.02076   0.00968
   6        3S          0.00365  -0.04714   0.06894  -0.64283  -0.08480
   7        3PX         0.11603   0.00336  -0.07784  -0.08874   0.00066
   8        3PY         0.06389   0.03034   0.00533  -0.00279   0.05963
   9        3PZ        -0.32928  -0.09784   0.00146   0.13424  -0.06402
  10        4S         -1.29281  -0.22873  -0.14263   1.26271   0.04283
  11        4PX         0.30743  -0.00185  -0.11397  -0.22233  -0.03510
  12        4PY        -0.04326  -0.10462   0.05535  -0.00883   0.05331
  13        4PZ        -0.70463  -0.17546  -0.17133   0.54513   0.06808
  14 2   Cl 1S          0.01178  -0.02293   0.03147   0.02125  -0.00580
  15        2S         -0.07338   0.13975  -0.19222  -0.12917   0.03570
  16        2PX         0.01347  -0.11238  -0.06885   0.08419  -0.11807
  17        2PY        -0.03627   0.01467  -0.10943  -0.14993   0.07609
  18        2PZ         0.07798  -0.06156  -0.00761  -0.01165   0.22211
  19        3S          0.26046  -0.63230   0.85517   0.60678  -0.15907
  20        3PX        -0.04854   0.38502   0.23575  -0.29550   0.41686
  21        3PY         0.12566  -0.05012   0.37359   0.52781  -0.26409
  22        3PZ        -0.26140   0.21058   0.02589   0.04111  -0.78758
  23        4S         -0.01012   0.67896  -0.85066  -0.77999   0.13374
  24        4PX         0.06932  -0.33584  -0.20739   0.28425  -0.42744
  25        4PY        -0.20119   0.02409  -0.31590  -0.46738   0.26006
  26        4PZ         0.25130  -0.17410  -0.01427  -0.07810   0.80978
  27 3   Cl 1S          0.01863  -0.00813  -0.03803   0.01632   0.00009
  28        2S         -0.11532   0.04918   0.23186  -0.09917  -0.00071
  29        2PX        -0.08633  -0.02236   0.09934  -0.13928   0.00683
  30        2PY         0.03298  -0.14771   0.02151   0.04876   0.06067
  31        2PZ         0.05010   0.01278   0.05982  -0.03660  -0.09343
  32        3S          0.42839  -0.24256  -1.05434   0.47042  -0.00424
  33        3PX         0.30541   0.08120  -0.33896   0.49012  -0.02287
  34        3PY        -0.11498   0.50676  -0.07469  -0.17166  -0.21374
  35        3PZ        -0.17426  -0.04450  -0.20624   0.13462   0.33198
  36        4S         -0.19643   0.30224   1.12324  -0.62038   0.01539
  37        4PX        -0.41310  -0.12172   0.25701  -0.42908   0.01155
  38        4PY         0.13019  -0.44402   0.07719   0.16307   0.20914
  39        4PZ         0.19642   0.04689   0.18689  -0.18473  -0.35119
  40 4   Cl 1S         -0.00271   0.04163   0.01004   0.01736   0.00446
  41        2S          0.01529  -0.25443  -0.06123  -0.10554  -0.02734
  42        2PX        -0.00259   0.07876  -0.10050   0.11953   0.07243
  43        2PY         0.01941   0.07006   0.12118   0.12361   0.08911
  44        2PZ         0.04328   0.09807  -0.04989  -0.00020  -0.14157
  45        3S         -0.12068   1.12685   0.27870   0.49521   0.12973
  46        3PX         0.00535  -0.27217   0.34737  -0.42115  -0.25741
  47        3PY        -0.07125  -0.24194  -0.41529  -0.43657  -0.31287
  48        3PZ        -0.14514  -0.33516   0.17193  -0.00073   0.50698
  49        4S          0.31895  -1.10561  -0.28468  -0.65701  -0.13305
  50        4PX         0.04729   0.25052  -0.32436   0.39813   0.27663
  51        4PY         0.15179   0.22438   0.36162   0.39927   0.30866
  52        4PZ         0.16593   0.29790  -0.15021  -0.03476  -0.55288
  53 5   P  1S         -0.04537  -0.00892  -0.00764   0.01782  -0.00046
  54        2S          0.13055   0.01492   0.01522  -0.04566  -0.00341
  55        2PX         0.11656  -0.00189   0.00950  -0.05652   0.00739
  56        2PY         0.07182  -0.01307   0.00824  -0.00779  -0.09206
  57        2PZ        -0.13210  -0.04170  -0.00617   0.01985  -0.00086
  58        3S         -1.57823  -0.40679  -0.32467   0.67533  -0.05575
  59        3PX        -0.49716  -0.00961  -0.02762   0.25867  -0.03942
  60        3PY        -0.26604   0.06876  -0.03549   0.03235   0.39338
  61        3PZ         0.56880   0.17128   0.03502  -0.12431   0.01714
  62        4S          2.51427   0.76469   0.65602  -1.17763   0.17626
  63        4PX         0.94764   0.12595  -0.03751  -0.62487   0.12972
  64        4PY         0.06254  -0.20417   0.02798   0.01915  -0.65069
  65        4PZ        -1.16800  -0.30519  -0.21812   0.51111  -0.05544
  66 6   H  1S         -0.02537  -0.10965   0.03144  -0.00823  -0.02153
  67        2S         -0.41599  -0.17542  -0.06973   0.13593  -0.22551
  68 7   H  1S         -0.01376  -0.02309  -0.04667   0.02048  -0.03119
  69        2S         -0.13393  -0.10663  -0.29013  -0.10162  -0.02036
  70 8   H  1S          0.10049  -0.01077  -0.04158  -0.09374   0.04680
  71        2S          0.05899  -0.02468  -0.06754  -0.11034  -0.01273
                          61        62        63        64        65
                           V         V         V         V         V
     Eigenvalues --     0.83560   0.84561   0.87870   0.88353   0.92282
   1 1   Al 1S          0.00102  -0.00037  -0.00081   0.00174  -0.00581
   2        2S          0.02074   0.00356  -0.00179  -0.00040   0.04197
   3        2PX        -0.00082  -0.00210  -0.00928   0.00798  -0.00565
   4        2PY         0.00329   0.00058  -0.00998  -0.01164  -0.00265
   5        2PZ         0.00008   0.00240  -0.00201  -0.00828   0.02451
   6        3S          0.19059   0.00431  -0.05098   0.08557  -0.05564
   7        3PX         0.08368   0.04280   0.31643  -0.20633   0.08155
   8        3PY         0.01998  -0.02893   0.20897   0.33554   0.01367
   9        3PZ         0.03069  -0.00896   0.10701   0.01988  -0.20735
  10        4S         -0.33301  -0.05377   0.05636  -0.02533  -0.81437
  11        4PX         0.21214  -0.02080  -0.39764   0.20601   0.01089
  12        4PY         0.00914   0.01685  -0.18041  -0.39078   0.02968
  13        4PZ        -0.16022  -0.04110  -0.07069   0.04038   0.35990
  14 2   Cl 1S         -0.00353   0.00048   0.00140   0.00457  -0.00780
  15        2S          0.02126  -0.00309  -0.00833  -0.02761   0.04665
[...]
      6        1          -0.000012223   -0.000002289   -0.000008270
      7        1          -0.000014767   -0.000006548    0.000005133
      8        1           0.000001775   -0.000003040   -0.000007352
 -------------------------------------------------------------------
 Cartesian Forces:  Max     0.000024791 RMS     0.000009244
 FormGI is forming the generalized inverse of G from B-inverse, IUseBI=4.

 GradGradGradGradGradGradGradGradGradGradGradGradGradGradGradGradGradGrad
 Berny optimization.
 Internal  Forces:  Max     0.000015048 RMS     0.000007561
 Search for a local minimum.
 Step number   1 out of a maximum of    2
 All quantities printed in internal units (Hartrees-Bohrs-Radians)
 Second derivative matrix not updated -- analytic derivatives used.
 ITU=  0
     Eigenvalues ---    0.00094   0.02005   0.02006   0.04175   0.04176
     Eigenvalues ---    0.04820   0.07402   0.07403   0.10230   0.10899
     Eigenvalues ---    0.10900   0.15902   0.15903   0.16399   0.19517
     Eigenvalues ---    0.23740   0.23744   0.24151
 Angle between quadratic step and forces=  75.84 degrees.
 Linear search not attempted -- first point.
 Iteration  1 RMS(Cart)=  0.00067021 RMS(Int)=  0.00000021
 Iteration  2 RMS(Cart)=  0.00000022 RMS(Int)=  0.00000001
 Variable       Old X    -DE/DX   Delta X   Delta X   Delta X     New X
                                 (Linear)    (Quad)   (Total)
    R1        4.14874   0.00001   0.00000   0.00007   0.00007   4.14881
    R2        4.14875   0.00001   0.00000   0.00006   0.00006   4.14881
    R3        4.14878   0.00001   0.00000   0.00002   0.00002   4.14881
    R4        4.80302  -0.00001   0.00000  -0.00009  -0.00009   4.80292
    R5        2.64910  -0.00000   0.00000  -0.00001  -0.00001   2.64910
    R6        2.64916  -0.00002   0.00000  -0.00006  -0.00006   2.64910
    R7        2.64907   0.00000   0.00000   0.00002   0.00002   2.64910
    A1        2.03758  -0.00000   0.00000  -0.00014  -0.00014   2.03745
    A2        2.03723   0.00001   0.00000   0.00021   0.00021   2.03745
    A3        1.75478  -0.00001   0.00000  -0.00019  -0.00019   1.75459
    A4        2.03748   0.00000   0.00000  -0.00003  -0.00003   2.03745
    A5        1.75449   0.00000   0.00000   0.00010   0.00010   1.75459
    A6        1.75458  -0.00001   0.00000   0.00001   0.00001   1.75459
    A7        2.01265   0.00001   0.00000   0.00026   0.00026   2.01290
    A8        2.01301  -0.00001   0.00000  -0.00011  -0.00011   2.01290
    A9        2.01298   0.00001   0.00000  -0.00008  -0.00008   2.01291
   A10        1.79806   0.00001   0.00000   0.00012   0.00012   1.79817
   A11        1.79832  -0.00001   0.00000  -0.00015  -0.00015   1.79817
   A12        1.79823  -0.00000   0.00000  -0.00005  -0.00005   1.79817
    D1        3.14044   0.00001   0.00000   0.00115   0.00115  -3.14159
    D2        1.04633   0.00000   0.00000   0.00087   0.00087   1.04720
    D3       -1.04829   0.00000   0.00000   0.00109   0.00109  -1.04720
    D4       -1.04818   0.00000   0.00000   0.00098   0.00098  -1.04720
    D5        3.14090  -0.00001   0.00000   0.00069   0.00069  -3.14159
    D6        1.04628  -0.00000   0.00000   0.00092   0.00092   1.04720
    D7        1.04622   0.00000   0.00000   0.00098   0.00098   1.04720
    D8       -1.04789  -0.00001   0.00000   0.00070   0.00070  -1.04720
    D9        3.14067  -0.00000   0.00000   0.00092   0.00092  -3.14159
         Item               Value     Threshold  Converged?
 Maximum Force            0.000015     0.000450     YES
 RMS     Force            0.000008     0.000300     YES
 Maximum Displacement     0.001679     0.001800     YES
 RMS     Displacement     0.000670     0.001200     YES
 Predicted change in Energy=-1.395153D-08
 Optimization completed.
    -- Stationary point found.
                           ----------------------------
                           !   Optimized Parameters   !
                           ! (Angstroms and Degrees)  !
 --------------------------                            --------------------------
 ! Name  Definition              Value          Derivative Info.                !
 --------------------------------------------------------------------------------
 ! R1    R(1,2)                  2.1954         -DE/DX =    0.0                 !
 ! R2    R(1,3)                  2.1954         -DE/DX =    0.0                 !
 ! R3    R(1,4)                  2.1954         -DE/DX =    0.0                 !
 ! R4    R(1,5)                  2.5416         -DE/DX =    0.0                 !
 ! R5    R(5,6)                  1.4018         -DE/DX =    0.0                 !
 ! R6    R(5,7)                  1.4019         -DE/DX =    0.0                 !
 ! R7    R(5,8)                  1.4018         -DE/DX =    0.0                 !
 ! A1    A(2,1,3)              116.7449         -DE/DX =    0.0                 !
 ! A2    A(2,1,4)              116.7248         -DE/DX =    0.0                 !
 ! A3    A(2,1,5)              100.5414         -DE/DX =    0.0                 !
 ! A4    A(3,1,4)              116.7388         -DE/DX =    0.0                 !
 ! A5    A(3,1,5)              100.525          -DE/DX =    0.0                 !
 ! A6    A(4,1,5)              100.5302         -DE/DX =    0.0                 !
 ! A7    A(1,5,6)              115.3161         -DE/DX =    0.0                 !
 ! A8    A(1,5,7)              115.337          -DE/DX =    0.0                 !
 ! A9    A(1,5,8)              115.3355         -DE/DX =    0.0                 !
 ! A10   A(6,5,7)              103.0211         -DE/DX =    0.0                 !
 ! A11   A(6,5,8)              103.0362         -DE/DX =    0.0                 !
 ! A12   A(7,5,8)              103.0308         -DE/DX =    0.0                 !
 ! D1    D(2,1,5,6)           -180.066          -DE/DX =    0.0                 !
 ! D2    D(2,1,5,7)             59.9503         -DE/DX =    0.0                 !
 ! D3    D(2,1,5,8)            -60.0627         -DE/DX =    0.0                 !
 ! D4    D(3,1,5,6)            -60.056          -DE/DX =    0.0                 !
 ! D5    D(3,1,5,7)           -180.0397         -DE/DX =    0.0                 !
 ! D6    D(3,1,5,8)             59.9473         -DE/DX =    0.0                 !
 ! D7    D(4,1,5,6)             59.9438         -DE/DX =    0.0                 !
 ! D8    D(4,1,5,7)            -60.0399         -DE/DX =    0.0                 !
 ! D9    D(4,1,5,8)           -180.0529         -DE/DX =    0.0                 !
 --------------------------------------------------------------------------------
 GradGradGradGradGradGradGradGradGradGradGradGradGradGradGradGradGradGrad


 ----------------------------------------------------------------------

 Electric dipole moment (input orientation):
 (Debye = 10**-18 statcoulomb cm , SI units = C m)
                  (au)            (Debye)         (10**-30 SI)
   Tot        0.294176D+01      0.747721D+01      0.249413D+02
   x          0.828804D+00      0.210661D+01      0.702689D+01
   y          0.284320D+00      0.722668D+00      0.241056D+01
   z         -0.280824D+01     -0.713783D+01     -0.238092D+02

 Dipole polarizability, Alpha (input orientation).
 (esu units = cm**3 , SI units = C**2 m**2 J**-1)
 Alpha(0;0):
               (au)            (10**-24 esu)      (10**-40 SI)
   iso        0.601121D+02      0.890770D+01      0.991115D+01
   aniso      0.102328D+02      0.151634D+01      0.168716D+01
   xx         0.627088D+02      0.929248D+01      0.103393D+02
   yx        -0.277088D+00     -0.410601D-01     -0.456856D-01
   yy         0.634283D+02      0.939910D+01      0.104579D+02
   zx         0.275295D+01      0.407945D+00      0.453901D+00
   zy         0.947230D+00      0.140365D+00      0.156177D+00
   zz         0.541993D+02      0.803150D+01      0.893625D+01

 First dipole hyperpolarizability, Beta (input orientation).
 ||, _|_  parallel and perpendicular components, (z) with respect to z axis,
 vector components x,y,z.  Values do not include the 1/n! factor of 1/2.
 (esu units = statvolt**-1 cm**4 , SI units = C**3 m**3 J**-2)
 Beta(0;0,0):
               (au)            (10**-30 esu)      (10**-50 SI)
   || (z)    -0.763097D+02     -0.659256D+00     -0.244676D+00
   _|_(z)    -0.254366D+02     -0.219752D+00     -0.815588D-01
   x          0.112404D+03      0.971080D+00      0.360407D+00
   y          0.386968D+02      0.334310D+00      0.124076D+00
   z         -0.381548D+03     -0.329628D+01     -0.122338D+01
   ||         0.799278D+02      0.690514D+00      0.256277D+00
   xxx       -0.209283D+01     -0.180804D-01     -0.671036D-02
   xxy        0.221122D+02      0.191032D+00      0.708998D-01
   yxy        0.822313D+02      0.710414D+00      0.263663D+00
   yyy       -0.758520D+00     -0.655302D-02     -0.243209D-02
   xxz       -0.678675D+02     -0.586322D+00     -0.217608D+00
   yxz        0.173085D+02      0.149532D+00      0.554972D-01
   yyz       -0.516400D+02     -0.446129D+00     -0.165576D+00
   zxz       -0.426706D+02     -0.368640D+00     -0.136817D+00
   zyz       -0.845477D+01     -0.730426D-01     -0.271090D-01
   zzz       -0.767533D+01     -0.663089D-01     -0.246099D-01

 ----------------------------------------------------------------------

 Dipole orientation:
    13         -0.99113603         -0.07952644          0.76057890
    17         -2.68358538         -3.79055100          0.00167243
    17         -3.35848248          3.24223959          0.00319635
    17          3.06906122          0.30973771          0.00184013
    15         -0.99048497         -0.07970625          5.56359584
     1          0.00578471          2.09793023          6.69633155
     1          0.39788072         -2.03056058          6.69701996
     1         -3.37389257         -0.30602489          6.69749464

 Electric dipole moment (dipole orientation):
 (Debye = 10**-18 statcoulomb cm , SI units = C m)
                  (au)            (Debye)         (10**-30 SI)
   Tot        0.294176D+01      0.747721D+01      0.249413D+02
   x          0.000000D+00      0.000000D+00      0.000000D+00
   y          0.000000D+00      0.000000D+00      0.000000D+00
   z          0.294176D+01      0.747721D+01      0.249413D+02

 Dipole polarizability, Alpha (dipole orientation).
 (esu units = cm**3 , SI units = C**2 m**2 J**-1)
 Alpha(0;0):
               (au)            (10**-24 esu)      (10**-40 SI)
   iso        0.601121D+02      0.890770D+01      0.991115D+01
   aniso      0.102328D+02      0.151634D+01      0.168716D+01
   xx         0.635217D+02      0.941294D+01      0.104733D+02
   yx        -0.247487D-02     -0.366738D-03     -0.408051D-03
   yy         0.635244D+02      0.941335D+01      0.104738D+02
   zx        -0.131634D-02     -0.195061D-03     -0.217034D-03
   zy         0.249704D-02      0.370023D-03      0.411706D-03
   zz         0.532902D+02      0.789680D+01      0.878637D+01

 First dipole hyperpolarizability, Beta (dipole orientation).
 ||, _|_  parallel and perpendicular components, (z) with respect to z axis,
 vector components x,y,z.  Values do not include the 1/n! factor of 1/2.
 (esu units = statvolt**-1 cm**4 , SI units = C**3 m**3 J**-2)
 Beta(0;0,0):
               (au)            (10**-30 esu)      (10**-50 SI)
   || (z)     0.799278D+02      0.690514D+00      0.256277D+00
   _|_(z)     0.266426D+02      0.230171D+00      0.854258D-01
   x         -0.196583D+00     -0.169833D-02     -0.630318D-03
   y         -0.695192D-01     -0.600592D-03     -0.222904D-03
   z          0.399639D+03      0.345257D+01      0.128139D+01
   ||         0.799278D+02      0.690514D+00      0.256277D+00
   xxx       -0.657424D+02     -0.567963D+00     -0.210794D+00
   xxy       -0.193454D+02     -0.167129D+00     -0.620283D-01
   yxy        0.657256D+02      0.567818D+00      0.210740D+00
   yyy        0.193380D+02      0.167065D+00      0.620047D-01
   xxz        0.732213D+02      0.632575D+00      0.234774D+00
   yxz       -0.778912D-02     -0.672920D-04     -0.249747D-04
   yyz        0.731945D+02      0.632343D+00      0.234688D+00
   zxz       -0.487012D-01     -0.420741D-03     -0.156154D-03
   zyz       -0.157952D-01     -0.136459D-03     -0.506452D-04
   zzz       -0.132028D+02     -0.114062D+00     -0.423331D-01

 ----------------------------------------------------------------------
 1\1\GINC-IISERK51\Freq\RHF\3-21G\Al1Cl3H3P1\GAUSSIAN\17-Jun-2025\0\\#N
  Geom=AllCheck Guess=TCheck SCRF=Check GenChk RHF/3-21G Freq\\Title Ca
 rd Required\\0,1\Al,-0.3903797195,0.0880886905,-0.5279131076\Cl,-1.390
 1174267,2.0161560016,-0.2070713389\Cl,-1.6806814121,-1.6825976698,-0.6
 681509054\Cl,1.5606818726,-0.1856538068,0.4407923216\P,0.3260265684,0.
 3338274718,-2.9540921253\H,1.0167522429,-0.7624320579,-3.4891450108\H,
 1.1854819414,1.4089751425,-3.2198851167\H,-0.7166163369,0.5285811681,-
 3.8706557469\\Version=EM64L-G16RevB.01\State=1-A\HF=-1953.4440579\RMSD
 =1.504e-09\RMSF=9.244e-06\ZeroPoint=0.0329512\Thermal=0.0416782\Dipole
 =0.8288038,0.2843196,-2.8082374\DipoleDeriv=1.8921605,0.0075359,-0.074
 4128,0.0075239,1.8728115,-0.025427,-0.0744247,-0.0254651,2.122195,-0.6
 442525,0.1280584,0.0750182,0.1534884,-0.8085484,-0.1123933,0.0408345,-
 0.0382575,-0.6271544,-0.6935467,-0.1645282,0.0516321,-0.1793619,-0.783
 2593,0.0562852,0.0012332,-0.0112386,-0.6032179,-0.8033278,0.0430061,-0
 .1914576,0.0324486,-0.5662119,0.0338397,-0.1068506,0.0271777,-0.710484
 5,0.2881498,-0.0044346,0.0446866,-0.0045353,0.2998094,0.0153364,0.0446
 81,0.0153891,0.1502109,-0.0327931,0.0034542,0.0163909,-0.0282153,0.015
 072,0.0273677,0.0592443,-0.0652047,-0.1107065,-0.0295377,-0.0012834,0.
 0136954,0.0173318,-0.003058,-0.0023585,0.0765431,0.0820517,-0.095847,0
 .0231474,-0.0118083,0.064447,0.0013199,-0.0266152,0.0073498,-0.0412608
 ,0.0155474,-0.1249956\Polar=62.7087764,-0.2770876,63.4282786,2.7529526
 ,0.9472298,54.1992776\PolarDeriv=-0.4568806,0.1887396,0.0890082,-0.817
 9572,-0.0493598,0.8742693,0.0319341,0.5455462,-0.2012623,-0.0495771,-0
 .2698688,0.3444282,0.7280466,-0.04896,1.2762975,1.331204,0.499344,-3.7
 274591,-5.4778198,5.0516048,-1.1341097,1.1874712,-0.1599478,-0.9200463
 ,1.4867722,-3.1936626,11.164097,-0.4633255,1.8160727,1.1011067,-0.2464
 132,-0.2631534,0.69838,-2.6466201,3.8473869,3.0085994,-7.2865925,-4.96
 59391,-1.3401534,0.0294343,0.1493445,-0.9943174,-1.5244545,-4.0293562,
 -10.3878779,0.3336491,0.1962706,-0.9419092,-0.5483281,0.1689221,-0.232
 7025,-3.0648463,-3.5820867,0.923913,10.8035644,-0.8800406,1.1452279,3.
 8793426,-0.1910899,1.7447998,-0.3373213,4.6716797,-1.4177884,-0.071447
 4,2.4946702,-0.3299187,1.7507207,-0.1074137,-0.0990398,4.3192224,-0.85
 43734,6.4679556,-2.0005132,-0.7466312,-2.4396485,3.9541561,-0.4969775,
 1.4248915,-0.663638,-2.6828553,-0.7111522,-0.4974923,3.8350671,0.34222
 84,3.1357008,-0.4978168,3.0160486,1.1810596,0.2617119,4.0492619,4.5502
 487,-3.5313931,1.5943469,-2.3865283,1.4206424,0.7438762,-1.2845454,3.1
 123321,-7.0444283,1.2939112,-3.1900369,-1.8329023,-1.6006126,1.1374795
 ,-1.8666222,2.2243291,-4.5033151,-2.9139294,5.9813892,4.0914501,2.2001
 357,-1.8367254,-1.180377,0.2950255,1.9613256,3.951754,7.4814794,-1.078
 8402,-2.3024209,0.7956044,-1.5166003,-0.8603572,-1.7147443,2.2937098,3
 .4324011,-0.6213933,-6.1133963,0.7922094,-0.114807,-4.0091933,0.507765
 1,-3.1684987,0.3299273,-2.375438,1.1169327,0.5331221,-2.5797539,0.5213
 624,-1.7025139,0.4712995,-1.0776174,-5.6380584,0.8989312,-7.1869481\Hy
 perPolar=-2.092827,22.1122239,82.2312671,-0.7585199,-67.8675099,17.308
 4742,-51.6399591,-42.670564,-8.4547678,-7.6753319\Quadrupole=-4.490893
 9,-5.7319647,10.2228586,0.4815165,-4.7597384,-1.6349591\PG=C01 [X(Al1C
 l3H3P1)]\NImag=0\\0.21386814,-0.00376560,0.22360687,0.03724662,0.01282
 015,0.09872047,-0.03645634,0.05230877,0.00828988,0.04064073,0.05124708
 ,-0.10955706,-0.01476193,-0.05840313,0.12083802,0.00972307,-0.01786511
 ,-0.01379071,-0.01069759,0.02117946,0.01271218,-0.05434562,-0.06177776
 ,-0.00556109,0.00162962,0.00174899,0.00006420,0.06079725,-0.06115601,-
 0.09382503,-0.00808874,-0.00311150,-0.00733181,-0.00028721,0.06927305,
 0.10440023,-0.00345235,-0.00526211,-0.01163198,-0.00068853,-0.00216053
 ,0.00247660,0.00412181,0.00522143,0.00899183,-0.11213426,0.01409028,-0
 .04845664,-0.00398178,0.00270661,-0.00304841,-0.00516354,-0.00122106,-
 0.00391623,0.12239086,0.01453188,-0.01150346,0.00712499,0.00592700,-0.
 00152777,0.00225354,-0.00512293,0.00016479,-0.00237436,-0.01619336,0.0
 1232791,-0.05199877,0.00740248,-0.03615342,-0.00008182,-0.00066727,0.0
 0227705,-0.00141240,0.00011666,0.00177159,0.05919428,-0.00831129,0.039
 46372,-0.01164562,-0.00118681,0.01174079,-0.00192375,0.00207053,0.0036
 5252,-0.00294873,-0.00318911,0.00387077,-0.00207815,0.00108535,-0.0072
 2019,0.33116879,-0.00118729,-0.00858556,0.00402063,0.00368084,-0.00316
 837,-0.00611118,-0.00413288,-0.00379628,0.00496321,0.00041600,0.000091
 37,0.00125420,-0.00209873,0.33644774,0.01173902,0.00402732,-0.04793281
 ,0.00147451,-0.00139946,-0.00213957,0.00067176,0.00067263,-0.00049675,
 -0.00184377,0.00083304,-0.00525225,0.02050591,0.00699630,0.26784332,-0
 .00097063,0.00185384,-0.00119910,0.00002046,0.00024141,0.00061360,0.00
 015509,-0.00027522,-0.00021227,0.00026125,-0.00023827,0.00010828,-0.07
 876776,0.07743713,0.03538419,0.08000432,-0.00048837,0.00097066,-0.0005
 9345,-0.00025216,0.00044232,0.00060393,0.00007586,0.00003670,-0.000135
 01,0.00002342,0.00000719,-0.00002069,0.07121963,-0.14373614,-0.0553169
 1,-0.08096114,0.15808919,0.00196921,-0.00743956,0.00378403,0.00128191,
 -0.00084144,-0.00227249,-0.00021008,0.00093712,0.00036570,-0.00071972,
 0.00069629,0.00029128,0.04378960,-0.07347776,-0.05935928,-0.03700248,0
 .06309446,0.05261881,-0.00116663,-0.00132293,-0.00155742,0.00019229,0.
 00030805,-0.00012150,-0.00000573,-0.00032061,0.00049586,0.00030095,0.0
 0017170,0.00015851,-0.10444977,-0.09276116,0.02061518,0.00779167,0.009
 00852,-0.00215961,0.10788103,0.00004914,-0.00054974,-0.00031044,-0.000
 01152,0.00020077,0.00012469,-0.00003001,0.00028591,-0.00005365,0.00013
 355,0.00013349,-0.00003297,-0.08911783,-0.14260631,0.02650408,-0.01142
 318,-0.01362519,0.00409155,0.09825752,0.15306253,0.00308669,0.00592284
 ,0.00550704,-0.00036843,-0.00092713,0.00016485,0.00147845,0.00126484,-
 0.00208889,-0.00081013,-0.00061031,0.00012178,0.03294410,0.04305666,-0
 .03477916,-0.00554886,-0.00690447,-0.00014181,-0.02191125,-0.02944813,
 0.02974007,0.00285097,-0.00019978,-0.00050303,-0.00012123,0.00008046,-
 0.00018588,-0.00011834,0.00000046,-0.00021907,0.00040467,-0.00016138,0
 .00125210,-0.12935500,0.01864609,-0.08854681,-0.00849440,0.00137423,-0
 .00694883,-0.01054382,0.00214234,-0.00887058,0.14537714,0.00076916,-0.
 00055667,-0.00021121,-0.00013829,0.00010389,0.00010187,-0.00003433,0.0
 0006549,-0.00019897,0.00004456,0.00030648,0.00025888,0.02121697,-0.034
 64644,0.01768300,0.01336544,-0.00218473,0.01293933,-0.01334109,0.00309
 855,-0.01235430,-0.02188242,0.03381343,-0.00831350,0.00039398,0.001497
 38,0.00079007,-0.00042171,0.00057210,0.00084736,0.00016326,0.00061190,
 -0.00039939,0.00038812,-0.00251976,-0.10928351,0.01929794,-0.11788349,
 0.00785663,-0.00072786,0.00471376,0.00448023,-0.00087514,0.00147613,0.
 10402211,-0.01821860,0.11153198\\-0.00001058,-0.00000775,0.00000033,0.
 00001017,-0.00000506,0.00000480,0.00000647,0.00000641,-0.00000012,-0.0
 0000649,0.00000547,0.00000063,-0.00002479,-0.00001094,-0.00001612,0.00
 001222,0.00000229,0.00000827,0.00001477,0.00000655,-0.00000513,-0.0000
 0177,0.00000304,0.00000735\\\@


 ARTHROPOD AXIOM: A COMPUTER SYSTEM IS LIKE A SPIDER'S WEB.
 YOU CANNOT PULL ON ONE END WITHOUT MAKING THE OTHER END MOVE.
     -- GREG WETTSTEIN
 Job cpu time:       0 days  0 hours  0 minutes  2.0 seconds.
 Elapsed time:       0 days  0 hours  0 minutes  2.0 seconds.
 File lengths (MBytes):  RWF=     11 Int=      0 D2E=      0 Chk=      2 Scr=      1
 Normal termination of Gaussian 16 at Tue Jun 17 15:11:52 2025.
