 Entering Gaussian System, Link 0=g16
 Input=/home/gaussian/Documents/Summer_Internship/Acid_Base_adduct/Base/NF3/nf3_opt.com
 Output=/home/gaussian/Documents/Summer_Internship/Acid_Base_adduct/Base/NF3/nf3_opt.log
 Initial command:
 /usr/local/g16/l1.exe "/home/gaussian/tmp/Gau-28201.inp" -scrdir="/home/gaussian/tmp/"
 Entering Link 1 = /usr/local/g16/l1.exe PID=     28204.
  
 Copyright (c) 1988-2017, Gaussian, Inc.  All Rights Reserved.
  
 This is part of the Gaussian(R) 16 program.  It is based on
 the Gaussian(R) 09 system (copyright 2009, Gaussian, Inc.),
 the Gaussian(R) 03 system (copyright 2003, Gaussian, Inc.),
 the Gaussian(R) 98 system (copyright 1998, Gaussian, Inc.),
 the Gaussian(R) 94 system (copyright 1995, Gaussian, Inc.),
 the Gaussian 92(TM) system (copyright 1992, Gaussian, Inc.),
 the Gaussian 90(TM) system (copyright 1990, Gaussian, Inc.),
 the Gaussian 88(TM) system (copyright 1988, Gaussian, Inc.),
 the Gaussian 86(TM) system (copyright 1986, Carnegie Mellon
 University), and the Gaussian 82(TM) system (copyright 1983,
 Carnegie Mellon University). Gaussian is a federally registered
 trademark of Gaussian, Inc.
  
 This software contains proprietary and confidential information,
 including trade secrets, belonging to Gaussian, Inc.
  
 This software is provided under written license and may be
 used, copied, transmitted, or stored only in accord with that
 written license.
  
 The following legend is applicable only to US Government
 contracts under FAR:
  
                    RESTRICTED RIGHTS LEGEND
  
 Use, reproduction and disclosure by the US Government is
 subject to restrictions as set forth in subparagraphs (a)
 and (c) of the Commercial Computer Software - Restricted
 Rights clause in FAR 52.227-19.
  
 Gaussian, Inc.
 340 Quinnipiac St., Bldg. 40, Wallingford CT 06492
  
  
 ---------------------------------------------------------------
 Warning -- This program may not be used in any manner that
 competes with the business of Gaussian, Inc. or will provide
 assistance to any competitor of Gaussian, Inc.  The licensee
 of this program is prohibited from giving any competitor of
 Gaussian, Inc. access to this program.  By using this program,
 the user acknowledges that Gaussian, Inc. is engaged in the
 business of creating and licensing software in the field of
 computational chemistry and represents and warrants to the
 licensee that it is not a competitor of Gaussian, Inc. and that
 it will not use this program in any manner prohibited above.
 ---------------------------------------------------------------
  

 Cite this work as:
 Gaussian 16, Revision B.01,
 M. J. Frisch, G. W. Trucks, H. B. Schlegel, G. E. Scuseria, 
 M. A. Robb, J. R. Cheeseman, G. Scalmani, V. Barone, 
 G. A. Petersson, H. Nakatsuji, X. Li, M. Caricato, A. V. Marenich, 
 J. Bloino, B. G. Janesko, R. Gomperts, B. Mennucci, H. P. Hratchian, 
 J. V. Ortiz, A. F. Izmaylov, J. L. Sonnenberg, D. Williams-Young, 
 F. Ding, F. Lipparini, F. Egidi, J. Goings, B. Peng, A. Petrone, 
 T. Henderson, D. Ranasinghe, V. G. Zakrzewski, J. Gao, N. Rega, 
 G. Zheng, W. Liang, M. Hada, M. Ehara, K. Toyota, R. Fukuda, 
 J. Hasegawa, M. Ishida, T. Nakajima, Y. Honda, O. Kitao, H. Nakai, 
 T. Vreven, K. Throssell, J. A. Montgomery, Jr., J. E. Peralta, 
 F. Ogliaro, M. J. Bearpark, J. J. Heyd, E. N. Brothers, K. N. Kudin, 
 V. N. Staroverov, T. A. Keith, R. Kobayashi, J. Normand, 
 K. Raghavachari, A. P. Rendell, J. C. Burant, S. S. Iyengar, 
 J. Tomasi, M. Cossi, J. M. Millam, M. Klene, C. Adamo, R. Cammi, 
 J. W. Ochterski, R. L. Martin, K. Morokuma, O. Farkas, 
 J. B. Foresman, and D. J. Fox, Gaussian, Inc., Wallingford CT, 2016.
 
 ******************************************
 Gaussian 16:  EM64L-G16RevB.01 20-Dec-2017
                13-Jun-2025 
 ******************************************
 %chk=nf3_opt.chk
 ----------------------------------------------
 # opt freq hf/3-21g pop=full geom=connectivity
 ----------------------------------------------
 1/18=20,19=15,38=1,57=2/1,3;
 2/9=110,12=2,17=6,18=5,40=1/2;
 3/5=5,11=9,25=1,30=1,71=1/1,2,3;
 4//1;
 5/5=2,38=5/2;
 6/7=3,28=1/1;
 7//1,2,3,16;
 1/18=20,19=15/3(2);
 2/9=110/2;
 99//99;
 2/9=110/2;
 3/5=5,11=9,25=1,30=1,71=1/1,2,3;
 4/5=5,16=3,69=1/1;
 5/5=2,38=5/2;
 7//1,2,3,16;
 1/18=20,19=15/3(-5);
 2/9=110/2;
 6/7=3,19=2,28=1/1;
 99/9=1/99;
 -------------------
 Title Card Required
 -------------------
 Symbolic Z-matrix:
 Charge =  0 Multiplicity = 1
 N                     0.        0.        0.33882 
 F                     0.        1.2068   -0.08784 
 F                    -1.04512  -0.6034   -0.08784 
 F                     1.04512  -0.6034   -0.08784 
 

 GradGradGradGradGradGradGradGradGradGradGradGradGradGradGradGradGradGrad
 Berny optimization.
 Initialization pass.
                           ----------------------------
                           !    Initial Parameters    !
                           ! (Angstroms and Degrees)  !
 --------------------------                            --------------------------
 ! Name  Definition              Value          Derivative Info.                !
 --------------------------------------------------------------------------------
 ! R1    R(1,2)                  1.28           estimate D2E/DX2                !
 ! R2    R(1,3)                  1.28           estimate D2E/DX2                !
 ! R3    R(1,4)                  1.28           estimate D2E/DX2                !
 ! A1    A(2,1,3)              109.4712         estimate D2E/DX2                !
 ! A2    A(2,1,4)              109.4712         estimate D2E/DX2                !
 ! A3    A(3,1,4)              109.4712         estimate D2E/DX2                !
 ! D1    D(2,1,4,3)           -120.0            estimate D2E/DX2                !
 --------------------------------------------------------------------------------
 Trust Radius=3.00D-01 FncErr=1.00D-07 GrdErr=1.00D-07 EigMax=2.50D+02 EigMin=1.00D-04
 Number of steps in this run=     20 maximum allowed number of steps=    100.
 GradGradGradGradGradGradGradGradGradGradGradGradGradGradGradGradGradGrad

                          Input orientation:                          
 ---------------------------------------------------------------------
 Center     Atomic      Atomic             Coordinates (Angstroms)
 Number     Number       Type             X           Y           Z
 ---------------------------------------------------------------------
      1          7           0        0.000000    0.000000    0.338824
      2          9           0        0.000000    1.206796   -0.087843
      3          9           0       -1.045116   -0.603398   -0.087843
      4          9           0        1.045116   -0.603398   -0.087843
 ---------------------------------------------------------------------
                    Distance matrix (angstroms):
                    1          2          3          4
     1  N    0.000000
     2  F    1.280001   0.000000
     3  F    1.280001   2.090232   0.000000
     4  F    1.280001   2.090232   2.090232   0.000000
 Stoichiometry    F3N
 Framework group  C3V[C3(N),3SGV(F)]
 Deg. of freedom     2
 Full point group                 C3V     NOp   6
 Largest Abelian subgroup         CS      NOp   2
 Largest concise Abelian subgroup CS      NOp   2
                         Standard orientation:                         
 ---------------------------------------------------------------------
 Center     Atomic      Atomic             Coordinates (Angstroms)
 Number     Number       Type             X           Y           Z
 ---------------------------------------------------------------------
      1          7           0        0.000000    0.000000    0.338824
      2          9           0        0.000000    1.206796   -0.087843
      3          9           0       -1.045116   -0.603398   -0.087843
      4          9           0        1.045116   -0.603398   -0.087843
 ---------------------------------------------------------------------
 Rotational constants (GHZ):          11.6048144          11.6048144           6.0885113
 Standard basis: 3-21G (6D, 7F)
 There are    23 symmetry adapted cartesian basis functions of A'  symmetry.
 There are    13 symmetry adapted cartesian basis functions of A"  symmetry.
 There are    23 symmetry adapted basis functions of A'  symmetry.
 There are    13 symmetry adapted basis functions of A"  symmetry.
    36 basis functions,    60 primitive gaussians,    36 cartesian basis functions
    17 alpha electrons       17 beta electrons
       nuclear repulsion energy       139.6558082214 Hartrees.
 NAtoms=    4 NActive=    4 NUniq=    2 SFac= 4.00D+00 NAtFMM=   60 NAOKFM=F Big=F
 Integral buffers will be    131072 words long.
 Raffenetti 1 integral format.
 Two-electron integral symmetry is turned on.
 One-electron integrals computed using PRISM.
 NBasis=    36 RedAO= T EigKep=  3.21D-02  NBF=    23    13
 NBsUse=    36 1.00D-06 EigRej= -1.00D+00 NBFU=    23    13
 ExpMin= 2.83D-01 ExpMax= 4.14D+02 ExpMxC= 4.14D+02 IAcc=3 IRadAn=         5 AccDes= 0.00D+00
 Harris functional with IExCor=  205 and IRadAn=       5 diagonalized for initial guess.
 HarFok:  IExCor=  205 AccDes= 0.00D+00 IRadAn=         5 IDoV= 1 UseB2=F ITyADJ=14
 ICtDFT=  3500011 ScaDFX=  1.000000  1.000000  1.000000  1.000000
 FoFCou: FMM=F IPFlag=           0 FMFlag=      100000 FMFlg1=           0
         NFxFlg=           0 DoJE=T BraDBF=F KetDBF=T FulRan=T
         wScrn=  0.000000 ICntrl=       500 IOpCl=  0 I1Cent=   200000004 NGrid=           0
         NMat0=    1 NMatS0=      1 NMatT0=    0 NMatD0=    1 NMtDS0=    0 NMtDT0=    0
 Petite list used in FoFCou.
 Initial guess orbital symmetries:
       Occupied  (A1) (E) (E) (A1) (A1) (E) (E) (A1) (E) (E) (A1)
                 (E) (E) (E) (E) (A2) (A1)
       Virtual   (A1) (E) (E) (E) (E) (A1) (E) (E) (A1) (A1) (E)
                 (E) (A2) (E) (E) (A1) (E) (E) (A1)
 The electronic state of the initial guess is 1-A1.
 Keep R1 ints in memory in symmetry-blocked form, NReq=1029916.
 Requested convergence on RMS density matrix=1.00D-08 within 128 cycles.
 Requested convergence on MAX density matrix=1.00D-06.
 Requested convergence on             energy=1.00D-06.
 No special actions if energy rises.
 SCF Done:  E(RHF) =  -350.582032250     A.U. after   11 cycles
            NFock= 11  Conv=0.30D-08     -V/T= 2.0012

 **********************************************************************

            Population analysis using the SCF Density.

 **********************************************************************

 Orbital symmetries:
       Occupied  (A1) (E) (E) (A1) (A1) (E) (E) (A1) (E) (E) (A1)
                 (E) (E) (E) (E) (A2) (A1)
       Virtual   (A1) (E) (E) (E) (E) (A1) (A1) (E) (E) (A1) (E)
                 (E) (A2) (A1) (E) (E) (E) (E) (A1)
 The electronic state is 1-A1.
 Alpha  occ. eigenvalues --  -26.26797 -26.26726 -26.26726 -15.78747  -1.86332
 Alpha  occ. eigenvalues --   -1.69477  -1.69477  -1.08624  -0.87916  -0.87916
 Alpha  occ. eigenvalues --   -0.87507  -0.74151  -0.74151  -0.68823  -0.68823
 Alpha  occ. eigenvalues --   -0.68322  -0.48174
 Alpha virt. eigenvalues --    0.33360   0.38737   0.38737   1.26089   1.26089
 Alpha virt. eigenvalues --    1.27836   1.98820   2.06654   2.06654   2.27287
 Alpha virt. eigenvalues --    2.31189   2.31189   2.33378   2.42468   2.46240
 Alpha virt. eigenvalues --    2.46240   3.81882   3.81882   4.43506
     Molecular Orbital Coefficients:
                           1         2         3         4         5
                        (A1)--O   (E)--O    (E)--O    (A1)--O   (A1)--O
     Eigenvalues --   -26.26797 -26.26726 -26.26726 -15.78747  -1.86332
   1 1   N  1S         -0.00164   0.00000   0.00000   0.98556  -0.12085
   2        2S         -0.00725  -0.00000   0.00000   0.09565   0.14285
   3        2PX         0.00000   0.00000  -0.00099   0.00000   0.00000
   4        2PY        -0.00000   0.00099   0.00000   0.00000   0.00000
   5        2PZ        -0.00006  -0.00000   0.00000  -0.00482  -0.07242
   6        3S          0.03310   0.00000   0.00000  -0.04220   0.18547
   7        3PX         0.00000   0.00000  -0.01200   0.00000   0.00000
   8        3PY        -0.00000   0.01200   0.00000   0.00000  -0.00000
   9        3PZ        -0.01215  -0.00000   0.00000   0.00914  -0.01852
  10 2   F  1S          0.56720   0.80179   0.00000  -0.00026  -0.11880
  11        2S          0.05749   0.07872   0.00000  -0.00133   0.11419
  12        2PX         0.00000   0.00000  -0.00029   0.00000   0.00000
  13        2PY        -0.00231  -0.00269   0.00000  -0.00051  -0.05913
  14        2PZ         0.00029   0.00100   0.00000   0.00062   0.01337
  15        3S         -0.02665  -0.02856   0.00000   0.00915   0.35072
  16        3PX         0.00000   0.00000   0.00210   0.00000   0.00000
  17        3PY         0.00950   0.00638   0.00000  -0.00339  -0.06833
  18        3PZ        -0.00085  -0.00312   0.00000  -0.00087   0.01486
  19 3   F  1S          0.56720  -0.40090   0.69437  -0.00026  -0.11880
  20        2S          0.05749  -0.03936   0.06818  -0.00133   0.11419
  21        2PX         0.00200  -0.00129   0.00195   0.00045   0.05121
  22        2PY         0.00116  -0.00046   0.00129   0.00026   0.02957
  23        2PZ         0.00029  -0.00050   0.00086   0.00062   0.01337
  24        3S         -0.02665   0.01428  -0.02473   0.00915   0.35072
  25        3PX        -0.00823   0.00367  -0.00426   0.00294   0.05917
  26        3PY        -0.00475   0.00002  -0.00367   0.00170   0.03416
  27        3PZ        -0.00085   0.00156  -0.00270  -0.00087   0.01486
  28 4   F  1S          0.56720  -0.40090  -0.69437  -0.00026  -0.11880
  29        2S          0.05749  -0.03936  -0.06818  -0.00133   0.11419
  30        2PX        -0.00200   0.00129   0.00195  -0.00045  -0.05121
  31        2PY         0.00116  -0.00046  -0.00129   0.00026   0.02957
  32        2PZ         0.00029  -0.00050  -0.00086   0.00062   0.01337
  33        3S         -0.02665   0.01428   0.02473   0.00915   0.35072
  34        3PX         0.00823  -0.00367  -0.00426  -0.00294  -0.05917
  35        3PY        -0.00475   0.00002   0.00367   0.00170   0.03416
  36        3PZ        -0.00085   0.00156   0.00270  -0.00087   0.01486
                           6         7         8         9        10
                        (E)--O    (E)--O    (A1)--O   (E)--O    (E)--O
     Eigenvalues --    -1.69477  -1.69477  -1.08624  -0.87916  -0.87916
   1 1   N  1S          0.00000   0.00000  -0.17035   0.00000   0.00000
   2        2S          0.00000   0.00000   0.18742  -0.00000   0.00000
   3        2PX         0.00000  -0.13451   0.00000   0.00000   0.27477
   4        2PY         0.13451   0.00000  -0.00000   0.27477   0.00000
   5        2PZ         0.00000   0.00000  -0.03599  -0.00000   0.00000
   6        3S          0.00000   0.00000   0.52069  -0.00000   0.00000
   7        3PX         0.00000  -0.00441   0.00000   0.00000   0.19138
   8        3PY         0.00441   0.00000  -0.00000   0.19138   0.00000
   9        3PZ        -0.00000   0.00000  -0.03979  -0.00000   0.00000
  10 2   F  1S         -0.20160   0.00000   0.08965   0.06073   0.00000
  11        2S          0.19374   0.00000  -0.08470  -0.06171   0.00000
  12        2PX         0.00000  -0.01316   0.00000   0.00000   0.23382
  13        2PY        -0.05255   0.00000  -0.16178  -0.23325   0.00000
  14        2PZ         0.01916   0.00000   0.05195   0.13448   0.00000
  15        3S          0.64481   0.00000  -0.37128  -0.26146   0.00000
  16        3PX         0.00000  -0.02008   0.00000   0.00000   0.24141
  17        3PY        -0.08433   0.00000  -0.12989  -0.24110   0.00000
  18        3PZ         0.02829   0.00000   0.04851   0.12657   0.00000
  19 3   F  1S          0.10080  -0.17459   0.08965  -0.03036  -0.05259
  20        2S         -0.09687   0.16778  -0.08470   0.03086   0.05344
  21        2PX        -0.02845   0.03612   0.14010  -0.20225  -0.11649
  22        2PY        -0.00327   0.02845   0.08089   0.11705  -0.20225
  23        2PZ        -0.00958   0.01659   0.05195  -0.06724  -0.11646
  24        3S         -0.32240   0.55842  -0.37128   0.13073   0.22643
  25        3PX        -0.04521   0.05823   0.11249  -0.20893  -0.12047
  26        3PY        -0.00602   0.04521   0.06495   0.12079  -0.20893
  27        3PZ        -0.01415   0.02450   0.04851  -0.06328  -0.10961
  28 4   F  1S          0.10080   0.17459   0.08965  -0.03036   0.05259
  29        2S         -0.09687  -0.16778  -0.08470   0.03086  -0.05344
  30        2PX         0.02845   0.03612  -0.14010   0.20225  -0.11649
  31        2PY        -0.00327  -0.02845   0.08089   0.11705   0.20225
  32        2PZ        -0.00958  -0.01659   0.05195  -0.06724   0.11646
  33        3S         -0.32240  -0.55842  -0.37128   0.13073  -0.22643
  34        3PX         0.04521   0.05823  -0.11249   0.20893  -0.12047
  35        3PY        -0.00602  -0.04521   0.06495   0.12079   0.20893
  36        3PZ        -0.01415  -0.02450   0.04851  -0.06328   0.10961
                          11        12        13        14        15
                        (A1)--O   (E)--O    (E)--O    (E)--O    (E)--O
     Eigenvalues --    -0.87507  -0.74151  -0.74151  -0.68823  -0.68823
   1 1   N  1S         -0.03825  -0.00000   0.00000  -0.00000   0.00000
   2        2S          0.05865  -0.00000   0.00000  -0.00000   0.00000
   3        2PX         0.00000   0.00000  -0.07506   0.00000  -0.12922
   4        2PY         0.00000   0.07506   0.00000  -0.12922   0.00000
   5        2PZ         0.27591  -0.00000   0.00000   0.00000   0.00000
   6        3S          0.10063   0.00000   0.00000   0.00000   0.00000
   7        3PX         0.00000   0.00000  -0.00980   0.00000   0.03310
   8        3PY         0.00000   0.00980   0.00000   0.03310   0.00000
   9        3PZ         0.27780  -0.00000   0.00000  -0.00000   0.00000
  10 2   F  1S         -0.00874   0.00755   0.00000  -0.01298   0.00000
  11        2S          0.00425  -0.00880   0.00000   0.02255   0.00000
  12        2PX         0.00000   0.00000   0.23746   0.00000   0.27861
  13        2PY         0.10676   0.01214   0.00000   0.30004   0.00000
  14        2PZ         0.22146   0.37648   0.00000   0.18817   0.00000
  15        3S          0.05400  -0.02670   0.00000   0.01994   0.00000
  16        3PX         0.00000   0.00000   0.26991   0.00000   0.29662
  17        3PY         0.09254   0.00780   0.00000   0.36068   0.00000
  18        3PZ         0.22766   0.41296   0.00000   0.18534   0.00000
  19 3   F  1S         -0.00874  -0.00378   0.00654   0.00649   0.01124
  20        2S          0.00425   0.00440  -0.00762  -0.01128  -0.01953
  21        2PX        -0.09245   0.10808   0.05026   0.00928   0.29468
  22        2PY        -0.05338  -0.17506  -0.10808   0.28397   0.00928
  23        2PZ         0.22146  -0.18824   0.32604  -0.09409  -0.16296
  24        3S          0.05400   0.01335  -0.02312  -0.00997  -0.01727
  25        3PX        -0.08014   0.12025   0.06163   0.02774   0.34467
  26        3PY        -0.04627  -0.20048  -0.12025   0.31264   0.02774
  27        3PZ         0.22766  -0.20648   0.35764  -0.09267  -0.16051
  28 4   F  1S         -0.00874  -0.00378  -0.00654   0.00649  -0.01124
  29        2S          0.00425   0.00440   0.00762  -0.01128   0.01953
  30        2PX         0.09245  -0.10808   0.05026  -0.00928   0.29468
  31        2PY        -0.05338  -0.17506   0.10808   0.28397  -0.00928
  32        2PZ         0.22146  -0.18824  -0.32604  -0.09409   0.16296
  33        3S          0.05400   0.01335   0.02312  -0.00997   0.01727
  34        3PX         0.08014  -0.12025   0.06163  -0.02774   0.34467
  35        3PY        -0.04627  -0.20048   0.12025   0.31264  -0.02774
  36        3PZ         0.22766  -0.20648  -0.35764  -0.09267   0.16051
                          16        17        18        19        20
                        (A2)--O   (A1)--O   (A1)--V   (E)--V    (E)--V
     Eigenvalues --    -0.68322  -0.48174   0.33360   0.38737   0.38737
   1 1   N  1S          0.00000  -0.08773  -0.17920   0.00000  -0.00000
   2        2S          0.00000   0.07965   0.17082   0.00000   0.00000
   3        2PX        -0.00000   0.00000   0.00000   0.52897   0.00000
   4        2PY         0.00000   0.00000  -0.00000   0.00000   0.52897
   5        2PZ         0.00000   0.44301  -0.34935   0.00000  -0.00000
   6        3S          0.00000   0.46483   1.20694   0.00000   0.00000
   7        3PX         0.00000   0.00000   0.00000   1.03586   0.00000
   8        3PY         0.00000   0.00000  -0.00000   0.00000   1.03586
   9        3PZ         0.00000   0.38026  -0.56690   0.00000  -0.00000
  10 2   F  1S          0.00000   0.00786   0.05866   0.00000   0.07111
  11        2S          0.00000  -0.00806  -0.04382   0.00000  -0.04808
  12        2PX         0.33134   0.00000   0.00000  -0.13624   0.00000
  13        2PY         0.00000   0.04157   0.26650   0.00000   0.23293
  14        2PZ         0.00000  -0.22965  -0.01314   0.00000  -0.13965
  15        3S          0.00000  -0.04199  -0.43685   0.00000  -0.60403
  16        3PX         0.35322   0.00000   0.00000  -0.22181   0.00000
  17        3PY         0.00000   0.05720   0.48612   0.00000   0.49027
  18        3PZ         0.00000  -0.27691  -0.04518   0.00000  -0.25108
  19 3   F  1S          0.00000   0.00786   0.05866  -0.06158  -0.03555
  20        2S         -0.00000  -0.00806  -0.04382   0.04164   0.02404
  21        2PX        -0.16567  -0.03600  -0.23080   0.14064   0.15985
  22        2PY         0.28695  -0.02078  -0.13325   0.15985  -0.04394
  23        2PZ        -0.00000  -0.22965  -0.01314   0.12094   0.06982
  24        3S         -0.00000  -0.04199  -0.43685   0.52311   0.30202
  25        3PX        -0.17661  -0.04954  -0.42100   0.31225   0.30834
  26        3PY         0.30590  -0.02860  -0.24306   0.30834  -0.04379
  27        3PZ        -0.00000  -0.27691  -0.04518   0.21745   0.12554
  28 4   F  1S         -0.00000   0.00786   0.05866   0.06158  -0.03555
  29        2S          0.00000  -0.00806  -0.04382  -0.04164   0.02404
  30        2PX        -0.16567   0.03600   0.23080   0.14064  -0.15985
  31        2PY        -0.28695  -0.02078  -0.13325  -0.15985  -0.04394
  32        2PZ         0.00000  -0.22965  -0.01314  -0.12094   0.06982
  33        3S          0.00000  -0.04199  -0.43685  -0.52311   0.30202
  34        3PX        -0.17661   0.04954   0.42100   0.31225  -0.30834
  35        3PY        -0.30590  -0.02860  -0.24306  -0.30834  -0.04379
  36        3PZ         0.00000  -0.27691  -0.04518  -0.21745   0.12554
                          21        22        23        24        25
                        (E)--V    (E)--V    (A1)--V   (A1)--V   (E)--V
     Eigenvalues --     1.26089   1.26089   1.27836   1.98820   2.06654
   1 1   N  1S          0.00000   0.00000   0.04118   0.01956   0.00000
   2        2S         -0.00000   0.00000  -0.01977  -1.34554  -0.00000
   3        2PX         0.00000  -0.97309   0.00000   0.00000   0.00000
   4        2PY        -0.97309   0.00000   0.00000   0.00000   0.03085
   5        2PZ        -0.00000   0.00000  -0.98603  -0.07065  -0.00000
   6        3S          0.00000   0.00000  -0.41137   2.03823   0.00000
   7        3PX         0.00000   1.63083   0.00000   0.00000   0.00000
   8        3PY         1.63083   0.00000  -0.00000  -0.00000  -0.34198
   9        3PZ         0.00000   0.00000   1.29532  -0.16315  -0.00000
  10 2   F  1S          0.02899   0.00000  -0.01626   0.04850  -0.01021
  11        2S          0.01200   0.00000   0.00715  -0.13918   0.01406
  12        2PX         0.00000  -0.14789   0.00000   0.00000   0.00000
  13        2PY        -0.17352   0.00000  -0.01079  -0.07197   0.26253
  14        2PZ        -0.00729   0.00000  -0.12656   0.29789   0.49933
  15        3S         -0.66370   0.00000   0.26305  -0.33168   0.13874
  16        3PX         0.00000  -0.16952   0.00000   0.00000   0.00000
  17        3PY         0.31710   0.00000  -0.18886   0.35043  -0.32319
  18        3PZ        -0.16477   0.00000  -0.05826  -0.35435  -0.43016
  19 3   F  1S         -0.01450  -0.02511  -0.01626   0.04850   0.00510
  20        2S         -0.00600  -0.01040   0.00715  -0.13918  -0.00703
  21        2PX        -0.01110  -0.16711   0.00935   0.06233   0.37073
  22        2PY        -0.15429  -0.01110   0.00540   0.03599  -0.37959
  23        2PZ         0.00365   0.00631  -0.12656   0.29789  -0.24967
  24        3S          0.33185   0.57478   0.26305  -0.33168  -0.06937
  25        3PX         0.21072   0.19545   0.16355  -0.30348  -0.40380
  26        3PY        -0.04787   0.21072   0.09443  -0.17521   0.37620
  27        3PZ         0.08239   0.14270  -0.05826  -0.35435   0.21508
  28 4   F  1S         -0.01450   0.02511  -0.01626   0.04850   0.00510
  29        2S         -0.00600   0.01040   0.00715  -0.13918  -0.00703
  30        2PX         0.01110  -0.16711  -0.00935  -0.06233  -0.37073
  31        2PY        -0.15429   0.01110   0.00540   0.03599  -0.37959
  32        2PZ         0.00365  -0.00631  -0.12656   0.29789  -0.24967
  33        3S          0.33185  -0.57478   0.26305  -0.33168  -0.06937
  34        3PX        -0.21072   0.19545  -0.16355   0.30348   0.40380
  35        3PY        -0.04787  -0.21072   0.09443  -0.17521   0.37620
  36        3PZ         0.08239  -0.14270  -0.05826  -0.35435   0.21508
                          26        27        28        29        30
                        (E)--V    (A1)--V   (E)--V    (E)--V    (A2)--V
     Eigenvalues --     2.06654   2.27287   2.31189   2.31189   2.33378
   1 1   N  1S          0.00000  -0.03993   0.00000   0.00000   0.00000
   2        2S          0.00000  -0.18577   0.00000   0.00000   0.00000
   3        2PX         0.03085   0.00000   0.00000   0.03855  -0.00000
   4        2PY         0.00000  -0.00000  -0.03855   0.00000   0.00000
   5        2PZ         0.00000   0.04084  -0.00000   0.00000   0.00000
   6        3S          0.00000   1.06830  -0.00000   0.00000   0.00000
   7        3PX        -0.34198   0.00000   0.00000   0.64178   0.00000
   8        3PY         0.00000   0.00000  -0.64178   0.00000   0.00000
   9        3PZ         0.00000  -0.69142   0.00000   0.00000   0.00000
  10 2   F  1S          0.00000   0.04134  -0.03821   0.00000   0.00000
  11        2S          0.00000  -0.14941   0.15932   0.00000   0.00000
  12        2PX        -0.59364   0.00000   0.00000   0.43683  -0.58370
  13        2PY         0.00000  -0.49300   0.22363   0.00000   0.00000
  14        2PZ         0.00000  -0.26365  -0.64503   0.00000   0.00000
  15        3S          0.00000  -0.21745   0.17930   0.00000   0.00000
  16        3PX         0.60933   0.00000   0.00000  -0.54646   0.61783
  17        3PY         0.00000   0.75307  -0.38719   0.00000   0.00000
  18        3PZ         0.00000   0.28248   0.76506   0.00000   0.00000
  19 3   F  1S          0.00884   0.04134   0.01911  -0.03309   0.00000
  20        2S         -0.01218  -0.14941  -0.07966   0.13798  -0.00000
  21        2PX         0.04849   0.42695   0.28599  -0.05852   0.29185
  22        2PY         0.37073   0.24650  -0.27171  -0.28599  -0.50550
  23        2PZ        -0.43244  -0.26365   0.32251  -0.55861   0.00000
  24        3S         -0.12015  -0.21745  -0.08965   0.15528   0.00000
  25        3PX        -0.09006  -0.65218  -0.40428   0.15378  -0.30892
  26        3PY        -0.40380  -0.37654   0.31305   0.40428   0.53506
  27        3PZ         0.37253   0.28248  -0.38253   0.66256  -0.00000
  28 4   F  1S         -0.00884   0.04134   0.01911   0.03309  -0.00000
  29        2S          0.01218  -0.14941  -0.07966  -0.13798   0.00000
  30        2PX         0.04849  -0.42695  -0.28599  -0.05852   0.29185
  31        2PY        -0.37073   0.24650  -0.27171   0.28599   0.50550
  32        2PZ         0.43244  -0.26365   0.32251   0.55861  -0.00000
  33        3S          0.12015  -0.21745  -0.08965  -0.15528  -0.00000
  34        3PX        -0.09006   0.65218   0.40428   0.15378  -0.30892
  35        3PY         0.40380  -0.37654   0.31305  -0.40428  -0.53506
  36        3PZ        -0.37253   0.28248  -0.38253  -0.66256   0.00000
                          31        32        33        34        35
                        (A1)--V   (E)--V    (E)--V    (E)--V    (E)--V
     Eigenvalues --     2.42468   2.46240   2.46240   3.81882   3.81882
   1 1   N  1S         -0.03312   0.00000  -0.00000   0.00000  -0.00000
   2        2S          0.93545   0.00000   0.00000   0.00000  -0.00000
   3        2PX         0.00000   0.36115   0.00000   0.11835   0.00000
   4        2PY        -0.00000   0.00000   0.36115   0.00000  -0.11835
   5        2PZ        -0.21365   0.00000  -0.00000   0.00000   0.00000
   6        3S         -0.67181   0.00000  -0.00000   0.00000   0.00000
   7        3PX         0.00000  -0.39273   0.00000   0.81794   0.00000
   8        3PY         0.00000   0.00000  -0.39273   0.00000  -0.81794
   9        3PZ         0.47269   0.00000   0.00000   0.00000  -0.00000
  10 2   F  1S         -0.01379   0.00000   0.02137   0.00000   0.08219
  11        2S          0.05323   0.00000  -0.17208   0.00000  -1.27356
  12        2PX         0.00000  -0.33947   0.00000   0.04124   0.00000
  13        2PY        -0.28417   0.00000  -0.73265   0.00000   0.20731
  14        2PZ         0.41027   0.00000  -0.03169   0.00000  -0.11128
  15        3S          0.13429   0.00000   0.23907   0.00000   1.53075
  16        3PX         0.00000   0.43405   0.00000  -0.17211   0.00000
  17        3PY         0.18739   0.00000   0.76277   0.00000  -0.51860
  18        3PZ        -0.47319   0.00000   0.07190   0.00000   0.27778
  19 3   F  1S         -0.01379  -0.01851  -0.01068   0.07118  -0.04109
  20        2S          0.05323   0.14902   0.08604  -1.10293   0.63678
  21        2PX         0.24610  -0.63436  -0.17025  -0.14517   0.10762
  22        2PY         0.14208  -0.17025  -0.43777  -0.10762   0.02090
  23        2PZ         0.41027   0.02745   0.01585  -0.09637   0.05564
  24        3S          0.13429  -0.20704  -0.11953   1.32567  -0.76538
  25        3PX        -0.16229   0.68059   0.14234   0.34592  -0.29909
  26        3PY        -0.09370   0.14234   0.51623   0.29909  -0.00057
  27        3PZ        -0.47319  -0.06227  -0.03595   0.24057  -0.13889
  28 4   F  1S         -0.01379   0.01851  -0.01068  -0.07118  -0.04109
  29        2S          0.05323  -0.14902   0.08604   1.10293   0.63678
  30        2PX        -0.24610  -0.63436   0.17025  -0.14517  -0.10762
  31        2PY         0.14208   0.17025  -0.43777   0.10762   0.02090
  32        2PZ         0.41027  -0.02745   0.01585   0.09637   0.05564
  33        3S          0.13429   0.20704  -0.11953  -1.32567  -0.76538
  34        3PX         0.16229   0.68059  -0.14234   0.34592   0.29909
  35        3PY        -0.09370  -0.14234   0.51623  -0.29909  -0.00057
  36        3PZ        -0.47319   0.06227  -0.03595  -0.24057  -0.13889
                          36
                        (A1)--V
     Eigenvalues --     4.43506
   1 1   N  1S         -0.11425
   2        2S         -0.78909
   3        2PX         0.00000
   4        2PY         0.00000
   5        2PZ         0.01942
   6        3S          2.64463
   7        3PX         0.00000
   8        3PY         0.00000
   9        3PZ        -0.96534
  10 2   F  1S         -0.02879
  11        2S          0.96569
  12        2PX         0.00000
  13        2PY        -0.15738
  14        2PZ        -0.02230
  15        3S         -1.57053
  16        3PX         0.00000
  17        3PY         0.75834
  18        3PZ        -0.01982
  19 3   F  1S         -0.02879
  20        2S          0.96569
  21        2PX         0.13630
  22        2PY         0.07869
  23        2PZ        -0.02230
  24        3S         -1.57053
  25        3PX        -0.65675
  26        3PY        -0.37917
  27        3PZ        -0.01982
  28 4   F  1S         -0.02879
  29        2S          0.96569
  30        2PX        -0.13630
  31        2PY         0.07869
  32        2PZ        -0.02230
  33        3S         -1.57053
  34        3PX         0.65675
  35        3PY        -0.37917
  36        3PZ        -0.01982
     Density Matrix:
                           1         2         3         4         5
   1 1   N  1S          2.04822
   2        2S          0.07172   0.14904
   3        2PX        -0.00000  -0.00000   0.23185
   4        2PY         0.00000   0.00000   0.00000   0.23185
   5        2PZ        -0.07857   0.06783   0.00000  -0.00000   0.55789
   6        3S         -0.39477   0.32546   0.00000  -0.00000   0.40343
   7        3PX        -0.00000   0.00000   0.09930   0.00000  -0.00000
   8        3PY        -0.00000  -0.00000  -0.00000   0.09930  -0.00000
   9        3PZ        -0.05188   0.07488  -0.00000   0.00000   0.49567
  10 2   F  1S         -0.00491  -0.00839  -0.00000  -0.01479   0.01282
  11        2S         -0.00046  -0.00100   0.00000   0.01121  -0.01523
  12        2PX         0.00000  -0.00000   0.02438  -0.00000   0.00000
  13        2PY         0.05294  -0.05846  -0.00000  -0.21805   0.11596
  14        2PZ         0.00363   0.01280   0.00000   0.08695  -0.08695
  15        3S          0.06308  -0.03718   0.00000   0.02056  -0.03156
  16        3PX         0.00000  -0.00000   0.02088  -0.00000   0.00000
  17        3PY         0.03694  -0.04903  -0.00000  -0.24721   0.12103
  18        3PZ         0.00934   0.00487   0.00000   0.09126  -0.12536
  19 3   F  1S         -0.00491  -0.00839   0.01281   0.00740   0.01282
  20        2S         -0.00046  -0.00100  -0.00971  -0.00561  -0.01523
  21        2PX        -0.04585   0.05062  -0.15744  -0.10497  -0.10042
  22        2PY        -0.02647   0.02923  -0.10497  -0.03623  -0.05798
  23        2PZ         0.00363   0.01280  -0.07530  -0.04347  -0.08695
  24        3S          0.06308  -0.03718  -0.01781  -0.01028  -0.03156
  25        3PX        -0.03199   0.04246  -0.18019  -0.11609  -0.10481
  26        3PY        -0.01847   0.02451  -0.11609  -0.04614  -0.06051
  27        3PZ         0.00934   0.00487  -0.07903  -0.04563  -0.12536
  28 4   F  1S         -0.00491  -0.00839  -0.01281   0.00740   0.01282
  29        2S         -0.00046  -0.00100   0.00971  -0.00561  -0.01523
  30        2PX         0.04585  -0.05062  -0.15744   0.10497   0.10042
  31        2PY        -0.02647   0.02923   0.10497  -0.03623  -0.05798
  32        2PZ         0.00363   0.01280   0.07530  -0.04347  -0.08695
  33        3S          0.06308  -0.03718   0.01781  -0.01028  -0.03156
  34        3PX         0.03199  -0.04246  -0.18019   0.11609   0.10481
  35        3PY        -0.01847   0.02451   0.11609  -0.04614  -0.06051
  36        3PZ         0.00934   0.00487   0.07903  -0.04563  -0.12536
                           6         7         8         9        10
   6        3S          1.06918
   7        3PX         0.00000   0.07596
   8        3PY         0.00000   0.00000   0.07596
   9        3PZ         0.35954  -0.00000  -0.00000   0.44786
  10 2   F  1S          0.09241   0.00000   0.03999  -0.01540   2.06287
  11        2S         -0.04857  -0.00000  -0.01870  -0.00267   0.06260
  12        2PX        -0.00000   0.10341  -0.00000   0.00000  -0.00000
  13        2PY        -0.13039  -0.00000  -0.06971   0.10604  -0.03786
  14        2PZ        -0.10990   0.00000   0.07150  -0.05623   0.01000
  15        3S         -0.28725  -0.00000  -0.09428   0.01544  -0.52020
  16        3PX        -0.00000   0.10688  -0.00000   0.00000   0.00000
  17        3PY        -0.08789  -0.00000  -0.06885   0.10749   0.00871
  18        3PZ        -0.15557   0.00000   0.06898  -0.08851  -0.00373
  19 3   F  1S          0.09241  -0.03463  -0.02000  -0.01540   0.00059
  20        2S         -0.04857   0.01620   0.00935  -0.00267   0.00274
  21        2PX         0.11292  -0.02643  -0.07496  -0.09183   0.00251
  22        2PY         0.06519  -0.07496   0.06013  -0.05302   0.01419
  23        2PZ        -0.10990  -0.06192  -0.03575  -0.05623  -0.00652
  24        3S         -0.28725   0.08165   0.04714   0.01544  -0.01251
  25        3PX         0.07612  -0.02491  -0.07609  -0.09309  -0.00276
  26        3PY         0.04395  -0.07609   0.06295  -0.05375   0.00448
  27        3PZ        -0.15557  -0.05974  -0.03449  -0.08851  -0.00433
  28 4   F  1S          0.09241   0.03463  -0.02000  -0.01540   0.00059
  29        2S         -0.04857  -0.01620   0.00935  -0.00267   0.00274
  30        2PX        -0.11292  -0.02643   0.07496   0.09183  -0.00251
  31        2PY         0.06519   0.07496   0.06013  -0.05302   0.01419
  32        2PZ        -0.10990   0.06192  -0.03575  -0.05623  -0.00652
  33        3S         -0.28725  -0.08165   0.04714   0.01544  -0.01251
  34        3PX        -0.07612  -0.02491   0.07609   0.09309   0.00276
  35        3PY         0.04395   0.07609   0.06295  -0.05375   0.00448
  36        3PZ        -0.15557   0.05974  -0.03449  -0.08851  -0.00433
                          11        12        13        14        15
  11        2S          0.14346
  12        2PX         0.00000   0.59728
  13        2PY         0.03520  -0.00000   0.38029
  14        2PZ        -0.00729   0.00000   0.06711   0.60052
  15        3S          0.42003   0.00000   0.15248  -0.04427   1.50479
  16        3PX         0.00000   0.64097  -0.00000   0.00000   0.00000
  17        3PY         0.02158  -0.00000   0.41251   0.07294   0.08407
  18        3PZ        -0.00258   0.00000   0.06738   0.64927  -0.02191
  19 3   F  1S          0.00274  -0.01103  -0.00927  -0.00652  -0.01251
  20        2S         -0.00092   0.00604   0.00321   0.00344   0.00155
  21        2PX         0.00024   0.02286   0.03141   0.02090  -0.01144
  22        2PY        -0.00683   0.04866   0.06910   0.00151  -0.08813
  23        2PZ         0.00344   0.00914  -0.01885   0.01372   0.04313
  24        3S          0.00155   0.07060   0.05397   0.04313   0.04659
  25        3PX         0.00160   0.04642   0.05717   0.04359  -0.00060
  26        3PY        -0.00329   0.06216   0.08974  -0.00074  -0.07433
  27        3PZ         0.00350   0.02851  -0.02148   0.02555   0.04436
  28 4   F  1S          0.00274   0.01103  -0.00927  -0.00652  -0.01251
  29        2S         -0.00092  -0.00604   0.00321   0.00344   0.00155
  30        2PX        -0.00024   0.02286  -0.03141  -0.02090   0.01144
  31        2PY        -0.00683  -0.04866   0.06910   0.00151  -0.08813
  32        2PZ         0.00344  -0.00914  -0.01885   0.01372   0.04313
  33        3S          0.00155  -0.07060   0.05397   0.04313   0.04659
  34        3PX        -0.00160   0.04642  -0.05717  -0.04359   0.00060
  35        3PY        -0.00329  -0.06216   0.08974  -0.00074  -0.07433
  36        3PZ         0.00350  -0.02851  -0.02148   0.02555   0.04436
                          16        17        18        19        20
  16        3PX         0.68859
  17        3PY        -0.00000   0.45782
  18        3PZ         0.00000   0.07011   0.70561
  19 3   F  1S         -0.00526   0.00015  -0.00433   2.06287
  20        2S          0.00365   0.00026   0.00350   0.06260   0.14346
  21        2PX         0.02723   0.04610   0.03286   0.03278  -0.03048
  22        2PY         0.05109   0.10892  -0.01395   0.01893  -0.01760
  23        2PZ         0.02244  -0.03738   0.02555   0.01000  -0.00729
  24        3S          0.06407   0.03769   0.04436  -0.52020   0.42003
  25        3PX         0.05245   0.07232   0.05776  -0.00755  -0.01869
  26        3PY         0.06493   0.13169  -0.01737  -0.00436  -0.01079
  27        3PZ         0.04392  -0.04134   0.04045  -0.00373  -0.00258
  28 4   F  1S          0.00526   0.00015  -0.00433   0.00059   0.00274
  29        2S         -0.00365   0.00026   0.00350   0.00274  -0.00092
  30        2PX         0.02723  -0.04610  -0.03286  -0.01354   0.00580
  31        2PY        -0.05109   0.10892  -0.01395  -0.00492   0.00362
  32        2PZ        -0.02244  -0.03738   0.02555  -0.00652   0.00344
  33        3S         -0.06407   0.03769   0.04436  -0.01251   0.00155
  34        3PX         0.05245  -0.07232  -0.05776  -0.00250   0.00205
  35        3PY        -0.06493   0.13169  -0.01737  -0.00464   0.00303
  36        3PZ        -0.04392  -0.04134   0.04045  -0.00433   0.00350
                          21        22        23        24        25
  21        2PX         0.43454
  22        2PY        -0.09396   0.54303
  23        2PZ        -0.05812  -0.03355   0.60052
  24        3S         -0.13205  -0.07624  -0.04427   1.50479
  25        3PX         0.46963  -0.09892  -0.06317  -0.07281   0.51551
  26        3PY        -0.09892   0.58385  -0.03647  -0.04204  -0.09993
  27        3PZ        -0.05836  -0.03369   0.64927  -0.02191  -0.06071
  28 4   F  1S          0.01354  -0.00492  -0.00652  -0.01251   0.00250
  29        2S         -0.00580   0.00362   0.00344   0.00155  -0.00205
  30        2PX         0.09221  -0.00863  -0.01175   0.08204   0.13058
  31        2PY         0.00863  -0.00025   0.01734   0.03416   0.01357
  32        2PZ         0.01175   0.01734   0.01372   0.04313   0.02116
  33        3S         -0.08204   0.03416   0.04313   0.04659  -0.06467
  34        3PX         0.13058  -0.01357  -0.02116   0.06467   0.17131
  35        3PY        -0.00858   0.00557   0.03812   0.03665  -0.00369
  36        3PZ         0.00435   0.03543   0.02555   0.04436   0.01384
                          26        27        28        29        30
  26        3PY         0.63090
  27        3PZ        -0.03505   0.70561
  28 4   F  1S         -0.00464  -0.00433   2.06287
  29        2S          0.00303   0.00350   0.06260   0.14346
  30        2PX         0.00858  -0.00435  -0.03278   0.03048   0.43454
  31        2PY         0.00557   0.03543   0.01893  -0.01760   0.09396
  32        2PZ         0.03812   0.02555   0.01000  -0.00729   0.05812
  33        3S          0.03665   0.04436  -0.52020   0.42003   0.13205
  34        3PX         0.00369  -0.01384   0.00755   0.01869   0.46963
  35        3PY         0.01283   0.05870  -0.00436  -0.01079   0.09892
  36        3PZ         0.05870   0.04045  -0.00373  -0.00258   0.05836
                          31        32        33        34        35
  31        2PY         0.54303
  32        2PZ        -0.03355   0.60052
  33        3S         -0.07624  -0.04427   1.50479
  34        3PX         0.09892   0.06317   0.07281   0.51551
  35        3PY         0.58385  -0.03647  -0.04204   0.09993   0.63090
  36        3PZ        -0.03369   0.64927  -0.02191   0.06071  -0.03505
                          36
  36        3PZ         0.70561
    Full Mulliken population analysis:
                           1         2         3         4         5
   1 1   N  1S          2.04822
   2        2S          0.01398   0.14904
   3        2PX         0.00000   0.00000   0.23185
   4        2PY         0.00000   0.00000   0.00000   0.23185
   5        2PZ         0.00000   0.00000   0.00000   0.00000   0.55789
   6        3S         -0.07273   0.24481   0.00000   0.00000   0.00000
   7        3PX         0.00000   0.00000   0.05124   0.00000   0.00000
   8        3PY         0.00000   0.00000   0.00000   0.05124   0.00000
   9        3PZ         0.00000   0.00000   0.00000   0.00000   0.25577
  10 2   F  1S         -0.00000  -0.00001  -0.00000  -0.00004  -0.00001
  11        2S         -0.00000  -0.00002   0.00000   0.00044   0.00021
  12        2PX        -0.00000   0.00000   0.00021   0.00000   0.00000
  13        2PY        -0.00001   0.00177   0.00000   0.01296   0.00280
  14        2PZ         0.00000   0.00014   0.00000   0.00210  -0.00002
  15        3S          0.00115  -0.00497   0.00000   0.00318   0.00172
  16        3PX        -0.00000   0.00000   0.00204   0.00000   0.00000
  17        3PY        -0.00203   0.01421   0.00000   0.06219   0.01494
  18        3PZ         0.00018   0.00050   0.00000   0.01126  -0.00676
  19 3   F  1S         -0.00000  -0.00001  -0.00003  -0.00001  -0.00001
  20        2S         -0.00000  -0.00002   0.00033   0.00011   0.00021
  21        2PX        -0.00001   0.00133   0.00668   0.00310   0.00210
  22        2PY        -0.00000   0.00044   0.00310   0.00030   0.00070
  23        2PZ         0.00000   0.00014   0.00157   0.00052  -0.00002
  24        3S          0.00115  -0.00497   0.00238   0.00079   0.00172
  25        3PX        -0.00152   0.01066   0.02960   0.01755   0.01120
  26        3PY        -0.00051   0.00355   0.01755  -0.00048   0.00373
  27        3PZ         0.00018   0.00050   0.00845   0.00282  -0.00676
  28 4   F  1S         -0.00000  -0.00001  -0.00003  -0.00001  -0.00001
  29        2S         -0.00000  -0.00002   0.00033   0.00011   0.00021
  30        2PX        -0.00001   0.00133   0.00668   0.00310   0.00210
  31        2PY        -0.00000   0.00044   0.00310   0.00030   0.00070
  32        2PZ         0.00000   0.00014   0.00157   0.00052  -0.00002
  33        3S          0.00115  -0.00497   0.00238   0.00079   0.00172
  34        3PX        -0.00152   0.01066   0.02960   0.01755   0.01120
  35        3PY        -0.00051   0.00355   0.01755  -0.00048   0.00373
  36        3PZ         0.00018   0.00050   0.00845   0.00282  -0.00676
                           6         7         8         9        10
   6        3S          1.06918
   7        3PX         0.00000   0.07596
   8        3PY         0.00000   0.00000   0.07596
   9        3PZ         0.00000   0.00000   0.00000   0.44786
  10 2   F  1S          0.00228   0.00000   0.00235   0.00032   2.06287
  11        2S         -0.00647  -0.00000  -0.00526   0.00027   0.01344
  12        2PX         0.00000   0.00727   0.00000   0.00000   0.00000
  13        2PY         0.01112   0.00000   0.00787   0.00687   0.00000
  14        2PZ        -0.00331   0.00000   0.00463  -0.00267   0.00000
  15        3S         -0.09594  -0.00000  -0.04816  -0.00279  -0.09550
  16        3PX         0.00000   0.03447   0.00000   0.00000   0.00000
  17        3PY         0.03440   0.00000   0.01901   0.02275   0.00000
  18        3PZ        -0.02153   0.00000   0.01460  -0.02192   0.00000
  19 3   F  1S          0.00228   0.00176   0.00059   0.00032   0.00000
  20        2S         -0.00647  -0.00394  -0.00131   0.00027   0.00000
  21        2PX         0.00834   0.00177   0.00594   0.00515   0.00000
  22        2PY         0.00278   0.00594   0.00147   0.00172   0.00000
  23        2PZ        -0.00331   0.00347   0.00116  -0.00267   0.00000
  24        3S         -0.09594  -0.03612  -0.01204  -0.00279  -0.00000
  25        3PX         0.02580   0.00315   0.01972   0.01706  -0.00000
  26        3PY         0.00860   0.01972   0.01088   0.00569   0.00000
  27        3PZ        -0.02153   0.01095   0.00365  -0.02192   0.00000
  28 4   F  1S          0.00228   0.00176   0.00059   0.00032   0.00000
  29        2S         -0.00647  -0.00394  -0.00131   0.00027   0.00000
  30        2PX         0.00834   0.00177   0.00594   0.00515   0.00000
  31        2PY         0.00278   0.00594   0.00147   0.00172   0.00000
  32        2PZ        -0.00331   0.00347   0.00116  -0.00267   0.00000
  33        3S         -0.09594  -0.03612  -0.01204  -0.00279  -0.00000
  34        3PX         0.02580   0.00315   0.01972   0.01706  -0.00000
  35        3PY         0.00860   0.01972   0.01088   0.00569   0.00000
  36        3PZ        -0.02153   0.01095   0.00365  -0.02192   0.00000
                          11        12        13        14        15
  11        2S          0.14346
  12        2PX         0.00000   0.59728
  13        2PY         0.00000   0.00000   0.38029
  14        2PZ         0.00000   0.00000   0.00000   0.60052
  15        3S          0.30755   0.00000   0.00000   0.00000   1.50479
  16        3PX         0.00000   0.31303   0.00000   0.00000   0.00000
  17        3PY         0.00000   0.00000   0.20146   0.00000   0.00000
  18        3PZ         0.00000   0.00000   0.00000   0.31709   0.00000
  19 3   F  1S          0.00000   0.00000   0.00000   0.00000  -0.00000
  20        2S         -0.00000  -0.00000  -0.00000   0.00000   0.00000
  21        2PX         0.00000  -0.00000  -0.00000   0.00000  -0.00002
  22        2PY        -0.00000  -0.00000  -0.00000   0.00000  -0.00022
  23        2PZ         0.00000   0.00000   0.00000   0.00000   0.00000
  24        3S          0.00000  -0.00010  -0.00013   0.00000   0.00108
  25        3PX         0.00001  -0.00010  -0.00032   0.00000  -0.00002
  26        3PY        -0.00002  -0.00034  -0.00077   0.00000  -0.00410
  27        3PZ         0.00000   0.00000   0.00000   0.00003   0.00000
  28 4   F  1S          0.00000   0.00000   0.00000   0.00000  -0.00000
  29        2S         -0.00000  -0.00000  -0.00000   0.00000   0.00000
  30        2PX         0.00000  -0.00000  -0.00000   0.00000  -0.00002
  31        2PY        -0.00000  -0.00000  -0.00000   0.00000  -0.00022
  32        2PZ         0.00000   0.00000   0.00000   0.00000   0.00000
  33        3S          0.00000  -0.00010  -0.00013   0.00000   0.00108
  34        3PX         0.00001  -0.00010  -0.00032   0.00000  -0.00002
  35        3PY        -0.00002  -0.00034  -0.00077   0.00000  -0.00410
  36        3PZ         0.00000   0.00000   0.00000   0.00003   0.00000
                          16        17        18        19        20
  16        3PX         0.68859
  17        3PY        -0.00000   0.45782
  18        3PZ         0.00000   0.00000   0.70561
  19 3   F  1S          0.00000  -0.00000   0.00000   2.06287
  20        2S         -0.00001  -0.00000   0.00000   0.01344   0.14346
  21        2PX        -0.00006  -0.00025   0.00000   0.00000   0.00000
  22        2PY        -0.00028  -0.00093   0.00000   0.00000   0.00000
  23        2PZ         0.00000   0.00000   0.00003   0.00000   0.00000
  24        3S         -0.00204  -0.00208   0.00000  -0.09550   0.30755
  25        3PX        -0.00107  -0.00547   0.00000   0.00000   0.00000
  26        3PY        -0.00491  -0.01420   0.00000   0.00000   0.00000
  27        3PZ         0.00000   0.00000   0.00094   0.00000   0.00000
  28 4   F  1S          0.00000  -0.00000   0.00000   0.00000   0.00000
  29        2S         -0.00001  -0.00000   0.00000   0.00000  -0.00000
  30        2PX        -0.00006  -0.00025   0.00000   0.00000  -0.00000
  31        2PY        -0.00028  -0.00093   0.00000  -0.00000   0.00000
  32        2PZ         0.00000   0.00000   0.00003   0.00000   0.00000
  33        3S         -0.00204  -0.00208   0.00000  -0.00000   0.00000
  34        3PX        -0.00107  -0.00547   0.00000   0.00000  -0.00002
  35        3PY        -0.00491  -0.01420   0.00000  -0.00000  -0.00000
  36        3PZ         0.00000   0.00000   0.00094   0.00000   0.00000
                          21        22        23        24        25
  21        2PX         0.43454
  22        2PY         0.00000   0.54303
  23        2PZ         0.00000   0.00000   0.60052
  24        3S          0.00000   0.00000   0.00000   1.50479
  25        3PX         0.22935   0.00000   0.00000   0.00000   0.51551
  26        3PY         0.00000   0.28514   0.00000   0.00000   0.00000
  27        3PZ         0.00000   0.00000   0.31709   0.00000   0.00000
  28 4   F  1S          0.00000  -0.00000   0.00000  -0.00000   0.00000
  29        2S         -0.00000   0.00000   0.00000   0.00000  -0.00002
  30        2PX        -0.00000   0.00000   0.00000  -0.00023  -0.00153
  31        2PY         0.00000  -0.00000   0.00000   0.00000   0.00000
  32        2PZ         0.00000   0.00000   0.00000   0.00000   0.00000
  33        3S         -0.00023   0.00000   0.00000   0.00108  -0.00412
  34        3PX        -0.00153   0.00000   0.00000  -0.00412  -0.02595
  35        3PY         0.00000   0.00001   0.00000  -0.00000   0.00000
  36        3PZ         0.00000   0.00000   0.00003   0.00000   0.00000
                          26        27        28        29        30
  26        3PY         0.63090
  27        3PZ         0.00000   0.70561
  28 4   F  1S         -0.00000   0.00000   2.06287
  29        2S         -0.00000   0.00000   0.01344   0.14346
  30        2PX         0.00000   0.00000   0.00000   0.00000   0.43454
  31        2PY         0.00001   0.00000   0.00000   0.00000   0.00000
  32        2PZ         0.00000   0.00003   0.00000   0.00000   0.00000
  33        3S         -0.00000   0.00000  -0.09550   0.30755   0.00000
  34        3PX         0.00000   0.00000   0.00000   0.00000   0.22935
  35        3PY         0.00030   0.00000   0.00000   0.00000   0.00000
  36        3PZ         0.00000   0.00094   0.00000   0.00000   0.00000
                          31        32        33        34        35
  31        2PY         0.54303
  32        2PZ         0.00000   0.60052
  33        3S          0.00000   0.00000   1.50479
  34        3PX         0.00000   0.00000   0.00000   0.51551
  35        3PY         0.28514   0.00000   0.00000   0.00000   0.63090
  36        3PZ         0.00000   0.31709   0.00000   0.00000   0.00000
                          36
  36        3PZ         0.70561
     Gross orbital populations:
                           1
   1 1   N  1S          1.98736
   2        2S          0.44268
   3        2PX         0.42460
   4        2PY         0.42460
   5        2PZ         0.85228
   6        3S          1.00292
   7        3PX         0.18236
   8        3PY         0.18236
   9        3PZ         0.71210
  10 2   F  1S          1.98570
  11        2S          0.45359
  12        2PX         0.91670
  13        2PY         0.62270
  14        2PZ         0.91852
  15        3S          1.56449
  16        3PX         1.02137
  17        3PY         0.77888
  18        3PZ         1.00096
  19 3   F  1S          1.98570
  20        2S          0.45359
  21        2PX         0.69620
  22        2PY         0.84320
  23        2PZ         0.91852
  24        3S          1.56449
  25        3PX         0.83950
  26        3PY         0.96074
  27        3PZ         1.00096
  28 4   F  1S          1.98570
  29        2S          0.45359
  30        2PX         0.69620
  31        2PY         0.84320
  32        2PZ         0.91852
  33        3S          1.56449
  34        3PX         0.83950
  35        3PY         0.96074
  36        3PZ         1.00096
          Condensed to atoms (all electrons):
               1          2          3          4
     1  N    5.976425   0.078282   0.078282   0.078282
     2  F    0.078282   9.255347  -0.035360  -0.035360
     3  F    0.078282  -0.035360   9.255347  -0.035360
     4  F    0.078282  -0.035360  -0.035360   9.255347
 Mulliken charges:
               1
     1  N    0.788729
     2  F   -0.262910
     3  F   -0.262910
     4  F   -0.262910
 Sum of Mulliken charges =   0.00000
 Mulliken charges with hydrogens summed into heavy atoms:
               1
     1  N    0.788729
     2  F   -0.262910
     3  F   -0.262910
     4  F   -0.262910
 Electronic spatial extent (au):  <R**2>=            188.7833
 Charge=              0.0000 electrons
 Dipole moment (field-independent basis, Debye):
    X=              0.0000    Y=             -0.0000    Z=             -0.3010  Tot=              0.3010
 Quadrupole moment (field-independent basis, Debye-Ang):
   XX=            -20.2967   YY=            -20.2967   ZZ=            -19.5962
   XY=              0.0000   XZ=             -0.0000   YZ=             -0.0000
 Traceless Quadrupole moment (field-independent basis, Debye-Ang):
   XX=             -0.2335   YY=             -0.2335   ZZ=              0.4670
   XY=              0.0000   XZ=             -0.0000   YZ=             -0.0000
 Octapole moment (field-independent basis, Debye-Ang**2):
  XXX=              0.0000  YYY=             -1.4819  ZZZ=             -3.0443  XYY=             -0.0000
  XXY=              1.4819  XXZ=             -0.2055  XZZ=              0.0000  YZZ=              0.0000
  YYZ=             -0.2055  XYZ=              0.0000
 Hexadecapole moment (field-independent basis, Debye-Ang**3):
 XXXX=            -70.2705 YYYY=            -70.2705 ZZZZ=            -15.8728 XXXY=              0.0000
 XXXZ=             -0.0000 YYYX=              0.0000 YYYZ=             -0.0889 ZZZX=             -0.0000
 ZZZY=             -0.0000 XXYY=            -23.4235 XXZZ=            -13.7862 YYZZ=            -13.7862
 XXYZ=              0.0889 YYXZ=             -0.0000 ZZXY=              0.0000
 N-N= 1.396558082214D+02 E-N=-1.115475056652D+03  KE= 3.501731484363D+02
 Symmetry A'   KE= 2.427001333037D+02
 Symmetry A"   KE= 1.074730151326D+02
 Orbital energies and kinetic energies (alpha):
                                 1                 2
   1         (A1)--O         -26.267973         36.905815
   2         (E)--O          -26.267260         36.900901
   3         (E)--O          -26.267260         36.900901
   4         (A1)--O         -15.787471         21.927839
   5         (A1)--O          -1.863323          3.144540
   6         (E)--O           -1.694771          3.870740
   7         (E)--O           -1.694771          3.870740
   8         (A1)--O          -1.086236          3.561800
   9         (E)--O           -0.879156          2.859096
  10         (E)--O           -0.879156          2.859096
  11         (A1)--O          -0.875071          2.442507
  12         (E)--O           -0.741512          3.228322
  13         (E)--O           -0.741512          3.228322
  14         (E)--O           -0.688231          3.386603
  15         (E)--O           -0.688231          3.386603
  16         (A2)--O          -0.683217          3.490846
  17         (A1)--O          -0.481737          3.121905
  18         (A1)--V           0.333601          4.887651
  19         (E)--V            0.387370          3.665320
  20         (E)--V            0.387370          3.665320
  21         (E)--V            1.260894          3.833751
  22         (E)--V            1.260894          3.833751
  23         (A1)--V           1.278359          3.742755
  24         (A1)--V           1.988204          5.105311
  25         (E)--V            2.066537          6.406114
  26         (E)--V            2.066537          6.406114
  27         (A1)--V           2.272871          6.514606
  28         (E)--V            2.311891          6.534225
  29         (E)--V            2.311891          6.534225
  30         (A2)--V           2.333777          6.545419
  31         (A1)--V           2.424681          6.263700
  32         (E)--V            2.462395          6.688288
  33         (E)--V            2.462395          6.688288
  34         (E)--V            3.818819          8.655160
  35         (E)--V            3.818819          8.655160
  36         (A1)--V           4.435063          8.436352
 Total kinetic energy from orbitals= 3.501731484363D+02
 Calling FoFJK, ICntrl=      2127 FMM=F ISym2X=1 I1Cent= 0 IOpClX= 0 NMat=1 NMatS=1 NMatT=0.
 ***** Axes restored to original set *****
 -------------------------------------------------------------------
 Center     Atomic                   Forces (Hartrees/Bohr)
 Number     Number              X              Y              Z
 -------------------------------------------------------------------
      1        7          -0.000000000    0.000000000    0.200715027
      2        9          -0.000000000    0.110275834   -0.066905009
      3        9          -0.095501674   -0.055137917   -0.066905009
      4        9           0.095501674   -0.055137917   -0.066905009
 -------------------------------------------------------------------
 Cartesian Forces:  Max     0.200715027 RMS     0.086697579

 GradGradGradGradGradGradGradGradGradGradGradGradGradGradGradGradGradGrad
 Berny optimization.
 FormGI is forming the generalized inverse of G from B-inverse, IUseBI=4.
 Internal  Forces:  Max     0.126270727 RMS     0.086610439
 Search for a local minimum.
 Step number   1 out of a maximum of   20
 All quantities printed in internal units (Hartrees-Bohrs-Radians)
 Mixed Optimization -- RFO/linear search
 Second derivative matrix not updated -- first step.
 The second derivative matrix:
                          R1        R2        R3        A1        A2
           R1           0.73068
           R2           0.00000   0.73068
           R3           0.00000   0.00000   0.73068
           A1           0.00000   0.00000   0.00000   0.25000
           A2           0.00000   0.00000   0.00000   0.00000   0.25000
           A3           0.00000   0.00000   0.00000   0.00000   0.00000
           D1           0.00000   0.00000   0.00000   0.00000   0.00000
                          A3        D1
           A3           0.25000
           D1           0.00000   0.02618
 ITU=  0
     Eigenvalues ---    0.09504   0.25000   0.25000   0.73068   0.73068
     Eigenvalues ---    0.73068
 RFO step:  Lambda=-8.17579982D-02 EMin= 9.50443950D-02
 Linear search not attempted -- first point.
 Maximum step size (   0.300) exceeded in Quadratic search.
    -- Step size scaled by   0.873
 Iteration  1 RMS(Cart)=  0.09459076 RMS(Int)=  0.02320820
 Iteration  2 RMS(Cart)=  0.02067879 RMS(Int)=  0.01136703
 Iteration  3 RMS(Cart)=  0.00052117 RMS(Int)=  0.01135752
 Iteration  4 RMS(Cart)=  0.00001502 RMS(Int)=  0.01135751
 Iteration  5 RMS(Cart)=  0.00000041 RMS(Int)=  0.01135751
 ClnCor:  largest displacement from symmetrization is 2.28D-02 for atom     4.
 Variable       Old X    -DE/DX   Delta X   Delta X   Delta X     New X
                                 (Linear)    (Quad)   (Total)
    R1        2.41885   0.12627   0.00000   0.13561   0.14167   2.56052
    R2        2.41885   0.12627   0.00000   0.13561   0.14167   2.56052
    R3        2.41885   0.12627   0.00000   0.13561   0.14167   2.56052
    A1        1.91063  -0.00490   0.00000  -0.07309  -0.11340   1.79723
    A2        1.91063  -0.03428   0.00000  -0.12026  -0.11340   1.79723
    A3        1.91063  -0.03428   0.00000  -0.12026  -0.11340   1.79723
    D1       -2.09439   0.04798   0.00000   0.23680   0.22989  -1.86450
         Item               Value     Threshold  Converged?
 Maximum Force            0.126271     0.000450     NO 
 RMS     Force            0.086610     0.000300     NO 
 Maximum Displacement     0.219250     0.001800     NO 
 RMS     Displacement     0.097683     0.001200     NO 
 Predicted change in Energy=-4.551591D-02
 GradGradGradGradGradGradGradGradGradGradGradGradGradGradGradGradGradGrad

                          Input orientation:                          
 ---------------------------------------------------------------------
 Center     Atomic      Atomic             Coordinates (Angstroms)
 Number     Number       Type             X           Y           Z
 ---------------------------------------------------------------------
      1          7           0        0.000000   -0.000000    0.454846
      2          9           0       -0.000000    1.224233   -0.125838
      3          9           0       -1.060217   -0.612116   -0.125838
      4          9           0        1.060217   -0.612116   -0.125838
 ---------------------------------------------------------------------
                    Distance matrix (angstroms):
                    1          2          3          4
     1  N    0.000000
     2  F    1.354969   0.000000
     3  F    1.354969   2.120433   0.000000
     4  F    1.354969   2.120433   2.120433   0.000000
 Stoichiometry    F3N
 Framework group  C3V[C3(N),3SGV(F)]
 Deg. of freedom     2
 Full point group                 C3V     NOp   6
 Largest Abelian subgroup         CS      NOp   2
 Largest concise Abelian subgroup CS      NOp   2
                         Standard orientation:                         
 ---------------------------------------------------------------------
 Center     Atomic      Atomic             Coordinates (Angstroms)
 Number     Number       Type             X           Y           Z
 ---------------------------------------------------------------------
      1          7           0        0.000000    0.000000    0.461132
      2          9           0        0.000000    1.224233   -0.119553
      3          9           0       -1.060217   -0.612116   -0.119553
      4          9           0        1.060217   -0.612116   -0.119553
 ---------------------------------------------------------------------
 Rotational constants (GHZ):          10.8680962          10.8680962           5.9163082
 Standard basis: 3-21G (6D, 7F)
 There are    23 symmetry adapted cartesian basis functions of A'  symmetry.
 There are    13 symmetry adapted cartesian basis functions of A"  symmetry.
 There are    23 symmetry adapted basis functions of A'  symmetry.
 There are    13 symmetry adapted basis functions of A"  symmetry.
    36 basis functions,    60 primitive gaussians,    36 cartesian basis functions
    17 alpha electrons       17 beta electrons
       nuclear repulsion energy       134.4564223275 Hartrees.
 NAtoms=    4 NActive=    4 NUniq=    2 SFac= 4.00D+00 NAtFMM=   60 NAOKFM=F Big=F
 Integral buffers will be    131072 words long.
 Raffenetti 1 integral format.
 Two-electron integral symmetry is turned on.
 One-electron integrals computed using PRISM.
 NBasis=    36 RedAO= T EigKep=  3.23D-02  NBF=    23    13
 NBsUse=    36 1.00D-06 EigRej= -1.00D+00 NBFU=    23    13
 Initial guess from the checkpoint file:  "nf3_opt.chk"
 B after Tr=    -0.000000    0.000000    0.000000
         Rot=    1.000000   -0.000000    0.000000   -0.000000 Ang=   0.00 deg.
 Initial guess orbital symmetries:
       Occupied  (A1) (E) (E) (A1) (A1) (E) (E) (A1) (E) (E) (A1)
                 (E) (E) (E) (E) (A2) (A1)
       Virtual   (A1) (E) (E) (E) (E) (A1) (A1) (E) (E) (A1) (E)
                 (E) (A2) (A1) (E) (E) (E) (E) (A1)
 ExpMin= 2.83D-01 ExpMax= 4.14D+02 ExpMxC= 4.14D+02 IAcc=3 IRadAn=         5 AccDes= 0.00D+00
 Harris functional with IExCor=  205 and IRadAn=       5 diagonalized for initial guess.
 HarFok:  IExCor=  205 AccDes= 0.00D+00 IRadAn=         5 IDoV= 1 UseB2=F ITyADJ=14
 ICtDFT=  3500011 ScaDFX=  1.000000  1.000000  1.000000  1.000000
 FoFCou: FMM=F IPFlag=           0 FMFlag=      100000 FMFlg1=           0
         NFxFlg=           0 DoJE=T BraDBF=F KetDBF=T FulRan=T
         wScrn=  0.000000 ICntrl=       500 IOpCl=  0 I1Cent=   200000004 NGrid=           0
         NMat0=    1 NMatS0=      1 NMatT0=    0 NMatD0=    1 NMtDS0=    0 NMtDT0=    0
 Petite list used in FoFCou.
 Keep R1 ints in memory in symmetry-blocked form, NReq=1029916.
 Requested convergence on RMS density matrix=1.00D-08 within 128 cycles.
 Requested convergence on MAX density matrix=1.00D-06.
 Requested convergence on             energy=1.00D-06.
 No special actions if energy rises.
 SCF Done:  E(RHF) =  -350.627183438     A.U. after   12 cycles
            NFock= 12  Conv=0.31D-08     -V/T= 2.0031
 Calling FoFJK, ICntrl=      2127 FMM=F ISym2X=1 I1Cent= 0 IOpClX= 0 NMat=1 NMatS=1 NMatT=0.
 ***** Axes restored to original set *****
 -------------------------------------------------------------------
 Center     Atomic                   Forces (Hartrees/Bohr)
 Number     Number              X              Y              Z
 -------------------------------------------------------------------
      1        7           0.000000000    0.000000000    0.058295167
      2        9          -0.000000000    0.038083942   -0.019431722
      3        9          -0.032981661   -0.019041971   -0.019431722
      4        9           0.032981661   -0.019041971   -0.019431722
 -------------------------------------------------------------------
 Cartesian Forces:  Max     0.058295167 RMS     0.027206405

 GradGradGradGradGradGradGradGradGradGradGradGradGradGradGradGradGradGrad
 Berny optimization.
 Using GEDIIS/GDIIS optimizer.
 FormGI is forming the generalized inverse of G from B-inverse, IUseBI=4.
 Internal  Forces:  Max     0.042737007 RMS     0.028009866
 Search for a local minimum.
 Step number   2 out of a maximum of   20
 All quantities printed in internal units (Hartrees-Bohrs-Radians)
 Mixed Optimization -- RFO/linear search
 Update second derivatives using D2CorX and points    1    2
 DE= -4.52D-02 DEPred=-4.55D-02 R= 9.92D-01
 TightC=F SS=  1.41D+00  RLast= 3.89D-01 DXNew= 5.0454D-01 1.1682D+00
 Trust test= 9.92D-01 RLast= 3.89D-01 DXMaxT set to 5.05D-01
 The second derivative matrix:
                          R1        R2        R3        A1        A2
           R1           0.66543
           R2          -0.06526   0.66543
           R3          -0.06526  -0.06526   0.66543
           A1           0.04667   0.04667   0.04667   0.23574
           A2           0.00339   0.00339   0.00339  -0.01204   0.25466
           A3           0.00339   0.00339   0.00339  -0.01204   0.00466
           D1           0.06009   0.06009   0.06009  -0.00058  -0.02444
                          A3        D1
           A3           0.25466
           D1          -0.02444   0.06489
 ITU=  1  0
 Use linear search instead of GDIIS.
     Eigenvalues ---    0.14250   0.25000   0.26884   0.53911   0.73068
     Eigenvalues ---    0.73068
 RFO step:  Lambda=-2.25402796D-03 EMin= 1.42503107D-01
 Quartic linear search produced a step of  0.41400.
 Iteration  1 RMS(Cart)=  0.04631445 RMS(Int)=  0.00395705
 Iteration  2 RMS(Cart)=  0.00046260 RMS(Int)=  0.00393249
 Iteration  3 RMS(Cart)=  0.00000150 RMS(Int)=  0.00393249
 Iteration  4 RMS(Cart)=  0.00000001 RMS(Int)=  0.00393249
 ClnCor:  largest displacement from symmetrization is 1.10D-02 for atom     4.
 Variable       Old X    -DE/DX   Delta X   Delta X   Delta X     New X
                                 (Linear)    (Quad)   (Total)
    R1        2.56052   0.04274   0.05865   0.02413   0.07998   2.64050
    R2        2.56052   0.04274   0.05865   0.02413   0.07998   2.64050
    R3        2.56052   0.04274   0.05865   0.02413   0.07998   2.64050
    A1        1.79723  -0.00060  -0.04695   0.03251  -0.01331   1.78392
    A2        1.79723  -0.00206  -0.04695   0.04151  -0.01331   1.78392
    A3        1.79723  -0.00206  -0.04695   0.04151  -0.01331   1.78392
    D1       -1.86450   0.00192   0.09518  -0.06062   0.02212  -1.84238
         Item               Value     Threshold  Converged?
 Maximum Force            0.042737     0.000450     NO 
 RMS     Force            0.028010     0.000300     NO 
 Maximum Displacement     0.059579     0.001800     NO 
 RMS     Displacement     0.043769     0.001200     NO 
 Predicted change in Energy=-4.985626D-03
 GradGradGradGradGradGradGradGradGradGradGradGradGradGradGradGradGradGrad

                          Input orientation:                          
 ---------------------------------------------------------------------
 Center     Atomic      Atomic             Coordinates (Angstroms)
 Number     Number       Type             X           Y           Z
 ---------------------------------------------------------------------
      1          7           0       -0.000000   -0.000000    0.478533
      2          9           0       -0.000000    1.255761   -0.134246
      3          9           0       -1.087521   -0.627880   -0.134246
      4          9           0        1.087521   -0.627880   -0.134246
 ---------------------------------------------------------------------
                    Distance matrix (angstroms):
                    1          2          3          4
     1  N    0.000000
     2  F    1.397295   0.000000
     3  F    1.397295   2.175041   0.000000
     4  F    1.397295   2.175041   2.175041   0.000000
 Stoichiometry    F3N
 Framework group  C3V[C3(N),3SGV(F)]
 Deg. of freedom     2
 Full point group                 C3V     NOp   6
 Largest Abelian subgroup         CS      NOp   2
 Largest concise Abelian subgroup CS      NOp   2
                         Standard orientation:                         
 ---------------------------------------------------------------------
 Center     Atomic      Atomic             Coordinates (Angstroms)
 Number     Number       Type             X           Y           Z
 ---------------------------------------------------------------------
      1          7           0        0.000000    0.000000    0.486619
      2          9           0        0.000000    1.255761   -0.126160
      3          9           0       -1.087521   -0.627880   -0.126160
      4          9           0        1.087521   -0.627880   -0.126160
 ---------------------------------------------------------------------
 Rotational constants (GHZ):          10.2803036          10.2803036           5.6229615
 Standard basis: 3-21G (6D, 7F)
 There are    23 symmetry adapted cartesian basis functions of A'  symmetry.
 There are    13 symmetry adapted cartesian basis functions of A"  symmetry.
 There are    23 symmetry adapted basis functions of A'  symmetry.
 There are    13 symmetry adapted basis functions of A"  symmetry.
    36 basis functions,    60 primitive gaussians,    36 cartesian basis functions
    17 alpha electrons       17 beta electrons
       nuclear repulsion energy       130.6979677039 Hartrees.
 NAtoms=    4 NActive=    4 NUniq=    2 SFac= 4.00D+00 NAtFMM=   60 NAOKFM=F Big=F
 Integral buffers will be    131072 words long.
 Raffenetti 1 integral format.
 Two-electron integral symmetry is turned on.
 One-electron integrals computed using PRISM.
 NBasis=    36 RedAO= T EigKep=  3.75D-02  NBF=    23    13
 NBsUse=    36 1.00D-06 EigRej= -1.00D+00 NBFU=    23    13
 Initial guess from the checkpoint file:  "nf3_opt.chk"
 B after Tr=     0.000000   -0.000000    0.000000
         Rot=    1.000000   -0.000000   -0.000000    0.000000 Ang=   0.00 deg.
 Initial guess orbital symmetries:
       Occupied  (A1) (E) (E) (A1) (A1) (E) (E) (A1) (A1) (E) (E)
                 (E) (E) (A2) (E) (E) (A1)
       Virtual   (E) (E) (A1) (E) (E) (A1) (A1) (E) (E) (A1) (E)
                 (E) (A2) (A1) (E) (E) (E) (E) (A1)
 ExpMin= 2.83D-01 ExpMax= 4.14D+02 ExpMxC= 4.14D+02 IAcc=3 IRadAn=         5 AccDes= 0.00D+00
 Harris functional with IExCor=  205 and IRadAn=       5 diagonalized for initial guess.
 HarFok:  IExCor=  205 AccDes= 0.00D+00 IRadAn=         5 IDoV= 1 UseB2=F ITyADJ=14
 ICtDFT=  3500011 ScaDFX=  1.000000  1.000000  1.000000  1.000000
 FoFCou: FMM=F IPFlag=           0 FMFlag=      100000 FMFlg1=           0
         NFxFlg=           0 DoJE=T BraDBF=F KetDBF=T FulRan=T
         wScrn=  0.000000 ICntrl=       500 IOpCl=  0 I1Cent=   200000004 NGrid=           0
         NMat0=    1 NMatS0=      1 NMatT0=    0 NMatD0=    1 NMtDS0=    0 NMtDT0=    0
 Petite list used in FoFCou.
 Keep R1 ints in memory in symmetry-blocked form, NReq=1029871.
 Requested convergence on RMS density matrix=1.00D-08 within 128 cycles.
 Requested convergence on MAX density matrix=1.00D-06.
 Requested convergence on             energy=1.00D-06.
 No special actions if energy rises.
 SCF Done:  E(RHF) =  -350.632639207     A.U. after   10 cycles
            NFock= 10  Conv=0.19D-08     -V/T= 2.0041
 Calling FoFJK, ICntrl=      2127 FMM=F ISym2X=1 I1Cent= 0 IOpClX= 0 NMat=1 NMatS=1 NMatT=0.
 ***** Axes restored to original set *****
 -------------------------------------------------------------------
 Center     Atomic                   Forces (Hartrees/Bohr)
 Number     Number              X              Y              Z
 -------------------------------------------------------------------
      1        7          -0.000000000   -0.000000000    0.009283665
      2        9          -0.000000000    0.001825851   -0.003094555
      3        9          -0.001581233   -0.000912926   -0.003094555
      4        9           0.001581233   -0.000912926   -0.003094555
 -------------------------------------------------------------------
 Cartesian Forces:  Max     0.009283665 RMS     0.003226407

 GradGradGradGradGradGradGradGradGradGradGradGradGradGradGradGradGradGrad
 Berny optimization.
 Using GEDIIS/GDIIS optimizer.
 FormGI is forming the generalized inverse of G from B-inverse, IUseBI=4.
 Internal  Forces:  Max     0.003445086 RMS     0.002959071
 Search for a local minimum.
 Step number   3 out of a maximum of   20
 All quantities printed in internal units (Hartrees-Bohrs-Radians)
 Mixed Optimization -- RFO/linear search
 Update second derivatives using D2CorX and points    1    2    3
 DE= -5.46D-03 DEPred=-4.99D-03 R= 1.09D+00
 TightC=F SS=  1.41D+00  RLast= 1.42D-01 DXNew= 8.4853D-01 4.2652D-01
 Trust test= 1.09D+00 RLast= 1.42D-01 DXMaxT set to 5.05D-01
 The second derivative matrix:
                          R1        R2        R3        A1        A2
           R1           0.65685
           R2          -0.07383   0.65685
           R3          -0.07383  -0.07383   0.65685
           A1           0.01488   0.01488   0.01488   0.23241
           A2           0.02091   0.02091   0.02091  -0.00839   0.25243
           A3           0.02091   0.02091   0.02091  -0.00839   0.00243
           D1          -0.01056  -0.01056  -0.01056  -0.01115  -0.01582
                          A3        D1
           A3           0.25243
           D1          -0.01582   0.03626
 ITU=  1  1  0
 Use linear search instead of GDIIS.
     Eigenvalues ---    0.13285   0.25000   0.25426   0.51990   0.73068
     Eigenvalues ---    0.73068
 RFO step:  Lambda=-2.07317704D-04 EMin= 1.32845347D-01
 Quartic linear search produced a step of  0.10689.
 Iteration  1 RMS(Cart)=  0.01284132 RMS(Int)=  0.00024916
 Iteration  2 RMS(Cart)=  0.00019884 RMS(Int)=  0.00016380
 Iteration  3 RMS(Cart)=  0.00000001 RMS(Int)=  0.00016380
 ClnCor:  largest displacement from symmetrization is 1.36D-03 for atom     4.
 Variable       Old X    -DE/DX   Delta X   Delta X   Delta X     New X
                                 (Linear)    (Quad)   (Total)
    R1        2.64050   0.00300   0.00855   0.00063   0.00952   2.65002
    R2        2.64050   0.00300   0.00855   0.00063   0.00952   2.65002
    R3        2.64050   0.00300   0.00855   0.00063   0.00952   2.65002
    A1        1.78392  -0.00105  -0.00142  -0.01366  -0.01640   1.76752
    A2        1.78392  -0.00345  -0.00142  -0.01562  -0.01640   1.76752
    A3        1.78392  -0.00345  -0.00142  -0.01562  -0.01640   1.76752
    D1       -1.84238   0.00308   0.00236   0.02340   0.02618  -1.81620
         Item               Value     Threshold  Converged?
 Maximum Force            0.003445     0.000450     NO 
 RMS     Force            0.002959     0.000300     NO 
 Maximum Displacement     0.027145     0.001800     NO 
 RMS     Displacement     0.012733     0.001200     NO 
 Predicted change in Energy=-1.356491D-04
 GradGradGradGradGradGradGradGradGradGradGradGradGradGradGradGradGradGrad

                          Input orientation:                          
 ---------------------------------------------------------------------
 Center     Atomic      Atomic             Coordinates (Angstroms)
 Number     Number       Type             X           Y           Z
 ---------------------------------------------------------------------
      1          7           0       -0.000000   -0.000000    0.492898
      2          9           0       -0.000000    1.251909   -0.138970
      3          9           0       -1.084185   -0.625955   -0.138970
      4          9           0        1.084185   -0.625955   -0.138970
 ---------------------------------------------------------------------
                    Distance matrix (angstroms):
                    1          2          3          4
     1  N    0.000000
     2  F    1.402332   0.000000
     3  F    1.402332   2.168370   0.000000
     4  F    1.402332   2.168370   2.168370   0.000000
 Stoichiometry    F3N
 Framework group  C3V[C3(N),3SGV(F)]
 Deg. of freedom     2
 Full point group                 C3V     NOp   6
 Largest Abelian subgroup         CS      NOp   2
 Largest concise Abelian subgroup CS      NOp   2
[...]
  20         (A1)--V           0.223250          4.442720
  21         (E)--V            1.272420          3.775873
  22         (E)--V            1.272420          3.775873
  23         (A1)--V           1.281256          3.786642
  24         (A1)--V           2.055908          5.762179
  25         (E)--V            2.060297          6.386116
  26         (E)--V            2.060297          6.386116
  27         (A1)--V           2.308517          6.266029
  28         (A2)--V           2.315143          6.519772
  29         (E)--V            2.317646          6.521475
  30         (E)--V            2.317646          6.521475
  31         (A1)--V           2.374712          6.529992
  32         (E)--V            2.445527          6.774250
  33         (E)--V            2.445527          6.774250
  34         (E)--V            3.622711          8.564150
  35         (E)--V            3.622711          8.564150
  36         (A1)--V           4.521299          8.259490
 Total kinetic energy from orbitals= 3.491839734269D+02
  Exact polarizability:  13.391  -0.000  13.391   0.000   0.000   4.927
 Approx polarizability:  10.928  -0.000  10.928   0.000   0.000   4.614
 Calling FoFJK, ICntrl=    100127 FMM=F ISym2X=1 I1Cent= 0 IOpClX= 0 NMat=1 NMatS=1 NMatT=0.
 Full mass-weighted force constant matrix:
 Low frequencies ---   -0.0020   -0.0017   -0.0011    8.4118    8.7821    8.7825
 Low frequencies ---  483.1157  483.1158  627.6713
 Diagonal vibrational polarizability:
        2.4408114       2.4408129       1.9011338
 Diagonal vibrational hyperpolarizability:
        0.0000000      -5.0634244      17.2394390
 Harmonic frequencies (cm**-1), IR intensities (KM/Mole), Raman scattering
 activities (A**4/AMU), depolarization ratios for plane and unpolarized
 incident light, reduced masses (AMU), force constants (mDyne/A),
 and normal coordinates:
                      1                      2                      3
                      E                      E                     A1
 Frequencies --    483.1157               483.1158               627.6713
 Red. masses --     18.4956                18.4956                17.7382
 Frc consts  --      2.5434                 2.5434                 4.1174
 IR Inten    --      2.7242                 2.7242                15.8730
 Raman Activ --      2.4887                 2.4887                 3.6547
 Depolar (P) --      0.7500                 0.7500                 0.4710
 Depolar (U) --      0.8571                 0.8571                 0.6403
  Atom  AN      X      Y      Z        X      Y      Z        X      Y      Z
     1   7     0.00  -0.32  -0.00    -0.32  -0.00  -0.00     0.00  -0.00  -0.50
     2   9    -0.00  -0.46  -0.08     0.62  -0.00  -0.00    -0.00   0.48   0.12
     3   9    -0.47   0.35   0.04    -0.19  -0.47   0.07    -0.42  -0.24   0.12
     4   9     0.47   0.35   0.04    -0.19   0.47  -0.07     0.42  -0.24   0.12
                      4                      5                      6
                     A1                      E                      E
 Frequencies --   1085.3628              1134.8948              1134.8948
 Red. masses --     15.6323                15.4001                15.4001
 Frc consts  --     10.8499                11.6865                11.6865
 IR Inten    --     35.7585               101.7857               101.7857
 Raman Activ --     22.2135                11.3755                11.3755
 Depolar (P) --      0.0038                 0.7500                 0.7500
 Depolar (U) --      0.0076                 0.8571                 0.8571
  Atom  AN      X      Y      Z        X      Y      Z        X      Y      Z
     1   7     0.00  -0.00   0.82     0.00   0.85   0.00     0.85  -0.00  -0.00
     2   9    -0.00   0.26  -0.20    -0.00  -0.38   0.21    -0.04   0.00  -0.00
     3   9    -0.23  -0.13  -0.20    -0.15  -0.12  -0.10    -0.29  -0.15  -0.18
     4   9     0.23  -0.13  -0.20     0.15  -0.12  -0.10    -0.29   0.15   0.18

 -------------------
 - Thermochemistry -
 -------------------
 Temperature   298.150 Kelvin.  Pressure   1.00000 Atm.
 Atom     1 has atomic number  7 and mass  14.00307
 Atom     2 has atomic number  9 and mass  18.99840
 Atom     3 has atomic number  9 and mass  18.99840
 Atom     4 has atomic number  9 and mass  18.99840
 Molecular mass:    70.99828 amu.
 Principal axes and moments of inertia in atomic units:
                           1         2         3
     Eigenvalues --   175.97067 175.97067 320.55791
           X           -0.40082   0.91616   0.00000
           Y            0.91616   0.40082   0.00000
           Z            0.00000   0.00000   1.00000
 This molecule is an oblate symmetric top.
 Rotational symmetry number  3.
 Rotational temperatures (Kelvin)      0.49221     0.49221     0.27020
 Rotational constants (GHZ):          10.25592    10.25592     5.63000
 Zero-point vibrational energy      29601.9 (Joules/Mol)
                                    7.07503 (Kcal/Mol)
 Warning -- explicit consideration of   2 degrees of freedom as
           vibrations may cause significant error
 Vibrational temperatures:    695.10   695.10   903.08  1561.59  1632.86
          (Kelvin)           1632.86
 
 Zero-point correction=                           0.011275 (Hartree/Particle)
 Thermal correction to Energy=                    0.014796
 Thermal correction to Enthalpy=                  0.015741
 Thermal correction to Gibbs Free Energy=        -0.013863
 Sum of electronic and zero-point Energies=           -350.621469
 Sum of electronic and thermal Energies=              -350.617947
 Sum of electronic and thermal Enthalpies=            -350.617003
 Sum of electronic and thermal Free Energies=         -350.646607
 
                     E (Thermal)             CV                S
                      KCal/Mol        Cal/Mol-Kelvin    Cal/Mol-Kelvin
 Total                    9.285             10.306             62.307
 Electronic               0.000              0.000              0.000
 Translational            0.889              2.981             38.697
 Rotational               0.889              2.981             21.627
 Vibrational              7.507              4.344              1.982
 Vibration     1          0.839              1.287              0.702
 Vibration     2          0.839              1.287              0.702
                       Q            Log10(Q)             Ln(Q)
 Total Bot       0.238055D+07          6.376677         14.682842
 Total V=0       0.365351D+12         11.562710         26.624124
 Vib (Bot)       0.851596D-05         -5.069766        -11.673568
 Vib (Bot)    1  0.345256D+00         -0.461858         -1.063468
 Vib (Bot)    2  0.345256D+00         -0.461858         -1.063468
 Vib (V=0)       0.130697D+01          0.116267          0.267714
 Vib (V=0)    1  0.110762D+01          0.044391          0.102214
 Vib (V=0)    2  0.110762D+01          0.044391          0.102214
 Electronic      0.100000D+01          0.000000          0.000000
 Translational   0.235140D+08          7.371326         16.973105
 Rotational      0.118882D+05          4.075118          9.383306
 ***** Axes restored to original set *****
 -------------------------------------------------------------------
 Center     Atomic                   Forces (Hartrees/Bohr)
 Number     Number              X              Y              Z
 -------------------------------------------------------------------
      1        7          -0.000000000   -0.000000000   -0.000071940
      2        9           0.000000000   -0.000120552    0.000023980
      3        9           0.000104401    0.000060276    0.000023980
      4        9          -0.000104401    0.000060276    0.000023980
 -------------------------------------------------------------------
 Cartesian Forces:  Max     0.000120552 RMS     0.000064871
 FormGI is forming the generalized inverse of G from B-inverse, IUseBI=4.

 GradGradGradGradGradGradGradGradGradGradGradGradGradGradGradGradGradGrad
 Berny optimization.
 Internal  Forces:  Max     0.000118596 RMS     0.000085698
 Search for a local minimum.
 Step number   1 out of a maximum of    2
 All quantities printed in internal units (Hartrees-Bohrs-Radians)
 Second derivative matrix not updated -- analytic derivatives used.
 The second derivative matrix:
                          R1        R2        R3        A1        A2
           R1           0.38638
           R2           0.03331   0.38638
           R3           0.03331   0.03331   0.38638
           A1           0.02128   0.02128  -0.01578   0.11177
           A2           0.04597  -0.01275   0.05144  -0.05865   0.39103
           A3          -0.01275   0.04597   0.05144  -0.05865   0.01267
           D1          -0.03131  -0.03131  -0.01078  -0.08666  -0.04577
                          A3        D1
           A3           0.39103
           D1          -0.04577   0.11586
 ITU=  0
     Eigenvalues ---    0.18667   0.30565   0.32674   0.40417   0.42578
     Eigenvalues ---    0.51983
 Angle between quadratic step and forces=   9.26 degrees.
 Linear search not attempted -- first point.
 Iteration  1 RMS(Cart)=  0.00019776 RMS(Int)=  0.00000001
 Iteration  2 RMS(Cart)=  0.00000001 RMS(Int)=  0.00000000
 ClnCor:  largest displacement from symmetrization is 4.80D-09 for atom     4.
 Variable       Old X    -DE/DX   Delta X   Delta X   Delta X     New X
                                 (Linear)    (Quad)   (Total)
    R1        2.64957  -0.00012   0.00000  -0.00024  -0.00024   2.64932
    R2        2.64957  -0.00012   0.00000  -0.00024  -0.00024   2.64932
    R3        2.64957  -0.00012   0.00000  -0.00024  -0.00024   2.64932
    A1        1.77393  -0.00002   0.00000  -0.00009  -0.00009   1.77384
    A2        1.77393  -0.00006   0.00000  -0.00009  -0.00009   1.77384
    A3        1.77393  -0.00006   0.00000  -0.00009  -0.00009   1.77384
    D1       -1.82629   0.00005   0.00000   0.00014   0.00014  -1.82615
         Item               Value     Threshold  Converged?
 Maximum Force            0.000119     0.000450     YES
 RMS     Force            0.000086     0.000300     YES
 Maximum Displacement     0.000301     0.001800     YES
 RMS     Displacement     0.000198     0.001200     YES
 Predicted change in Energy=-5.214816D-08
 Optimization completed.
    -- Stationary point found.
                           ----------------------------
                           !   Optimized Parameters   !
                           ! (Angstroms and Degrees)  !
 --------------------------                            --------------------------
 ! Name  Definition              Value          Derivative Info.                !
 --------------------------------------------------------------------------------
 ! R1    R(1,2)                  1.4021         -DE/DX =   -0.0001              !
 ! R2    R(1,3)                  1.4021         -DE/DX =   -0.0001              !
 ! R3    R(1,4)                  1.4021         -DE/DX =   -0.0001              !
 ! A1    A(2,1,3)              101.6386         -DE/DX =    0.0                 !
 ! A2    A(2,1,4)              101.6386         -DE/DX =   -0.0001              !
 ! A3    A(3,1,4)              101.6386         -DE/DX =   -0.0001              !
 ! D1    D(2,1,4,3)           -104.6386         -DE/DX =    0.0                 !
 --------------------------------------------------------------------------------
 GradGradGradGradGradGradGradGradGradGradGradGradGradGradGradGradGradGrad


 ----------------------------------------------------------------------

 Electric dipole moment (input orientation):
 (Debye = 10**-18 statcoulomb cm , SI units = C m)
                  (au)            (Debye)         (10**-30 SI)
   Tot        0.172495D+00      0.438438D+00      0.146247D+01
   x          0.000000D+00      0.000000D+00      0.000000D+00
   y          0.000000D+00      0.000000D+00      0.000000D+00
   z          0.172495D+00      0.438438D+00      0.146247D+01

 Dipole polarizability, Alpha (input orientation).
 (esu units = cm**3 , SI units = C**2 m**2 J**-1)
 Alpha(0;0):
               (au)            (10**-24 esu)      (10**-40 SI)
   iso        0.105695D+02      0.156624D+01      0.174267D+01
   aniso      0.846334D+01      0.125414D+01      0.139542D+01
   xx         0.133906D+02      0.198428D+01      0.220781D+01
   yx         0.000000D+00      0.000000D+00      0.000000D+00
   yy         0.133906D+02      0.198428D+01      0.220781D+01
   zx         0.000000D+00      0.000000D+00      0.000000D+00
   zy         0.000000D+00      0.000000D+00      0.000000D+00
   zz         0.492726D+01      0.730145D+00      0.812396D+00

 First dipole hyperpolarizability, Beta (input orientation).
 ||, _|_  parallel and perpendicular components, (z) with respect to z axis,
 vector components x,y,z.  Values do not include the 1/n! factor of 1/2.
 (esu units = statvolt**-1 cm**4 , SI units = C**3 m**3 J**-2)
 Beta(0;0,0):
               (au)            (10**-30 esu)      (10**-50 SI)
   || (z)     0.788677D+01      0.681355D-01      0.252878D-01
   _|_(z)     0.262892D+01      0.227118D-01      0.842928D-02
   x          0.000000D+00      0.000000D+00      0.000000D+00
   y          0.000000D+00      0.000000D+00      0.000000D+00
   z          0.394338D+02      0.340678D+00      0.126439D+00
   ||         0.788677D+01      0.681355D-01      0.252878D-01
   xxx        0.000000D+00      0.000000D+00      0.000000D+00
   xxy        0.798172D+01      0.689559D-01      0.255923D-01
   yxy        0.000000D+00      0.000000D+00      0.000000D+00
   yyy       -0.798172D+01     -0.689559D-01     -0.255923D-01
   xxz        0.444593D+01      0.384094D-01      0.142553D-01
   yxz        0.000000D+00      0.000000D+00      0.000000D+00
   yyz        0.444593D+01      0.384094D-01      0.142553D-01
   zxz        0.000000D+00      0.000000D+00      0.000000D+00
   zyz        0.000000D+00      0.000000D+00      0.000000D+00
   zzz        0.425275D+01      0.367405D-01      0.136359D-01

 ----------------------------------------------------------------------

 Dipole orientation:
     7         -0.00000000          0.00000000          0.92198666
     9         -0.00000001          2.37155975         -0.25949865
     9         -2.05383099         -1.18577988         -0.25949865
     9          2.05383099         -1.18577987         -0.25949865

 Electric dipole moment (dipole orientation):
 (Debye = 10**-18 statcoulomb cm , SI units = C m)
                  (au)            (Debye)         (10**-30 SI)
   Tot        0.172495D+00      0.438438D+00      0.146247D+01
   x          0.000000D+00      0.000000D+00      0.000000D+00
   y          0.000000D+00      0.000000D+00      0.000000D+00
   z          0.172495D+00      0.438438D+00      0.146247D+01

 Dipole polarizability, Alpha (dipole orientation).
 (esu units = cm**3 , SI units = C**2 m**2 J**-1)
 Alpha(0;0):
               (au)            (10**-24 esu)      (10**-40 SI)
   iso        0.105695D+02      0.156624D+01      0.174267D+01
   aniso      0.846334D+01      0.125414D+01      0.139542D+01
   xx         0.133906D+02      0.198428D+01      0.220781D+01
   yx         0.000000D+00      0.000000D+00      0.000000D+00
   yy         0.133906D+02      0.198428D+01      0.220781D+01
   zx         0.000000D+00      0.000000D+00      0.000000D+00
   zy         0.000000D+00      0.000000D+00      0.000000D+00
   zz         0.492726D+01      0.730145D+00      0.812396D+00

 First dipole hyperpolarizability, Beta (dipole orientation).
 ||, _|_  parallel and perpendicular components, (z) with respect to z axis,
 vector components x,y,z.  Values do not include the 1/n! factor of 1/2.
 (esu units = statvolt**-1 cm**4 , SI units = C**3 m**3 J**-2)
 Beta(0;0,0):
               (au)            (10**-30 esu)      (10**-50 SI)
   || (z)     0.788677D+01      0.681355D-01      0.252878D-01
   _|_(z)     0.262892D+01      0.227118D-01      0.842928D-02
   x          0.000000D+00      0.000000D+00      0.000000D+00
   y          0.000000D+00      0.000000D+00      0.000000D+00
   z          0.394338D+02      0.340678D+00      0.126439D+00
   ||         0.788677D+01      0.681355D-01      0.252878D-01
   xxx        0.000000D+00      0.000000D+00      0.000000D+00
   xxy        0.798172D+01      0.689559D-01      0.255923D-01
   yxy        0.000000D+00      0.000000D+00      0.000000D+00
   yyy       -0.798172D+01     -0.689559D-01     -0.255923D-01
   xxz        0.444593D+01      0.384094D-01      0.142553D-01
   yxz        0.000000D+00      0.000000D+00      0.000000D+00
   yyz        0.444593D+01      0.384094D-01      0.142553D-01
   zxz        0.000000D+00      0.000000D+00      0.000000D+00
   zyz        0.000000D+00      0.000000D+00      0.000000D+00
   zzz        0.425275D+01      0.367405D-01      0.136359D-01

 ----------------------------------------------------------------------
 1\1\GINC-IISERK51\Freq\RHF\3-21G\F3N1\GAUSSIAN\13-Jun-2025\0\\#N Geom=
 AllCheck Guess=TCheck SCRF=Check GenChk RHF/3-21G Freq\\Title Card Req
 uired\\0,1\N,0.,0.,0.4878943301\F,-0.0000000035,1.254975373,-0.1373207
 725\F,-1.0868405524,-0.6274876896,-0.1373207725\F,1.0868405559,-0.6274
 876834,-0.1373207725\\Version=EM64L-G16RevB.01\State=1-A1\HF=-350.6327
 437\RMSD=1.069e-09\RMSF=6.487e-05\ZeroPoint=0.0112748\Thermal=0.014796
 3\Dipole=0.,0.,0.1724948\DipoleDeriv=1.046201,0.,0.,0.,1.0462013,0.,0.
 ,0.,0.7698969,-0.212141,0.,0.,0.,-0.4853264,-0.038386,0.,0.2989807,-0.
 2566323,-0.41703,-0.1182927,0.0332433,-0.1182927,-0.2804373,0.019193,-
 0.2589249,-0.1494903,-0.2566323,-0.41703,0.1182927,-0.0332433,0.118292
 7,-0.2804373,0.019193,0.2589249,-0.1494903,-0.2566323\Polar=13.3906017
 ,0.,13.3906017,0.,0.,4.9272642\PolarDeriv=0.,4.3570772,0.,5.3415528,0.
 ,0.,4.3570776,0.,-4.3570775,0.,5.3415524,0.,5.7451492,0.,5.7451495,0.,
 0.,7.7319505,0.,2.8849444,0.,-0.9790335,0.,0.,0.3300945,0.,11.9094184,
 0.,-2.5820016,0.5039378,-0.467951,0.,-3.362149,0.,4.1531888,-2.5773169
 ,-9.0560792,-3.6210104,-1.5436498,-2.1812595,-0.6941056,-0.436423,-2.3
 435854,-3.7562147,-3.776171,-0.6941056,-1.3797755,-0.2519689,-2.638599
 5,-1.2532245,-1.1915005,-3.596767,-2.0765944,-2.5773169,9.0560793,-3.6
 210104,1.5436498,-2.1812595,0.6941055,0.436423,-2.3435854,3.7562147,-3
 .776171,0.6941055,-1.3797755,-0.2519689,-2.6385995,1.2532245,-1.191500
 5,3.596767,-2.0765944,-2.5773169\HyperPolar=0.,7.9817217,0.,-7.9817217
 ,4.4459296,0.,4.4459296,0.,0.,4.2527537\Quadrupole=-0.2061175,-0.20611
 75,0.4122349,0.,0.,0.\PG=C03V [C3(N1),3SGV(F1)]\NImag=0\\0.45648423,0.
 ,0.45648419,0.,0.,0.41838936,-0.05397334,0.,0.,0.06755288,0.,-0.250349
 49,0.10812368,0.,0.33948618,0.,0.15159010,-0.13946312,0.,-0.11918208,0
 .09686861,-0.20125545,-0.08503338,-0.09363785,-0.00678977,-0.02254201,
 0.00297083,0.27150285,-0.08503338,-0.10306737,-0.05406184,-0.04289238,
 -0.04456834,-0.01620401,0.11775057,0.13553620,-0.13128087,-0.07579505,
 -0.13946313,0.01551850,0.00552919,0.02129726,0.10321471,0.05959104,0.0
 9686861,-0.20125545,0.08503338,0.09363785,-0.00678977,0.02254201,-0.00
 297083,-0.06345762,0.01017518,0.01254767,0.27150285,0.08503338,-0.1030
 6737,-0.05406184,0.04289238,-0.04456834,-0.01620401,-0.01017518,0.0120
 9951,0.01067482,-0.11775057,0.13553620,0.13128087,-0.07579505,-0.13946
 313,-0.01551850,0.00552919,0.02129726,-0.01254767,0.01067482,0.0212972
 6,-0.10321471,0.05959104,0.09686861\\0.,0.,0.00007194,0.,0.00012055,-0
 .00002398,-0.00010440,-0.00006028,-0.00002398,0.00010440,-0.00006028,-
 0.00002398\\\@


 We're simply so accustomed to the marvels of everyday thought
 that we never wonder about it.
 -- Marvin Minsky in "Why people think computers are smart"
 Job cpu time:       0 days  0 hours  0 minutes  0.8 seconds.
 Elapsed time:       0 days  0 hours  0 minutes  0.8 seconds.
 File lengths (MBytes):  RWF=      6 Int=      0 D2E=      0 Chk=      1 Scr=      1
 Normal termination of Gaussian 16 at Fri Jun 13 19:12:19 2025.
