 Entering Gaussian System, Link 0=g16
 Input=/home/gaussian/Documents/Summer_Internship/Acid_Base_adduct/Base/NF3/nf3_sp.com
 Output=/home/gaussian/Documents/Summer_Internship/Acid_Base_adduct/Base/NF3/nf3_sp.log
 Initial command:
 /usr/local/g16/l1.exe "/home/gaussian/tmp/Gau-28353.inp" -scrdir="/home/gaussian/tmp/"
 Entering Link 1 = /usr/local/g16/l1.exe PID=     28356.
  
 Copyright (c) 1988-2017, Gaussian, Inc.  All Rights Reserved.
  
 This is part of the Gaussian(R) 16 program.  It is based on
 the Gaussian(R) 09 system (copyright 2009, Gaussian, Inc.),
 the Gaussian(R) 03 system (copyright 2003, Gaussian, Inc.),
 the Gaussian(R) 98 system (copyright 1998, Gaussian, Inc.),
 the Gaussian(R) 94 system (copyright 1995, Gaussian, Inc.),
 the Gaussian 92(TM) system (copyright 1992, Gaussian, Inc.),
 the Gaussian 90(TM) system (copyright 1990, Gaussian, Inc.),
 the Gaussian 88(TM) system (copyright 1988, Gaussian, Inc.),
 the Gaussian 86(TM) system (copyright 1986, Carnegie Mellon
 University), and the Gaussian 82(TM) system (copyright 1983,
 Carnegie Mellon University). Gaussian is a federally registered
 trademark of Gaussian, Inc.
  
 This software contains proprietary and confidential information,
 including trade secrets, belonging to Gaussian, Inc.
  
 This software is provided under written license and may be
 used, copied, transmitted, or stored only in accord with that
 written license.
  
 The following legend is applicable only to US Government
 contracts under FAR:
  
                    RESTRICTED RIGHTS LEGEND
  
 Use, reproduction and disclosure by the US Government is
 subject to restrictions as set forth in subparagraphs (a)
 and (c) of the Commercial Computer Software - Restricted
 Rights clause in FAR 52.227-19.
  
 Gaussian, Inc.
 340 Quinnipiac St., Bldg. 40, Wallingford CT 06492
  
  
 ---------------------------------------------------------------
 Warning -- This program may not be used in any manner that
 competes with the business of Gaussian, Inc. or will provide
 assistance to any competitor of Gaussian, Inc.  The licensee
 of this program is prohibited from giving any competitor of
 Gaussian, Inc. access to this program.  By using this program,
 the user acknowledges that Gaussian, Inc. is engaged in the
 business of creating and licensing software in the field of
 computational chemistry and represents and warrants to the
 licensee that it is not a competitor of Gaussian, Inc. and that
 it will not use this program in any manner prohibited above.
 ---------------------------------------------------------------
  

 Cite this work as:
 Gaussian 16, Revision B.01,
 M. J. Frisch, G. W. Trucks, H. B. Schlegel, G. E. Scuseria, 
 M. A. Robb, J. R. Cheeseman, G. Scalmani, V. Barone, 
 G. A. Petersson, H. Nakatsuji, X. Li, M. Caricato, A. V. Marenich, 
 J. Bloino, B. G. Janesko, R. Gomperts, B. Mennucci, H. P. Hratchian, 
 J. V. Ortiz, A. F. Izmaylov, J. L. Sonnenberg, D. Williams-Young, 
 F. Ding, F. Lipparini, F. Egidi, J. Goings, B. Peng, A. Petrone, 
 T. Henderson, D. Ranasinghe, V. G. Zakrzewski, J. Gao, N. Rega, 
 G. Zheng, W. Liang, M. Hada, M. Ehara, K. Toyota, R. Fukuda, 
 J. Hasegawa, M. Ishida, T. Nakajima, Y. Honda, O. Kitao, H. Nakai, 
 T. Vreven, K. Throssell, J. A. Montgomery, Jr., J. E. Peralta, 
 F. Ogliaro, M. J. Bearpark, J. J. Heyd, E. N. Brothers, K. N. Kudin, 
 V. N. Staroverov, T. A. Keith, R. Kobayashi, J. Normand, 
 K. Raghavachari, A. P. Rendell, J. C. Burant, S. S. Iyengar, 
 J. Tomasi, M. Cossi, J. M. Millam, M. Klene, C. Adamo, R. Cammi, 
 J. W. Ochterski, R. L. Martin, K. Morokuma, O. Farkas, 
 J. B. Foresman, and D. J. Fox, Gaussian, Inc., Wallingford CT, 2016.
 
 ******************************************
 Gaussian 16:  EM64L-G16RevB.01 20-Dec-2017
                13-Jun-2025 
 ******************************************
 %chk=nf3_sp.chk
 -------------------------------------
 # hf/3-21g pop=full geom=connectivity
 -------------------------------------
 1/38=1,57=2,172=1/1;
 2/12=2,17=6,18=5,40=1/2;
 3/5=5,11=9,25=1,30=1/1,2,3;
 4//1;
 5/5=2,38=5/2;
 6/7=3,28=1/1;
 99/5=1,9=1/99;
 -------------------
 Title Card Required
 -------------------
 Symbolic Z-matrix:
 Charge =  0 Multiplicity = 1
 N                     0.        0.        0.49649 
 F                     0.        1.25498  -0.12872 
 F                    -1.08684  -0.62749  -0.12872 
 F                     1.08684  -0.62749  -0.12872 
 
                          Input orientation:                          
 ---------------------------------------------------------------------
 Center     Atomic      Atomic             Coordinates (Angstroms)
 Number     Number       Type             X           Y           Z
 ---------------------------------------------------------------------
      1          7           0        0.000000    0.000000    0.496494
      2          9           0        0.000000    1.254975   -0.128721
      3          9           0       -1.086841   -0.627488   -0.128721
      4          9           0        1.086841   -0.627488   -0.128721
 ---------------------------------------------------------------------
                    Distance matrix (angstroms):
                    1          2          3          4
     1  N    0.000000
     2  F    1.402090   0.000000
     3  F    1.402091   2.173681   0.000000
     4  F    1.402091   2.173681   2.173682   0.000000
 Stoichiometry    F3N
 Framework group  C3V[C3(N),3SGV(F)]
 Deg. of freedom     2
 Full point group                 C3V     NOp   6
 Largest Abelian subgroup         CS      NOp   2
 Largest concise Abelian subgroup CS      NOp   2
                         Standard orientation:                         
 ---------------------------------------------------------------------
 Center     Atomic      Atomic             Coordinates (Angstroms)
 Number     Number       Type             X           Y           Z
 ---------------------------------------------------------------------
      1          7           0       -0.000000    0.000000    0.496494
      2          9           0        0.000000    1.254975   -0.128721
      3          9           0       -1.086840   -0.627488   -0.128721
      4          9           0        1.086840   -0.627488   -0.128721
 ---------------------------------------------------------------------
 Rotational constants (GHZ):          10.2559222          10.2559222           5.6300015
 Standard basis: 3-21G (6D, 7F)
 There are    23 symmetry adapted cartesian basis functions of A'  symmetry.
 There are    13 symmetry adapted cartesian basis functions of A"  symmetry.
 There are    23 symmetry adapted basis functions of A'  symmetry.
 There are    13 symmetry adapted basis functions of A"  symmetry.
    36 basis functions,    60 primitive gaussians,    36 cartesian basis functions
    17 alpha electrons       17 beta electrons
       nuclear repulsion energy       130.4901734064 Hartrees.
 NAtoms=    4 NActive=    4 NUniq=    2 SFac= 4.00D+00 NAtFMM=   60 NAOKFM=F Big=F
 Integral buffers will be    131072 words long.
 Raffenetti 1 integral format.
 Two-electron integral symmetry is turned on.
 One-electron integrals computed using PRISM.
 NBasis=    36 RedAO= T EigKep=  3.75D-02  NBF=    23    13
 NBsUse=    36 1.00D-06 EigRej= -1.00D+00 NBFU=    23    13
 ExpMin= 2.83D-01 ExpMax= 4.14D+02 ExpMxC= 4.14D+02 IAcc=3 IRadAn=         5 AccDes= 0.00D+00
 Harris functional with IExCor=  205 and IRadAn=       5 diagonalized for initial guess.
 HarFok:  IExCor=  205 AccDes= 0.00D+00 IRadAn=         5 IDoV= 1 UseB2=F ITyADJ=14
 ICtDFT=  3500011 ScaDFX=  1.000000  1.000000  1.000000  1.000000
 FoFCou: FMM=F IPFlag=           0 FMFlag=      100000 FMFlg1=           0
         NFxFlg=           0 DoJE=T BraDBF=F KetDBF=T FulRan=T
         wScrn=  0.000000 ICntrl=       500 IOpCl=  0 I1Cent=   200000004 NGrid=           0
         NMat0=    1 NMatS0=      1 NMatT0=    0 NMatD0=    1 NMtDS0=    0 NMtDT0=    0
 Petite list used in FoFCou.
 Initial guess orbital symmetries:
       Occupied  (A1) (E) (E) (A1) (A1) (E) (E) (A1) (E) (E) (A1)
                 (E) (E) (E) (E) (A2) (A1)
       Virtual   (E) (E) (A1) (E) (E) (A1) (E) (E) (A1) (A1) (E)
                 (E) (A2) (E) (E) (A1) (E) (E) (A1)
 The electronic state of the initial guess is 1-A1.
 Keep R1 ints in memory in symmetry-blocked form, NReq=1029855.
 Requested convergence on RMS density matrix=1.00D-08 within 128 cycles.
 Requested convergence on MAX density matrix=1.00D-06.
 Requested convergence on             energy=1.00D-06.
 No special actions if energy rises.
 SCF Done:  E(RHF) =  -350.632743660     A.U. after   12 cycles
            NFock= 12  Conv=0.70D-09     -V/T= 2.0041

 **********************************************************************

            Population analysis using the SCF Density.

 **********************************************************************

 Orbital symmetries:
       Occupied  (A1) (E) (E) (A1) (A1) (E) (E) (A1) (A1) (E) (E)
                 (E) (E) (A2) (E) (E) (A1)
       Virtual   (E) (E) (A1) (E) (E) (A1) (A1) (E) (E) (A1) (A2)
                 (E) (E) (A1) (E) (E) (E) (E) (A1)
 The electronic state is 1-A1.
 Alpha  occ. eigenvalues --  -26.26182 -26.26090 -26.26090 -15.83748  -1.76983
 Alpha  occ. eigenvalues --   -1.63766  -1.63766  -1.10399  -0.81964  -0.81756
 Alpha  occ. eigenvalues --   -0.81756  -0.71881  -0.71881  -0.67314  -0.65925
 Alpha  occ. eigenvalues --   -0.65925  -0.55158
 Alpha virt. eigenvalues --    0.22133   0.22133   0.22325   1.27242   1.27242
 Alpha virt. eigenvalues --    1.28126   2.05591   2.06030   2.06030   2.30852
 Alpha virt. eigenvalues --    2.31514   2.31765   2.31765   2.37471   2.44553
 Alpha virt. eigenvalues --    2.44553   3.62271   3.62271   4.52130
     Molecular Orbital Coefficients:
                           1         2         3         4         5
                        (A1)--O   (E)--O    (E)--O    (A1)--O   (A1)--O
     Eigenvalues --   -26.26182 -26.26090 -26.26090 -15.83748  -1.76983
   1 1   N  1S         -0.00171  -0.00000   0.00000   0.98621  -0.10329
   2        2S         -0.00897  -0.00000   0.00000   0.09733   0.12097
   3        2PX         0.00000   0.00000  -0.00035   0.00000   0.00000
   4        2PY        -0.00000   0.00035   0.00000  -0.00000  -0.00000
   5        2PZ         0.00074   0.00000   0.00000  -0.00535  -0.06791
   6        3S          0.02765   0.00000   0.00000  -0.04745   0.21232
   7        3PX         0.00000   0.00000  -0.00808   0.00000   0.00000
   8        3PY        -0.00000   0.00808   0.00000   0.00000  -0.00000
   9        3PZ        -0.01315  -0.00000   0.00000   0.01341  -0.02912
  10 2   F  1S          0.56716   0.80171   0.00000  -0.00043  -0.12328
  11        2S          0.05688   0.07747   0.00000  -0.00277   0.12058
  12        2PX         0.00000   0.00000  -0.00011   0.00000   0.00000
  13        2PY        -0.00204  -0.00201   0.00000  -0.00003  -0.04406
  14        2PZ         0.00064   0.00105   0.00000   0.00052   0.01549
  15        3S         -0.02418  -0.02465   0.00000   0.01174   0.36737
  16        3PX         0.00000   0.00000   0.00098   0.00000   0.00000
  17        3PY         0.00810   0.00410   0.00000  -0.00643  -0.05025
  18        3PZ        -0.00205  -0.00260   0.00000   0.00084   0.01782
  19 3   F  1S          0.56716  -0.40085   0.69430  -0.00043  -0.12328
  20        2S          0.05688  -0.03874   0.06709  -0.00277   0.12058
  21        2PX         0.00176  -0.00092   0.00148   0.00002   0.03816
  22        2PY         0.00102  -0.00042   0.00092   0.00001   0.02203
  23        2PZ         0.00064  -0.00052   0.00091   0.00052   0.01549
  24        3S         -0.02418   0.01233  -0.02135   0.01174   0.36737
  25        3PX        -0.00701   0.00220  -0.00283   0.00557   0.04352
  26        3PY        -0.00405   0.00029  -0.00220   0.00322   0.02512
  27        3PZ        -0.00205   0.00130  -0.00225   0.00084   0.01782
  28 4   F  1S          0.56716  -0.40085  -0.69430  -0.00043  -0.12328
  29        2S          0.05688  -0.03874  -0.06709  -0.00277   0.12058
  30        2PX        -0.00176   0.00092   0.00148  -0.00002  -0.03816
  31        2PY         0.00102  -0.00042  -0.00092   0.00001   0.02203
  32        2PZ         0.00064  -0.00052  -0.00091   0.00052   0.01549
  33        3S         -0.02418   0.01233   0.02135   0.01174   0.36737
  34        3PX         0.00701  -0.00220  -0.00283  -0.00557  -0.04352
  35        3PY        -0.00405   0.00029   0.00220   0.00322   0.02512
  36        3PZ        -0.00205   0.00130   0.00225   0.00084   0.01782
                           6         7         8         9        10
                        (E)--O    (E)--O    (A1)--O   (A1)--O   (E)--O
     Eigenvalues --    -1.63766  -1.63766  -1.10399  -0.81964  -0.81756
   1 1   N  1S          0.00000  -0.00000  -0.19288  -0.04053   0.00000
   2        2S          0.00000   0.00000   0.20289   0.05715   0.00000
   3        2PX        -0.09734   0.00000   0.00000   0.00000   0.25645
   4        2PY         0.00000   0.09734   0.00000   0.00000   0.00000
   5        2PZ         0.00000  -0.00000  -0.01201   0.25206   0.00000
   6        3S          0.00000  -0.00000   0.62118   0.13708   0.00000
   7        3PX        -0.02284   0.00000   0.00000   0.00000   0.22231
   8        3PY         0.00000   0.02284   0.00000   0.00000   0.00000
   9        3PZ         0.00000   0.00000  -0.04093   0.26316   0.00000
  10 2   F  1S          0.00000  -0.20490   0.08363  -0.01195   0.00000
  11        2S          0.00000   0.19992  -0.07850   0.01048   0.00000
  12        2PX        -0.00884   0.00000   0.00000   0.00000   0.26146
  13        2PY         0.00000  -0.03138  -0.12564   0.15824   0.00000
  14        2PZ         0.00000   0.01767   0.06046   0.19820   0.00000
  15        3S          0.00000   0.64953  -0.34165   0.06006   0.00000
  16        3PX        -0.01300   0.00000   0.00000   0.00000   0.27586
  17        3PY         0.00000  -0.05592  -0.09362   0.15826   0.00000
  18        3PZ         0.00000   0.02979   0.05332   0.21326   0.00000
  19 3   F  1S         -0.17745   0.10245   0.08363  -0.01195  -0.04099
  20        2S          0.17313  -0.09996  -0.07850   0.01048   0.04492
  21        2PX         0.02132  -0.01742   0.10881  -0.13704  -0.07653
  22        2PY         0.01742  -0.00121   0.06282  -0.07912  -0.19514
  23        2PZ         0.01530  -0.00883   0.06046   0.19820  -0.13480
  24        3S          0.56251  -0.32477  -0.34165   0.06006   0.17575
  25        3PX         0.03869  -0.02984   0.08107  -0.13706  -0.08680
  26        3PY         0.02984  -0.00423   0.04681  -0.07913  -0.20938
  27        3PZ         0.02580  -0.01490   0.05332   0.21326  -0.13473
  28 4   F  1S          0.17745   0.10245   0.08363  -0.01195   0.04099
  29        2S         -0.17313  -0.09996  -0.07850   0.01048  -0.04492
  30        2PX         0.02132   0.01742  -0.10881   0.13704  -0.07653
  31        2PY        -0.01742  -0.00121   0.06282  -0.07912   0.19514
  32        2PZ        -0.01530  -0.00883   0.06046   0.19820   0.13480
  33        3S         -0.56251  -0.32477  -0.34165   0.06006  -0.17575
  34        3PX         0.03869   0.02984  -0.08107   0.13706  -0.08680
  35        3PY        -0.02984  -0.00423   0.04681  -0.07913   0.20938
  36        3PZ        -0.02580  -0.01490   0.05332   0.21326   0.13473
                          11        12        13        14        15
                        (E)--O    (E)--O    (E)--O    (A2)--O   (E)--O
     Eigenvalues --    -0.81756  -0.71881  -0.71881  -0.67314  -0.65925
   1 1   N  1S          0.00000  -0.00000   0.00000   0.00000   0.00000
   2        2S         -0.00000  -0.00000   0.00000   0.00000   0.00000
   3        2PX         0.00000   0.00000  -0.08123  -0.00000   0.00000
   4        2PY         0.25645   0.08123   0.00000   0.00000  -0.14947
   5        2PZ        -0.00000   0.00000   0.00000   0.00000   0.00000
   6        3S         -0.00000   0.00000   0.00000   0.00000  -0.00000
   7        3PX         0.00000   0.00000  -0.05352  -0.00000   0.00000
   8        3PY         0.22231   0.05352   0.00000   0.00000  -0.03961
   9        3PZ        -0.00000   0.00000   0.00000   0.00000   0.00000
  10 2   F  1S          0.04733   0.00987   0.00000   0.00000  -0.01386
  11        2S         -0.05187  -0.01123   0.00000   0.00000   0.02079
  12        2PX         0.00000   0.00000   0.22330   0.32998   0.00000
  13        2PY        -0.18919   0.07302   0.00000   0.00000   0.32725
  14        2PZ         0.15565   0.37521   0.00000   0.00000   0.13188
  15        3S         -0.20293  -0.04360   0.00000   0.00000   0.04606
  16        3PX         0.00000   0.00000   0.25746   0.35089   0.00000
  17        3PY        -0.20769   0.07578   0.00000   0.00000   0.38132
  18        3PZ         0.15557   0.40945   0.00000   0.00000   0.12272
  19 3   F  1S         -0.02366  -0.00494   0.00855   0.00000   0.00693
  20        2S          0.02594   0.00562  -0.00973   0.00000  -0.01039
  21        2PX        -0.19514   0.12831   0.00106  -0.16499   0.02380
  22        2PY         0.14880  -0.14922  -0.12831   0.28577   0.28603
  23        2PZ        -0.07783  -0.18761   0.32494  -0.00000  -0.06594
  24        3S          0.10147   0.02180  -0.03776  -0.00000  -0.02303
  25        3PX        -0.20938   0.14430   0.00753  -0.17545   0.03734
  26        3PY         0.15497  -0.17415  -0.14430   0.30388   0.31666
  27        3PZ        -0.07779  -0.20472   0.35459  -0.00000  -0.06136
  28 4   F  1S         -0.02366  -0.00494  -0.00855  -0.00000   0.00693
  29        2S          0.02594   0.00562   0.00973  -0.00000  -0.01039
  30        2PX         0.19514  -0.12831   0.00106  -0.16499  -0.02380
  31        2PY         0.14880  -0.14922   0.12831  -0.28577   0.28603
  32        2PZ        -0.07783  -0.18761  -0.32494   0.00000  -0.06594
  33        3S          0.10147   0.02180   0.03776   0.00000  -0.02303
  34        3PX         0.20938  -0.14430   0.00753  -0.17545  -0.03734
  35        3PY         0.15497  -0.17415   0.14430  -0.30388   0.31666
  36        3PZ        -0.07779  -0.20472  -0.35459   0.00000  -0.06136
                          16        17        18        19        20
                        (E)--O    (A1)--O   (E)--V    (E)--V    (A1)--V
     Eigenvalues --    -0.65925  -0.55158   0.22133   0.22133   0.22325
   1 1   N  1S          0.00000  -0.08781   0.00000   0.00000  -0.15283
   2        2S          0.00000   0.09511  -0.00000   0.00000   0.17163
   3        2PX        -0.14947   0.00000   0.00000   0.50922   0.00000
   4        2PY         0.00000  -0.00000   0.50922   0.00000   0.00000
   5        2PZ         0.00000   0.39234   0.00000   0.00000  -0.40278
   6        3S          0.00000   0.39736  -0.00000   0.00000   0.80894
   7        3PX        -0.03961   0.00000   0.00000   0.80183   0.00000
   8        3PY         0.00000   0.00000   0.80183   0.00000   0.00000
   9        3PZ         0.00000   0.33301   0.00000   0.00000  -0.57705
  10 2   F  1S          0.00000   0.00029   0.05446   0.00000   0.04597
  11        2S          0.00000   0.00079  -0.04259   0.00000  -0.03517
  12        2PX         0.27229   0.00000   0.00000  -0.10327   0.00000
  13        2PY         0.00000   0.04070   0.22404   0.00000   0.25179
  14        2PZ         0.00000  -0.23403  -0.17221   0.00000  -0.05780
  15        3S          0.00000   0.00056  -0.38893   0.00000  -0.31125
  16        3PX         0.29510   0.00000   0.00000  -0.15306   0.00000
  17        3PY         0.00000   0.05171   0.39179   0.00000   0.41431
  18        3PZ         0.00000  -0.27428  -0.27410   0.00000  -0.10173
  19 3   F  1S          0.01200   0.00029  -0.02723  -0.04716   0.04597
  20        2S         -0.01800   0.00079   0.02130   0.03688  -0.03517
  21        2PX         0.31351  -0.03524   0.14173   0.14221  -0.21805
  22        2PY         0.02380  -0.02035  -0.02144   0.14173  -0.12589
  23        2PZ        -0.11421  -0.23403   0.08611   0.14914  -0.05780
  24        3S         -0.03989   0.00056   0.19447   0.33683  -0.31125
  25        3PX         0.35977  -0.04478   0.23593   0.25558  -0.35881
  26        3PY         0.03734  -0.02585  -0.01685   0.23593  -0.20716
  27        3PZ        -0.10628  -0.27428   0.13705   0.23738  -0.10173
  28 4   F  1S         -0.01200   0.00029  -0.02723   0.04716   0.04597
  29        2S          0.01800   0.00079   0.02130  -0.03688  -0.03517
  30        2PX         0.31351   0.03524  -0.14173   0.14221   0.21805
  31        2PY        -0.02380  -0.02035  -0.02144  -0.14173  -0.12589
  32        2PZ         0.11421  -0.23403   0.08611  -0.14914  -0.05780
  33        3S          0.03989   0.00056   0.19447  -0.33683  -0.31125
  34        3PX         0.35977   0.04478  -0.23593   0.25558   0.35881
  35        3PY        -0.03734  -0.02585  -0.01685  -0.23593  -0.20716
  36        3PZ         0.10628  -0.27428   0.13705  -0.23738  -0.10173
                          21        22        23        24        25
                        (E)--V    (E)--V    (A1)--V   (A1)--V   (E)--V
     Eigenvalues --     1.27242   1.27242   1.28126   2.05591   2.06030
   1 1   N  1S         -0.00000   0.00000   0.05359   0.03366   0.00000
   2        2S          0.00000   0.00000  -0.17377  -1.01686  -0.00000
   3        2PX         0.00000  -0.99281   0.00000   0.00000   0.00000
   4        2PY        -0.99281   0.00000  -0.00000  -0.00000   0.05015
   5        2PZ         0.00000   0.00000  -0.98394  -0.02115  -0.00000
   6        3S          0.00000   0.00000  -0.20743   1.15032   0.00000
   7        3PX         0.00000   1.45668   0.00000   0.00000   0.00000
   8        3PY         1.45668   0.00000   0.00000   0.00000  -0.26394
   9        3PZ        -0.00000   0.00000   1.26651   0.03262   0.00000
  10 2   F  1S          0.03167   0.00000  -0.01759   0.03182  -0.00657
  11        2S          0.00346   0.00000   0.00428  -0.12139   0.00526
  12        2PX         0.00000  -0.13666   0.00000   0.00000   0.00000
  13        2PY        -0.14500   0.00000  -0.02286   0.21343   0.28752
  14        2PZ        -0.01008   0.00000  -0.11532   0.38644   0.41363
  15        3S         -0.50127   0.00000   0.24654  -0.09753   0.08727
  16        3PX         0.00000  -0.10344   0.00000   0.00000   0.00000
  17        3PY         0.30576   0.00000  -0.19346  -0.06327  -0.31920
  18        3PZ        -0.19634   0.00000   0.01065  -0.43813  -0.35027
  19 3   F  1S         -0.01583  -0.02743  -0.01759   0.03182   0.00328
  20        2S         -0.00173  -0.00300   0.00428  -0.12139  -0.00263
  21        2PX        -0.00361  -0.14292   0.01980  -0.18483   0.40365
  22        2PY        -0.13874  -0.00361   0.01143  -0.10671  -0.41163
  23        2PZ         0.00504   0.00873  -0.11532   0.38644  -0.20681
  24        3S          0.25063   0.43411   0.24654  -0.09753  -0.04364
  25        3PX         0.17719   0.20346   0.16754   0.05480  -0.41327
  26        3PY        -0.00114   0.17719   0.09673   0.03164   0.39660
  27        3PZ         0.09817   0.17004   0.01065  -0.43813   0.17514
  28 4   F  1S         -0.01583   0.02743  -0.01759   0.03182   0.00328
  29        2S         -0.00173   0.00300   0.00428  -0.12139  -0.00263
  30        2PX         0.00361  -0.14292  -0.01980   0.18483  -0.40365
  31        2PY        -0.13874   0.00361   0.01143  -0.10671  -0.41163
  32        2PZ         0.00504  -0.00873  -0.11532   0.38644  -0.20681
  33        3S          0.25063  -0.43411   0.24654  -0.09753  -0.04364
  34        3PX        -0.17719   0.20346  -0.16754  -0.05480   0.41327
  35        3PY        -0.00114  -0.17719   0.09673   0.03164   0.39660
  36        3PZ         0.09817  -0.17004   0.01065  -0.43813   0.17514
                          26        27        28        29        30
                        (E)--V    (A1)--V   (A2)--V   (E)--V    (E)--V
     Eigenvalues --     2.06030   2.30852   2.31514   2.31765   2.31765
   1 1   N  1S          0.00000  -0.02832   0.00000  -0.00000   0.00000
   2        2S          0.00000  -0.87733   0.00000  -0.00000   0.00000
   3        2PX        -0.05015   0.00000   0.00000   0.00000  -0.00544
   4        2PY         0.00000   0.00000   0.00000   0.00544   0.00000
   5        2PZ         0.00000   0.09125   0.00000   0.00000   0.00000
   6        3S          0.00000   1.63497   0.00000   0.00000   0.00000
   7        3PX         0.26394   0.00000  -0.00000   0.00000   0.51535
   8        3PY         0.00000   0.00000   0.00000  -0.51535   0.00000
   9        3PZ         0.00000  -0.75072   0.00000  -0.00000   0.00000
  10 2   F  1S          0.00000   0.06320   0.00000  -0.02667   0.00000
  11        2S          0.00000  -0.26353   0.00000   0.11038   0.00000
  12        2PX         0.64468   0.00000  -0.58235   0.00000   0.39869
  13        2PY         0.00000  -0.44369   0.00000   0.11368   0.00000
  14        2PZ         0.00000  -0.07856   0.00000  -0.70565   0.00000
  15        3S          0.00000  -0.19957   0.00000   0.10658   0.00000
  16        3PX        -0.63520   0.00000   0.60612   0.00000  -0.47069
  17        3PY         0.00000   0.76911   0.00000  -0.21254   0.00000
  18        3PZ         0.00000   0.00743   0.00000   0.81073   0.00000
  19 3   F  1S         -0.00569   0.06320   0.00000   0.01334  -0.02310
  20        2S          0.00456  -0.26353  -0.00000  -0.05519   0.09559
  21        2PX        -0.05447   0.38424   0.29118   0.22186   0.01442
  22        2PY        -0.40365   0.22184  -0.50433  -0.27060  -0.22186
  23        2PZ         0.35821  -0.07856   0.00000   0.35282  -0.61111
  24        3S          0.07558  -0.19957  -0.00000  -0.05329   0.09230
  25        3PX         0.08060  -0.66606  -0.30306  -0.29585   0.04173
  26        3PY         0.41327  -0.38455   0.52492   0.29988   0.29585
  27        3PZ        -0.30334   0.00743  -0.00000  -0.40537   0.70211
  28 4   F  1S          0.00569   0.06320  -0.00000   0.01334   0.02310
  29        2S         -0.00456  -0.26353   0.00000  -0.05519  -0.09559
  30        2PX        -0.05447  -0.38424   0.29118  -0.22186   0.01442
  31        2PY         0.40365   0.22184   0.50433  -0.27060   0.22186
  32        2PZ        -0.35821  -0.07856  -0.00000   0.35282   0.61111
  33        3S         -0.07558  -0.19957   0.00000  -0.05329  -0.09230
  34        3PX         0.08060   0.66606  -0.30306   0.29585   0.04173
  35        3PY        -0.41327  -0.38455  -0.52492   0.29988  -0.29585
  36        3PZ         0.30334   0.00743   0.00000  -0.40537  -0.70211
                          31        32        33        34        35
                        (A1)--V   (E)--V    (E)--V    (E)--V    (E)--V
     Eigenvalues --     2.37471   2.44553   2.44553   3.62271   3.62271
   1 1   N  1S         -0.05098  -0.00000   0.00000   0.00000   0.00000
   2        2S          0.80528   0.00000   0.00000  -0.00000   0.00000
   3        2PX         0.00000   0.00000   0.33039   0.00000   0.05184
   4        2PY        -0.00000   0.33039   0.00000  -0.05184   0.00000
   5        2PZ        -0.28202  -0.00000   0.00000   0.00000   0.00000
   6        3S         -0.50288  -0.00000   0.00000   0.00000   0.00000
   7        3PX         0.00000   0.00000  -0.24550   0.00000   0.55793
   8        3PY        -0.00000  -0.24550   0.00000  -0.55793   0.00000
   9        3PZ         0.37404   0.00000   0.00000  -0.00000   0.00000
  10 2   F  1S         -0.01489   0.02100   0.00000   0.09386   0.00000
  11        2S          0.05487  -0.17369   0.00000  -1.23972   0.00000
  12        2PX         0.00000   0.00000  -0.29215   0.00000   0.01019
  13        2PY        -0.29683  -0.75607   0.00000   0.17293   0.00000
  14        2PZ         0.41652   0.05104   0.00000  -0.10464   0.00000
  15        3S          0.08996   0.18166   0.00000   1.30229   0.00000
  16        3PX         0.00000   0.00000   0.34861   0.00000  -0.07409
  17        3PY         0.19492   0.77735   0.00000  -0.35686   0.00000
  18        3PZ        -0.42586  -0.01758   0.00000   0.23286   0.00000
  19 3   F  1S         -0.01489  -0.01050  -0.01819  -0.04693   0.08129
  20        2S          0.05487   0.08685   0.15042   0.61986  -1.07363
  21        2PX         0.25706  -0.20088  -0.64009   0.07929  -0.12715
  22        2PY         0.14841  -0.40813  -0.20088   0.03559  -0.07929
  23        2PZ         0.41652  -0.02552  -0.04420   0.05232  -0.09062
  24        3S          0.08996  -0.09083  -0.15733  -0.65114   1.12782
  25        3PX        -0.16881   0.18565   0.67017  -0.18661   0.24912
  26        3PY        -0.09746   0.45579   0.18565  -0.03365   0.18661
  27        3PZ        -0.42586   0.00879   0.01522  -0.11643   0.20167
  28 4   F  1S         -0.01489  -0.01050   0.01819  -0.04693  -0.08129
  29        2S          0.05487   0.08685  -0.15042   0.61986   1.07363
  30        2PX        -0.25706   0.20088  -0.64009  -0.07929  -0.12715
  31        2PY         0.14841  -0.40813   0.20088   0.03559   0.07929
  32        2PZ         0.41652  -0.02552   0.04420   0.05232   0.09062
  33        3S          0.08996  -0.09083   0.15733  -0.65114  -1.12782
  34        3PX         0.16881  -0.18565   0.67017   0.18661   0.24912
  35        3PY        -0.09746   0.45579  -0.18565  -0.03365  -0.18661
  36        3PZ        -0.42586   0.00879  -0.01522  -0.11643  -0.20167
                          36
                        (A1)--V
     Eigenvalues --     4.52130
   1 1   N  1S         -0.11043
   2        2S         -1.07330
   3        2PX         0.00000
   4        2PY         0.00000
   5        2PZ         0.11266
   6        3S          2.49454
   7        3PX         0.00000
   8        3PY        -0.00000
   9        3PZ        -1.13204
  10 2   F  1S         -0.02637
  11        2S          0.92540
  12        2PX         0.00000
  13        2PY        -0.16900
  14        2PZ         0.01940
  15        3S         -1.44719
  16        3PX         0.00000
  17        3PY         0.73251
  18        3PZ        -0.15084
  19 3   F  1S         -0.02637
  20        2S          0.92540
  21        2PX         0.14636
  22        2PY         0.08450
  23        2PZ         0.01940
  24        3S         -1.44719
  25        3PX        -0.63438
  26        3PY        -0.36626
  27        3PZ        -0.15084
  28 4   F  1S         -0.02637
  29        2S          0.92540
  30        2PX        -0.14636
  31        2PY         0.08450
  32        2PZ         0.01940
  33        3S         -1.44719
  34        3PX         0.63438
  35        3PY        -0.36626
  36        3PZ        -0.15084
     Density Matrix:
                           1         2         3         4         5
   1 1   N  1S          2.05969
   2        2S          0.06741   0.15533
   3        2PX         0.00000  -0.00000   0.20836
   4        2PY         0.00000   0.00000   0.00000   0.20836
   5        2PZ        -0.08123   0.08108   0.00000   0.00000   0.44450
   6        3S         -0.45807   0.38496   0.00000   0.00000   0.33770
   7        3PX         0.00000  -0.00000   0.13901   0.00000  -0.00000
   8        3PY         0.00000   0.00000   0.00000   0.13901   0.00000
   9        3PZ        -0.03151   0.07262   0.00000   0.00000   0.39874
  10 2   F  1S         -0.00866  -0.00746  -0.00000  -0.00931   0.00978
  11        2S         -0.00126  -0.00289   0.00000   0.00433  -0.00848
  12        2PX         0.00000  -0.00000   0.01815  -0.00000   0.00000
  13        2PY         0.03755  -0.03579  -0.00000  -0.18911   0.12070
  14        2PZ        -0.00046   0.00651   0.00000   0.10481  -0.08728
  15        3S          0.07418  -0.04006   0.00000   0.00149  -0.01113
  16        3PX         0.00000  -0.00000   0.01397  -0.00000   0.00000
  17        3PY         0.01187  -0.02362  -0.00000  -0.21909   0.12951
  18        3PZ         0.00831  -0.00165   0.00000   0.11543  -0.11143
  19 3   F  1S         -0.00866  -0.00746   0.00806   0.00465   0.00978
  20        2S         -0.00126  -0.00289  -0.00375  -0.00217  -0.00848
  21        2PX        -0.03252   0.03099  -0.13729  -0.08974  -0.10453
  22        2PY        -0.01877   0.01789  -0.08974  -0.03367  -0.06035
  23        2PZ        -0.00046   0.00651  -0.09077  -0.05240  -0.08728
  24        3S          0.07418  -0.04006  -0.00129  -0.00075  -0.01113
  25        3PX        -0.01028   0.02045  -0.16082  -0.10092  -0.11216
  26        3PY        -0.00594   0.01181  -0.10092  -0.04429  -0.06475
  27        3PZ         0.00831  -0.00165  -0.09996  -0.05771  -0.11143
  28 4   F  1S         -0.00866  -0.00746  -0.00806   0.00465   0.00978
  29        2S         -0.00126  -0.00289   0.00375  -0.00217  -0.00848
  30        2PX         0.03252  -0.03099  -0.13729   0.08974   0.10453
  31        2PY        -0.01877   0.01789   0.08974  -0.03367  -0.06035
  32        2PZ        -0.00046   0.00651   0.09077  -0.05240  -0.08728
  33        3S          0.07418  -0.04006   0.00129  -0.00075  -0.01113
  34        3PX         0.01028  -0.02045  -0.16082   0.10092   0.11216
  35        3PY        -0.00594   0.01181   0.10092  -0.04429  -0.06475
  36        3PZ         0.00831  -0.00165   0.09996  -0.05771  -0.11143
                           6         7         8         9        10
   6        3S          1.22128
   7        3PX        -0.00000   0.10888
   8        3PY         0.00000   0.00000   0.10888
   9        3PZ         0.27158   0.00000   0.00000   0.36604
  10 2   F  1S          0.07991   0.00000   0.02679  -0.02069   2.06252
  11        2S         -0.03941  -0.00000  -0.01553   0.00387   0.05800
  12        2PX        -0.00000   0.07118  -0.00000   0.00000  -0.00000
  13        2PY        -0.09919  -0.00000  -0.10370   0.12329  -0.03211
  14        2PZ        -0.04996   0.00000   0.09974  -0.05740   0.01507
  15        3S         -0.25400  -0.00000  -0.06927   0.03951  -0.50366
  16        3PX        -0.00000   0.07229  -0.00000   0.00000   0.00000
  17        3PY        -0.05210  -0.00000  -0.11693   0.12794   0.00293
  18        3PZ        -0.08589   0.00000   0.10459  -0.07576  -0.00002
  19 3   F  1S          0.07991  -0.02320  -0.01340  -0.02069   0.00076
  20        2S         -0.03941   0.01345   0.00776   0.00387   0.00313
  21        2PX         0.08590  -0.05998  -0.07572  -0.10677   0.00312
  22        2PY         0.04959  -0.07572   0.02746  -0.06165   0.01115
  23        2PZ        -0.04996  -0.08638  -0.04987  -0.05740  -0.00432
  24        3S         -0.25400   0.05999   0.03463   0.03951  -0.01307
  25        3PX         0.04512  -0.06963  -0.08194  -0.11080  -0.00413
  26        3PY         0.02605  -0.08194   0.02499  -0.06397   0.00357
  27        3PZ        -0.08589  -0.09058  -0.05229  -0.07576  -0.00457
  28 4   F  1S          0.07991   0.02320  -0.01340  -0.02069   0.00076
  29        2S         -0.03941  -0.01345   0.00776   0.00387   0.00313
  30        2PX        -0.08590  -0.05998   0.07572   0.10677  -0.00312
  31        2PY         0.04959   0.07572   0.02746  -0.06165   0.01115
  32        2PZ        -0.04996   0.08638  -0.04987  -0.05740  -0.00432
  33        3S         -0.25400  -0.05999   0.03463   0.03951  -0.01307
  34        3PX        -0.04512  -0.06963   0.08194   0.11080   0.00413
  35        3PY         0.02605   0.08194   0.02499  -0.06397   0.00357
  36        3PZ        -0.08589   0.09058  -0.05229  -0.07576  -0.00457
                          11        12        13        14        15
  11        2S          0.14654
  12        2PX         0.00000   0.60267
  13        2PY         0.03098  -0.00000   0.38726
  14        2PZ        -0.01377   0.00000   0.10822   0.56134
  15        3S          0.42050   0.00000   0.13253  -0.06725   1.44744
  16        3PX         0.00000   0.65175  -0.00000   0.00000   0.00000
  17        3PY         0.02090  -0.00000   0.42494   0.11649   0.08554
  18        3PZ        -0.00900   0.00000   0.10960   0.60902  -0.04663
  19 3   F  1S          0.00313  -0.00809  -0.00828  -0.00432  -0.01307
  20        2S         -0.00111   0.00627   0.00288   0.00403   0.00076
  21        2PX         0.00064   0.02192   0.03230   0.01772  -0.01528
  22        2PY        -0.00687   0.04191   0.06476  -0.00382  -0.05891
  23        2PZ         0.00403   0.01216  -0.01344   0.01318   0.02402
  24        3S          0.00076   0.04337   0.04269   0.02402   0.04433
  25        3PX         0.00243   0.03742   0.05540   0.02968  -0.00251
  26        3PY        -0.00412   0.04642   0.08234  -0.01190  -0.04685
  27        3PZ         0.00409   0.02958  -0.00949   0.02536   0.02645
  28 4   F  1S          0.00313   0.00809  -0.00828  -0.00432  -0.01307
  29        2S         -0.00111  -0.00627   0.00288   0.00403   0.00076
  30        2PX        -0.00064   0.02192  -0.03230  -0.01772   0.01528
  31        2PY        -0.00687  -0.04191   0.06476  -0.00382  -0.05891
  32        2PZ         0.00403  -0.01216  -0.01344   0.01318   0.02402
  33        3S          0.00076  -0.04337   0.04269   0.02402   0.04433
  34        3PX        -0.00243   0.03742  -0.05540  -0.02968   0.00251
  35        3PY        -0.00412  -0.04642   0.08234  -0.01190  -0.04685
  36        3PZ         0.00409  -0.02958  -0.00949   0.02536   0.02645
                          16        17        18        19        20
  16        3PX         0.70553
  17        3PY        -0.00000   0.47310
  18        3PZ         0.00000   0.11499   0.66336
  19 3   F  1S         -0.00516   0.00179  -0.00457   2.06252
  20        2S          0.00478  -0.00005   0.00409   0.05800   0.14654
  21        2PX         0.02701   0.04940   0.02301   0.02781  -0.02683
  22        2PY         0.04042   0.09274  -0.02087   0.01606  -0.01549
  23        2PZ         0.02514  -0.01975   0.02536   0.01507  -0.01377
  24        3S          0.03932   0.02560   0.02645  -0.50366   0.42050
  25        3PX         0.04418   0.07292   0.03673  -0.00254  -0.01810
  26        3PY         0.04470   0.11209  -0.03059  -0.00146  -0.01045
  27        3PZ         0.04485  -0.01652   0.03995  -0.00002  -0.00900
  28 4   F  1S          0.00516   0.00179  -0.00457   0.00076   0.00313
  29        2S         -0.00478  -0.00005   0.00409   0.00313  -0.00111
  30        2PX         0.02701  -0.04940  -0.02301  -0.01121   0.00563
  31        2PY        -0.04042   0.09274  -0.02087  -0.00287   0.00399
  32        2PZ        -0.02514  -0.01975   0.02536  -0.00432   0.00403
  33        3S         -0.03932   0.02560   0.02645  -0.01307   0.00076
  34        3PX         0.04418  -0.07292  -0.03673  -0.00103   0.00235
  35        3PY        -0.04470   0.11209  -0.03059  -0.00536   0.00417
  36        3PZ        -0.04485  -0.01652   0.03995  -0.00457   0.00409
                          21        22        23        24        25
  21        2PX         0.44112
  22        2PY        -0.09327   0.54882
  23        2PZ        -0.09372  -0.05411   0.56134
  24        3S         -0.11477  -0.06626  -0.06725   1.44744
  25        3PX         0.48164  -0.09821  -0.10088  -0.07408   0.53120
  26        3PY        -0.09821   0.59505  -0.05824  -0.04277  -0.10065
  27        3PZ        -0.09491  -0.05480   0.60902  -0.04663  -0.09959
  28 4   F  1S          0.01121  -0.00287  -0.00432  -0.01307   0.00103
  29        2S         -0.00563   0.00399   0.00403   0.00076  -0.00235
  30        2PX         0.08618  -0.00480  -0.00555   0.05865   0.11520
  31        2PY         0.00480   0.00050   0.01725   0.01622   0.00152
  32        2PZ         0.00555   0.01725   0.01318   0.02402   0.00453
  33        3S         -0.05865   0.01622   0.02402   0.04433  -0.04182
  34        3PX         0.11520  -0.00152  -0.00453   0.04182   0.14604
  35        3PY        -0.01050   0.00456   0.03165   0.02125  -0.01411
  36        3PZ        -0.00657   0.03036   0.02536   0.02645  -0.00812
                          26        27        28        29        30
  26        3PY         0.64742
  27        3PZ        -0.05750   0.66336
  28 4   F  1S         -0.00536  -0.00457   2.06252
  29        2S          0.00417   0.00409   0.05800   0.14654
  30        2PX         0.01050   0.00657  -0.02781   0.02683   0.44112
  31        2PY         0.00456   0.03036   0.01606  -0.01549   0.09327
  32        2PZ         0.03165   0.02536   0.01507  -0.01377   0.09372
  33        3S          0.02125   0.02645  -0.50366   0.42050   0.11477
  34        3PX         0.01411   0.00812   0.00254   0.01810   0.48164
  35        3PY         0.01023   0.04710  -0.00146  -0.01045   0.09821
  36        3PZ         0.04710   0.03995  -0.00002  -0.00900   0.09491
                          31        32        33        34        35
  31        2PY         0.54882
  32        2PZ        -0.05411   0.56134
  33        3S         -0.06626  -0.06725   1.44744
  34        3PX         0.09821   0.10088   0.07408   0.53120
  35        3PY         0.59505  -0.05824  -0.04277   0.10065   0.64742
  36        3PZ        -0.05480   0.60902  -0.04663   0.09959  -0.05750
                          36
  36        3PZ         0.66336
    Full Mulliken population analysis:
                           1         2         3         4         5
   1 1   N  1S          2.05969
   2        2S          0.01314   0.15533
   3        2PX         0.00000   0.00000   0.20836
   4        2PY         0.00000   0.00000   0.00000   0.20836
   5        2PZ         0.00000   0.00000   0.00000   0.00000   0.44450
   6        3S         -0.08439   0.28956   0.00000   0.00000   0.00000
   7        3PX         0.00000   0.00000   0.07173   0.00000   0.00000
   8        3PY         0.00000   0.00000   0.00000   0.07173   0.00000
   9        3PZ         0.00000   0.00000   0.00000   0.00000   0.20575
  10 2   F  1S         -0.00000  -0.00000   0.00000  -0.00001  -0.00000
  11        2S         -0.00000  -0.00002  -0.00000   0.00007   0.00007
  12        2PX         0.00000   0.00000   0.00007   0.00000   0.00000
  13        2PY        -0.00000   0.00047   0.00000   0.00511   0.00185
  14        2PZ        -0.00000   0.00004   0.00000   0.00160   0.00035
  15        3S          0.00080  -0.00364   0.00000   0.00016   0.00060
  16        3PX        -0.00000   0.00000   0.00091   0.00000  -0.00000
  17        3PY        -0.00040   0.00485   0.00000   0.04096   0.01628
  18        3PZ         0.00014  -0.00017   0.00000   0.01451  -0.00030
  19 3   F  1S         -0.00000  -0.00000  -0.00001  -0.00000  -0.00000
  20        2S         -0.00000  -0.00002   0.00006   0.00002   0.00007
  21        2PX        -0.00000   0.00035   0.00266   0.00119   0.00139
  22        2PY        -0.00000   0.00012   0.00119   0.00014   0.00046
  23        2PZ        -0.00000   0.00004   0.00120   0.00040   0.00035
  24        3S          0.00080  -0.00364   0.00012   0.00004   0.00060
  25        3PX        -0.00030   0.00364   0.01993   0.01102   0.01221
  26        3PY        -0.00010   0.00121   0.01102  -0.00010   0.00407
  27        3PZ         0.00014  -0.00017   0.01088   0.00363  -0.00030
  28 4   F  1S         -0.00000  -0.00000  -0.00001  -0.00000  -0.00000
  29        2S         -0.00000  -0.00002   0.00006   0.00002   0.00007
  30        2PX        -0.00000   0.00035   0.00266   0.00119   0.00139
  31        2PY        -0.00000   0.00012   0.00119   0.00014   0.00046
  32        2PZ        -0.00000   0.00004   0.00120   0.00040   0.00035
  33        3S          0.00080  -0.00364   0.00012   0.00004   0.00060
  34        3PX        -0.00030   0.00364   0.01993   0.01102   0.01221
  35        3PY        -0.00010   0.00121   0.01102  -0.00010   0.00407
  36        3PZ         0.00014  -0.00017   0.01088   0.00363  -0.00030
                           6         7         8         9        10
   6        3S          1.22128
   7        3PX         0.00000   0.10888
   8        3PY         0.00000   0.00000   0.10888
   9        3PZ         0.00000   0.00000   0.00000   0.36604
  10 2   F  1S          0.00142   0.00000   0.00118   0.00046   2.06252
  11        2S         -0.00393   0.00000  -0.00340  -0.00042   0.01245
  12        2PX         0.00000   0.00373   0.00000   0.00000   0.00000
  13        2PY         0.00657   0.00000   0.00988   0.00908   0.00000
  14        2PZ        -0.00165   0.00000   0.00734  -0.00091   0.00000
  15        3S         -0.06886  -0.00000  -0.02987  -0.00849  -0.09246
  16        3PX         0.00000   0.01892   0.00000   0.00000   0.00000
  17        3PY         0.01721   0.00000   0.03083   0.03349   0.00000
  18        3PZ        -0.01414   0.00000   0.02738  -0.00995   0.00000
  19 3   F  1S          0.00142   0.00089   0.00030   0.00046   0.00000
  20        2S         -0.00393  -0.00255  -0.00085  -0.00042   0.00000
  21        2PX         0.00492   0.00350   0.00484   0.00681   0.00000
  22        2PY         0.00164   0.00484   0.00043   0.00227   0.00000
  23        2PZ        -0.00165   0.00551   0.00184  -0.00091   0.00000
  24        3S         -0.06886  -0.02240  -0.00747  -0.00849  -0.00000
  25        3PX         0.01291   0.00921   0.01864   0.02512  -0.00000
  26        3PY         0.00430   0.01864   0.00326   0.00837   0.00000
  27        3PZ        -0.01414   0.02053   0.00684  -0.00995   0.00000
  28 4   F  1S          0.00142   0.00089   0.00030   0.00046   0.00000
  29        2S         -0.00393  -0.00255  -0.00085  -0.00042   0.00000
  30        2PX         0.00492   0.00350   0.00484   0.00681   0.00000
  31        2PY         0.00164   0.00484   0.00043   0.00227   0.00000
  32        2PZ        -0.00165   0.00551   0.00184  -0.00091   0.00000
  33        3S         -0.06886  -0.02240  -0.00747  -0.00849  -0.00000
  34        3PX         0.01291   0.00921   0.01864   0.02512  -0.00000
  35        3PY         0.00430   0.01864   0.00326   0.00837   0.00000
  36        3PZ        -0.01414   0.02053   0.00684  -0.00995   0.00000
                          11        12        13        14        15
  11        2S          0.14654
  12        2PX         0.00000   0.60267
  13        2PY         0.00000   0.00000   0.38726
  14        2PZ         0.00000   0.00000   0.00000   0.56134
  15        3S          0.30789   0.00000   0.00000   0.00000   1.44744
  16        3PX         0.00000   0.31829   0.00000   0.00000   0.00000
  17        3PY         0.00000   0.00000   0.20753   0.00000   0.00000
  18        3PZ         0.00000   0.00000   0.00000   0.29743   0.00000
  19 3   F  1S          0.00000   0.00000   0.00000   0.00000  -0.00000
  20        2S         -0.00000  -0.00000  -0.00000   0.00000   0.00000
  21        2PX         0.00000  -0.00000  -0.00000   0.00000  -0.00001
  22        2PY        -0.00000  -0.00000  -0.00000   0.00000  -0.00009
  23        2PZ         0.00000   0.00000   0.00000   0.00000   0.00000
  24        3S          0.00000  -0.00004  -0.00007   0.00000   0.00076
  25        3PX         0.00001  -0.00005  -0.00020   0.00000  -0.00006
  26        3PY        -0.00002  -0.00017  -0.00046   0.00000  -0.00198
  27        3PZ         0.00000   0.00000   0.00000   0.00002   0.00000
  28 4   F  1S          0.00000   0.00000   0.00000   0.00000  -0.00000
  29        2S         -0.00000  -0.00000  -0.00000   0.00000   0.00000
  30        2PX         0.00000  -0.00000  -0.00000   0.00000  -0.00001
  31        2PY        -0.00000  -0.00000  -0.00000   0.00000  -0.00009
  32        2PZ         0.00000   0.00000   0.00000   0.00000   0.00000
  33        3S          0.00000  -0.00004  -0.00007   0.00000   0.00076
  34        3PX         0.00001  -0.00005  -0.00020   0.00000  -0.00006
  35        3PY        -0.00002  -0.00017  -0.00046   0.00000  -0.00198
  36        3PZ         0.00000   0.00000   0.00000   0.00002   0.00000
                          16        17        18        19        20
  16        3PX         0.70553
  17        3PY         0.00000   0.47310
  18        3PZ         0.00000   0.00000   0.66336
  19 3   F  1S          0.00000  -0.00000   0.00000   2.06252
  20        2S         -0.00001   0.00000   0.00000   0.01245   0.14654
  21        2PX        -0.00004  -0.00018   0.00000   0.00000   0.00000
  22        2PY        -0.00015  -0.00052   0.00000   0.00000   0.00000
  23        2PZ         0.00000   0.00000   0.00002   0.00000   0.00000
  24        3S         -0.00096  -0.00108   0.00000  -0.09246   0.30789
  25        3PX        -0.00078  -0.00439   0.00000   0.00000   0.00000
  26        3PY        -0.00269  -0.00977   0.00000   0.00000   0.00000
  27        3PZ         0.00000   0.00000   0.00068   0.00000   0.00000
  28 4   F  1S          0.00000  -0.00000   0.00000   0.00000   0.00000
  29        2S         -0.00001   0.00000   0.00000   0.00000  -0.00000
  30        2PX        -0.00004  -0.00018   0.00000   0.00000  -0.00000
  31        2PY        -0.00015  -0.00052   0.00000  -0.00000   0.00000
  32        2PZ         0.00000   0.00000   0.00002   0.00000   0.00000
  33        3S         -0.00096  -0.00108   0.00000  -0.00000   0.00000
  34        3PX        -0.00078  -0.00439   0.00000   0.00000  -0.00001
  35        3PY        -0.00269  -0.00977   0.00000  -0.00000  -0.00000
  36        3PZ         0.00000   0.00000   0.00068   0.00000   0.00000
                          21        22        23        24        25
  21        2PX         0.44112
  22        2PY         0.00000   0.54882
  23        2PZ         0.00000   0.00000   0.56134
  24        3S          0.00000   0.00000   0.00000   1.44744
  25        3PX         0.23522   0.00000   0.00000   0.00000   0.53120
  26        3PY         0.00000   0.29060   0.00000   0.00000   0.00000
  27        3PZ         0.00000   0.00000   0.29743   0.00000   0.00000
  28 4   F  1S          0.00000  -0.00000   0.00000  -0.00000   0.00000
  29        2S         -0.00000  -0.00000   0.00000   0.00000  -0.00001
  30        2PX        -0.00000  -0.00000   0.00000  -0.00011  -0.00089
  31        2PY         0.00000   0.00000   0.00000   0.00000   0.00000
  32        2PZ         0.00000   0.00000   0.00000   0.00000   0.00000
  33        3S         -0.00011   0.00000   0.00000   0.00076  -0.00204
  34        3PX        -0.00089   0.00000   0.00000  -0.00204  -0.01781
  35        3PY         0.00000   0.00000   0.00000   0.00000  -0.00000
  36        3PZ         0.00000   0.00000   0.00002   0.00000   0.00000
                          26        27        28        29        30
  26        3PY         0.64742
  27        3PZ         0.00000   0.66336
  28 4   F  1S         -0.00000   0.00000   2.06252
  29        2S         -0.00000   0.00000   0.01245   0.14654
  30        2PX         0.00000   0.00000   0.00000   0.00000   0.44112
  31        2PY         0.00000   0.00000   0.00000   0.00000   0.00000
  32        2PZ         0.00000   0.00002   0.00000   0.00000   0.00000
  33        3S         -0.00000   0.00000  -0.09246   0.30789   0.00000
  34        3PX         0.00000   0.00000   0.00000   0.00000   0.23522
  35        3PY         0.00017   0.00000   0.00000   0.00000   0.00000
  36        3PZ         0.00000   0.00068   0.00000   0.00000   0.00000
                          31        32        33        34        35
  31        2PY         0.54882
  32        2PZ         0.00000   0.56134
  33        3S          0.00000   0.00000   1.44744
  34        3PX         0.00000   0.00000   0.00000   0.53120
  35        3PY         0.29060   0.00000   0.00000   0.00000   0.64742
  36        3PZ         0.00000   0.29743   0.00000   0.00000   0.00000
                          36
  36        3PZ         0.66336
     Gross orbital populations:
                           1
   1 1   N  1S          1.99005
   2        2S          0.46265
   3        2PX         0.37518
   4        2PY         0.37518
   5        2PZ         0.70676
   6        3S          1.23633
   7        3PX         0.27962
   8        3PY         0.27962
   9        3PZ         0.64156
  10 2   F  1S          1.98556
  11        2S          0.45923
  12        2PX         0.92424
  13        2PY         0.62628
  14        2PZ         0.86558
  15        3S          1.55079
  16        3PX         1.03440
  17        3PY         0.79195
  18        3PZ         0.97965
  19 3   F  1S          1.98556
  20        2S          0.45923
  21        2PX         0.70077
  22        2PY         0.84975
  23        2PZ         0.86558
  24        3S          1.55079
  25        3PX         0.85257
  26        3PY         0.97379
  27        3PZ         0.97965
  28 4   F  1S          1.98556
  29        2S          0.45923
  30        2PX         0.70077
  31        2PY         0.84975
  32        2PZ         0.86558
  33        3S          1.55079
  34        3PX         0.85257
  35        3PY         0.97379
  36        3PZ         0.97965
          Condensed to atoms (all electrons):
               1          2          3          4
     1  N    6.016368   0.110189   0.110189   0.110189
     2  F    0.110189   9.152009  -0.022254  -0.022254
     3  F    0.110189  -0.022254   9.152009  -0.022254
     4  F    0.110189  -0.022254  -0.022254   9.152009
 Mulliken charges:
               1
     1  N    0.653066
     2  F   -0.217689
     3  F   -0.217689
     4  F   -0.217689
 Sum of Mulliken charges =   0.00000
 Mulliken charges with hydrogens summed into heavy atoms:
               1
     1  N    0.653066
     2  F   -0.217689
     3  F   -0.217689
     4  F   -0.217689
 Electronic spatial extent (au):  <R**2>=            204.4712
 Charge=              0.0000 electrons
 Dipole moment (field-independent basis, Debye):
    X=              0.0000    Y=             -0.0000    Z=              0.4384  Tot=              0.4384
 Quadrupole moment (field-independent basis, Debye-Ang):
   XX=            -20.3880   YY=            -20.3880   ZZ=            -19.5563
   XY=              0.0000   XZ=              0.0000   YZ=              0.0000
 Traceless Quadrupole moment (field-independent basis, Debye-Ang):
   XX=             -0.2772   YY=             -0.2772   ZZ=              0.5545
   XY=              0.0000   XZ=              0.0000   YZ=              0.0000
 Octapole moment (field-independent basis, Debye-Ang**2):
  XXX=              0.0000  YYY=             -1.2451  ZZZ=             -3.7601  XYY=              0.0000
  XXY=              1.2451  XXZ=             -0.4820  XZZ=              0.0000  YZZ=              0.0000
  YYZ=             -0.4820  XYZ=              0.0000
 Hexadecapole moment (field-independent basis, Debye-Ang**3):
 XXXX=            -75.1655 YYYY=            -75.1655 ZZZZ=            -20.9165 XXXY=              0.0000
 XXXZ=              0.0000 YYYX=              0.0000 YYYZ=             -0.3022 ZZZX=             -0.0000
 ZZZY=             -0.0000 XXYY=            -25.0552 XXZZ=            -15.2291 YYZZ=            -15.2291
 XXYZ=              0.3022 YYXZ=             -0.0000 ZZXY=              0.0000
 N-N= 1.304901734064D+02 E-N=-1.097018149301D+03  KE= 3.491839745110D+02
 Symmetry A'   KE= 2.420459498562D+02
 Symmetry A"   KE= 1.071380246547D+02
 Orbital energies and kinetic energies (alpha):
                                 1                 2
   1         (A1)--O         -26.261815         36.909359
   2         (E)--O          -26.260899         36.905877
   3         (E)--O          -26.260899         36.905877
   4         (A1)--O         -15.837477         21.947768
   5         (A1)--O          -1.769827          3.171912
   6         (E)--O           -1.637663          3.919494
   7         (E)--O           -1.637663          3.919494
   8         (A1)--O          -1.103990          3.352005
   9         (A1)--O          -0.819636          2.533174
  10         (E)--O           -0.817560          2.718696
  11         (E)--O           -0.817560          2.718696
  12         (E)--O           -0.718811          3.202541
  13         (E)--O           -0.718811          3.202541
  14         (A2)--O          -0.673135          3.458213
  15         (E)--O           -0.659254          3.364191
  16         (E)--O           -0.659254          3.364191
  17         (A1)--O          -0.551579          2.997959
  18         (E)--V            0.221330          3.359130
  19         (E)--V            0.221330          3.359130
  20         (A1)--V           0.223250          4.442721
  21         (E)--V            1.272420          3.775873
  22         (E)--V            1.272420          3.775873
  23         (A1)--V           1.281256          3.786642
  24         (A1)--V           2.055908          5.762179
  25         (E)--V            2.060297          6.386116
  26         (E)--V            2.060297          6.386116
  27         (A1)--V           2.308517          6.266030
  28         (A2)--V           2.315143          6.519772
  29         (E)--V            2.317646          6.521475
  30         (E)--V            2.317646          6.521475
  31         (A1)--V           2.374712          6.529991
  32         (E)--V            2.445527          6.774250
  33         (E)--V            2.445527          6.774250
  34         (E)--V            3.622711          8.564150
  35         (E)--V            3.622711          8.564150
  36         (A1)--V           4.521299          8.259490
 Total kinetic energy from orbitals= 3.491839745110D+02
 1\1\GINC-IISERK51\SP\RHF\3-21G\F3N1\GAUSSIAN\13-Jun-2025\0\\# hf/3-21g
  pop=full geom=connectivity\\Title Card Required\\0,1\N,0,0.,0.,0.4964
 94\F,0,0.,1.254975,-0.128721\F,0,-1.086841,-0.627488,-0.128721\F,0,1.0
 86841,-0.627488,-0.128721\\Version=EM64L-G16RevB.01\State=1-A1\HF=-350
 .6327437\RMSD=7.026e-10\Dipole=0.,0.,0.1724947\Quadrupole=-0.2061174,-
 0.2061174,0.4122349,0.,0.,0.\PG=C03V [C3(N1),3SGV(F1)]\\@


  THE LARGE PRINT GIVETH,
  AND THE SMALL PRINT TAKETH AWAY.

                     -- TOM WAITS
 Job cpu time:       0 days  0 hours  0 minutes  0.4 seconds.
 Elapsed time:       0 days  0 hours  0 minutes  0.4 seconds.
 File lengths (MBytes):  RWF=      6 Int=      0 D2E=      0 Chk=      1 Scr=      1
 Normal termination of Gaussian 16 at Fri Jun 13 19:19:35 2025.
