 Entering Gaussian System, Link 0=g16
 Input=/home/gaussian/Documents/Summer_Internship/Acid_Base_adduct/Base/NF3/nf3H_ion_sp.com
 Output=/home/gaussian/Documents/Summer_Internship/Acid_Base_adduct/Base/NF3/nf3H_ion_sp.log
 Initial command:
 /usr/local/g16/l1.exe "/home/gaussian/tmp/Gau-29049.inp" -scrdir="/home/gaussian/tmp/"
 Entering Link 1 = /usr/local/g16/l1.exe PID=     29052.
  
 Copyright (c) 1988-2017, Gaussian, Inc.  All Rights Reserved.
  
 This is part of the Gaussian(R) 16 program.  It is based on
 the Gaussian(R) 09 system (copyright 2009, Gaussian, Inc.),
 the Gaussian(R) 03 system (copyright 2003, Gaussian, Inc.),
 the Gaussian(R) 98 system (copyright 1998, Gaussian, Inc.),
 the Gaussian(R) 94 system (copyright 1995, Gaussian, Inc.),
 the Gaussian 92(TM) system (copyright 1992, Gaussian, Inc.),
 the Gaussian 90(TM) system (copyright 1990, Gaussian, Inc.),
 the Gaussian 88(TM) system (copyright 1988, Gaussian, Inc.),
 the Gaussian 86(TM) system (copyright 1986, Carnegie Mellon
 University), and the Gaussian 82(TM) system (copyright 1983,
 Carnegie Mellon University). Gaussian is a federally registered
 trademark of Gaussian, Inc.
  
 This software contains proprietary and confidential information,
 including trade secrets, belonging to Gaussian, Inc.
  
 This software is provided under written license and may be
 used, copied, transmitted, or stored only in accord with that
 written license.
  
 The following legend is applicable only to US Government
 contracts under FAR:
  
                    RESTRICTED RIGHTS LEGEND
  
 Use, reproduction and disclosure by the US Government is
 subject to restrictions as set forth in subparagraphs (a)
 and (c) of the Commercial Computer Software - Restricted
 Rights clause in FAR 52.227-19.
  
 Gaussian, Inc.
 340 Quinnipiac St., Bldg. 40, Wallingford CT 06492
  
  
 ---------------------------------------------------------------
 Warning -- This program may not be used in any manner that
 competes with the business of Gaussian, Inc. or will provide
 assistance to any competitor of Gaussian, Inc.  The licensee
 of this program is prohibited from giving any competitor of
 Gaussian, Inc. access to this program.  By using this program,
 the user acknowledges that Gaussian, Inc. is engaged in the
 business of creating and licensing software in the field of
 computational chemistry and represents and warrants to the
 licensee that it is not a competitor of Gaussian, Inc. and that
 it will not use this program in any manner prohibited above.
 ---------------------------------------------------------------
  

 Cite this work as:
 Gaussian 16, Revision B.01,
 M. J. Frisch, G. W. Trucks, H. B. Schlegel, G. E. Scuseria, 
 M. A. Robb, J. R. Cheeseman, G. Scalmani, V. Barone, 
 G. A. Petersson, H. Nakatsuji, X. Li, M. Caricato, A. V. Marenich, 
 J. Bloino, B. G. Janesko, R. Gomperts, B. Mennucci, H. P. Hratchian, 
 J. V. Ortiz, A. F. Izmaylov, J. L. Sonnenberg, D. Williams-Young, 
 F. Ding, F. Lipparini, F. Egidi, J. Goings, B. Peng, A. Petrone, 
 T. Henderson, D. Ranasinghe, V. G. Zakrzewski, J. Gao, N. Rega, 
 G. Zheng, W. Liang, M. Hada, M. Ehara, K. Toyota, R. Fukuda, 
 J. Hasegawa, M. Ishida, T. Nakajima, Y. Honda, O. Kitao, H. Nakai, 
 T. Vreven, K. Throssell, J. A. Montgomery, Jr., J. E. Peralta, 
 F. Ogliaro, M. J. Bearpark, J. J. Heyd, E. N. Brothers, K. N. Kudin, 
 V. N. Staroverov, T. A. Keith, R. Kobayashi, J. Normand, 
 K. Raghavachari, A. P. Rendell, J. C. Burant, S. S. Iyengar, 
 J. Tomasi, M. Cossi, J. M. Millam, M. Klene, C. Adamo, R. Cammi, 
 J. W. Ochterski, R. L. Martin, K. Morokuma, O. Farkas, 
 J. B. Foresman, and D. J. Fox, Gaussian, Inc., Wallingford CT, 2016.
 
 ******************************************
 Gaussian 16:  EM64L-G16RevB.01 20-Dec-2017
                13-Jun-2025 
 ******************************************
 %chk=nf3H_ion_sp.chk
 -------------------------------------
 # hf/3-21g pop=full geom=connectivity
 -------------------------------------
 1/38=1,57=2,172=1/1;
 2/12=2,17=6,18=5,40=1/2;
 3/5=5,11=9,25=1,30=1/1,2,3;
 4//1;
 5/5=2,38=5/2;
 6/7=3,28=1/1;
 99/5=1,9=1/99;
 -------------------
 Title Card Required
 -------------------
 Symbolic Z-matrix:
 Charge =  1 Multiplicity = 1
 N                     0.        0.        0.33971 
 H                     0.        0.        1.369 
 F                     0.        1.28845  -0.13878 
 F                     1.11583  -0.64423  -0.13878 
 F                    -1.11583  -0.64423  -0.13878 
 
                          Input orientation:                          
 ---------------------------------------------------------------------
 Center     Atomic      Atomic             Coordinates (Angstroms)
 Number     Number       Type             X           Y           Z
 ---------------------------------------------------------------------
      1          7           0        0.000000    0.000000    0.339708
      2          1           0        0.000000    0.000000    1.368997
      3          9           0        0.000000    1.288451   -0.138776
      4          9           0        1.115832   -0.644226   -0.138776
      5          9           0       -1.115832   -0.644226   -0.138776
 ---------------------------------------------------------------------
                    Distance matrix (angstroms):
                    1          2          3          4          5
     1  N    0.000000
     2  H    1.029289   0.000000
     3  F    1.374428   1.983302   0.000000
     4  F    1.374429   1.983302   2.231663   0.000000
     5  F    1.374429   1.983302   2.231663   2.231664   0.000000
 Stoichiometry    F3HN(1+)
 Framework group  C3V[C3(NH),3SGV(F)]
 Deg. of freedom     3
 Full point group                 C3V     NOp   6
 Largest Abelian subgroup         CS      NOp   2
 Largest concise Abelian subgroup CS      NOp   2
                         Standard orientation:                         
 ---------------------------------------------------------------------
 Center     Atomic      Atomic             Coordinates (Angstroms)
 Number     Number       Type             X           Y           Z
 ---------------------------------------------------------------------
      1          7           0       -0.000000    0.000000    0.339708
      2          1           0       -0.000000    0.000000    1.368997
      3          9           0        0.000000    1.288451   -0.138776
      4          9           0        1.115832   -0.644226   -0.138776
      5          9           0       -1.115832   -0.644226   -0.138776
 ---------------------------------------------------------------------
 Rotational constants (GHZ):           9.7435863           9.7435863           5.3412494
 Standard basis: 3-21G (6D, 7F)
 There are    25 symmetry adapted cartesian basis functions of A'  symmetry.
 There are    13 symmetry adapted cartesian basis functions of A"  symmetry.
 There are    25 symmetry adapted basis functions of A'  symmetry.
 There are    13 symmetry adapted basis functions of A"  symmetry.
    38 basis functions,    63 primitive gaussians,    38 cartesian basis functions
    17 alpha electrons       17 beta electrons
       nuclear repulsion energy       141.1916680864 Hartrees.
 NAtoms=    5 NActive=    5 NUniq=    3 SFac= 2.78D+00 NAtFMM=   60 NAOKFM=F Big=F
 Integral buffers will be    131072 words long.
 Raffenetti 1 integral format.
 Two-electron integral symmetry is turned on.
 One-electron integrals computed using PRISM.
 NBasis=    38 RedAO= T EigKep=  4.11D-02  NBF=    25    13
 NBsUse=    38 1.00D-06 EigRej= -1.00D+00 NBFU=    25    13
 ExpMin= 1.83D-01 ExpMax= 4.14D+02 ExpMxC= 4.14D+02 IAcc=3 IRadAn=         5 AccDes= 0.00D+00
 Harris functional with IExCor=  205 and IRadAn=       5 diagonalized for initial guess.
 HarFok:  IExCor=  205 AccDes= 0.00D+00 IRadAn=         5 IDoV= 1 UseB2=F ITyADJ=14
 ICtDFT=  3500011 ScaDFX=  1.000000  1.000000  1.000000  1.000000
 FoFCou: FMM=F IPFlag=           0 FMFlag=      100000 FMFlg1=           0
         NFxFlg=           0 DoJE=T BraDBF=F KetDBF=T FulRan=T
         wScrn=  0.000000 ICntrl=       500 IOpCl=  0 I1Cent=   200000004 NGrid=           0
         NMat0=    1 NMatS0=      1 NMatT0=    0 NMatD0=    1 NMtDS0=    0 NMtDT0=    0
 Petite list used in FoFCou.
 Initial guess orbital symmetries:
       Occupied  (A1) (E) (E) (A1) (A1) (E) (E) (A1) (A1) (E) (E)
                 (E) (E) (E) (E) (A2) (A1)
       Virtual   (A1) (E) (E) (A1) (A1) (E) (E) (A1) (E) (E) (A2)
                 (E) (E) (A1) (E) (E) (A1) (A1) (E) (E) (A1)
 The electronic state of the initial guess is 1-A1.
 Keep R1 ints in memory in symmetry-blocked form, NReq=1084316.
 Requested convergence on RMS density matrix=1.00D-08 within 128 cycles.
 Requested convergence on MAX density matrix=1.00D-06.
 Requested convergence on             energy=1.00D-06.
 No special actions if energy rises.
 SCF Done:  E(RHF) =  -350.835438734     A.U. after   12 cycles
            NFock= 12  Conv=0.57D-09     -V/T= 2.0047

 **********************************************************************

            Population analysis using the SCF Density.

 **********************************************************************

 Orbital symmetries:
       Occupied  (A1) (E) (E) (A1) (A1) (E) (E) (A1) (A1) (E) (E)
                 (E) (E) (A2) (E) (E) (A1)
       Virtual   (A1) (E) (E) (A1) (A1) (E) (E) (A1) (E) (E) (A2)
                 (E) (E) (A1) (A1) (E) (E) (A1) (E) (E) (A1)
 The electronic state is 1-A1.
 Alpha  occ. eigenvalues --  -26.60578 -26.60502 -26.60502 -16.20789  -2.10726
 Alpha  occ. eigenvalues --   -1.97101  -1.97101  -1.49928  -1.22610  -1.15635
 Alpha  occ. eigenvalues --   -1.15635  -1.03411  -1.03411  -0.99498  -0.98041
 Alpha  occ. eigenvalues --   -0.98041  -0.96805
 Alpha virt. eigenvalues --   -0.11506  -0.09395  -0.09395  -0.05789   0.79988
 Alpha virt. eigenvalues --    0.89844   0.89844   1.04920   1.77430   1.77430
 Alpha virt. eigenvalues --    1.98601   2.00929   2.00929   2.01572   2.05486
 Alpha virt. eigenvalues --    2.13373   2.13373   2.14191   3.34895   3.34895
 Alpha virt. eigenvalues --    4.07279
     Molecular Orbital Coefficients:
                           1         2         3         4         5
                        (A1)--O   (E)--O    (E)--O    (A1)--O   (A1)--O
     Eigenvalues --   -26.60578 -26.60502 -26.60502 -16.20789  -2.10726
   1 1   N  1S         -0.00153   0.00000   0.00000   0.98609  -0.12061
   2        2S         -0.00730   0.00000   0.00000   0.09904   0.13926
   3        2PX         0.00000   0.00000   0.00038   0.00000   0.00000
   4        2PY         0.00000   0.00038   0.00000   0.00000  -0.00000
   5        2PZ         0.00038  -0.00000   0.00000  -0.00031  -0.04437
   6        3S          0.02508  -0.00000   0.00000  -0.05191   0.26098
   7        3PX         0.00000   0.00000   0.00988   0.00000   0.00000
   8        3PY         0.00000   0.00988   0.00000   0.00000  -0.00000
   9        3PZ        -0.00933   0.00000   0.00000   0.00014   0.00804
  10 2   H  1S         -0.00212   0.00000   0.00000   0.00171   0.02946
  11        2S          0.00177  -0.00000   0.00000   0.01049  -0.02557
  12 3   F  1S          0.56714   0.80178   0.00000  -0.00033  -0.11915
  13        2S          0.05659   0.07771   0.00000  -0.00184   0.11863
  14        2PX         0.00000   0.00000   0.00032   0.00000   0.00000
  15        2PY        -0.00218  -0.00228   0.00000  -0.00036  -0.04665
  16        2PZ         0.00051   0.00103   0.00000   0.00032   0.01566
  17        3S         -0.02309  -0.02595   0.00000   0.00881   0.35019
  18        3PX         0.00000   0.00000  -0.00172   0.00000   0.00000
  19        3PY         0.00755   0.00499   0.00000  -0.00437  -0.05619
  20        3PZ        -0.00120  -0.00259   0.00000   0.00093   0.01737
  21 4   F  1S          0.56714  -0.40089   0.69436  -0.00033  -0.11915
  22        2S          0.05659  -0.03886   0.06730  -0.00184   0.11863
  23        2PX        -0.00189   0.00113  -0.00163  -0.00032  -0.04040
  24        2PY         0.00109  -0.00033   0.00113   0.00018   0.02333
  25        2PZ         0.00051  -0.00051   0.00089   0.00032   0.01566
  26        3S         -0.02309   0.01298  -0.02248   0.00881   0.35019
  27        3PX         0.00654  -0.00291   0.00331  -0.00379  -0.04866
  28        3PY        -0.00377  -0.00004  -0.00291   0.00219   0.02809
  29        3PZ        -0.00120   0.00129  -0.00224   0.00093   0.01737
  30 5   F  1S          0.56714  -0.40089  -0.69436  -0.00033  -0.11915
  31        2S          0.05659  -0.03886  -0.06730  -0.00184   0.11863
  32        2PX         0.00189  -0.00113  -0.00163   0.00032   0.04040
  33        2PY         0.00109  -0.00033  -0.00113   0.00018   0.02333
  34        2PZ         0.00051  -0.00051  -0.00089   0.00032   0.01566
  35        3S         -0.02309   0.01298   0.02248   0.00881   0.35019
  36        3PX        -0.00654   0.00291   0.00331   0.00379   0.04866
  37        3PY        -0.00377  -0.00004   0.00291   0.00219   0.02809
  38        3PZ        -0.00120   0.00129   0.00224   0.00093   0.01737
                           6         7         8         9        10
                        (E)--O    (E)--O    (A1)--O   (A1)--O   (E)--O
     Eigenvalues --    -1.97101  -1.97101  -1.49928  -1.22610  -1.15635
   1 1   N  1S          0.00000  -0.00000  -0.18764   0.03301   0.00000
   2        2S          0.00000  -0.00000   0.19183  -0.03520   0.00000
   3        2PX         0.12152   0.00000   0.00000   0.00000   0.30487
   4        2PY         0.00000   0.12152  -0.00000   0.00000   0.00000
   5        2PZ         0.00000  -0.00000   0.13947   0.35264   0.00000
   6        3S          0.00000   0.00000   0.63718  -0.10006   0.00000
   7        3PX         0.02825   0.00000   0.00000   0.00000   0.28241
   8        3PY         0.00000   0.02825   0.00000  -0.00000   0.00000
   9        3PZ         0.00000  -0.00000   0.11448   0.32212   0.00000
  10 2   H  1S          0.00000   0.00000   0.15443   0.13709   0.00000
  11        2S          0.00000  -0.00000  -0.02472   0.04618   0.00000
  12 3   F  1S          0.00000  -0.20235   0.08392  -0.03718   0.00000
  13        2S          0.00000   0.20206  -0.08161   0.03768   0.00000
  14        2PX         0.00891   0.00000   0.00000   0.00000   0.24509
  15        2PY         0.00000  -0.04016  -0.07821   0.16467   0.00000
  16        2PZ         0.00000   0.01954   0.05201   0.11259   0.00000
  17        3S          0.00000   0.63305  -0.32725   0.16172   0.00000
  18        3PX         0.01198   0.00000   0.00000   0.00000   0.23730
  19        3PY         0.00000  -0.06917  -0.04386   0.14788   0.00000
  20        3PZ         0.00000   0.03232   0.03432   0.10231   0.00000
  21 4   F  1S         -0.17524   0.10117   0.08392  -0.03718   0.05172
  22        2S          0.17499  -0.10103  -0.08161   0.03768  -0.05382
  23        2PX        -0.02789   0.02125  -0.06774   0.14261  -0.08528
  24        2PY         0.02125  -0.00336   0.03911  -0.08234   0.19074
  25        2PZ         0.01692  -0.00977   0.05201   0.11259   0.11774
  26        3S          0.54823  -0.31652  -0.32725   0.16172  -0.23249
  27        3PX        -0.04889   0.03514  -0.03799   0.12806  -0.08030
  28        3PY         0.03514  -0.00831   0.02193  -0.07394   0.18337
  29        3PZ         0.02799  -0.01616   0.03432   0.10231   0.10685
  30 5   F  1S          0.17524   0.10117   0.08392  -0.03718  -0.05172
  31        2S         -0.17499  -0.10103  -0.08161   0.03768   0.05382
  32        2PX        -0.02789  -0.02125   0.06774  -0.14261  -0.08528
  33        2PY        -0.02125  -0.00336   0.03911  -0.08234  -0.19074
  34        2PZ        -0.01692  -0.00977   0.05201   0.11259  -0.11774
  35        3S         -0.54823  -0.31652  -0.32725   0.16172   0.23249
  36        3PX        -0.04889  -0.03514   0.03799  -0.12806  -0.08030
  37        3PY        -0.03514  -0.00831   0.02193  -0.07394  -0.18337
  38        3PZ        -0.02799  -0.01616   0.03432   0.10231  -0.10685
                          11        12        13        14        15
                        (E)--O    (E)--O    (E)--O    (A2)--O   (E)--O
     Eigenvalues --    -1.15635  -1.03411  -1.03411  -0.99498  -0.98041
   1 1   N  1S         -0.00000   0.00000  -0.00000   0.00000   0.00000
   2        2S          0.00000   0.00000  -0.00000   0.00000   0.00000
   3        2PX         0.00000   0.06135   0.00000   0.00000   0.00000
   4        2PY         0.30487   0.00000   0.06135   0.00000  -0.18116
   5        2PZ        -0.00000   0.00000   0.00000   0.00000   0.00000
   6        3S         -0.00000   0.00000   0.00000   0.00000  -0.00000
   7        3PX         0.00000   0.04251   0.00000   0.00000   0.00000
   8        3PY         0.28241   0.00000   0.04251   0.00000  -0.05172
   9        3PZ        -0.00000   0.00000   0.00000   0.00000   0.00000
  10 2   H  1S         -0.00000   0.00000   0.00000   0.00000   0.00000
  11        2S          0.00000   0.00000  -0.00000   0.00000   0.00000
  12 3   F  1S          0.05972   0.00000   0.00994   0.00000  -0.02085
  13        2S         -0.06215   0.00000  -0.01190   0.00000   0.03007
  14        2PX         0.00000  -0.20989   0.00000   0.33504   0.00000
  15        2PY        -0.19540   0.00000   0.07445   0.00000   0.28893
  16        2PZ         0.13595   0.00000   0.39631   0.00000   0.13852
  17        3S         -0.26845   0.00000  -0.04159   0.00000   0.07088
  18        3PX         0.00000  -0.23344   0.00000   0.34355   0.00000
  19        3PY        -0.18617   0.00000   0.07708   0.00000   0.32907
  20        3PZ         0.12338   0.00000   0.41764   0.00000   0.12891
  21 4   F  1S         -0.02986   0.00861  -0.00497   0.00000   0.01042
  22        2S          0.03107  -0.01030   0.00595  -0.00000  -0.01504
  23        2PX         0.19074   0.00336  -0.12312  -0.16752   0.00933
  24        2PY         0.13497  -0.12312  -0.13881  -0.29015   0.30509
  25        2PZ        -0.06798   0.34321  -0.19815  -0.00000  -0.06926
  26        3S          0.13423  -0.03602   0.02080  -0.00000  -0.03544
  27        3PX         0.18337  -0.00055  -0.13446  -0.17178  -0.00126
  28        3PY         0.13143  -0.13446  -0.15581  -0.29753   0.32689
  29        3PZ        -0.06169   0.36169  -0.20882  -0.00000  -0.06446
  30 5   F  1S         -0.02986  -0.00861  -0.00497  -0.00000   0.01042
  31        2S          0.03107   0.01030   0.00595   0.00000  -0.01504
  32        2PX        -0.19074   0.00336   0.12312  -0.16752  -0.00933
  33        2PY         0.13497   0.12312  -0.13881   0.29015   0.30509
  34        2PZ        -0.06798  -0.34321  -0.19815   0.00000  -0.06926
  35        3S          0.13423   0.03602   0.02080   0.00000  -0.03544
  36        3PX        -0.18337  -0.00055   0.13446  -0.17178   0.00126
  37        3PY         0.13143   0.13446  -0.15581   0.29753   0.32689
  38        3PZ        -0.06169  -0.36169  -0.20882   0.00000  -0.06446
                          16        17        18        19        20
                        (E)--O    (A1)--O   (A1)--V   (E)--V    (E)--V
     Eigenvalues --    -0.98041  -0.96805  -0.11506  -0.09395  -0.09395
   1 1   N  1S          0.00000   0.00895  -0.18429   0.00000   0.00000
   2        2S          0.00000  -0.00361   0.19275  -0.00000   0.00000
   3        2PX        -0.18116   0.00000   0.00000   0.00000   0.49515
   4        2PY         0.00000  -0.00000   0.00000   0.49515   0.00000
   5        2PZ         0.00000  -0.25156  -0.14636  -0.00000   0.00000
   6        3S          0.00000  -0.06471   1.19835  -0.00000   0.00000
   7        3PX        -0.05172   0.00000   0.00000   0.00000   0.83757
   8        3PY         0.00000  -0.00000   0.00000   0.83757   0.00000
   9        3PZ         0.00000  -0.12470  -0.08009  -0.00000   0.00000
  10 2   H  1S          0.00000  -0.19561  -0.09037   0.00000   0.00000
  11        2S          0.00000  -0.09003  -0.69980   0.00000   0.00000
  12 3   F  1S          0.00000   0.00834   0.03582   0.05574   0.00000
  13        2S          0.00000  -0.01406  -0.02904  -0.03532   0.00000
  14        2PX         0.31048   0.00000   0.00000   0.00000  -0.11481
  15        2PY         0.00000  -0.00113   0.24924   0.27138   0.00000
  16        2PZ         0.00000   0.29347  -0.04841  -0.15242   0.00000
  17        3S          0.00000  -0.02272  -0.23109  -0.43526   0.00000
  18        3PX         0.32617   0.00000   0.00000   0.00000  -0.17026
  19        3PY         0.00000  -0.01521   0.37426   0.47904   0.00000
  20        3PZ         0.00000   0.32143  -0.08162  -0.24126   0.00000
  21 4   F  1S         -0.01806   0.00834   0.03582  -0.02787   0.04827
  22        2S          0.02604  -0.01406  -0.02904   0.01766  -0.03059
  23        2PX         0.29431  -0.00098   0.21585  -0.16722   0.17483
  24        2PY         0.00933   0.00056  -0.12462  -0.01826  -0.16722
  25        2PZ         0.11996   0.29347  -0.04841   0.07621  -0.13200
  26        3S          0.06138  -0.02272  -0.23109   0.21763  -0.37694
  27        3PX         0.32835  -0.01317   0.32412  -0.28115   0.31671
  28        3PY        -0.00126   0.00760  -0.18713  -0.00793  -0.28115
  29        3PZ         0.11164   0.32143  -0.08162   0.12063  -0.20894
  30 5   F  1S          0.01806   0.00834   0.03582  -0.02787  -0.04827
  31        2S         -0.02604  -0.01406  -0.02904   0.01766   0.03059
  32        2PX         0.29431   0.00098  -0.21585   0.16722   0.17483
  33        2PY        -0.00933   0.00056  -0.12462  -0.01826   0.16722
  34        2PZ        -0.11996   0.29347  -0.04841   0.07621   0.13200
  35        3S         -0.06138  -0.02272  -0.23109   0.21763   0.37694
  36        3PX         0.32835   0.01317  -0.32412   0.28115   0.31671
  37        3PY         0.00126   0.00760  -0.18713  -0.00793   0.28115
  38        3PZ        -0.11164   0.32143  -0.08162   0.12063   0.20894
                          21        22        23        24        25
                        (A1)--V   (A1)--V   (E)--V    (E)--V    (A1)--V
     Eigenvalues --    -0.05789   0.79988   0.89844   0.89844   1.04920
   1 1   N  1S          0.00262   0.04509   0.00000   0.00000   0.00408
   2        2S          0.02894  -0.11065   0.00000   0.00000   0.09766
   3        2PX         0.00000   0.00000   0.00000  -0.98184   0.00000
   4        2PY        -0.00000  -0.00000  -0.98184   0.00000  -0.00000
   5        2PZ        -0.40234  -0.25402   0.00000   0.00000  -0.98225
   6        3S         -0.39024   0.14112  -0.00000   0.00000  -0.06331
   7        3PX         0.00000   0.00000   0.00000   1.55566   0.00000
   8        3PY        -0.00000   0.00000   1.55566   0.00000   0.00000
   9        3PZ        -0.80758  -0.15014  -0.00000   0.00000   1.65418
  10 2   H  1S          0.13819   1.29178  -0.00000   0.00000  -0.19558
  11        2S          1.32074  -0.96828   0.00000   0.00000  -0.64741
  12 3   F  1S          0.02600  -0.01125   0.03357   0.00000  -0.02362
  13        2S         -0.02096   0.03943   0.01140   0.00000   0.02408
  14        2PX         0.00000   0.00000   0.00000  -0.14987   0.00000
  15        2PY         0.12199  -0.00649  -0.14449   0.00000  -0.02737
  16        2PZ         0.01080   0.12558  -0.01920   0.00000  -0.18104
  17        3S         -0.18275   0.00812  -0.58351   0.00000   0.27252
  18        3PX         0.00000   0.00000   0.00000  -0.12718   0.00000
  19        3PY         0.20629   0.00484   0.34772   0.00000  -0.20693
  20        3PZ         0.01139   0.00243  -0.16631   0.00000   0.00100
  21 4   F  1S          0.02600  -0.01125  -0.01679   0.02907  -0.02362
  22        2S         -0.02096   0.03943  -0.00570   0.00987   0.02408
  23        2PX         0.10565  -0.00562  -0.00233  -0.14584  -0.02370
  24        2PY        -0.06100   0.00325  -0.14853  -0.00233   0.01368
  25        2PZ         0.01080   0.12558   0.00960  -0.01662  -0.18104
  26        3S         -0.18275   0.00812   0.29176  -0.50534   0.27252
  27        3PX         0.17865   0.00419  -0.20564   0.22899  -0.17920
  28        3PY        -0.10315  -0.00242  -0.00846  -0.20564   0.10346
  29        3PZ         0.01139   0.00243   0.08315  -0.14403   0.00100
  30 5   F  1S          0.02600  -0.01125  -0.01679  -0.02907  -0.02362
  31        2S         -0.02096   0.03943  -0.00570  -0.00987   0.02408
  32        2PX        -0.10565   0.00562   0.00233  -0.14584   0.02370
  33        2PY        -0.06100   0.00325  -0.14853   0.00233   0.01368
  34        2PZ         0.01080   0.12558   0.00960   0.01662  -0.18104
  35        3S         -0.18275   0.00812   0.29176   0.50534   0.27252
  36        3PX        -0.17865  -0.00419   0.20564   0.22899   0.17920
  37        3PY        -0.10315  -0.00242  -0.00846   0.20564   0.10346
  38        3PZ         0.01139   0.00243   0.08315   0.14403   0.00100
                          26        27        28        29        30
                        (E)--V    (E)--V    (A2)--V   (E)--V    (E)--V
     Eigenvalues --     1.77430   1.77430   1.98601   2.00929   2.00929
   1 1   N  1S          0.00000   0.00000   0.00000   0.00000   0.00000
   2        2S          0.00000   0.00000   0.00000   0.00000  -0.00000
   3        2PX         0.05080   0.00000   0.00000  -0.06371   0.00000
   4        2PY         0.00000   0.05080   0.00000   0.00000   0.06371
   5        2PZ         0.00000  -0.00000   0.00000   0.00000  -0.00000
   6        3S          0.00000  -0.00000   0.00000   0.00000  -0.00000
   7        3PX        -0.26056   0.00000   0.00000   0.62873   0.00000
   8        3PY         0.00000  -0.26056   0.00000   0.00000  -0.62873
   9        3PZ         0.00000   0.00000   0.00000   0.00000   0.00000
  10 2   H  1S          0.00000  -0.00000   0.00000   0.00000  -0.00000
  11        2S          0.00000   0.00000   0.00000   0.00000  -0.00000
  12 3   F  1S          0.00000  -0.00899   0.00000   0.00000  -0.03069
  13        2S          0.00000   0.02172   0.00000   0.00000   0.12121
  14        2PX        -0.56897   0.00000  -0.57815   0.51738   0.00000
  15        2PY         0.00000   0.24711   0.00000   0.00000   0.09348
  16        2PZ         0.00000   0.52679   0.00000   0.00000  -0.61274
  17        3S          0.00000   0.08307   0.00000   0.00000   0.15464
  18        3PX         0.58067   0.00000   0.60282  -0.61973   0.00000
  19        3PY         0.00000  -0.29496   0.00000   0.00000  -0.23329
  20        3PZ         0.00000  -0.47600   0.00000   0.00000   0.72293
  21 4   F  1S         -0.00778   0.00449   0.00000   0.02658   0.01534
  22        2S          0.01881  -0.01086  -0.00000  -0.10497  -0.06060
  23        2PX         0.04309  -0.35337   0.28907   0.05923  -0.26451
  24        2PY        -0.35337  -0.36495   0.50069   0.26451  -0.36466
  25        2PZ         0.45621  -0.26339   0.00000   0.53065   0.30637
  26        3S          0.07194  -0.04154  -0.00000  -0.13392  -0.07732
  27        3PX        -0.07605   0.37916  -0.30141   0.02004   0.36937
  28        3PY         0.37916   0.36177  -0.52205  -0.36937   0.40647
  29        3PZ        -0.41223   0.23800  -0.00000  -0.62607  -0.36146
  30 5   F  1S          0.00778   0.00449  -0.00000  -0.02658   0.01534
  31        2S         -0.01881  -0.01086   0.00000   0.10497  -0.06060
  32        2PX         0.04309   0.35337   0.28907   0.05923   0.26451
  33        2PY         0.35337  -0.36495  -0.50069  -0.26451  -0.36466
  34        2PZ        -0.45621  -0.26339  -0.00000  -0.53065   0.30637
  35        3S         -0.07194  -0.04154   0.00000   0.13392  -0.07732
  36        3PX        -0.07605  -0.37916  -0.30141   0.02004  -0.36937
  37        3PY        -0.37916   0.36177   0.52205   0.36937   0.40647
  38        3PZ         0.41223   0.23800   0.00000   0.62607  -0.36146
                          31        32        33        34        35
                        (A1)--V   (A1)--V   (E)--V    (E)--V    (A1)--V
     Eigenvalues --     2.01572   2.05486   2.13373   2.13373   2.14191
   1 1   N  1S         -0.01131  -0.04496   0.00000   0.00000  -0.03739
   2        2S         -1.45356   0.85333   0.00000  -0.00000   0.13762
   3        2PX         0.00000   0.00000   0.33784   0.00000   0.00000
   4        2PY        -0.00000   0.00000   0.00000   0.33784   0.00000
   5        2PZ        -0.08541   0.10299   0.00000   0.00000  -0.30991
   6        3S          2.39667  -0.66113   0.00000   0.00000   0.29150
   7        3PX         0.00000   0.00000  -0.16530   0.00000   0.00000
   8        3PY        -0.00000  -0.00000   0.00000  -0.16530  -0.00000
   9        3PZ        -0.04207  -0.73375   0.00000  -0.00000   0.82246
  10 2   H  1S         -0.13423   0.25766   0.00000   0.00000  -0.45576
  11        2S         -0.52851   0.36801   0.00000  -0.00000  -0.05173
  12 3   F  1S          0.06258   0.00404   0.00000   0.02052   0.00370
  13        2S         -0.26714  -0.01954   0.00000  -0.15491  -0.03871
  14        2PX         0.00000   0.00000  -0.23780   0.00000   0.00000
  15        2PY        -0.24739  -0.49149   0.00000  -0.77266  -0.15452
  16        2PZ        -0.05029  -0.12551   0.00000   0.09659   0.52921
  17        3S         -0.17823  -0.01274   0.00000   0.14378   0.08424
  18        3PX         0.00000   0.00000   0.28152   0.00000   0.00000
  19        3PY         0.56303   0.53942   0.00000   0.80984   0.10402
  20        3PZ        -0.03887   0.20660   0.00000  -0.08472  -0.65605
  21 4   F  1S          0.06258   0.00404   0.01777  -0.01026   0.00370
  22        2S         -0.26714  -0.01954  -0.13415   0.07745  -0.03871
  23        2PX        -0.21424  -0.42565  -0.63895   0.23160  -0.13382
  24        2PY         0.12369   0.24575   0.23160  -0.37152   0.07726
  25        2PZ        -0.05029  -0.12551   0.08365  -0.04829   0.52921
  26        3S         -0.17823  -0.01274   0.12451  -0.07189   0.08424
  27        3PX         0.48760   0.46715   0.67776  -0.22877   0.09009
  28        3PY        -0.28152  -0.26971  -0.22877   0.41360  -0.05201
  29        3PZ        -0.03887   0.20660  -0.07337   0.04236  -0.65605
  30 5   F  1S          0.06258   0.00404  -0.01777  -0.01026   0.00370
  31        2S         -0.26714  -0.01954   0.13415   0.07745  -0.03871
  32        2PX         0.21424   0.42565  -0.63895  -0.23160   0.13382
  33        2PY         0.12369   0.24575  -0.23160  -0.37152   0.07726
  34        2PZ        -0.05029  -0.12551  -0.08365  -0.04829   0.52921
  35        3S         -0.17823  -0.01274  -0.12451  -0.07189   0.08424
  36        3PX        -0.48760  -0.46715   0.67776   0.22877  -0.09009
  37        3PY        -0.28152  -0.26971   0.22877   0.41360  -0.05201
  38        3PZ        -0.03887   0.20660   0.07337   0.04236  -0.65605
                          36        37        38
                        (E)--V    (E)--V    (A1)--V
     Eigenvalues --     3.34895   3.34895   4.07279
   1 1   N  1S          0.00000   0.00000  -0.10871
   2        2S          0.00000   0.00000  -0.92921
   3        2PX         0.00000  -0.04691   0.00000
   4        2PY        -0.04691   0.00000  -0.00000
   5        2PZ        -0.00000   0.00000   0.02864
   6        3S         -0.00000   0.00000   2.36487
   7        3PX         0.00000  -0.69240   0.00000
   8        3PY        -0.69240   0.00000  -0.00000
   9        3PZ         0.00000   0.00000  -0.64690
  10 2   H  1S          0.00000   0.00000  -0.22819
  11        2S         -0.00000   0.00000  -0.00662
  12 3   F  1S          0.08940   0.00000  -0.03245
  13        2S         -1.25232   0.00000   0.91880
  14        2PX         0.00000  -0.05718   0.00000
  15        2PY         0.17217   0.00000  -0.17442
  16        2PZ        -0.09853   0.00000   0.01354
  17        3S          1.38924   0.00000  -1.34502
  18        3PX         0.00000   0.16131   0.00000
  19        3PY        -0.40725   0.00000   0.66718
  20        3PZ         0.22983   0.00000  -0.09781
  21 4   F  1S         -0.04470   0.07742  -0.03245
  22        2S          0.62616  -1.08454   0.91880
  23        2PX        -0.09931   0.11483  -0.15105
  24        2PY         0.00016  -0.09931   0.08721
  25        2PZ         0.04927  -0.08533   0.01354
  26        3S         -0.69462   1.20312  -1.34502
  27        3PX         0.24620  -0.26511   0.57779
  28        3PY         0.01917   0.24620  -0.33359
  29        3PZ        -0.11491   0.19904  -0.09781
  30 5   F  1S         -0.04470  -0.07742  -0.03245
  31        2S          0.62616   1.08454   0.91880
  32        2PX         0.09931   0.11483   0.15105
  33        2PY         0.00016   0.09931   0.08721
  34        2PZ         0.04927   0.08533   0.01354
  35        3S         -0.69462  -1.20312  -1.34502
  36        3PX        -0.24620  -0.26511  -0.57779
  37        3PY         0.01917  -0.24620  -0.33359
  38        3PZ        -0.11491  -0.19904  -0.09781
     Density Matrix:
                           1         2         3         4         5
   1 1   N  1S          2.04660
   2        2S          0.08739   0.13461
   3        2PX        -0.00000   0.00000   0.28859
   4        2PY         0.00000   0.00000  -0.00000   0.28859
   5        2PZ        -0.02348   0.01807   0.00000  -0.00000   0.41811
   6        3S         -0.41228   0.31401  -0.00000   0.00000   0.11661
   7        3PX         0.00000  -0.00000   0.20303  -0.00000  -0.00000
   8        3PY        -0.00000   0.00000  -0.00000   0.20303   0.00000
   9        3PZ        -0.02556   0.02455   0.00000  -0.00000   0.32113
  10 2   H  1S         -0.05613   0.05959  -0.00000   0.00000   0.23556
  11        2S          0.03757  -0.01715  -0.00000   0.00000   0.07323
  12 3   F  1S         -0.00744  -0.00678  -0.00000  -0.00338   0.00399
  13        2S          0.00044  -0.00201  -0.00000  -0.00108   0.00040
  14        2PX         0.00000  -0.00000   0.01336  -0.00000   0.00000
  15        2PY         0.05075  -0.05463  -0.00000  -0.22446   0.09903
  16        2PZ        -0.00997   0.01433   0.00000   0.08608  -0.05512
  17        3S          0.06605  -0.03716  -0.00000  -0.04064   0.00311
  18        3PX         0.00000  -0.00000   0.00078  -0.00000   0.00000
  19        3PY         0.03086  -0.04375  -0.00000  -0.24010   0.10470
  20        3PZ        -0.00272   0.00868   0.00000   0.08762  -0.08153
  21 4   F  1S         -0.00744  -0.00678  -0.00293   0.00169   0.00399
  22        2S          0.00044  -0.00201  -0.00094   0.00054   0.00040
  23        2PX         0.04395  -0.04731  -0.16500   0.10298   0.08576
  24        2PY        -0.02537   0.02731   0.10298  -0.04609  -0.04951
  25        2PZ        -0.00997   0.01433   0.07455  -0.04304  -0.05512
  26        3S          0.06605  -0.03716  -0.03519   0.02032   0.00311
  27        3PX         0.02673  -0.03789  -0.17988   0.10430   0.09068
  28        3PY        -0.01543   0.02188   0.10430  -0.05944  -0.05235
  29        3PZ        -0.00272   0.00868   0.07588  -0.04381  -0.08153
  30 5   F  1S         -0.00744  -0.00678   0.00293   0.00169   0.00399
  31        2S          0.00044  -0.00201   0.00094   0.00054   0.00040
  32        2PX        -0.04395   0.04731  -0.16500  -0.10298  -0.08576
  33        2PY        -0.02537   0.02731  -0.10298  -0.04609  -0.04951
  34        2PZ        -0.00997   0.01433  -0.07455  -0.04304  -0.05512
  35        3S          0.06605  -0.03716   0.03519   0.02032   0.00311
  36        3PX        -0.02673   0.03789  -0.17988  -0.10430  -0.09068
  37        3PY        -0.01543   0.02188  -0.10430  -0.05944  -0.05235
  38        3PZ        -0.00272   0.00868  -0.07588  -0.04381  -0.08153
                           6         7         8         9        10
   6        3S          0.98325
   7        3PX        -0.00000   0.17026
   8        3PY         0.00000   0.00000   0.17026
   9        3PZ         0.10127   0.00000  -0.00000   0.26514
  10 2   H  1S          0.20977  -0.00000   0.00000   0.17298   0.16356
  11        2S         -0.04343  -0.00000   0.00000   0.04610   0.03877
  12 3   F  1S          0.07960   0.00000   0.04114  -0.01932   0.00304
  13        2S         -0.04478  -0.00000  -0.02627   0.00995  -0.00263
  14        2PX        -0.00000   0.08898  -0.00000   0.00000   0.00000
  15        2PY        -0.15690  -0.00000  -0.13624   0.08775   0.01869
  16        2PZ         0.01394   0.00000   0.09728   0.01150  -0.06695
  17        3S         -0.26575  -0.00000  -0.12724   0.04100  -0.02709
  18        3PX        -0.00000   0.08108  -0.00000   0.00000   0.00000
  19        3PY        -0.11202  -0.00000  -0.13645   0.08797   0.02959
  20        3PZ        -0.00943   0.00000   0.09364  -0.00609  -0.08607
  21 4   F  1S          0.07960   0.03563  -0.02057  -0.01932   0.00304
  22        2S         -0.04478  -0.02275   0.01314   0.00995  -0.00263
  23        2PX        -0.13588  -0.07993   0.09752   0.07600   0.01619
  24        2PY         0.07845   0.09752   0.03267  -0.04388  -0.00935
  25        2PZ         0.01394   0.08425  -0.04864   0.01150  -0.06695
  26        3S         -0.26575  -0.11019   0.06362   0.04100  -0.02709
  27        3PX        -0.09701  -0.08206   0.09419   0.07619   0.02563
  28        3PY         0.05601   0.09419   0.02670  -0.04399  -0.01479
  29        3PZ        -0.00943   0.08109  -0.04682  -0.00609  -0.08607
  30 5   F  1S          0.07960  -0.03563  -0.02057  -0.01932   0.00304
  31        2S         -0.04478   0.02275   0.01314   0.00995  -0.00263
  32        2PX         0.13588  -0.07993  -0.09752  -0.07600  -0.01619
  33        2PY         0.07845  -0.09752   0.03267  -0.04388  -0.00935
  34        2PZ         0.01394  -0.08425  -0.04864   0.01150  -0.06695
  35        3S         -0.26575   0.11019   0.06362   0.04100  -0.02709
  36        3PX         0.09701  -0.08206  -0.09419  -0.07619  -0.02563
  37        3PY         0.05601  -0.09419   0.02670  -0.04399  -0.01479
  38        3PZ        -0.00943  -0.08109  -0.04682  -0.00609  -0.08607
                          11        12        13        14        15
  11        2S          0.02323
  12 3   F  1S         -0.00099   2.06446
  13        2S          0.00414   0.05312   0.15467
  14        2PX         0.00000  -0.00000   0.00000   0.62569
  15        2PY         0.02165  -0.03806   0.03720  -0.00000   0.32847
  16        2PZ        -0.04580   0.01417  -0.01443   0.00000   0.11117
  17        3S          0.01740  -0.51064   0.43710   0.00000   0.16087
  18        3PX         0.00000   0.00000   0.00000   0.64726  -0.00000
  19        3PY         0.02137   0.00492   0.02019  -0.00000   0.34073
  20        3PZ        -0.05099  -0.00156  -0.00781   0.00000   0.11186
  21 4   F  1S         -0.00099   0.00079   0.00223   0.00785  -0.00609
  22        2S          0.00414   0.00223  -0.00066  -0.00272   0.00224
  23        2PX         0.01875  -0.00135   0.00058   0.02680  -0.02785
  24        2PY        -0.01082   0.00984  -0.00348  -0.04307   0.06774
  25        2PZ        -0.04580  -0.00395   0.00049  -0.01157  -0.01535
  26        3S          0.01740  -0.01015   0.00147  -0.05097   0.02745
  27        3PX         0.01851   0.00329  -0.00049   0.04878  -0.04255
  28        3PY        -0.01069   0.00059   0.00053  -0.05320   0.08460
  29        3PZ        -0.05099  -0.00220  -0.00052  -0.02963  -0.01695
  30 5   F  1S         -0.00099   0.00079   0.00223  -0.00785  -0.00609
  31        2S          0.00414   0.00223  -0.00066   0.00272   0.00224
  32        2PX        -0.01875   0.00135  -0.00058   0.02680   0.02785
  33        2PY        -0.01082   0.00984  -0.00348   0.04307   0.06774
  34        2PZ        -0.04580  -0.00395   0.00049   0.01157  -0.01535
  35        3S          0.01740  -0.01015   0.00147   0.05097   0.02745
  36        3PX        -0.01851  -0.00329   0.00049   0.04878   0.04255
  37        3PY        -0.01069   0.00059   0.00053   0.05320   0.08460
  38        3PZ        -0.05099  -0.00220  -0.00052   0.02963  -0.01695
                          16        17        18        19        20
  16        2PZ         0.59373
  17        3S         -0.06165   1.47450
  18        3PX         0.00000   0.00000   0.67073
  19        3PY         0.11700   0.08980  -0.00000   0.36191
  20        3PZ         0.61736  -0.03339   0.00000   0.11429   0.64517
  21 4   F  1S         -0.00395  -0.01015   0.00216   0.00255  -0.00220
  22        2S          0.00049   0.00147   0.00022  -0.00069  -0.00052
  23        2PX        -0.01908  -0.00171   0.03419  -0.03412  -0.02950
  24        2PY        -0.00234  -0.05786  -0.04477   0.09920  -0.01719
  25        2PZ         0.00839   0.03082  -0.02570  -0.03142   0.01504
  26        3S          0.03082   0.03378  -0.04027   0.01128   0.02909
  27        3PX        -0.04006  -0.01037   0.05712  -0.04751  -0.05168
  28        3PY        -0.00655  -0.04051  -0.05460   0.11608  -0.02171
  29        3PZ         0.01504   0.02909  -0.04465  -0.03390   0.02322
  30 5   F  1S         -0.00395  -0.01015  -0.00216   0.00255  -0.00220
  31        2S          0.00049   0.00147  -0.00022  -0.00069  -0.00052
  32        2PX         0.01908   0.00171   0.03419   0.03412   0.02950
  33        2PY        -0.00234  -0.05786   0.04477   0.09920  -0.01719
  34        2PZ         0.00839   0.03082   0.02570  -0.03142   0.01504
  35        3S          0.03082   0.03378   0.04027   0.01128   0.02909
  36        3PX         0.04006   0.01037   0.05712   0.04751   0.05168
  37        3PY        -0.00655  -0.04051   0.05460   0.11608  -0.02171
  38        3PZ         0.01504   0.02909   0.04465  -0.03390   0.02322
                          21        22        23        24        25
  21 4   F  1S          2.06446
  22        2S          0.05312   0.15467
  23        2PX        -0.03296   0.03222   0.40278
  24        2PY         0.01903  -0.01860   0.12870   0.55139
  25        2PZ         0.01417  -0.01443   0.09627  -0.05558   0.59373
  26        3S         -0.51064   0.43710   0.13932  -0.08044  -0.06165
  27        3PX         0.00426   0.01749   0.41736   0.13273   0.10133
  28        3PY        -0.00246  -0.01009   0.13273   0.57063  -0.05850
  29        3PZ        -0.00156  -0.00781   0.09688  -0.05593   0.61736
  30 5   F  1S          0.00079   0.00223  -0.00920  -0.00375  -0.00395
  31        2S          0.00223  -0.00066   0.00330   0.00124   0.00049
  32        2PX         0.00920  -0.00330   0.08821   0.00761   0.00751
  33        2PY        -0.00375   0.00124  -0.00761   0.00633   0.01770
  34        2PZ        -0.00395   0.00049  -0.00751   0.01770   0.00839
  35        3S         -0.01015   0.00147   0.04926   0.03041   0.03082
  36        3PX        -0.00113   0.00071   0.11711   0.01375   0.01436
  37        3PY        -0.00314   0.00016   0.00310   0.01628   0.03797
  38        3PZ        -0.00220  -0.00052   0.00014   0.03414   0.01504
                          26        27        28        29        30
  26        3S          1.47450
  27        3PX         0.07777   0.43911
  28        3PY        -0.04490   0.13372   0.59352
  29        3PZ        -0.03339   0.09898  -0.05714   0.64517
  30 5   F  1S         -0.01015   0.00113  -0.00314  -0.00220   2.06446
  31        2S          0.00147  -0.00071   0.00016  -0.00052   0.05312
  32        2PX        -0.04926   0.11711  -0.00310  -0.00014   0.03296
  33        2PY         0.03041  -0.01375   0.01628   0.03414   0.01903
  34        2PZ         0.03082  -0.01436   0.03797   0.01504   0.01417
  35        3S          0.03378   0.02990   0.02923   0.02909  -0.51064
  36        3PX        -0.02990   0.14556   0.00355   0.00704  -0.00426
  37        3PY         0.02923  -0.00355   0.02765   0.05562  -0.00246
  38        3PZ         0.02909  -0.00704   0.05562   0.02322  -0.00156
                          31        32        33        34        35
  31        2S          0.15467
  32        2PX        -0.03222   0.40278
  33        2PY        -0.01860  -0.12870   0.55139
  34        2PZ        -0.01443  -0.09627  -0.05558   0.59373
  35        3S          0.43710  -0.13932  -0.08044  -0.06165   1.47450
  36        3PX        -0.01749   0.41736  -0.13273  -0.10133  -0.07777
  37        3PY        -0.01009  -0.13273   0.57063  -0.05850  -0.04490
  38        3PZ        -0.00781  -0.09688  -0.05593   0.61736  -0.03339
                          36        37        38
  36        3PX         0.43911
  37        3PY        -0.13372   0.59352
  38        3PZ        -0.09898  -0.05714   0.64517
    Full Mulliken population analysis:
                           1         2         3         4         5
   1 1   N  1S          2.04660
   2        2S          0.01703   0.13461
   3        2PX         0.00000   0.00000   0.28859
   4        2PY         0.00000   0.00000   0.00000   0.28859
   5        2PZ         0.00000   0.00000   0.00000   0.00000   0.41811
   6        3S         -0.07595   0.23619   0.00000   0.00000   0.00000
   7        3PX         0.00000   0.00000   0.10476   0.00000   0.00000
   8        3PY         0.00000   0.00000   0.00000   0.10476   0.00000
   9        3PZ         0.00000   0.00000   0.00000   0.00000   0.16571
  10 2   H  1S         -0.00110   0.00990   0.00000   0.00000   0.05505
  11        2S          0.00257  -0.00583   0.00000   0.00000   0.01190
  12 3   F  1S         -0.00000  -0.00000  -0.00000  -0.00000  -0.00000
  13        2S          0.00000  -0.00002  -0.00000  -0.00002  -0.00000
  14        2PX        -0.00000   0.00000   0.00006   0.00000   0.00000
  15        2PY        -0.00000   0.00091   0.00000   0.00791   0.00146
  16        2PZ        -0.00000   0.00009   0.00000   0.00127   0.00005
  17        3S          0.00080  -0.00370  -0.00000  -0.00493  -0.00014
  18        3PX        -0.00000   0.00000   0.00006   0.00000   0.00000
  19        3PY        -0.00120   0.01010   0.00000   0.05295   0.01136
  20        3PZ        -0.00004   0.00074   0.00000   0.00951  -0.00256
  21 4   F  1S         -0.00000  -0.00000  -0.00000  -0.00000  -0.00000
  22        2S          0.00000  -0.00002  -0.00002  -0.00001  -0.00000
  23        2PX        -0.00000   0.00068   0.00418   0.00177   0.00110
  24        2PY        -0.00000   0.00023   0.00177   0.00025   0.00037
  25        2PZ        -0.00000   0.00009   0.00095   0.00032   0.00005
  26        3S          0.00080  -0.00370  -0.00370  -0.00123  -0.00014
  27        3PX        -0.00090   0.00757   0.02652   0.01320   0.00852
  28        3PY        -0.00030   0.00252   0.01320   0.00008   0.00284
  29        3PZ        -0.00004   0.00074   0.00713   0.00238  -0.00256
  30 5   F  1S         -0.00000  -0.00000  -0.00000  -0.00000  -0.00000
  31        2S          0.00000  -0.00002  -0.00002  -0.00001  -0.00000
  32        2PX        -0.00000   0.00068   0.00418   0.00177   0.00110
  33        2PY        -0.00000   0.00023   0.00177   0.00025   0.00037
  34        2PZ        -0.00000   0.00009   0.00095   0.00032   0.00005
  35        3S          0.00080  -0.00370  -0.00370  -0.00123  -0.00014
  36        3PX        -0.00090   0.00757   0.02652   0.01320   0.00852
  37        3PY        -0.00030   0.00252   0.01320   0.00008   0.00284
  38        3PZ        -0.00004   0.00074   0.00713   0.00238  -0.00256
                           6         7         8         9        10
   6        3S          0.98325
   7        3PX         0.00000   0.17026
   8        3PY         0.00000   0.00000   0.17026
   9        3PZ         0.00000   0.00000   0.00000   0.26514
  10 2   H  1S          0.07304   0.00000   0.00000   0.09400   0.16356
  11        2S         -0.02752   0.00000   0.00000   0.02376   0.02504
  12 3   F  1S          0.00153   0.00000   0.00201   0.00035   0.00000
  13        2S         -0.00478  -0.00000  -0.00633  -0.00089  -0.00000
  14        2PX         0.00000   0.00500   0.00000   0.00000  -0.00000
  15        2PY         0.01142   0.00000   0.01507   0.00544  -0.00001
  16        2PZ         0.00038   0.00000   0.00603   0.00038  -0.00003
  17        3S         -0.07566  -0.00000  -0.05915  -0.00708  -0.00033
  18        3PX         0.00000   0.02229   0.00000   0.00000  -0.00000
  19        3PY         0.03990   0.00000   0.04185   0.01900  -0.00076
  20        3PZ        -0.00125   0.00000   0.02022  -0.00119  -0.00260
  21 4   F  1S          0.00153   0.00151   0.00050   0.00035   0.00000
  22        2S         -0.00478  -0.00474  -0.00158  -0.00089  -0.00000
  23        2PX         0.00857   0.00551   0.00704   0.00408  -0.00000
  24        2PY         0.00286   0.00704   0.00047   0.00136  -0.00000
  25        2PZ         0.00038   0.00452   0.00151   0.00038  -0.00003
  26        3S         -0.07566  -0.04436  -0.01479  -0.00708  -0.00033
  27        3PX         0.02992   0.01324   0.02372   0.01425  -0.00057
  28        3PY         0.00997   0.02372   0.00346   0.00475  -0.00019
  29        3PZ        -0.00125   0.01517   0.00506  -0.00119  -0.00260
  30 5   F  1S          0.00153   0.00151   0.00050   0.00035   0.00000
  31        2S         -0.00478  -0.00474  -0.00158  -0.00089  -0.00000
  32        2PX         0.00857   0.00551   0.00704   0.00408  -0.00000
  33        2PY         0.00286   0.00704   0.00047   0.00136  -0.00000
  34        2PZ         0.00038   0.00452   0.00151   0.00038  -0.00003
  35        3S         -0.07566  -0.04436  -0.01479  -0.00708  -0.00033
  36        3PX         0.02992   0.01324   0.02372   0.01425  -0.00057
  37        3PY         0.00997   0.02372   0.00346   0.00475  -0.00019
  38        3PZ        -0.00125   0.01517   0.00506  -0.00119  -0.00260
                          11        12        13        14        15
  11        2S          0.02323
  12 3   F  1S         -0.00001   2.06446
  13        2S          0.00017   0.01140   0.15467
  14        2PX        -0.00000   0.00000   0.00000   0.62569
  15        2PY        -0.00041   0.00000   0.00000  -0.00000   0.32847
  16        2PZ        -0.00102   0.00000   0.00000   0.00000   0.00000
  17        3S          0.00228  -0.09374   0.32004   0.00000   0.00000
  18        3PX        -0.00000   0.00000   0.00000   0.31610   0.00000
  19        3PY        -0.00260   0.00000   0.00000  -0.00000   0.16640
  20        3PZ        -0.00726   0.00000   0.00000   0.00000   0.00000
  21 4   F  1S         -0.00001   0.00000   0.00000   0.00000   0.00000
  22        2S          0.00017   0.00000  -0.00000  -0.00000  -0.00000
  23        2PX        -0.00031   0.00000  -0.00000  -0.00000  -0.00000
  24        2PY        -0.00010   0.00000  -0.00000  -0.00000  -0.00000
  25        2PZ        -0.00102   0.00000   0.00000   0.00000   0.00000
  26        3S          0.00228  -0.00000   0.00000  -0.00003  -0.00003
  27        3PX        -0.00195  -0.00000   0.00000  -0.00005  -0.00011
  28        3PY        -0.00065   0.00000   0.00000  -0.00014  -0.00035
  29        3PZ        -0.00726   0.00000   0.00000   0.00000   0.00000
  30 5   F  1S         -0.00001   0.00000   0.00000   0.00000   0.00000
  31        2S          0.00017   0.00000  -0.00000  -0.00000  -0.00000
  32        2PX        -0.00031   0.00000  -0.00000  -0.00000  -0.00000
  33        2PY        -0.00010   0.00000  -0.00000  -0.00000  -0.00000
  34        2PZ        -0.00102   0.00000   0.00000   0.00000   0.00000
  35        3S          0.00228  -0.00000   0.00000  -0.00003  -0.00003
  36        3PX        -0.00195  -0.00000   0.00000  -0.00005  -0.00011
  37        3PY        -0.00065   0.00000   0.00000  -0.00014  -0.00035
  38        3PZ        -0.00726   0.00000   0.00000   0.00000   0.00000
                          16        17        18        19        20
  16        2PZ         0.59373
  17        3S          0.00000   1.47450
  18        3PX         0.00000   0.00000   0.67073
  19        3PY         0.00000   0.00000  -0.00000   0.36191
  20        3PZ         0.30150   0.00000   0.00000   0.00000   0.64517
  21 4   F  1S          0.00000  -0.00000   0.00000  -0.00000   0.00000
  22        2S          0.00000   0.00000   0.00000   0.00000   0.00000
  23        2PX         0.00000   0.00000  -0.00004  -0.00009   0.00000
  24        2PY         0.00000  -0.00006  -0.00012  -0.00041   0.00000
  25        2PZ         0.00000   0.00000   0.00000   0.00000   0.00001
  26        3S          0.00000   0.00046  -0.00081  -0.00039   0.00000
  27        3PX         0.00000   0.00021  -0.00090  -0.00242   0.00000
  28        3PY         0.00000  -0.00141  -0.00278  -0.00865   0.00000
  29        3PZ         0.00001   0.00000   0.00000   0.00000   0.00032
  30 5   F  1S          0.00000  -0.00000   0.00000  -0.00000   0.00000
  31        2S          0.00000   0.00000   0.00000   0.00000   0.00000
  32        2PX         0.00000   0.00000  -0.00004  -0.00009   0.00000
  33        2PY         0.00000  -0.00006  -0.00012  -0.00041   0.00000
  34        2PZ         0.00000   0.00000   0.00000   0.00000   0.00001
  35        3S          0.00000   0.00046  -0.00081  -0.00039   0.00000
  36        3PX         0.00000   0.00021  -0.00090  -0.00242   0.00000
  37        3PY         0.00000  -0.00141  -0.00278  -0.00865   0.00000
  38        3PZ         0.00001   0.00000   0.00000   0.00000   0.00032
                          21        22        23        24        25
  21 4   F  1S          2.06446
  22        2S          0.01140   0.15467
  23        2PX         0.00000   0.00000   0.40278
  24        2PY         0.00000   0.00000   0.00000   0.55139
  25        2PZ         0.00000   0.00000   0.00000   0.00000   0.59373
  26        3S         -0.09374   0.32004   0.00000   0.00000   0.00000
  27        3PX         0.00000   0.00000   0.20383   0.00000   0.00000
  28        3PY         0.00000   0.00000   0.00000   0.27868   0.00000
  29        3PZ         0.00000   0.00000   0.00000   0.00000   0.30150
  30 5   F  1S          0.00000   0.00000   0.00000   0.00000   0.00000
  31        2S          0.00000  -0.00000  -0.00000   0.00000   0.00000
  32        2PX         0.00000  -0.00000  -0.00000   0.00000   0.00000
  33        2PY         0.00000  -0.00000  -0.00000   0.00000   0.00000
  34        2PZ         0.00000   0.00000   0.00000   0.00000   0.00000
  35        3S         -0.00000   0.00000  -0.00006  -0.00000   0.00000
  36        3PX        -0.00000   0.00000  -0.00067  -0.00000   0.00000
  37        3PY         0.00000   0.00000  -0.00000   0.00001   0.00000
  38        3PZ         0.00000   0.00000   0.00000   0.00000   0.00001
                          26        27        28        29        30
  26        3S          1.47450
  27        3PX         0.00000   0.43911
  28        3PY         0.00000   0.00000   0.59352
  29        3PZ         0.00000   0.00000   0.00000   0.64517
  30 5   F  1S         -0.00000  -0.00000   0.00000   0.00000   2.06446
  31        2S          0.00000   0.00000   0.00000   0.00000   0.01140
  32        2PX        -0.00006  -0.00067  -0.00000   0.00000   0.00000
  33        2PY        -0.00000  -0.00000   0.00001   0.00000   0.00000
  34        2PZ         0.00000   0.00000   0.00000   0.00001   0.00000
  35        3S          0.00046  -0.00120   0.00000   0.00000  -0.09374
  36        3PX        -0.00120  -0.01513   0.00000   0.00000   0.00000
  37        3PY        -0.00000  -0.00000   0.00038   0.00000   0.00000
  38        3PZ         0.00000   0.00000   0.00000   0.00032   0.00000
                          31        32        33        34        35
  31        2S          0.15467
  32        2PX         0.00000   0.40278
  33        2PY         0.00000   0.00000   0.55139
  34        2PZ         0.00000   0.00000   0.00000   0.59373
  35        3S          0.32004   0.00000   0.00000   0.00000   1.47450
  36        3PX         0.00000   0.20383   0.00000   0.00000   0.00000
  37        3PY         0.00000   0.00000   0.27868   0.00000   0.00000
  38        3PZ         0.00000   0.00000   0.00000   0.30150   0.00000
                          36        37        38
  36        3PX         0.43911
  37        3PY         0.00000   0.59352
  38        3PZ         0.00000   0.00000   0.64517
     Gross orbital populations:
                           1
   1 1   N  1S          1.98783
   2        2S          0.41628
   3        2PX         0.49355
   4        2PY         0.49355
   5        2PZ         0.68128
   6        3S          1.10363
   7        3PX         0.34553
   8        3PY         0.34553
   9        3PZ         0.59665
  10 2   H  1S          0.40830
  11        2S          0.02656
  12 3   F  1S          1.98600
  13        2S          0.47425
  14        2PX         0.94640
  15        2PY         0.53567
  16        2PZ         0.90239
  17        3S          1.55130
  18        3PX         0.99989
  19        3PY         0.67497
  20        3PZ         0.96289
  21 4   F  1S          1.98600
  22        2S          0.47425
  23        2PX         0.63835
  24        2PY         0.84372
  25        2PZ         0.90239
  26        3S          1.55130
  27        3PX         0.75620
  28        3PY         0.91866
  29        3PZ         0.96289
  30 5   F  1S          1.98600
  31        2S          0.47425
  32        2PX         0.63835
  33        2PY         0.84372
  34        2PZ         0.90239
  35        3S          1.55130
  36        3PX         0.75620
  37        3PY         0.91866
  38        3PZ         0.96289
          Condensed to atoms (all electrons):
               1          2          3          4          5
     1  N    5.870437   0.235753   0.119211   0.119211   0.119211
     2  H    0.235753   0.236876  -0.012587  -0.012587  -0.012587
     3  F    0.119211  -0.012587   8.962746  -0.017801  -0.017801
     4  F    0.119211  -0.012587  -0.017801   8.962746  -0.017801
     5  F    0.119211  -0.012587  -0.017801  -0.017801   8.962746
 Mulliken charges:
               1
     1  N    0.536177
     2  H    0.565131
     3  F   -0.033769
     4  F   -0.033769
     5  F   -0.033769
 Sum of Mulliken charges =   1.00000
 Mulliken charges with hydrogens summed into heavy atoms:
               1
     1  N    1.101308
     3  F   -0.033769
     4  F   -0.033769
     5  F   -0.033769
 Electronic spatial extent (au):  <R**2>=            208.3448
 Charge=              1.0000 electrons
 Dipole moment (field-independent basis, Debye):
    X=              0.0000    Y=              0.0000    Z=              3.4453  Tot=              3.4453
 Quadrupole moment (field-independent basis, Debye-Ang):
   XX=            -17.8499   YY=            -17.8499   ZZ=            -13.8580
   XY=             -0.0000   XZ=             -0.0000   YZ=             -0.0000
 Traceless Quadrupole moment (field-independent basis, Debye-Ang):
   XX=             -1.3306   YY=             -1.3306   ZZ=              2.6612
   XY=             -0.0000   XZ=             -0.0000   YZ=             -0.0000
 Octapole moment (field-independent basis, Debye-Ang**2):
  XXX=             -0.0000  YYY=              0.5520  ZZZ=              5.4743  XYY=              0.0000
  XXY=             -0.5520  XXZ=             -0.4792  XZZ=              0.0000  YZZ=             -0.0000
  YYZ=             -0.4792  XYZ=              0.0000
 Hexadecapole moment (field-independent basis, Debye-Ang**3):
 XXXX=            -71.8207 YYYY=            -71.8207 ZZZZ=             -8.6851 XXXY=              0.0000
 XXXZ=             -0.0000 YYYX=              0.0000 YYYZ=             -0.6205 ZZZX=             -0.0000
 ZZZY=              0.0000 XXYY=            -23.9402 XXZZ=            -15.1172 YYZZ=            -15.1172
 XXYZ=              0.6205 YYXZ=             -0.0000 ZZXY=              0.0000
 N-N= 1.411916680864D+02 E-N=-1.107056711153D+03  KE= 3.492088362999D+02
 Symmetry A'   KE= 2.417077301545D+02
 Symmetry A"   KE= 1.075011061453D+02
 Orbital energies and kinetic energies (alpha):
                                 1                 2
   1         (A1)--O         -26.605777         36.911177
   2         (E)--O          -26.605024         36.909319
   3         (E)--O          -26.605024         36.909319
   4         (A1)--O         -16.207891         21.934649
   5         (A1)--O          -2.107263          3.132990
   6         (E)--O           -1.971014          3.880422
   7         (E)--O           -1.971014          3.880422
   8         (A1)--O          -1.499281          3.108429
   9         (A1)--O          -1.226104          2.344820
  10         (E)--O           -1.156355          2.762205
  11         (E)--O           -1.156355          2.762205
  12         (E)--O           -1.034106          3.299286
  13         (E)--O           -1.034106          3.299286
  14         (A2)--O          -0.994982          3.506001
  15         (E)--O           -0.980413          3.393320
  16         (E)--O           -0.980413          3.393320
  17         (A1)--O          -0.968046          3.177248
  18         (A1)--V          -0.115060          3.901510
  19         (E)--V           -0.093953          3.584530
  20         (E)--V           -0.093953          3.584530
  21         (A1)--V          -0.057893          1.814827
  22         (A1)--V           0.799883          2.802100
  23         (E)--V            0.898439          3.765820
  24         (E)--V            0.898439          3.765820
  25         (A1)--V           1.049197          4.036073
  26         (E)--V            1.774301          6.332231
  27         (E)--V            1.774301          6.332231
  28         (A2)--V           1.986009          6.434386
  29         (E)--V            2.009293          6.412000
  30         (E)--V            2.009293          6.412000
  31         (A1)--V           2.015720          5.507211
  32         (A1)--V           2.054859          6.228633
  33         (E)--V            2.133726          6.763548
  34         (E)--V            2.133726          6.763548
  35         (A1)--V           2.141911          6.325090
  36         (E)--V            3.348955          8.537076
  37         (E)--V            3.348955          8.537076
  38         (A1)--V           4.072792          8.305069
 Total kinetic energy from orbitals= 3.492088362999D+02
 1\1\GINC-IISERK51\SP\RHF\3-21G\F3H1N1(1+)\GAUSSIAN\13-Jun-2025\0\\# hf
 /3-21g pop=full geom=connectivity\\Title Card Required\\1,1\N,0,0.,0.,
 0.339708\H,0,0.,0.,1.368997\F,0,0.,1.288451,-0.138776\F,0,1.115832,-0.
 644226,-0.138776\F,0,-1.115832,-0.644226,-0.138776\\Version=EM64L-G16R
 evB.01\State=1-A1\HF=-350.8354387\RMSD=5.675e-10\Dipole=0.,0.,1.355489
 5\Quadrupole=-0.9892846,-0.9892846,1.9785693,0.,0.,0.\PG=C03V [C3(N1H1
 ),3SGV(F1)]\\@


 HE WHO LAUGHS LAST PROBABLY DIDN'T GET THE JOKE.
 Job cpu time:       0 days  0 hours  0 minutes  0.4 seconds.
 Elapsed time:       0 days  0 hours  0 minutes  0.4 seconds.
 File lengths (MBytes):  RWF=      6 Int=      0 D2E=      0 Chk=      1 Scr=      1
 Normal termination of Gaussian 16 at Fri Jun 13 19:46:22 2025.
