 Entering Gaussian System, Link 0=g16
 Input=/home/gaussian/Documents/Summer_Internship/Acid_Base_adduct/Base/NF3/nf3H_ion.com
 Output=/home/gaussian/Documents/Summer_Internship/Acid_Base_adduct/Base/NF3/nf3H_ion.log
 Initial command:
 /usr/local/g16/l1.exe "/home/gaussian/tmp/Gau-29030.inp" -scrdir="/home/gaussian/tmp/"
 Entering Link 1 = /usr/local/g16/l1.exe PID=     29033.
  
 Copyright (c) 1988-2017, Gaussian, Inc.  All Rights Reserved.
  
 This is part of the Gaussian(R) 16 program.  It is based on
 the Gaussian(R) 09 system (copyright 2009, Gaussian, Inc.),
 the Gaussian(R) 03 system (copyright 2003, Gaussian, Inc.),
 the Gaussian(R) 98 system (copyright 1998, Gaussian, Inc.),
 the Gaussian(R) 94 system (copyright 1995, Gaussian, Inc.),
 the Gaussian 92(TM) system (copyright 1992, Gaussian, Inc.),
 the Gaussian 90(TM) system (copyright 1990, Gaussian, Inc.),
 the Gaussian 88(TM) system (copyright 1988, Gaussian, Inc.),
 the Gaussian 86(TM) system (copyright 1986, Carnegie Mellon
 University), and the Gaussian 82(TM) system (copyright 1983,
 Carnegie Mellon University). Gaussian is a federally registered
 trademark of Gaussian, Inc.
  
 This software contains proprietary and confidential information,
 including trade secrets, belonging to Gaussian, Inc.
  
 This software is provided under written license and may be
 used, copied, transmitted, or stored only in accord with that
 written license.
  
 The following legend is applicable only to US Government
 contracts under FAR:
  
                    RESTRICTED RIGHTS LEGEND
  
 Use, reproduction and disclosure by the US Government is
 subject to restrictions as set forth in subparagraphs (a)
 and (c) of the Commercial Computer Software - Restricted
 Rights clause in FAR 52.227-19.
  
 Gaussian, Inc.
 340 Quinnipiac St., Bldg. 40, Wallingford CT 06492
  
  
 ---------------------------------------------------------------
 Warning -- This program may not be used in any manner that
 competes with the business of Gaussian, Inc. or will provide
 assistance to any competitor of Gaussian, Inc.  The licensee
 of this program is prohibited from giving any competitor of
 Gaussian, Inc. access to this program.  By using this program,
 the user acknowledges that Gaussian, Inc. is engaged in the
 business of creating and licensing software in the field of
 computational chemistry and represents and warrants to the
 licensee that it is not a competitor of Gaussian, Inc. and that
 it will not use this program in any manner prohibited above.
 ---------------------------------------------------------------
  

 Cite this work as:
 Gaussian 16, Revision B.01,
 M. J. Frisch, G. W. Trucks, H. B. Schlegel, G. E. Scuseria, 
 M. A. Robb, J. R. Cheeseman, G. Scalmani, V. Barone, 
 G. A. Petersson, H. Nakatsuji, X. Li, M. Caricato, A. V. Marenich, 
 J. Bloino, B. G. Janesko, R. Gomperts, B. Mennucci, H. P. Hratchian, 
 J. V. Ortiz, A. F. Izmaylov, J. L. Sonnenberg, D. Williams-Young, 
 F. Ding, F. Lipparini, F. Egidi, J. Goings, B. Peng, A. Petrone, 
 T. Henderson, D. Ranasinghe, V. G. Zakrzewski, J. Gao, N. Rega, 
 G. Zheng, W. Liang, M. Hada, M. Ehara, K. Toyota, R. Fukuda, 
 J. Hasegawa, M. Ishida, T. Nakajima, Y. Honda, O. Kitao, H. Nakai, 
 T. Vreven, K. Throssell, J. A. Montgomery, Jr., J. E. Peralta, 
 F. Ogliaro, M. J. Bearpark, J. J. Heyd, E. N. Brothers, K. N. Kudin, 
 V. N. Staroverov, T. A. Keith, R. Kobayashi, J. Normand, 
 K. Raghavachari, A. P. Rendell, J. C. Burant, S. S. Iyengar, 
 J. Tomasi, M. Cossi, J. M. Millam, M. Klene, C. Adamo, R. Cammi, 
 J. W. Ochterski, R. L. Martin, K. Morokuma, O. Farkas, 
 J. B. Foresman, and D. J. Fox, Gaussian, Inc., Wallingford CT, 2016.
 
 ******************************************
 Gaussian 16:  EM64L-G16RevB.01 20-Dec-2017
                13-Jun-2025 
 ******************************************
 %chk=nf3H_ion.chk
 ----------------------------------------------
 # opt freq hf/3-21g pop=full geom=connectivity
 ----------------------------------------------
 1/18=20,19=15,38=1,57=2/1,3;
 2/9=110,12=2,17=6,18=5,40=1/2;
 3/5=5,11=9,25=1,30=1,71=1/1,2,3;
 4//1;
 5/5=2,38=5/2;
 6/7=3,28=1/1;
 7//1,2,3,16;
 1/18=20,19=15/3(2);
 2/9=110/2;
 99//99;
 2/9=110/2;
 3/5=5,11=9,25=1,30=1,71=1/1,2,3;
 4/5=5,16=3,69=1/1;
 5/5=2,38=5/2;
 7//1,2,3,16;
 1/18=20,19=15/3(-5);
 2/9=110/2;
 6/7=3,19=2,28=1/1;
 99/9=1/99;
 -------------------
 Title Card Required
 -------------------
 Symbolic Z-matrix:
 Charge =  1 Multiplicity = 1
 N                     0.20219   1.4918    0. 
 H                    -0.79781   1.49182   0. 
 F                     0.62884   0.285     0. 
 F                     0.62886   2.0952   -1.04512 
 F                     0.62886   2.0952    1.04512 
 

 GradGradGradGradGradGradGradGradGradGradGradGradGradGradGradGradGradGrad
 Berny optimization.
 Initialization pass.
                           ----------------------------
                           !    Initial Parameters    !
                           ! (Angstroms and Degrees)  !
 --------------------------                            --------------------------
 ! Name  Definition              Value          Derivative Info.                !
 --------------------------------------------------------------------------------
 ! R1    R(1,2)                  1.0            estimate D2E/DX2                !
 ! R2    R(1,3)                  1.28           estimate D2E/DX2                !
 ! R3    R(1,4)                  1.28           estimate D2E/DX2                !
 ! R4    R(1,5)                  1.28           estimate D2E/DX2                !
 ! A1    A(2,1,3)              109.4712         estimate D2E/DX2                !
 ! A2    A(2,1,4)              109.4712         estimate D2E/DX2                !
 ! A3    A(2,1,5)              109.4712         estimate D2E/DX2                !
 ! A4    A(3,1,4)              109.4712         estimate D2E/DX2                !
 ! A5    A(3,1,5)              109.4712         estimate D2E/DX2                !
 ! A6    A(4,1,5)              109.4712         estimate D2E/DX2                !
 ! D1    D(2,1,4,3)           -120.0            estimate D2E/DX2                !
 ! D2    D(2,1,5,3)            120.0            estimate D2E/DX2                !
 ! D3    D(2,1,5,4)           -120.0            estimate D2E/DX2                !
 ! D4    D(3,1,5,4)            120.0            estimate D2E/DX2                !
 --------------------------------------------------------------------------------
 Trust Radius=3.00D-01 FncErr=1.00D-07 GrdErr=1.00D-07 EigMax=2.50D+02 EigMin=1.00D-04
 Number of steps in this run=     24 maximum allowed number of steps=    100.
 GradGradGradGradGradGradGradGradGradGradGradGradGradGradGradGradGradGrad

                          Input orientation:                          
 ---------------------------------------------------------------------
 Center     Atomic      Atomic             Coordinates (Angstroms)
 Number     Number       Type             X           Y           Z
 ---------------------------------------------------------------------
      1          7           0        0.202186    1.491803    0.000000
      2          1           0       -0.797814    1.491816    0.000000
      3          9           0        0.628837    0.285002    0.000000
      4          9           0        0.628860    2.095196   -1.045116
      5          9           0        0.628860    2.095196    1.045116
 ---------------------------------------------------------------------
                    Distance matrix (angstroms):
                    1          2          3          4          5
     1  N    0.000000
     2  H    1.000000   0.000000
     3  F    1.280000   1.868618   0.000000
     4  F    1.280000   1.868618   2.090231   0.000000
     5  F    1.280000   1.868618   2.090231   2.090231   0.000000
 Stoichiometry    F3HN(1+)
 Framework group  C3V[C3(NH),3SGV(F)]
 Deg. of freedom     3
 Full point group                 C3V     NOp   6
 Largest Abelian subgroup         CS      NOp   2
 Largest concise Abelian subgroup CS      NOp   2
                         Standard orientation:                         
 ---------------------------------------------------------------------
 Center     Atomic      Atomic             Coordinates (Angstroms)
 Number     Number       Type             X           Y           Z
 ---------------------------------------------------------------------
      1          7           0        0.000000   -0.000000    0.300571
      2          1           0        0.000000   -0.000000    1.300571
      3          9           0        0.000000    1.206796   -0.126095
      4          9           0        1.045116   -0.603398   -0.126095
      5          9           0       -1.045116   -0.603398   -0.126095
 ---------------------------------------------------------------------
 Rotational constants (GHZ):          11.1464089          11.1464089           6.0885156
 Standard basis: 3-21G (6D, 7F)
 There are    25 symmetry adapted cartesian basis functions of A'  symmetry.
 There are    13 symmetry adapted cartesian basis functions of A"  symmetry.
 There are    25 symmetry adapted basis functions of A'  symmetry.
 There are    13 symmetry adapted basis functions of A"  symmetry.
    38 basis functions,    63 primitive gaussians,    38 cartesian basis functions
    17 alpha electrons       17 beta electrons
       nuclear repulsion energy       151.0062789626 Hartrees.
 NAtoms=    5 NActive=    5 NUniq=    3 SFac= 2.78D+00 NAtFMM=   60 NAOKFM=F Big=F
 Integral buffers will be    131072 words long.
 Raffenetti 1 integral format.
 Two-electron integral symmetry is turned on.
 One-electron integrals computed using PRISM.
 NBasis=    38 RedAO= T EigKep=  2.95D-02  NBF=    25    13
 NBsUse=    38 1.00D-06 EigRej= -1.00D+00 NBFU=    25    13
 ExpMin= 1.83D-01 ExpMax= 4.14D+02 ExpMxC= 4.14D+02 IAcc=3 IRadAn=         5 AccDes= 0.00D+00
 Harris functional with IExCor=  205 and IRadAn=       5 diagonalized for initial guess.
 HarFok:  IExCor=  205 AccDes= 0.00D+00 IRadAn=         5 IDoV= 1 UseB2=F ITyADJ=14
 ICtDFT=  3500011 ScaDFX=  1.000000  1.000000  1.000000  1.000000
 FoFCou: FMM=F IPFlag=           0 FMFlag=      100000 FMFlg1=           0
         NFxFlg=           0 DoJE=T BraDBF=F KetDBF=T FulRan=T
         wScrn=  0.000000 ICntrl=       500 IOpCl=  0 I1Cent=   200000004 NGrid=           0
         NMat0=    1 NMatS0=      1 NMatT0=    0 NMatD0=    1 NMtDS0=    0 NMtDT0=    0
 Petite list used in FoFCou.
 Initial guess orbital symmetries:
       Occupied  (A1) (E) (E) (A1) (A1) (E) (E) (A1) (A1) (E) (E)
                 (E) (E) (E) (E) (A2) (A1)
       Virtual   (A1) (E) (E) (A1) (A1) (E) (E) (A1) (E) (E) (A1)
                 (E) (E) (A2) (E) (E) (A1) (A1) (E) (E) (A1)
 The electronic state of the initial guess is 1-A1.
 Keep R1 ints in memory in symmetry-blocked form, NReq=1084346.
 Requested convergence on RMS density matrix=1.00D-08 within 128 cycles.
 Requested convergence on MAX density matrix=1.00D-06.
 Requested convergence on             energy=1.00D-06.
 No special actions if energy rises.
 SCF Done:  E(RHF) =  -350.809515791     A.U. after   11 cycles
            NFock= 11  Conv=0.55D-08     -V/T= 2.0018

 **********************************************************************

            Population analysis using the SCF Density.

 **********************************************************************

 Orbital symmetries:
       Occupied  (A1) (E) (E) (A1) (A1) (E) (E) (A1) (A1) (E) (E)
                 (E) (E) (E) (E) (A2) (A1)
       Virtual   (A1) (E) (E) (A1) (A1) (E) (E) (A1) (E) (E) (A1)
                 (E) (E) (A2) (A1) (E) (E) (A1) (E) (E) (A1)
 The electronic state is 1-A1.
 Alpha  occ. eigenvalues --  -26.61105 -26.61023 -26.61023 -16.22765  -2.21413
 Alpha  occ. eigenvalues --   -2.02954  -2.02954  -1.50341  -1.29166  -1.21731
 Alpha  occ. eigenvalues --   -1.21731  -1.05870  -1.05870  -1.00402  -1.00402
 Alpha  occ. eigenvalues --   -1.00196  -0.97145
 Alpha virt. eigenvalues --   -0.06713  -0.01510  -0.01510   0.00967   0.83188
 Alpha virt. eigenvalues --    0.84888   0.84888   1.02820   1.74937   1.74937
 Alpha virt. eigenvalues --    1.94485   2.01032   2.01032   2.02563   2.07591
 Alpha virt. eigenvalues --    2.15624   2.15624   2.16981   3.47741   3.47741
 Alpha virt. eigenvalues --    4.22579
     Molecular Orbital Coefficients:
                           1         2         3         4         5
                        (A1)--O   (E)--O    (E)--O    (A1)--O   (A1)--O
     Eigenvalues --   -26.61105 -26.61023 -26.61023 -16.22765  -2.21413
   1 1   N  1S         -0.00173   0.00000   0.00000   0.98595  -0.13538
   2        2S         -0.00752   0.00000   0.00000   0.09944   0.16030
   3        2PX         0.00000   0.00100   0.00000   0.00000   0.00000
   4        2PY         0.00000   0.00000   0.00100  -0.00000   0.00000
   5        2PZ        -0.00003   0.00000  -0.00000  -0.00031  -0.05619
   6        3S          0.03401   0.00000  -0.00000  -0.05364   0.24266
   7        3PX         0.00000   0.01207   0.00000   0.00000   0.00000
   8        3PY         0.00000   0.00000   0.01207   0.00000  -0.00000
   9        3PZ        -0.01142   0.00000   0.00000  -0.00037   0.01765
  10 2   H  1S         -0.00296   0.00000   0.00000   0.00182   0.03281
  11        2S          0.00186   0.00000  -0.00000   0.01135  -0.03394
  12 3   F  1S          0.56724   0.00000   0.80182  -0.00027  -0.11381
  13        2S          0.05762   0.00000   0.07865  -0.00137   0.11113
  14        2PX         0.00000   0.00029   0.00000   0.00000   0.00000
  15        2PY        -0.00242   0.00000  -0.00280  -0.00052  -0.06000
  16        2PZ         0.00053   0.00000   0.00117   0.00037   0.01797
  17        3S         -0.02713   0.00000  -0.02862   0.00912   0.33061
  18        3PX         0.00000  -0.00211   0.00000   0.00000   0.00000
  19        3PY         0.00969   0.00000   0.00643  -0.00356  -0.07002
  20        3PZ        -0.00136   0.00000  -0.00318   0.00056   0.01920
  21 4   F  1S          0.56724   0.69440  -0.40091  -0.00027  -0.11381
  22        2S          0.05762   0.06811  -0.03933  -0.00137   0.11113
  23        2PX        -0.00209  -0.00203   0.00134  -0.00045  -0.05196
  24        2PY         0.00121   0.00134  -0.00048   0.00026   0.03000
  25        2PZ         0.00053   0.00101  -0.00058   0.00037   0.01797
  26        3S         -0.02713  -0.02479   0.01431   0.00912   0.33061
  27        3PX         0.00839   0.00430  -0.00370  -0.00308  -0.06064
  28        3PY        -0.00485  -0.00370   0.00002   0.00178   0.03501
  29        3PZ        -0.00136  -0.00276   0.00159   0.00056   0.01920
  30 5   F  1S          0.56724  -0.69440  -0.40091  -0.00027  -0.11381
  31        2S          0.05762  -0.06811  -0.03933  -0.00137   0.11113
  32        2PX         0.00209  -0.00203  -0.00134   0.00045   0.05196
  33        2PY         0.00121  -0.00134  -0.00048   0.00026   0.03000
  34        2PZ         0.00053  -0.00101  -0.00058   0.00037   0.01797
  35        3S         -0.02713   0.02479   0.01431   0.00912   0.33061
  36        3PX        -0.00839   0.00430   0.00370   0.00308   0.06064
  37        3PY        -0.00485   0.00370   0.00002   0.00178   0.03501
  38        3PZ        -0.00136   0.00276   0.00159   0.00056   0.01920
                           6         7         8         9        10
                        (E)--O    (E)--O    (A1)--O   (A1)--O   (E)--O
     Eigenvalues --    -2.02954  -2.02954  -1.50341  -1.29166  -1.21731
   1 1   N  1S          0.00000   0.00000  -0.17345   0.04347   0.00000
   2        2S         -0.00000   0.00000   0.18201  -0.05253  -0.00000
   3        2PX         0.00000   0.15779   0.00000   0.00000   0.00000
   4        2PY         0.15779   0.00000  -0.00000   0.00000  -0.31986
   5        2PZ         0.00000   0.00000   0.17439   0.34716   0.00000
   6        3S          0.00000   0.00000   0.60905  -0.12426  -0.00000
   7        3PX         0.00000   0.01824   0.00000   0.00000   0.00000
   8        3PY         0.01824   0.00000  -0.00000   0.00000  -0.25765
   9        3PZ        -0.00000   0.00000   0.14471   0.30016   0.00000
  10 2   H  1S         -0.00000   0.00000   0.16452   0.11800  -0.00000
  11        2S         -0.00000   0.00000  -0.03435   0.03650  -0.00000
  12 3   F  1S         -0.19864   0.00000   0.08561  -0.04785  -0.07308
  13        2S          0.19532   0.00000  -0.08174   0.04556   0.07298
  14        2PX         0.00000   0.01440   0.00000   0.00000   0.00000
  15        2PY        -0.05738   0.00000  -0.07844   0.17358   0.21684
  16        2PZ         0.02593   0.00000   0.06904   0.10845  -0.12821
  17        3S          0.62485   0.00000  -0.34380   0.20943   0.32494
  18        3PX         0.00000   0.01784   0.00000   0.00000   0.00000
  19        3PY        -0.09058   0.00000  -0.03932   0.14510   0.19839
  20        3PZ         0.03946   0.00000   0.04712   0.09634  -0.11039
  21 4   F  1S          0.09932  -0.17202   0.08561  -0.04785   0.03654
  22        2S         -0.09766   0.16915  -0.08174   0.04556  -0.03649
  23        2PX         0.03108  -0.03944  -0.06793   0.15033  -0.19212
  24        2PY        -0.00355   0.03108   0.03922  -0.08679  -0.11592
  25        2PZ        -0.01296   0.02246   0.06904   0.10845   0.06411
  26        3S         -0.31242   0.54113  -0.34380   0.20943  -0.16247
  27        3PX         0.04695  -0.06348  -0.03406   0.12566  -0.17843
  28        3PY        -0.00927   0.04695   0.01966  -0.07255  -0.11066
  29        3PZ        -0.01973   0.03417   0.04712   0.09634   0.05520
  30 5   F  1S          0.09932   0.17202   0.08561  -0.04785   0.03654
  31        2S         -0.09766  -0.16915  -0.08174   0.04556  -0.03649
  32        2PX        -0.03108  -0.03944   0.06793  -0.15033   0.19212
  33        2PY        -0.00355  -0.03108   0.03922  -0.08679  -0.11592
  34        2PZ        -0.01296  -0.02246   0.06904   0.10845   0.06411
  35        3S         -0.31242  -0.54113  -0.34380   0.20943  -0.16247
  36        3PX        -0.04695  -0.06348   0.03406  -0.12566   0.17843
  37        3PY        -0.00927  -0.04695   0.01966  -0.07255  -0.11066
  38        3PZ        -0.01973  -0.03417   0.04712   0.09634   0.05520
                          11        12        13        14        15
                        (E)--O    (E)--O    (E)--O    (E)--O    (E)--O
     Eigenvalues --    -1.21731  -1.05870  -1.05870  -1.00402  -1.00402
   1 1   N  1S          0.00000   0.00000  -0.00000   0.00000   0.00000
   2        2S          0.00000   0.00000  -0.00000   0.00000   0.00000
   3        2PX         0.31986   0.07620   0.00000  -0.15794   0.00000
   4        2PY         0.00000   0.00000   0.07620   0.00000  -0.15794
   5        2PZ         0.00000   0.00000   0.00000   0.00000   0.00000
   6        3S          0.00000   0.00000   0.00000   0.00000  -0.00000
   7        3PX         0.25765   0.03254   0.00000   0.02165   0.00000
   8        3PY         0.00000   0.00000   0.03254   0.00000   0.02165
   9        3PZ         0.00000   0.00000   0.00000   0.00000   0.00000
  10 2   H  1S          0.00000   0.00000   0.00000   0.00000   0.00000
  11        2S          0.00000   0.00000   0.00000   0.00000   0.00000
  12 3   F  1S          0.00000   0.00000   0.01193   0.00000  -0.01657
  13        2S          0.00000   0.00000  -0.01429   0.00000   0.02704
  14        2PX         0.22683  -0.23463   0.00000   0.29874   0.00000
  15        2PY         0.00000   0.00000   0.03900   0.00000   0.29338
  16        2PZ         0.00000   0.00000   0.38312   0.00000   0.17941
  17        3S          0.00000   0.00000  -0.04696   0.00000   0.03455
  18        3PX         0.21367  -0.26213   0.00000   0.30880   0.00000
  19        3PY         0.00000   0.00000   0.03938   0.00000   0.34030
  20        3PZ         0.00000   0.00000   0.40779   0.00000   0.16967
  21 4   F  1S          0.06329   0.01033  -0.00596  -0.01435   0.00829
  22        2S         -0.06320  -0.01238   0.00715   0.02342  -0.01352
  23        2PX        -0.10592  -0.02940  -0.11849   0.29472   0.00232
  24        2PY         0.19212  -0.11849  -0.16622   0.00232   0.29740
  25        2PZ         0.11103   0.33179  -0.19156   0.15538  -0.08971
  26        3S         -0.28140  -0.04067   0.02348   0.02992  -0.01728
  27        3PX        -0.09538  -0.03600  -0.13056   0.33242  -0.01364
  28        3PY         0.17843  -0.13056  -0.18675  -0.01364   0.31667
  29        3PZ         0.09560   0.35316  -0.20390   0.14694  -0.08483
  30 5   F  1S         -0.06329  -0.01033  -0.00596   0.01435   0.00829
  31        2S          0.06320   0.01238   0.00715  -0.02342  -0.01352
  32        2PX        -0.10592  -0.02940   0.11849   0.29472  -0.00232
  33        2PY        -0.19212   0.11849  -0.16622  -0.00232   0.29740
  34        2PZ        -0.11103  -0.33179  -0.19156  -0.15538  -0.08971
  35        3S          0.28140   0.04067   0.02348  -0.02992  -0.01728
  36        3PX        -0.09538  -0.03600   0.13056   0.33242   0.01364
  37        3PY        -0.17843   0.13056  -0.18675   0.01364   0.31667
  38        3PZ        -0.09560  -0.35316  -0.20390  -0.14694  -0.08483
                          16        17        18        19        20
                        (A2)--O   (A1)--O   (A1)--V   (E)--V    (E)--V
     Eigenvalues --    -1.00196  -0.97145  -0.06713  -0.01510  -0.01510
   1 1   N  1S          0.00000   0.01496   0.10687   0.00000   0.00000
   2        2S          0.00000  -0.00001  -0.08746   0.00000  -0.00000
   3        2PX        -0.00000   0.00000   0.00000   0.50846   0.00000
   4        2PY         0.00000   0.00000   0.00000   0.00000   0.50846
   5        2PZ         0.00000  -0.26130  -0.25015   0.00000   0.00000
   6        3S          0.00000  -0.13462  -1.07115   0.00000  -0.00000
   7        3PX         0.00000   0.00000   0.00000   1.01044   0.00000
   8        3PY         0.00000   0.00000   0.00000   0.00000   1.01044
   9        3PZ         0.00000  -0.10781  -0.62806   0.00000   0.00000
  10 2   H  1S          0.00000  -0.21550   0.14765   0.00000  -0.00000
  11        2S          0.00000  -0.09983   1.54322   0.00000  -0.00000
  12 3   F  1S          0.00000   0.00528   0.00042   0.00000   0.06693
  13        2S          0.00000  -0.01174   0.00048   0.00000  -0.03602
  14        2PX         0.33710   0.00000   0.00000  -0.13324   0.00000
  15        2PY         0.00000  -0.01057  -0.04135   0.00000   0.25932
  16        2PZ         0.00000   0.29199   0.03818   0.00000  -0.15460
  17        3S          0.00000   0.00042  -0.01155   0.00000  -0.59179
  18        3PX         0.34709   0.00000   0.00000  -0.22455   0.00000
  19        3PY         0.00000  -0.03026  -0.04898   0.00000   0.51857
  20        3PZ         0.00000   0.32382   0.06782   0.00000  -0.26539
  21 4   F  1S         -0.00000   0.00528   0.00042   0.05796  -0.03347
  22        2S          0.00000  -0.01174   0.00048  -0.03119   0.01801
  23        2PX        -0.16855  -0.00915  -0.03581   0.16118  -0.16998
  24        2PY        -0.29193   0.00528   0.02067  -0.16998  -0.03510
  25        2PZ         0.00000   0.29199   0.03818  -0.13388   0.07730
  26        3S          0.00000   0.00042  -0.01155  -0.51250   0.29589
  27        3PX        -0.17355  -0.02620  -0.04242   0.33279  -0.32178
  28        3PY        -0.30059   0.01513   0.02449  -0.32178  -0.03877
  29        3PZ         0.00000   0.32382   0.06782  -0.22983   0.13269
  30 5   F  1S          0.00000   0.00528   0.00042  -0.05796  -0.03347
  31        2S         -0.00000  -0.01174   0.00048   0.03119   0.01801
  32        2PX        -0.16855   0.00915   0.03581   0.16118   0.16998
  33        2PY         0.29193   0.00528   0.02067   0.16998  -0.03510
  34        2PZ        -0.00000   0.29199   0.03818   0.13388   0.07730
  35        3S         -0.00000   0.00042  -0.01155   0.51250   0.29589
  36        3PX        -0.17355   0.02620   0.04242   0.33279   0.32178
  37        3PY         0.30059   0.01513   0.02449   0.32178  -0.03877
  38        3PZ        -0.00000   0.32382   0.06782   0.22983   0.13269
                          21        22        23        24        25
                        (A1)--V   (A1)--V   (E)--V    (E)--V    (A1)--V
     Eigenvalues --     0.00967   0.83188   0.84888   0.84888   1.02820
   1 1   N  1S         -0.16482   0.05658   0.00000  -0.00000   0.00304
   2        2S          0.18456  -0.13299   0.00000   0.00000   0.18508
   3        2PX         0.00000   0.00000  -0.96963   0.00000   0.00000
   4        2PY         0.00000  -0.00000   0.00000  -0.96963   0.00000
   5        2PZ        -0.36516  -0.32170   0.00000  -0.00000  -0.94844
   6        3S          1.05532   0.06923   0.00000  -0.00000  -0.28209
   7        3PX         0.00000   0.00000   1.66019   0.00000   0.00000
   8        3PY         0.00000   0.00000   0.00000   1.66019  -0.00000
   9        3PZ        -0.60216  -0.08315   0.00000   0.00000   1.76948
  10 2   H  1S          0.02640   1.28920   0.00000  -0.00000  -0.26187
  11        2S          0.13808  -0.95809   0.00000  -0.00000  -0.61230
  12 3   F  1S          0.05540  -0.01604   0.00000   0.02878  -0.02491
  13        2S         -0.04131   0.04830   0.00000   0.02130   0.02037
  14        2PX         0.00000   0.00000  -0.13272   0.00000   0.00000
  15        2PY         0.27465  -0.01246   0.00000  -0.16733  -0.00708
  16        2PZ        -0.01736   0.13108   0.00000  -0.01553  -0.19127
  17        3S         -0.41608   0.04084   0.00000  -0.68428   0.35363
  18        3PX         0.00000   0.00000  -0.19181   0.00000   0.00000
  19        3PY         0.47631  -0.01443   0.00000   0.30985  -0.24528
  20        3PZ        -0.04387   0.01247   0.00000  -0.16326  -0.04416
  21 4   F  1S          0.05540  -0.01604   0.02492  -0.01439  -0.02491
  22        2S         -0.04131   0.04830   0.01844  -0.01065   0.02037
  23        2PX         0.23785  -0.01079  -0.15868   0.01499  -0.00613
  24        2PY        -0.13732   0.00623   0.01499  -0.14137   0.00354
  25        2PZ        -0.01736   0.13108  -0.01345   0.00777  -0.19127
  26        3S         -0.41608   0.04084  -0.59260   0.34214   0.35363
  27        3PX         0.41250  -0.01250   0.18443  -0.21722  -0.21241
  28        3PY        -0.23816   0.00722  -0.21722  -0.06639   0.12264
  29        3PZ        -0.04387   0.01247  -0.14139   0.08163  -0.04416
  30 5   F  1S          0.05540  -0.01604  -0.02492  -0.01439  -0.02491
  31        2S         -0.04131   0.04830  -0.01844  -0.01065   0.02037
  32        2PX        -0.23785   0.01079  -0.15868  -0.01499   0.00613
  33        2PY        -0.13732   0.00623  -0.01499  -0.14137   0.00354
  34        2PZ        -0.01736   0.13108   0.01345   0.00777  -0.19127
  35        3S         -0.41608   0.04084   0.59260   0.34214   0.35363
  36        3PX        -0.41250   0.01250   0.18443   0.21722   0.21241
  37        3PY        -0.23816   0.00722   0.21722  -0.06639   0.12264
  38        3PZ        -0.04387   0.01247   0.14139   0.08163  -0.04416
                          26        27        28        29        30
                        (E)--V    (E)--V    (A1)--V   (E)--V    (E)--V
     Eigenvalues --     1.74937   1.74937   1.94485   2.01032   2.01032
   1 1   N  1S         -0.00000   0.00000  -0.03648   0.00000   0.00000
   2        2S         -0.00000   0.00000  -1.08299   0.00000   0.00000
   3        2PX         0.00000   0.02329   0.00000   0.00000  -0.02317
   4        2PY         0.02329   0.00000  -0.00000  -0.02317   0.00000
   5        2PZ        -0.00000   0.00000  -0.15301   0.00000   0.00000
   6        3S          0.00000   0.00000   2.46281  -0.00000   0.00000
   7        3PX         0.00000  -0.31290   0.00000   0.00000  -0.66333
   8        3PY        -0.31290   0.00000  -0.00000  -0.66333   0.00000
   9        3PZ        -0.00000   0.00000  -0.14675   0.00000   0.00000
  10 2   H  1S         -0.00000   0.00000  -0.14350   0.00000   0.00000
  11        2S         -0.00000   0.00000  -0.46809   0.00000   0.00000
  12 3   F  1S         -0.00950   0.00000   0.06110  -0.03502   0.00000
  13        2S          0.01536   0.00000  -0.22144   0.13540   0.00000
  14        2PX         0.00000  -0.59785   0.00000   0.00000  -0.44937
  15        2PY         0.24834   0.00000  -0.40979   0.19208   0.00000
  16        2PZ         0.49631   0.00000  -0.03742  -0.64539   0.00000
  17        3S          0.12417   0.00000  -0.31516   0.20258   0.00000
  18        3PX         0.00000   0.61490   0.00000   0.00000   0.56914
  19        3PY        -0.30638   0.00000   0.76680  -0.35577   0.00000
  20        3PZ        -0.43497   0.00000  -0.04701   0.77320   0.00000
  21 4   F  1S          0.00475  -0.00823   0.06110   0.01751  -0.03033
  22        2S         -0.00768   0.01331  -0.22144  -0.06770   0.11726
  23        2PX        -0.36641   0.03679  -0.35489  -0.27775   0.03171
  24        2PY        -0.38630  -0.36641   0.20489  -0.28901  -0.27775
  25        2PZ        -0.24816   0.42982  -0.03742   0.32270  -0.55893
  26        3S         -0.06209   0.10754  -0.31516  -0.10129   0.17544
  27        3PX         0.39892  -0.07606   0.66407   0.40050  -0.12454
  28        3PY         0.38458   0.39892  -0.38340   0.33791   0.40050
  29        3PZ         0.21749  -0.37670  -0.04701  -0.38660   0.66961
  30 5   F  1S          0.00475   0.00823   0.06110   0.01751   0.03033
  31        2S         -0.00768  -0.01331  -0.22144  -0.06770  -0.11726
  32        2PX         0.36641   0.03679   0.35489   0.27775   0.03171
  33        2PY        -0.38630   0.36641   0.20489  -0.28901   0.27775
  34        2PZ        -0.24816  -0.42982  -0.03742   0.32270   0.55893
  35        3S         -0.06209  -0.10754  -0.31516  -0.10129  -0.17544
  36        3PX        -0.39892  -0.07606  -0.66407  -0.40050  -0.12454
  37        3PY         0.38458  -0.39892  -0.38340   0.33791  -0.40050
  38        3PZ         0.21749   0.37670  -0.04701  -0.38660  -0.66961
                          31        32        33        34        35
                        (A2)--V   (A1)--V   (E)--V    (E)--V    (A1)--V
     Eigenvalues --     2.02563   2.07591   2.15624   2.15624   2.16981
   1 1   N  1S          0.00000   0.02092   0.00000  -0.00000  -0.02787
   2        2S          0.00000  -1.29307   0.00000  -0.00000   0.39708
   3        2PX        -0.00000   0.00000   0.34332   0.00000   0.00000
   4        2PY         0.00000  -0.00000   0.00000   0.34332  -0.00000
   5        2PZ         0.00000  -0.15542   0.00000  -0.00000  -0.27065
   6        3S          0.00000   1.48587   0.00000   0.00000  -0.06241
   7        3PX         0.00000   0.00000  -0.32222   0.00000   0.00000
   8        3PY         0.00000   0.00000   0.00000  -0.32222   0.00000
   9        3PZ         0.00000   0.84833   0.00000   0.00000   0.93980
  10 2   H  1S          0.00000  -0.37791   0.00000  -0.00000  -0.47815
  11        2S          0.00000  -0.56422   0.00000  -0.00000   0.01851
  12 3   F  1S          0.00000   0.01497   0.00000   0.02277  -0.00311
  13        2S          0.00000  -0.07310   0.00000  -0.17324  -0.00458
  14        2PX        -0.58039   0.00000  -0.31176   0.00000   0.00000
  15        2PY         0.00000   0.37474   0.00000  -0.74656  -0.13512
  16        2PZ         0.00000   0.13821   0.00000  -0.00726   0.52554
  17        3S          0.00000  -0.04572   0.00000   0.21113   0.13070
  18        3PX         0.62130   0.00000   0.39772   0.00000   0.00000
  19        3PY         0.00000  -0.34726   0.00000   0.79601   0.04443
  20        3PZ         0.00000  -0.27263   0.00000   0.03951  -0.68832
  21 4   F  1S          0.00000   0.01497   0.01972  -0.01139  -0.00311
  22        2S         -0.00000  -0.07310  -0.15003   0.08662  -0.00458
  23        2PX         0.29020   0.32453  -0.63786   0.18827  -0.11702
  24        2PY         0.50264  -0.18737   0.18827  -0.42046   0.06756
  25        2PZ         0.00000   0.13821  -0.00629   0.00363   0.52554
  26        3S         -0.00000  -0.04572   0.18284  -0.10556   0.13070
  27        3PX        -0.31065  -0.30073   0.69644  -0.17247   0.03848
  28        3PY        -0.53806   0.17363  -0.17247   0.49729  -0.02222
  29        3PZ        -0.00000  -0.27263   0.03422  -0.01975  -0.68832
  30 5   F  1S         -0.00000   0.01497  -0.01972  -0.01139  -0.00311
  31        2S          0.00000  -0.07310   0.15003   0.08662  -0.00458
  32        2PX         0.29020  -0.32453  -0.63786  -0.18827   0.11702
  33        2PY        -0.50264  -0.18737  -0.18827  -0.42046   0.06756
  34        2PZ        -0.00000   0.13821   0.00629   0.00363   0.52554
  35        3S          0.00000  -0.04572  -0.18284  -0.10556   0.13070
  36        3PX        -0.31065   0.30073   0.69644   0.17247  -0.03848
  37        3PY         0.53806   0.17363   0.17247   0.49729  -0.02222
  38        3PZ         0.00000  -0.27263  -0.03422  -0.01975  -0.68832
                          36        37        38
                        (E)--V    (E)--V    (A1)--V
     Eigenvalues --     3.47741   3.47741   4.22579
   1 1   N  1S         -0.00000   0.00000  -0.12802
   2        2S          0.00000   0.00000  -0.88912
   3        2PX         0.00000  -0.11791   0.00000
   4        2PY        -0.11791   0.00000   0.00000
   5        2PZ        -0.00000   0.00000  -0.01913
   6        3S          0.00000   0.00000   2.91595
   7        3PX         0.00000  -0.79709   0.00000
   8        3PY        -0.79709   0.00000   0.00000
   9        3PZ        -0.00000   0.00000  -0.73333
  10 2   H  1S         -0.00000   0.00000  -0.30023
  11        2S          0.00000   0.00000  -0.01623
  12 3   F  1S          0.08262   0.00000  -0.02508
  13        2S         -1.27546   0.00000   0.96566
  14        2PX         0.00000  -0.03968   0.00000
  15        2PY         0.20328   0.00000  -0.15488
  16        2PZ        -0.10393   0.00000   0.00958
  17        3S          1.52430   0.00000  -1.59643
  18        3PX         0.00000   0.16712   0.00000
  19        3PY        -0.50747   0.00000   0.76751
  20        3PZ         0.26472   0.00000  -0.10434
  21 4   F  1S         -0.04131   0.07155  -0.02508
  22        2S          0.63773  -1.10458   0.96566
  23        2PX        -0.10521   0.14254  -0.13413
  24        2PY         0.02106  -0.10521   0.07744
  25        2PZ         0.05197  -0.09001   0.00958
  26        3S         -0.76215   1.32008  -1.59643
  27        3PX         0.29211  -0.33882   0.66468
  28        3PY        -0.00153   0.29211  -0.38375
  29        3PZ        -0.13236   0.22926  -0.10434
  30 5   F  1S         -0.04131  -0.07155  -0.02508
  31        2S          0.63773   1.10458   0.96566
  32        2PX         0.10521   0.14254   0.13413
  33        2PY         0.02106   0.10521   0.07744
  34        2PZ         0.05197   0.09001   0.00958
  35        3S         -0.76215  -1.32008  -1.59643
  36        3PX        -0.29211  -0.33882  -0.66468
  37        3PY        -0.00153  -0.29211  -0.38375
  38        3PZ        -0.13236  -0.22926  -0.10434
     Density Matrix:
                           1         2         3         4         5
   1 1   N  1S          2.04523
   2        2S          0.08501   0.14306
   3        2PX        -0.00000   0.00000   0.31592
   4        2PY         0.00000  -0.00000   0.00000   0.31592
   5        2PZ        -0.02353   0.00894   0.00000  -0.00000   0.44473
   6        3S         -0.39770   0.30138   0.00000  -0.00000   0.16925
   7        3PX        -0.00000   0.00000   0.16872   0.00000   0.00000
   8        3PY         0.00000  -0.00000   0.00000   0.16872  -0.00000
   9        3PZ        -0.03281   0.02690   0.00000  -0.00000   0.31324
  10 2   H  1S         -0.05855   0.05842   0.00000  -0.00000   0.24824
  11        2S          0.04367  -0.02499   0.00000  -0.00000   0.06934
  12 3   F  1S         -0.00538  -0.00888  -0.00000  -0.00728   0.00664
  13        2S         -0.00103  -0.00005   0.00000   0.00439  -0.00323
  14        2PX         0.00000  -0.00000   0.01953  -0.00000   0.00000
  15        2PY         0.05722  -0.06609  -0.00000  -0.24356   0.10543
  16        2PZ        -0.00993   0.01956   0.00000   0.09192  -0.05523
  17        3S          0.06604  -0.03894  -0.00000  -0.02881  -0.01187
  18        3PX         0.00000  -0.00000   0.00482  -0.00000   0.00000
  19        3PY         0.03725  -0.05286  -0.00000  -0.25698   0.11071
  20        3PZ        -0.00237   0.01331   0.00000   0.09162  -0.08806
  21 4   F  1S         -0.00538  -0.00888  -0.00630   0.00364   0.00664
  22        2S         -0.00103  -0.00005   0.00380  -0.00220  -0.00323
  23        2PX         0.04955  -0.05724  -0.17779   0.11392   0.09131
  24        2PY        -0.02861   0.03305   0.11392  -0.04624  -0.05272
  25        2PZ        -0.00993   0.01956   0.07960  -0.04596  -0.05523
  26        3S          0.06604  -0.03894  -0.02495   0.01440  -0.01187
  27        3PX         0.03226  -0.04578  -0.19153   0.11336   0.09588
  28        3PY        -0.01863   0.02643   0.11336  -0.06063  -0.05536
  29        3PZ        -0.00237   0.01331   0.07934  -0.04581  -0.08806
  30 5   F  1S         -0.00538  -0.00888   0.00630   0.00364   0.00664
  31        2S         -0.00103  -0.00005  -0.00380  -0.00220  -0.00323
  32        2PX        -0.04955   0.05724  -0.17779  -0.11392  -0.09131
  33        2PY        -0.02861   0.03305  -0.11392  -0.04624  -0.05272
  34        2PZ        -0.00993   0.01956  -0.07960  -0.04596  -0.05523
  35        3S          0.06604  -0.03894   0.02495   0.01440  -0.01187
  36        3PX        -0.03226   0.04578  -0.19153  -0.11336  -0.09588
  37        3PY        -0.01863   0.02643  -0.11336  -0.06063  -0.05536
  38        3PZ        -0.00237   0.01331  -0.07934  -0.04581  -0.08806
                           6         7         8         9        10
   6        3S          0.93485
   7        3PX         0.00000   0.13678
   8        3PY        -0.00000   0.00000   0.13678
   9        3PZ         0.13853   0.00000  -0.00000   0.24621
  10 2   H  1S          0.24462   0.00000  -0.00000   0.16614   0.17703
  11        2S         -0.04161   0.00000  -0.00000   0.03225   0.03814
  12 3   F  1S          0.09813   0.00000   0.04982  -0.02206   0.00377
  13        2S         -0.04973  -0.00000  -0.02834   0.00884  -0.00414
  14        2PX        -0.00000   0.11509  -0.00000   0.00000   0.00000
  15        2PY        -0.16507  -0.00000  -0.09865   0.08172   0.01579
  16        2PZ        -0.01274   0.00000   0.09975   0.02275  -0.07636
  17        3S         -0.31331  -0.00000  -0.14690   0.03842  -0.04199
  18        3PX        -0.00000   0.10702  -0.00000   0.00000   0.00000
  19        3PY        -0.10876  -0.00000  -0.08808   0.07956   0.02968
  20        3PZ        -0.04456   0.00000   0.09214   0.00236  -0.10005
  21 4   F  1S          0.09813   0.04315  -0.02491  -0.02206   0.00377
  22        2S         -0.04973  -0.02454   0.01417   0.00884  -0.00414
  23        2PX        -0.14295  -0.04522   0.09255   0.07077   0.01367
  24        2PY         0.08253   0.09255   0.06165  -0.04086  -0.00789
  25        2PZ        -0.01274   0.08638  -0.04987   0.02275  -0.07636
  26        3S         -0.31331  -0.12722   0.07345   0.03842  -0.04199
  27        3PX        -0.09419  -0.03931   0.08448   0.06890   0.02570
  28        3PY         0.05438   0.08448   0.05824  -0.03978  -0.01484
  29        3PZ        -0.04456   0.07979  -0.04607   0.00236  -0.10005
  30 5   F  1S          0.09813  -0.04315  -0.02491  -0.02206   0.00377
  31        2S         -0.04973   0.02454   0.01417   0.00884  -0.00414
  32        2PX         0.14295  -0.04522  -0.09255  -0.07077  -0.01367
  33        2PY         0.08253  -0.09255   0.06165  -0.04086  -0.00789
  34        2PZ        -0.01274  -0.08638  -0.04987   0.02275  -0.07636
  35        3S         -0.31331   0.12722   0.07345   0.03842  -0.04199
  36        3PX         0.09419  -0.03931  -0.08448  -0.06890  -0.02570
  37        3PY         0.05438  -0.08448   0.05824  -0.03978  -0.01484
  38        3PZ        -0.04456  -0.07979  -0.04607   0.00236  -0.10005
                          11        12        13        14        15
  11        2S          0.02752
  12 3   F  1S         -0.00061   2.06498
  13        2S          0.00393   0.05823   0.15033
  14        2PX         0.00000  -0.00000   0.00000   0.61918
  15        2PY         0.02422  -0.04142   0.03882  -0.00000   0.35583
  16        2PZ        -0.05633   0.01454  -0.01386   0.00000   0.09506
  17        3S          0.01649  -0.52883   0.43584   0.00000   0.17306
  18        3PX         0.00000   0.00000   0.00000   0.63897  -0.00000
  19        3PY         0.02404   0.01296   0.01779  -0.00000   0.36469
  20        3PZ        -0.06215  -0.00419  -0.00610   0.00000   0.09589
  21 4   F  1S         -0.00061   0.00060   0.00328   0.01074  -0.00815
  22        2S          0.00393   0.00328  -0.00146  -0.00396   0.00351
  23        2PX         0.02098  -0.00169   0.00106   0.02707  -0.02549
  24        2PY        -0.01211   0.01337  -0.00518  -0.05178   0.07168
  25        2PZ        -0.05633  -0.00571   0.00061  -0.01184  -0.01980
  26        3S          0.01649  -0.01300   0.00050  -0.07513   0.04409
  27        3PX         0.02082   0.00402  -0.00016   0.05341  -0.04418
  28        3PY        -0.01202   0.00194  -0.00026  -0.06724   0.09155
  29        3PZ        -0.06215  -0.00338  -0.00058  -0.03358  -0.02258
  30 5   F  1S         -0.00061   0.00060   0.00328  -0.01074  -0.00815
  31        2S          0.00393   0.00328  -0.00146   0.00396   0.00351
  32        2PX        -0.02098   0.00169  -0.00106   0.02707   0.02549
  33        2PY        -0.01211   0.01337  -0.00518   0.05178   0.07168
  34        2PZ        -0.05633  -0.00571   0.00061   0.01184  -0.01980
  35        3S          0.01649  -0.01300   0.00050   0.07513   0.04409
  36        3PX        -0.02082  -0.00402   0.00016   0.05341   0.04418
  37        3PY        -0.01202   0.00194  -0.00026   0.06724   0.09155
  38        3PZ        -0.06215  -0.00338  -0.00058   0.03358  -0.02258
                          16        17        18        19        20
  16        2PZ         0.59637
  17        3S         -0.06451   1.54482
  18        3PX         0.00000   0.00000   0.66105
  19        3PY         0.10259   0.07608  -0.00000   0.38697
  20        3PZ         0.62088  -0.02781   0.00000   0.09854   0.65113
  21 4   F  1S         -0.00571  -0.01300   0.00369   0.00251  -0.00338
  22        2S          0.00061   0.00050  -0.00031  -0.00001  -0.00058
  23        2PX        -0.02307   0.00062   0.03377  -0.03283  -0.03634
  24        2PY        -0.00035  -0.08711  -0.05590   0.11119  -0.01779
  25        2PZ         0.00814   0.04734  -0.02974  -0.04250   0.01534
  26        3S          0.04734   0.04412  -0.06105   0.02331   0.04541
  27        3PX        -0.05168  -0.01034   0.06066  -0.04951  -0.06631
  28        3PY        -0.00450  -0.06452  -0.07070   0.13006  -0.02213
  29        3PZ         0.01534   0.04541  -0.05232  -0.04636   0.02462
  30 5   F  1S         -0.00571  -0.01300  -0.00369   0.00251  -0.00338
  31        2S          0.00061   0.00050   0.00031  -0.00001  -0.00058
  32        2PX         0.02307  -0.00062   0.03377   0.03283   0.03634
  33        2PY        -0.00035  -0.08711   0.05590   0.11119  -0.01779
  34        2PZ         0.00814   0.04734   0.02974  -0.04250   0.01534
  35        3S          0.04734   0.04412   0.06105   0.02331   0.04541
  36        3PX         0.05168   0.01034   0.06066   0.04951   0.06631
  37        3PY        -0.00450  -0.06452   0.07070   0.13006  -0.02213
  38        3PZ         0.01534   0.04541   0.05232  -0.04636   0.02462
                          21        22        23        24        25
  21 4   F  1S          2.06498
  22        2S          0.05823   0.15033
  23        2PX        -0.03587   0.03362   0.42167
  24        2PY         0.02071  -0.01941   0.11404   0.55334
  25        2PZ         0.01454  -0.01386   0.08233  -0.04753   0.59637
  26        3S         -0.52883   0.43584   0.14987  -0.08653  -0.06451
  27        3PX         0.01123   0.01540   0.43326   0.11877   0.08885
  28        3PY        -0.00648  -0.00889   0.11877   0.57040  -0.05130
  29        3PZ        -0.00419  -0.00610   0.08304  -0.04795   0.62088
  30 5   F  1S          0.00060   0.00328  -0.01243  -0.00522  -0.00571
  31        2S          0.00328  -0.00146   0.00502   0.00168   0.00061
  32        2PX         0.01243  -0.00502   0.09398   0.01315   0.01123
  33        2PY        -0.00522   0.00168  -0.01315   0.00476   0.02016
  34        2PZ        -0.00571   0.00061  -0.01123   0.02016   0.00814
  35        3S         -0.01300   0.00050   0.07575   0.04302   0.04734
  36        3PX        -0.00033  -0.00015   0.13026   0.02287   0.02194
  37        3PY        -0.00445   0.00027  -0.00019   0.01470   0.04701
  38        3PZ        -0.00338  -0.00058  -0.00277   0.04037   0.01534
                          26        27        28        29        30
  26        3S          1.54482
  27        3PX         0.06589   0.45549
  28        3PY        -0.03804   0.11868   0.59253
  29        3PZ        -0.02781   0.08534  -0.04927   0.65113
  30 5   F  1S         -0.01300   0.00033  -0.00445  -0.00338   2.06498
  31        2S          0.00050   0.00015   0.00027  -0.00058   0.05823
  32        2PX        -0.07575   0.13026   0.00019   0.00277   0.03587
  33        2PY         0.04302  -0.02287   0.01470   0.04037   0.02071
  34        2PZ         0.04734  -0.02194   0.04701   0.01534   0.01454
  35        3S          0.04412   0.05071   0.04121   0.04541  -0.52883
  36        3PX        -0.05071   0.16477   0.01059   0.01399  -0.01123
  37        3PY         0.04121  -0.01059   0.02596   0.06849  -0.00648
  38        3PZ         0.04541  -0.01399   0.06849   0.02462  -0.00419
                          31        32        33        34        35
  31        2S          0.15033
  32        2PX        -0.03362   0.42167
  33        2PY        -0.01941  -0.11404   0.55334
  34        2PZ        -0.01386  -0.08233  -0.04753   0.59637
  35        3S          0.43584  -0.14987  -0.08653  -0.06451   1.54482
  36        3PX        -0.01540   0.43326  -0.11877  -0.08885  -0.06589
  37        3PY        -0.00889  -0.11877   0.57040  -0.05130  -0.03804
  38        3PZ        -0.00610  -0.08304  -0.04795   0.62088  -0.02781
                          36        37        38
  36        3PX         0.45549
  37        3PY        -0.11868   0.59253
  38        3PZ        -0.08534  -0.04927   0.65113
    Full Mulliken population analysis:
                           1         2         3         4         5
   1 1   N  1S          2.04523
   2        2S          0.01657   0.14306
   3        2PX         0.00000   0.00000   0.31592
   4        2PY         0.00000   0.00000   0.00000   0.31592
   5        2PZ         0.00000   0.00000   0.00000   0.00000   0.44473
   6        3S         -0.07327   0.22670   0.00000   0.00000   0.00000
   7        3PX         0.00000   0.00000   0.08706   0.00000   0.00000
   8        3PY         0.00000   0.00000   0.00000   0.08706   0.00000
   9        3PZ         0.00000   0.00000   0.00000   0.00000   0.16163
  10 2   H  1S         -0.00135   0.01072   0.00000   0.00000   0.06277
  11        2S          0.00311  -0.00878   0.00000   0.00000   0.01132
  12 3   F  1S         -0.00000  -0.00001  -0.00000  -0.00002  -0.00001
  13        2S         -0.00000  -0.00000   0.00000   0.00017   0.00004
  14        2PX        -0.00000   0.00000   0.00017   0.00000   0.00000
  15        2PY        -0.00001   0.00200   0.00000   0.01448   0.00254
  16        2PZ        -0.00000   0.00021   0.00000   0.00222  -0.00001
  17        3S          0.00121  -0.00521  -0.00000  -0.00445   0.00065
  18        3PX        -0.00000   0.00000   0.00047   0.00000   0.00000
  19        3PY        -0.00205   0.01532   0.00000   0.06464   0.01367
  20        3PZ        -0.00005   0.00136   0.00000   0.01131  -0.00475
  21 4   F  1S         -0.00000  -0.00001  -0.00001  -0.00000  -0.00001
  22        2S         -0.00000  -0.00000   0.00013   0.00004   0.00004
  23        2PX        -0.00001   0.00150   0.00754   0.00337   0.00191
  24        2PY        -0.00000   0.00050   0.00337   0.00038   0.00064
  25        2PZ        -0.00000   0.00021   0.00166   0.00055  -0.00001
  26        3S          0.00121  -0.00521  -0.00334  -0.00111   0.00065
  27        3PX        -0.00154   0.01149   0.03146   0.01714   0.01025
  28        3PY        -0.00051   0.00383   0.01714  -0.00062   0.00342
  29        3PZ        -0.00005   0.00136   0.00848   0.00283  -0.00475
  30 5   F  1S         -0.00000  -0.00001  -0.00001  -0.00000  -0.00001
  31        2S         -0.00000  -0.00000   0.00013   0.00004   0.00004
  32        2PX        -0.00001   0.00150   0.00754   0.00337   0.00191
  33        2PY        -0.00000   0.00050   0.00337   0.00038   0.00064
  34        2PZ        -0.00000   0.00021   0.00166   0.00055  -0.00001
  35        3S          0.00121  -0.00521  -0.00334  -0.00111   0.00065
  36        3PX        -0.00154   0.01149   0.03146   0.01714   0.01025
  37        3PY        -0.00051   0.00383   0.01714  -0.00062   0.00342
  38        3PZ        -0.00005   0.00136   0.00848   0.00283  -0.00475
                           6         7         8         9        10
   6        3S          0.93485
   7        3PX         0.00000   0.13678
   8        3PY         0.00000   0.00000   0.13678
   9        3PZ         0.00000   0.00000   0.00000   0.24621
  10 2   H  1S          0.08913   0.00000   0.00000   0.09180   0.17703
  11        2S         -0.02700   0.00000   0.00000   0.01653   0.02463
  12 3   F  1S          0.00242   0.00000   0.00293   0.00046   0.00000
  13        2S         -0.00662  -0.00000  -0.00797  -0.00088  -0.00000
  14        2PX         0.00000   0.00809   0.00000   0.00000  -0.00000
  15        2PY         0.01408   0.00000   0.01113   0.00529  -0.00001
  16        2PZ        -0.00038   0.00000   0.00646   0.00108  -0.00007
  17        3S         -0.10465  -0.00000  -0.07504  -0.00694  -0.00082
  18        3PX         0.00000   0.03451   0.00000   0.00000  -0.00000
  19        3PY         0.04257   0.00000   0.02432   0.01684  -0.00117
  20        3PZ        -0.00617   0.00000   0.01950   0.00058  -0.00465
  21 4   F  1S          0.00242   0.00220   0.00073   0.00046   0.00000
  22        2S         -0.00662  -0.00597  -0.00199  -0.00088  -0.00000
  23        2PX         0.01056   0.00303   0.00734   0.00397  -0.00001
  24        2PY         0.00352   0.00734   0.00151   0.00132  -0.00000
  25        2PZ        -0.00038   0.00484   0.00161   0.00108  -0.00007
  26        3S         -0.10465  -0.05628  -0.01876  -0.00694  -0.00082
  27        3PX         0.03193   0.00497   0.02190   0.01263  -0.00087
  28        3PY         0.01064   0.02190   0.01007   0.00421  -0.00029
  29        3PZ        -0.00617   0.01462   0.00487   0.00058  -0.00465
  30 5   F  1S          0.00242   0.00220   0.00073   0.00046   0.00000
  31        2S         -0.00662  -0.00597  -0.00199  -0.00088  -0.00000
  32        2PX         0.01056   0.00303   0.00734   0.00397  -0.00001
  33        2PY         0.00352   0.00734   0.00151   0.00132  -0.00000
  34        2PZ        -0.00038   0.00484   0.00161   0.00108  -0.00007
  35        3S         -0.10465  -0.05628  -0.01876  -0.00694  -0.00082
  36        3PX         0.03193   0.00497   0.02190   0.01263  -0.00087
  37        3PY         0.01064   0.02190   0.01007   0.00421  -0.00029
  38        3PZ        -0.00617   0.01462   0.00487   0.00058  -0.00465
                          11        12        13        14        15
  11        2S          0.02752
  12 3   F  1S         -0.00001   2.06498
  13        2S          0.00021   0.01250   0.15033
  14        2PX        -0.00000   0.00000   0.00000   0.61918
  15        2PY        -0.00056   0.00000   0.00000   0.00000   0.35583
  16        2PZ        -0.00155   0.00000   0.00000   0.00000  -0.00000
  17        3S          0.00266  -0.09708   0.31912   0.00000   0.00000
  18        3PX        -0.00000   0.00000   0.00000   0.31205   0.00000
  19        3PY        -0.00338   0.00000   0.00000   0.00000   0.17810
  20        3PZ        -0.01033   0.00000   0.00000   0.00000  -0.00000
  21 4   F  1S         -0.00001   0.00000   0.00000   0.00000   0.00000
  22        2S          0.00021   0.00000  -0.00000  -0.00000  -0.00000
  23        2PX        -0.00042   0.00000  -0.00000  -0.00000  -0.00000
  24        2PY        -0.00014   0.00000  -0.00000  -0.00000  -0.00000
  25        2PZ        -0.00155   0.00000  -0.00000   0.00000  -0.00000
  26        3S          0.00266  -0.00000   0.00000  -0.00011  -0.00011
  27        3PX        -0.00254  -0.00000   0.00000  -0.00011  -0.00024
  28        3PY        -0.00085   0.00000  -0.00000  -0.00037  -0.00078
  29        3PZ        -0.01033   0.00000  -0.00000  -0.00000   0.00000
  30 5   F  1S         -0.00001   0.00000   0.00000   0.00000   0.00000
  31        2S          0.00021   0.00000  -0.00000  -0.00000  -0.00000
  32        2PX        -0.00042   0.00000  -0.00000  -0.00000  -0.00000
  33        2PY        -0.00014   0.00000  -0.00000  -0.00000  -0.00000
  34        2PZ        -0.00155   0.00000  -0.00000   0.00000  -0.00000
  35        3S          0.00266  -0.00000   0.00000  -0.00011  -0.00011
  36        3PX        -0.00254  -0.00000   0.00000  -0.00011  -0.00024
  37        3PY        -0.00085   0.00000  -0.00000  -0.00037  -0.00078
  38        3PZ        -0.01033   0.00000  -0.00000  -0.00000   0.00000
                          16        17        18        19        20
  16        2PZ         0.59637
  17        3S          0.00000   1.54482
  18        3PX         0.00000   0.00000   0.66105
  19        3PY        -0.00000   0.00000  -0.00000   0.38697
  20        3PZ         0.30322   0.00000   0.00000  -0.00000   0.65113
  21 4   F  1S          0.00000  -0.00000   0.00000  -0.00000   0.00000
  22        2S          0.00000   0.00000  -0.00000   0.00000  -0.00000
  23        2PX         0.00000  -0.00000  -0.00007  -0.00018   0.00000
  24        2PY        -0.00000  -0.00022  -0.00031  -0.00095  -0.00000
  25        2PZ         0.00000  -0.00000   0.00000  -0.00000   0.00002
  26        3S         -0.00000   0.00102  -0.00194  -0.00129   0.00000
  27        3PX        -0.00000   0.00033  -0.00124  -0.00375   0.00000
  28        3PY         0.00000  -0.00356  -0.00535  -0.01402  -0.00000
  29        3PZ         0.00002  -0.00000   0.00000  -0.00000   0.00057
  30 5   F  1S          0.00000  -0.00000   0.00000  -0.00000   0.00000
  31        2S          0.00000   0.00000  -0.00000   0.00000  -0.00000
  32        2PX         0.00000  -0.00000  -0.00007  -0.00018   0.00000
  33        2PY        -0.00000  -0.00022  -0.00031  -0.00095  -0.00000
  34        2PZ         0.00000  -0.00000   0.00000  -0.00000   0.00002
  35        3S         -0.00000   0.00102  -0.00194  -0.00129   0.00000
  36        3PX        -0.00000   0.00033  -0.00124  -0.00375   0.00000
  37        3PY         0.00000  -0.00356  -0.00535  -0.01402  -0.00000
  38        3PZ         0.00002  -0.00000   0.00000  -0.00000   0.00057
                          21        22        23        24        25
  21 4   F  1S          2.06498
  22        2S          0.01250   0.15033
  23        2PX         0.00000   0.00000   0.42167
  24        2PY         0.00000   0.00000  -0.00000   0.55334
  25        2PZ         0.00000   0.00000   0.00000   0.00000   0.59637
  26        3S         -0.09708   0.31912   0.00000   0.00000   0.00000
  27        3PX         0.00000   0.00000   0.21159  -0.00000   0.00000
  28        3PY         0.00000   0.00000  -0.00000   0.27856   0.00000
  29        3PZ         0.00000   0.00000   0.00000   0.00000   0.30322
  30 5   F  1S          0.00000   0.00000   0.00000   0.00000   0.00000
  31        2S          0.00000  -0.00000  -0.00000  -0.00000  -0.00000
  32        2PX         0.00000  -0.00000  -0.00000  -0.00000  -0.00000
  33        2PY         0.00000   0.00000   0.00000   0.00000  -0.00000
  34        2PZ         0.00000   0.00000   0.00000  -0.00000   0.00000
  35        3S         -0.00000   0.00000  -0.00022  -0.00000  -0.00000
  36        3PX        -0.00000  -0.00000  -0.00153  -0.00000  -0.00000
  37        3PY         0.00000   0.00000   0.00000   0.00002  -0.00000
  38        3PZ         0.00000  -0.00000   0.00000  -0.00000   0.00002
                          26        27        28        29        30
  26        3S          1.54482
  27        3PX         0.00000   0.45549
  28        3PY         0.00000  -0.00000   0.59253
  29        3PZ         0.00000   0.00000   0.00000   0.65113
  30 5   F  1S         -0.00000  -0.00000   0.00000   0.00000   2.06498
  31        2S          0.00000  -0.00000   0.00000  -0.00000   0.01250
  32        2PX        -0.00022  -0.00153   0.00000   0.00000   0.00000
  33        2PY        -0.00000  -0.00000   0.00002  -0.00000   0.00000
  34        2PZ        -0.00000  -0.00000  -0.00000   0.00002   0.00000
  35        3S          0.00102  -0.00323  -0.00000  -0.00000  -0.09708
  36        3PX        -0.00323  -0.02496  -0.00000  -0.00000   0.00000
  37        3PY         0.00000   0.00000   0.00060  -0.00000   0.00000
  38        3PZ         0.00000   0.00000  -0.00000   0.00057   0.00000
                          31        32        33        34        35
  31        2S          0.15033
  32        2PX         0.00000   0.42167
  33        2PY         0.00000  -0.00000   0.55334
  34        2PZ         0.00000  -0.00000   0.00000   0.59637
  35        3S          0.31912   0.00000   0.00000   0.00000   1.54482
  36        3PX         0.00000   0.21159  -0.00000  -0.00000   0.00000
  37        3PY         0.00000  -0.00000   0.27856   0.00000   0.00000
  38        3PZ         0.00000  -0.00000   0.00000   0.30322   0.00000
                          36        37        38
  36        3PX         0.45549
  37        3PY        -0.00000   0.59253
  38        3PZ        -0.00000   0.00000   0.65113
     Gross orbital populations:
                           1
   1 1   N  1S          1.98761
   2        2S          0.42930
   3        2PX         0.53647
   4        2PY         0.53647
   5        2PZ         0.71685
   6        3S          0.97418
   7        3PX         0.25975
   8        3PY         0.25975
   9        3PZ         0.56546
  10 2   H  1S          0.43458
  11        2S          0.00846
  12 3   F  1S          1.98617
  13        2S          0.46691
  14        2PX         0.93831
  15        2PY         0.58061
  16        2PZ         0.90757
  17        3S          1.56942
  18        3PX         0.99025
  19        3PY         0.69547
  20        3PZ         0.96234
  21 4   F  1S          1.98617
  22        2S          0.46691
  23        2PX         0.67003
  24        2PY         0.84888
  25        2PZ         0.90757
  26        3S          1.56942
  27        3PX         0.76916
  28        3PY         0.91656
  29        3PZ         0.96234
  30 5   F  1S          1.98617
  31        2S          0.46691
  32        2PX         0.67003
  33        2PY         0.84888
  34        2PZ         0.90757
  35        3S          1.56942
  36        3PX         0.76916
  37        3PY         0.91656
  38        3PZ         0.96234
          Condensed to atoms (all electrons):
               1          2          3          4          5
     1  N    5.730995   0.248243   0.095529   0.095529   0.095529
     2  H    0.248243   0.253825  -0.019676  -0.019676  -0.019676
     3  F    0.095529  -0.019676   9.086484  -0.032646  -0.032646
     4  F    0.095529  -0.019676  -0.032646   9.086484  -0.032646
     5  F    0.095529  -0.019676  -0.032646  -0.032646   9.086484
 Mulliken charges:
               1
     1  N    0.734175
     2  H    0.556961
     3  F   -0.097045
     4  F   -0.097045
     5  F   -0.097045
 Sum of Mulliken charges =   1.00000
 Mulliken charges with hydrogens summed into heavy atoms:
               1
     1  N    1.291136
     3  F   -0.097045
     4  F   -0.097045
     5  F   -0.097045
 Electronic spatial extent (au):  <R**2>=            187.9363
 Charge=              1.0000 electrons
 Dipole moment (field-independent basis, Debye):
    X=              0.0000    Y=              0.0000    Z=              3.2381  Tot=              3.2381
 Quadrupole moment (field-independent basis, Debye-Ang):
   XX=            -18.2208   YY=            -18.2208   ZZ=            -14.2453
   XY=              0.0000   XZ=             -0.0000   YZ=              0.0000
 Traceless Quadrupole moment (field-independent basis, Debye-Ang):
   XX=             -1.3251   YY=             -1.3251   ZZ=              2.6503
   XY=              0.0000   XZ=             -0.0000   YZ=              0.0000
 Octapole moment (field-independent basis, Debye-Ang**2):
  XXX=              0.0000  YYY=             -0.0775  ZZZ=              4.5916  XYY=              0.0000
  XXY=              0.0775  XXZ=             -0.1565  XZZ=              0.0000  YZZ=              0.0000
  YYZ=             -0.1565  XYZ=              0.0000
 Hexadecapole moment (field-independent basis, Debye-Ang**3):
 XXXX=            -65.2609 YYYY=            -65.2609 ZZZZ=             -9.1413 XXXY=              0.0000
 XXXZ=             -0.0000 YYYX=              0.0000 YYYZ=             -0.3705 ZZZX=             -0.0000
 ZZZY=              0.0000 XXYY=            -21.7536 XXZZ=            -13.5675 YYZZ=            -13.5675
 XXYZ=              0.3705 YYXZ=             -0.0000 ZZXY=              0.0000
 N-N= 1.510062789626D+02 E-N=-1.126476839905D+03  KE= 3.501670380418D+02
 Symmetry A'   KE= 2.422922566013D+02
 Symmetry A"   KE= 1.078747814405D+02
 Orbital energies and kinetic energies (alpha):
                                 1                 2
   1         (A1)--O         -26.611047         36.908732
   2         (E)--O          -26.610228         36.904058
   3         (E)--O          -26.610228         36.904058
   4         (A1)--O         -16.227648         21.926308
   5         (A1)--O          -2.214131          3.073424
   6         (E)--O           -2.029542          3.830387
   7         (E)--O           -2.029542          3.830387
   8         (A1)--O          -1.503406          3.118986
   9         (A1)--O          -1.291662          2.548114
  10         (E)--O           -1.217308          2.916500
  11         (E)--O           -1.217308          2.916500
  12         (E)--O           -1.058697          3.279059
  13         (E)--O           -1.058697          3.279059
  14         (E)--O           -1.004020          3.450533
  15         (E)--O           -1.004020          3.450533
  16         (A2)--O          -1.001957          3.556854
  17         (A1)--O          -0.971453          3.190028
  18         (A1)--V          -0.067129          1.248992
  19         (E)--V           -0.015097          3.738155
  20         (E)--V           -0.015097          3.738155
  21         (A1)--V           0.009673          4.837000
  22         (A1)--V           0.831884          3.042825
  23         (E)--V            0.848879          3.753568
  24         (E)--V            0.848879          3.753568
  25         (A1)--V           1.028204          3.981610
  26         (E)--V            1.749372          6.357408
  27         (E)--V            1.749372          6.357408
  28         (A1)--V           1.944847          5.864477
  29         (E)--V            2.010316          6.462636
  30         (E)--V            2.010316          6.462636
  31         (A2)--V           2.025626          6.479411
  32         (A1)--V           2.075915          5.629148
  33         (E)--V            2.156243          6.677631
  34         (E)--V            2.156243          6.677631
  35         (A1)--V           2.169814          6.251788
  36         (E)--V            3.477414          8.658587
  37         (E)--V            3.477414          8.658587
  38         (A1)--V           4.225789          8.430387
 Total kinetic energy from orbitals= 3.501670380418D+02
 Calling FoFJK, ICntrl=      2127 FMM=F ISym2X=1 I1Cent= 0 IOpClX= 0 NMat=1 NMatS=1 NMatT=0.
 ***** Axes restored to original set *****
 -------------------------------------------------------------------
 Center     Atomic                   Forces (Hartrees/Bohr)
 Number     Number              X              Y              Z
 -------------------------------------------------------------------
      1        7          -0.080288583    0.000001000   -0.000000000
      2        1          -0.024457188    0.000000305   -0.000000000
      3        9           0.034914044   -0.097395917    0.000000000
      4        9           0.034915863    0.048697306   -0.084346962
      5        9           0.034915863    0.048697306    0.084346961
 -------------------------------------------------------------------
 Cartesian Forces:  Max     0.097395917 RMS     0.051094211

 GradGradGradGradGradGradGradGradGradGradGradGradGradGradGradGradGradGrad
 Berny optimization.
 FormGI is forming the generalized inverse of G from B-inverse, IUseBI=4.
 Internal  Forces:  Max     0.103463760 RMS     0.048338944
 Search for a local minimum.
 Step number   1 out of a maximum of   24
 All quantities printed in internal units (Hartrees-Bohrs-Radians)
 Mixed Optimization -- RFO/linear search
 Second derivative matrix not updated -- first step.
 The second derivative matrix:
                          R1        R2        R3        R4        A1
           R1           0.47688
           R2           0.00000   0.73068
           R3           0.00000   0.00000   0.73068
           R4           0.00000   0.00000   0.00000   0.73068
           A1           0.00000   0.00000   0.00000   0.00000   0.16000
           A2           0.00000   0.00000   0.00000   0.00000   0.00000
           A3           0.00000   0.00000   0.00000   0.00000   0.00000
           A4           0.00000   0.00000   0.00000   0.00000   0.00000
           A5           0.00000   0.00000   0.00000   0.00000   0.00000
           A6           0.00000   0.00000   0.00000   0.00000   0.00000
           D1           0.00000   0.00000   0.00000   0.00000   0.00000
           D2           0.00000   0.00000   0.00000   0.00000   0.00000
           D3           0.00000   0.00000   0.00000   0.00000   0.00000
           D4           0.00000   0.00000   0.00000   0.00000   0.00000
                          A2        A3        A4        A5        A6
           A2           0.16000
           A3           0.00000   0.16000
           A4           0.00000   0.00000   0.25000
           A5           0.00000   0.00000   0.00000   0.25000
           A6           0.00000   0.00000   0.00000   0.00000   0.25000
           D1           0.00000   0.00000   0.00000   0.00000   0.00000
           D2           0.00000   0.00000   0.00000   0.00000   0.00000
           D3           0.00000   0.00000   0.00000   0.00000   0.00000
           D4           0.00000   0.00000   0.00000   0.00000   0.00000
                          D1        D2        D3        D4
           D1           0.02618
           D2           0.00000   0.02618
           D3           0.00000   0.00000   0.02618
           D4           0.00000   0.00000   0.00000   0.02618
 ITU=  0
     Eigenvalues ---    0.07072   0.08781   0.11133   0.21344   0.23536
     Eigenvalues ---    0.47688   0.73068   0.73068   0.73068
 RFO step:  Lambda=-4.26816527D-02 EMin= 7.07150820D-02
 Linear search not attempted -- first point.
 Iteration  1 RMS(Cart)=  0.06214351 RMS(Int)=  0.00008490
 Iteration  2 RMS(Cart)=  0.00006605 RMS(Int)=  0.00000193
 Iteration  3 RMS(Cart)=  0.00000000 RMS(Int)=  0.00000193
 ClnCor:  largest displacement from symmetrization is 6.31D-04 for atom     5.
 Variable       Old X    -DE/DX   Delta X   Delta X   Delta X     New X
                                 (Linear)    (Quad)   (Total)
    R1        1.88973   0.02446   0.00000   0.04707   0.04707   1.93680
    R2        2.41885   0.10346   0.00000   0.13378   0.13376   2.55261
    R3        2.41885   0.10346   0.00000   0.13378   0.13376   2.55261
    R4        2.41885   0.10346   0.00000   0.13378   0.13376   2.55261
    A1        1.91063   0.00012   0.00000   0.00123   0.00142   1.91205
    A2        1.91063   0.00019   0.00000   0.00146   0.00142   1.91205
    A3        1.91063   0.00037   0.00000   0.00187   0.00142   1.91205
    A4        1.91063  -0.00005   0.00000  -0.00118  -0.00142   1.90921
    A5        1.91063  -0.00030   0.00000  -0.00167  -0.00142   1.90921
    A6        1.91063  -0.00033   0.00000  -0.00171  -0.00142   1.90921
    D1       -2.09440  -0.00023   0.00000  -0.00168  -0.00174  -2.09613
    D2        2.09440   0.00019   0.00000   0.00162   0.00174   2.09613
    D3       -2.09440  -0.00025   0.00000  -0.00189  -0.00174  -2.09613
    D4        2.09440  -0.00045   0.00000  -0.00351  -0.00347   2.09092
         Item               Value     Threshold  Converged?
 Maximum Force            0.103464     0.000450     NO 
 RMS     Force            0.048339     0.000300     NO 
 Maximum Displacement     0.124898     0.001800     NO 
 RMS     Displacement     0.062133     0.001200     NO 
 Predicted change in Energy=-2.253417D-02
 GradGradGradGradGradGradGradGradGradGradGradGradGradGradGradGradGradGrad

                          Input orientation:                          
 ---------------------------------------------------------------------
 Center     Atomic      Atomic             Coordinates (Angstroms)
 Number     Number       Type             X           Y           Z
 ---------------------------------------------------------------------
      1          7           0        0.191847    1.491803   -0.000000
      2          1           0       -0.833063    1.491816    0.000000
      3          9           0        0.643897    0.218909    0.000000
      4          9           0        0.643921    2.128242   -1.102354
      5          9           0        0.643921    2.128242    1.102354
 ---------------------------------------------------------------------
                    Distance matrix (angstroms):
                    1          2          3          4          5
     1  N    0.000000
     2  H    1.024910   0.000000
     3  F    1.350781   1.949796   0.000000
     4  F    1.350781   1.949796   2.204707   0.000000
     5  F    1.350781   1.949796   2.204707   2.204707   0.000000
 Stoichiometry    F3HN(1+)
 Framework group  C3V[C3(NH),3SGV(F)]
 Deg. of freedom     3
 Full point group                 C3V     NOp   6
 Largest Abelian subgroup         CS      NOp   2
 Largest concise Abelian subgroup CS      NOp   2
                         Standard orientation:                         
 ---------------------------------------------------------------------
 Center     Atomic      Atomic             Coordinates (Angstroms)
 Number     Number       Type             X           Y           Z
 ---------------------------------------------------------------------
      1          7           0        0.000000   -0.000000    0.319454
      2          1           0        0.000000   -0.000000    1.344363
      3          9           0        0.000000    1.272888   -0.132613
      4          9           0        1.102354   -0.636444   -0.132613
      5          9           0       -1.102354   -0.636444   -0.132613
 ---------------------------------------------------------------------
 Rotational constants (GHZ):          10.0304794          10.0304794           5.4726566
 Standard basis: 3-21G (6D, 7F)
 There are    25 symmetry adapted cartesian basis functions of A'  symmetry.
 There are    13 symmetry adapted cartesian basis functions of A"  symmetry.
 There are    25 symmetry adapted basis functions of A'  symmetry.
 There are    13 symmetry adapted basis functions of A"  symmetry.
    38 basis functions,    63 primitive gaussians,    38 cartesian basis functions
    17 alpha electrons       17 beta electrons
       nuclear repulsion energy       143.3092621001 Hartrees.
 NAtoms=    5 NActive=    5 NUniq=    3 SFac= 2.78D+00 NAtFMM=   60 NAOKFM=F Big=F
 Integral buffers will be    131072 words long.
 Raffenetti 1 integral format.
 Two-electron integral symmetry is turned on.
 One-electron integrals computed using PRISM.
 NBasis=    38 RedAO= T EigKep=  3.85D-02  NBF=    25    13
 NBsUse=    38 1.00D-06 EigRej= -1.00D+00 NBFU=    25    13
 Initial guess from the checkpoint file:  "nf3H_ion.chk"
 B after Tr=    -0.000000    0.000000   -0.000000
         Rot=    1.000000   -0.000000    0.000000    0.000000 Ang=   0.00 deg.
 Initial guess orbital symmetries:
       Occupied  (A1) (E) (E) (A1) (A1) (E) (E) (A1) (A1) (E) (E)
                 (E) (E) (E) (E) (A2) (A1)
       Virtual   (A1) (E) (E) (A1) (A1) (E) (E) (A1) (E) (E) (A1)
                 (E) (E) (A2) (A1) (E) (E) (A1) (E) (E) (A1)
 ExpMin= 1.83D-01 ExpMax= 4.14D+02 ExpMxC= 4.14D+02 IAcc=3 IRadAn=         5 AccDes= 0.00D+00
 Harris functional with IExCor=  205 and IRadAn=       5 diagonalized for initial guess.
 HarFok:  IExCor=  205 AccDes= 0.00D+00 IRadAn=         5 IDoV= 1 UseB2=F ITyADJ=14
 ICtDFT=  3500011 ScaDFX=  1.000000  1.000000  1.000000  1.000000
 FoFCou: FMM=F IPFlag=           0 FMFlag=      100000 FMFlg1=           0
         NFxFlg=           0 DoJE=T BraDBF=F KetDBF=T FulRan=T
         wScrn=  0.000000 ICntrl=       500 IOpCl=  0 I1Cent=   200000004 NGrid=           0
         NMat0=    1 NMatS0=      1 NMatT0=    0 NMatD0=    1 NMtDS0=    0 NMtDT0=    0
 Petite list used in FoFCou.
 Keep R1 ints in memory in symmetry-blocked form, NReq=1084346.
 Requested convergence on RMS density matrix=1.00D-08 within 128 cycles.
 Requested convergence on MAX density matrix=1.00D-06.
 Requested convergence on             energy=1.00D-06.
 No special actions if energy rises.
 SCF Done:  E(RHF) =  -350.833930331     A.U. after   12 cycles
            NFock= 12  Conv=0.22D-08     -V/T= 2.0041
 Calling FoFJK, ICntrl=      2127 FMM=F ISym2X=1 I1Cent= 0 IOpClX= 0 NMat=1 NMatS=1 NMatT=0.
 ***** Axes restored to original set *****
 -------------------------------------------------------------------
 Center     Atomic                   Forces (Hartrees/Bohr)
 Number     Number              X              Y              Z
 -------------------------------------------------------------------
      1        7          -0.025797340    0.000000321    0.000000000
      2        1          -0.002804498    0.000000035   -0.000000000
      3        9           0.009533717   -0.018434663    0.000000000
      4        9           0.009534061    0.009217154   -0.015964784
      5        9           0.009534061    0.009217154    0.015964784
 -------------------------------------------------------------------
 Cartesian Forces:  Max     0.025797340 RMS     0.011447136

 GradGradGradGradGradGradGradGradGradGradGradGradGradGradGradGradGradGrad
 Berny optimization.
 Using GEDIIS/GDIIS optimizer.
 FormGI is forming the generalized inverse of G from B-inverse, IUseBI=4.
 Internal  Forces:  Max     0.020562251 RMS     0.009667311
 Search for a local minimum.
 Step number   2 out of a maximum of   24
 All quantities printed in internal units (Hartrees-Bohrs-Radians)
 Mixed Optimization -- RFO/linear search
 Update second derivatives using D2CorX and points    1    2
 DE= -2.44D-02 DEPred=-2.25D-02 R= 1.08D+00
 TightC=F SS=  1.41D+00  RLast= 2.36D-01 DXNew= 5.0454D-01 7.0943D-01
 Trust test= 1.08D+00 RLast= 2.36D-01 DXMaxT set to 5.05D-01
 The second derivative matrix:
                          R1        R2        R3        R4        A1
           R1           0.47806
           R2          -0.00207   0.69414
           R3          -0.00207  -0.03654   0.69414
           R4          -0.00207  -0.03654  -0.03654   0.69414
           A1          -0.00055  -0.00218  -0.00218  -0.00218   0.16001
           A2          -0.00079  -0.00310  -0.00310  -0.00310   0.00002
           A3          -0.00143  -0.00554  -0.00554  -0.00554   0.00004
           A4           0.00037   0.00153   0.00153   0.00153  -0.00000
           A5           0.00125   0.00487   0.00487   0.00487  -0.00003
           A6           0.00138   0.00538   0.00538   0.00538  -0.00003
           D1           0.00085   0.00326   0.00326   0.00326  -0.00003
           D2          -0.00070  -0.00270  -0.00270  -0.00270   0.00002
           D3           0.00092   0.00352   0.00352   0.00352  -0.00003
           D4           0.00162   0.00621   0.00621   0.00621  -0.00005
                          A2        A3        A4        A5        A6
           A2           0.16003
           A3           0.00006   0.16012
           A4          -0.00001  -0.00001   0.25000
           A5          -0.00005  -0.00010   0.00001   0.25008
           A6          -0.00006  -0.00011   0.00001   0.00009   0.25010
           D1          -0.00004  -0.00008   0.00001   0.00006   0.00007
           D2           0.00003   0.00006  -0.00001  -0.00005  -0.00006
           D3          -0.00004  -0.00008   0.00001   0.00007   0.00008
           D4          -0.00008  -0.00015   0.00002   0.00012   0.00013
                          D1        D2        D3        D4
           D1           0.02622
           D2          -0.00004   0.02621
           D3           0.00005  -0.00004   0.02623
           D4           0.00009  -0.00008   0.00010   0.02635
 ITU=  1  0
 Use linear search instead of GDIIS.
     Eigenvalues ---    0.07068   0.08787   0.11123   0.21318   0.23526
     Eigenvalues ---    0.47801   0.62215   0.73068   0.73068
 RFO step:  Lambda=-5.52306539D-04 EMin= 7.06800887D-02
 Quartic linear search produced a step of  0.32653.
 Iteration  1 RMS(Cart)=  0.02342246 RMS(Int)=  0.00064157
 Iteration  2 RMS(Cart)=  0.00049444 RMS(Int)=  0.00030592
 Iteration  3 RMS(Cart)=  0.00000031 RMS(Int)=  0.00030592
 ClnCor:  largest displacement from symmetrization is 3.10D-03 for atom     5.
 Variable       Old X    -DE/DX   Delta X   Delta X   Delta X     New X
                                 (Linear)    (Quad)   (Total)
    R1        1.93680   0.00280   0.01537  -0.00351   0.01186   1.94866
    R2        2.55261   0.02056   0.04368   0.00170   0.04509   2.59770
    R3        2.55261   0.02056   0.04368   0.00170   0.04509   2.59770
    R4        2.55261   0.02056   0.04368   0.00170   0.04509   2.59770
    A1        1.91205   0.00079   0.00046   0.01728   0.01908   1.93114
    A2        1.91205   0.00124   0.00046   0.01883   0.01908   1.93114
    A3        1.91205   0.00243   0.00046   0.02093   0.01908   1.93114
    A4        1.90921  -0.00033  -0.00046  -0.01734  -0.01952   1.88969
    A5        1.90921  -0.00195  -0.00046  -0.01988  -0.01952   1.88969
    A6        1.90921  -0.00220  -0.00046  -0.02000  -0.01952   1.88969
    D1       -2.09613  -0.00154  -0.00057  -0.02205  -0.02292  -2.11905
    D2        2.09613   0.00126   0.00057   0.02179   0.02292   2.11905
    D3       -2.09613  -0.00166  -0.00057  -0.02361  -0.02292  -2.11905
    D4        2.09092  -0.00292  -0.00113  -0.04539  -0.04584   2.04508
         Item               Value     Threshold  Converged?
 Maximum Force            0.020562     0.000450     NO 
 RMS     Force            0.009667     0.000300     NO 
 Maximum Displacement     0.047272     0.001800     NO 
 RMS     Displacement     0.023142     0.001200     NO 
 Predicted change in Energy=-1.148984D-03
 GradGradGradGradGradGradGradGradGradGradGradGradGradGradGradGradGradGrad

                          Input orientation:                          
 ---------------------------------------------------------------------
 Center     Atomic      Atomic             Coordinates (Angstroms)
[...]
     1   7    -0.12   0.00  -0.00    -0.00  -0.12   0.00     0.00   0.00  -0.08
     2   1     0.99  -0.00   0.00     0.00   0.99   0.00    -0.00  -0.00   1.00
     3   9     0.01  -0.00  -0.00     0.00   0.02   0.02     0.00  -0.00   0.00
     4   9     0.02  -0.00   0.02    -0.00   0.01  -0.01    -0.00   0.00   0.00
     5   9     0.02   0.00  -0.02     0.00   0.01  -0.01     0.00   0.00   0.00

 -------------------
 - Thermochemistry -
 -------------------
 Temperature   298.150 Kelvin.  Pressure   1.00000 Atm.
 Atom     1 has atomic number  7 and mass  14.00307
 Atom     2 has atomic number  1 and mass   1.00783
 Atom     3 has atomic number  9 and mass  18.99840
 Atom     4 has atomic number  9 and mass  18.99840
 Atom     5 has atomic number  9 and mass  18.99840
 Molecular mass:    72.00611 amu.
 Principal axes and moments of inertia in atomic units:
                           1         2         3
     Eigenvalues --   185.22355 185.22355 337.88756
           X            0.96295   0.26970   0.00000
           Y           -0.26970   0.96295   0.00000
           Z            0.00000  -0.00000   1.00000
 This molecule is an oblate symmetric top.
 Rotational symmetry number  3.
 Rotational temperatures (Kelvin)      0.46762     0.46762     0.25634
 Rotational constants (GHZ):           9.74358     9.74358     5.34125
 Zero-point vibrational energy      67329.2 (Joules/Mol)
                                   16.09207 (Kcal/Mol)
 Warning -- explicit consideration of   3 degrees of freedom as
           vibrations may cause significant error
 Vibrational temperatures:    647.69   647.69   848.30  1456.16  1701.52
          (Kelvin)           1701.52  2152.23  2152.23  4888.34
 
 Zero-point correction=                           0.025644 (Hartree/Particle)
 Thermal correction to Energy=                    0.029251
 Thermal correction to Enthalpy=                  0.030195
 Thermal correction to Gibbs Free Energy=         0.000366
 Sum of electronic and zero-point Energies=           -350.809794
 Sum of electronic and thermal Energies=              -350.806188
 Sum of electronic and thermal Enthalpies=            -350.805243
 Sum of electronic and thermal Free Energies=         -350.835073
 
                     E (Thermal)             CV                S
                      KCal/Mol        Cal/Mol-Kelvin    Cal/Mol-Kelvin
 Total                   18.355             10.686             62.781
 Electronic               0.000              0.000              0.000
 Translational            0.889              2.981             38.739
 Rotational               0.889              2.981             21.782
 Vibrational             16.578              4.724              2.260
 Vibration     1          0.809              1.361              0.795
 Vibration     2          0.809              1.361              0.795
 Vibration     3          0.947              1.054              0.468
                       Q            Log10(Q)             Ln(Q)
 Total Bot       0.678610D+00         -0.168380         -0.387709
 Total V=0       0.423826D+12         11.627187         26.772588
 Vib (Bot)       0.219941D-11        -11.657694        -26.842833
 Vib (Bot)    1  0.380886D+00         -0.419205         -0.965256
 Vib (Bot)    2  0.380886D+00         -0.419205         -0.965256
 Vib (Bot)    3  0.255963D+00         -0.591824         -1.362724
 Vib (V=0)       0.137364D+01          0.137873          0.317464
 Vib (V=0)    1  0.112855D+01          0.052520          0.120933
 Vib (V=0)    2  0.112855D+01          0.052520          0.120933
 Vib (V=0)    3  0.106171D+01          0.026005          0.059880
 Electronic      0.100000D+01          0.000000          0.000000
 Translational   0.240164D+08          7.380508         16.994247
 Rotational      0.128471D+05          4.108807          9.460877
 ***** Axes restored to original set *****
 -------------------------------------------------------------------
 Center     Atomic                   Forces (Hartrees/Bohr)
 Number     Number              X              Y              Z
 -------------------------------------------------------------------
      1        7          -0.000433087    0.000000005    0.000000000
      2        1           0.000308604   -0.000000004    0.000000000
      3        9           0.000041496    0.000101342   -0.000000000
      4        9           0.000041494   -0.000050672    0.000087765
      5        9           0.000041494   -0.000050672   -0.000087765
 -------------------------------------------------------------------
 Cartesian Forces:  Max     0.000433087 RMS     0.000145780
 FormGI is forming the generalized inverse of G from B-inverse, IUseBI=4.

 GradGradGradGradGradGradGradGradGradGradGradGradGradGradGradGradGradGrad
 Berny optimization.
 Internal  Forces:  Max     0.000308604 RMS     0.000099391
 Search for a local minimum.
 Step number   1 out of a maximum of    2
 All quantities printed in internal units (Hartrees-Bohrs-Radians)
 Second derivative matrix not updated -- analytic derivatives used.
 The second derivative matrix:
                          R1        R2        R3        R4        A1
           R1           0.40791
           R2          -0.00096   0.41001
           R3          -0.00096   0.01742   0.41001
           R4          -0.00096   0.01742   0.01742   0.41001
           A1          -0.00063   0.00514  -0.00271  -0.00694   0.03030
           A2          -0.00098  -0.00096   0.00941  -0.01547  -0.01220
           A3          -0.00189  -0.01208  -0.01335   0.01184  -0.01524
           A4           0.00030   0.00910   0.00994  -0.01686  -0.01315
           A5           0.00156   0.01688  -0.01721   0.01151  -0.02583
           A6           0.00175  -0.01781   0.01413   0.01627   0.03602
           D1           0.00118  -0.01153  -0.00879   0.02880  -0.02144
           D2          -0.00095   0.00963  -0.02250   0.00606   0.01151
           D3           0.00126   0.01996  -0.01236   0.00141   0.00150
           D4           0.00220   0.01033   0.01015  -0.00465  -0.01001
                          A2        A3        A4        A5        A6
           A2           0.05881
           A3          -0.02702   0.11459
           A4           0.00086   0.03504   0.07104
           A5           0.03447  -0.06123  -0.04130   0.14433
           A6          -0.05556  -0.04849  -0.05323  -0.04871   0.17221
           D1          -0.02174   0.01313  -0.02952   0.03685   0.02371
           D2          -0.00974   0.01285  -0.02089   0.02228  -0.01648
           D3          -0.02045  -0.00644   0.01122   0.02624  -0.01123
           D4          -0.01071  -0.01929   0.03211   0.00396   0.00525
                          D1        D2        D3        D4
           D1           0.05858
           D2           0.00511   0.03626
           D3           0.00361   0.01457   0.03630
           D4          -0.00150  -0.02169   0.02174   0.04342
 ITU=  0
     Eigenvalues ---    0.06186   0.09679   0.11499   0.22693   0.24339
     Eigenvalues ---    0.40248   0.40328   0.40795   0.44609
 Angle between quadratic step and forces=  35.48 degrees.
 Linear search not attempted -- first point.
 Iteration  1 RMS(Cart)=  0.00026036 RMS(Int)=  0.00000010
 Iteration  2 RMS(Cart)=  0.00000006 RMS(Int)=  0.00000007
 ClnCor:  largest displacement from symmetrization is 3.77D-08 for atom     4.
 Variable       Old X    -DE/DX   Delta X   Delta X   Delta X     New X
                                 (Linear)    (Quad)   (Total)
    R1        1.94507  -0.00031   0.00000  -0.00075  -0.00075   1.94433
    R2        2.59729  -0.00008   0.00000  -0.00016  -0.00016   2.59714
    R3        2.59729  -0.00008   0.00000  -0.00016  -0.00016   2.59714
    R4        2.59729  -0.00008   0.00000  -0.00016  -0.00016   2.59714
    A1        1.92638   0.00002   0.00000   0.00031   0.00031   1.92668
    A2        1.92638   0.00003   0.00000   0.00031   0.00031   1.92668
    A3        1.92638   0.00007   0.00000   0.00031   0.00031   1.92668
    A4        1.89463  -0.00001   0.00000  -0.00032  -0.00032   1.89431
    A5        1.89463  -0.00005   0.00000  -0.00032  -0.00032   1.89431
    A6        1.89463  -0.00006   0.00000  -0.00032  -0.00032   1.89431
    D1       -2.11341  -0.00004   0.00000  -0.00037  -0.00037  -2.11378
    D2        2.11341   0.00003   0.00000   0.00037   0.00037   2.11378
    D3       -2.11341  -0.00004   0.00000  -0.00037  -0.00037  -2.11378
    D4        2.05637  -0.00008   0.00000  -0.00074  -0.00074   2.05563
         Item               Value     Threshold  Converged?
 Maximum Force            0.000309     0.000450     YES
 RMS     Force            0.000099     0.000300     YES
 Maximum Displacement     0.000569     0.001800     YES
 RMS     Displacement     0.000260     0.001200     YES
 Predicted change in Energy=-2.231978D-07
 Optimization completed.
    -- Stationary point found.
                           ----------------------------
                           !   Optimized Parameters   !
                           ! (Angstroms and Degrees)  !
 --------------------------                            --------------------------
 ! Name  Definition              Value          Derivative Info.                !
 --------------------------------------------------------------------------------
 ! R1    R(1,2)                  1.0293         -DE/DX =   -0.0003              !
 ! R2    R(1,3)                  1.3744         -DE/DX =   -0.0001              !
 ! R3    R(1,4)                  1.3744         -DE/DX =   -0.0001              !
 ! R4    R(1,5)                  1.3744         -DE/DX =   -0.0001              !
 ! A1    A(2,1,3)              110.3732         -DE/DX =    0.0                 !
 ! A2    A(2,1,4)              110.3732         -DE/DX =    0.0                 !
 ! A3    A(2,1,5)              110.3732         -DE/DX =    0.0001              !
 ! A4    A(3,1,4)              108.5544         -DE/DX =    0.0                 !
 ! A5    A(3,1,5)              108.5544         -DE/DX =   -0.0001              !
 ! A6    A(4,1,5)              108.5544         -DE/DX =   -0.0001              !
 ! D1    D(2,1,4,3)           -121.0893         -DE/DX =    0.0                 !
 ! D2    D(2,1,5,3)            121.0893         -DE/DX =    0.0                 !
 ! D3    D(2,1,5,4)           -121.0893         -DE/DX =    0.0                 !
 ! D4    D(3,1,5,4)            117.8214         -DE/DX =   -0.0001              !
 --------------------------------------------------------------------------------
 GradGradGradGradGradGradGradGradGradGradGradGradGradGradGradGradGradGrad


 ----------------------------------------------------------------------

 Electric dipole moment (input orientation):
 (Debye = 10**-18 statcoulomb cm , SI units = C m)
                  (au)            (Debye)         (10**-30 SI)
   Tot        0.135549D+01      0.344531D+01      0.114923D+02
   x         -0.135549D+01     -0.344531D+01     -0.114923D+02
   y          0.168773D-04      0.428977D-04      0.143091D-03
   z          0.000000D+00      0.000000D+00      0.000000D+00

 Dipole polarizability, Alpha (input orientation).
 (esu units = cm**3 , SI units = C**2 m**2 J**-1)
 Alpha(0;0):
               (au)            (10**-24 esu)      (10**-40 SI)
   iso        0.110802D+02      0.164191D+01      0.182687D+01
   aniso      0.600371D+01      0.889658D+00      0.989878D+00
   xx         0.707770D+01      0.104881D+01      0.116695D+01
   yx         0.747524D-04      0.110772D-04      0.123250D-04
   yy         0.130814D+02      0.193846D+01      0.215683D+01
   zx         0.000000D+00      0.000000D+00      0.000000D+00
   zy         0.000000D+00      0.000000D+00      0.000000D+00
   zz         0.130814D+02      0.193846D+01      0.215683D+01

 First dipole hyperpolarizability, Beta (input orientation).
 ||, _|_  parallel and perpendicular components, (z) with respect to z axis,
 vector components x,y,z.  Values do not include the 1/n! factor of 1/2.
 (esu units = statvolt**-1 cm**4 , SI units = C**3 m**3 J**-2)
 Beta(0;0,0):
               (au)            (10**-30 esu)      (10**-50 SI)
   || (z)     0.000000D+00      0.000000D+00      0.000000D+00
   _|_(z)     0.000000D+00      0.000000D+00      0.000000D+00
   x         -0.929568D+02     -0.803075D+00     -0.298053D+00
   y          0.115741D-02      0.999912D-05      0.371107D-05
   z          0.000000D+00      0.000000D+00      0.000000D+00
   ||         0.185914D+02      0.160615D+00      0.596106D-01
   xxx       -0.246887D+02     -0.213291D+00     -0.791608D-01
   xxy        0.228997D-03      0.197835D-05      0.734246D-06
   yxy       -0.314845D+01     -0.272001D-01     -0.100951D-01
   yyy        0.167013D+01      0.144286D-01      0.535503D-02
   xxz        0.000000D+00      0.000000D+00      0.000000D+00
   yxz        0.000000D+00      0.000000D+00      0.000000D+00
   yyz        0.000000D+00      0.000000D+00      0.000000D+00
   zxz       -0.314849D+01     -0.272005D-01     -0.100952D-01
   zyz       -0.166997D+01     -0.144272D-01     -0.535453D-02
   zzz        0.000000D+00      0.000000D+00      0.000000D+00

 ----------------------------------------------------------------------

 Dipole orientation:
     7          0.00003510          2.81910421         -0.33359224
     1          0.00003510          2.81910421          1.61148189
     9          0.00000479          0.38428388         -1.23779579
     9         -2.10856601          4.03654063         -1.23779579
     9          2.10866652          4.03648813         -1.23779579

 Electric dipole moment (dipole orientation):
 (Debye = 10**-18 statcoulomb cm , SI units = C m)
                  (au)            (Debye)         (10**-30 SI)
   Tot        0.135549D+01      0.344531D+01      0.114923D+02
   x          0.000000D+00      0.000000D+00      0.000000D+00
   y          0.000000D+00      0.000000D+00      0.000000D+00
   z          0.135549D+01      0.344531D+01      0.114923D+02

 Dipole polarizability, Alpha (dipole orientation).
 (esu units = cm**3 , SI units = C**2 m**2 J**-1)
 Alpha(0;0):
               (au)            (10**-24 esu)      (10**-40 SI)
   iso        0.110802D+02      0.164191D+01      0.182687D+01
   aniso      0.600371D+01      0.889658D+00      0.989878D+00
   xx         0.130814D+02      0.193846D+01      0.215683D+01
   yx         0.000000D+00      0.000000D+00      0.000000D+00
   yy         0.130814D+02      0.193846D+01      0.215683D+01
   zx         0.000000D+00      0.000000D+00      0.000000D+00
   zy         0.000000D+00      0.000000D+00      0.000000D+00
   zz         0.707770D+01      0.104881D+01      0.116695D+01

 First dipole hyperpolarizability, Beta (dipole orientation).
 ||, _|_  parallel and perpendicular components, (z) with respect to z axis,
 vector components x,y,z.  Values do not include the 1/n! factor of 1/2.
 (esu units = statvolt**-1 cm**4 , SI units = C**3 m**3 J**-2)
 Beta(0;0,0):
               (au)            (10**-30 esu)      (10**-50 SI)
   || (z)     0.185914D+02      0.160615D+00      0.596106D-01
   _|_(z)     0.619712D+01      0.535383D-01      0.198702D-01
   x          0.000000D+00      0.000000D+00      0.000000D+00
   y          0.000000D+00      0.000000D+00      0.000000D+00
   z          0.929568D+02      0.803075D+00      0.298053D+00
   ||         0.185914D+02      0.160615D+00      0.596106D-01
   xxx       -0.623655D-04     -0.538790D-06     -0.199966D-06
   xxy       -0.167001D+01     -0.144276D-01     -0.535465D-02
   yxy        0.623655D-04      0.538790D-06      0.199966D-06
   yyy        0.167001D+01      0.144276D-01      0.535465D-02
   xxz        0.314847D+01      0.272003D-01      0.100951D-01
   yxz        0.000000D+00      0.000000D+00      0.000000D+00
   yyz        0.314847D+01      0.272003D-01      0.100951D-01
   zxz        0.000000D+00      0.000000D+00      0.000000D+00
   zyz        0.000000D+00      0.000000D+00      0.000000D+00
   zzz        0.246887D+02      0.213291D+00      0.791608D-01

 ----------------------------------------------------------------------
 1\1\GINC-IISERK51\Freq\RHF\3-21G\F3H1N1(1+)\GAUSSIAN\13-Jun-2025\0\\#N
  Geom=AllCheck Guess=TCheck SCRF=Check GenChk RHF/3-21G Freq\\Title Ca
 rd Required\\1,1\N,0.1765479858,1.4918035059,0.\H,-0.8527409151,1.4918
 163217,0.\F,0.6550158573,0.2033461141,0.0000000037\F,0.6550399212,2.13
 60232622,-1.1158316755\F,0.6550399212,2.1360232686,1.1158316718\\Versi
 on=EM64L-G16RevB.01\State=1-A1\HF=-350.8354387\RMSD=2.513e-10\RMSF=1.4
 58e-04\ZeroPoint=0.0256443\Thermal=0.0292511\Dipole=-1.3554891,0.00001
 69,0.\DipoleDeriv=0.4556705,0.0000037,0.,0.0000037,0.7527744,0.,0.,0.,
 0.7527743,0.6157128,-0.0000049,0.,-0.0000049,0.2210817,0.,0.,0.,0.2210
 818,-0.0237969,-0.0840984,0.,-0.1143337,0.1259344,0.,0.,0.,-0.1085029,
 -0.0237932,0.0420498,-0.0728343,0.0571675,-0.0498954,-0.1015124,-0.099
 0188,-0.101512,0.0673233,-0.0237932,0.0420498,0.0728343,0.0571675,-0.0
 498954,0.1015124,0.0990188,0.101512,0.0673233\Polar=7.0776954,0.000074
 8,13.0814032,0.,0.,13.0814032\PolarDeriv=-0.0158013,-0.0000781,-2.8347
 963,0.,0.,-2.8348968,-0.0000857,-3.45217,4.0193664,0.,0.,-4.0192101,0.
 ,0.,0.,-3.45227,-4.0192019,0.,-5.7869228,0.0000469,-0.4979252,0.,0.,-0
 .4979183,0.0000342,-1.5210723,-0.2723283,0.,0.,0.2723785,0.,0.,0.,-1.5
 210656,0.2723912,0.,1.9341437,-3.6851628,1.8934441,0.,0.,0.3283454,-0.
 4674801,2.2362308,-11.7782665,0.,0.,-0.0713973,0.,0.,0.,1.0791584,-3.3
 554954,0.,1.9342901,1.842597,0.7196386,-3.191483,-0.6777409,1.5022346,
 0.2337659,1.3685057,4.0156143,-0.50106,-3.9875469,1.9091142,-0.4048895
 ,-0.5010593,-1.1434448,1.9470886,3.551153,-9.1185804,1.9342901,1.84259
 7,0.7196386,3.191483,0.6777409,1.5022346,0.2337659,1.3685057,4.0156143
 ,0.50106,3.9875469,1.9091142,0.4048895,0.5010593,1.1434448,1.9470886,3
 .551153,9.1185804\HyperPolar=-24.6886744,0.000229,-3.1484486,1.6701263
 ,0.,0.,0.,-3.1484902,-1.6699695,0.\Quadrupole=1.9785681,-0.989284,-0.9
 89284,-0.000037,0.,0.\PG=C03V [C3(N1H1),3SGV(F1)]\NImag=0\\0.78426436,
 -0.00000236,0.59493986,0.,0.,0.59493987,-0.41487169,0.00000433,0.,0.40
 790802,0.00000433,-0.06726212,0.,-0.00000413,0.07606473,0.,0.,-0.06726
 209,0.,0.,0.07606471,-0.12312840,0.09493475,0.,0.00232175,0.04260456,0
 .,0.09703675,0.10531523,-0.29434696,0.,-0.00016415,-0.01140728,0.,-0.1
 1683062,0.36639827,0.,0.,-0.05744071,0.,0.,0.00553834,0.,0.,0.06002817
 ,-0.12313214,-0.04746836,0.08221903,0.00232096,-0.02130238,0.03689687,
 0.01188495,0.00583977,-0.00858321,0.09704112,-0.05265860,-0.11666539,0
 .10258131,0.00008198,0.00130233,0.00733698,-0.01035435,-0.03032201,0.0
 3697908,0.05841748,0.13661851,0.09120879,0.10258120,-0.23511852,-0.000
 14192,0.00733744,-0.00717048,0.00076612,0.00850322,-0.00406291,-0.1011
 8284,-0.13265962,0.28980356,-0.12313214,-0.04746836,-0.08221903,0.0023
 2096,-0.02130238,-0.03689687,0.01188495,0.00583977,0.00858321,0.011885
 11,0.00451349,0.00934985,0.09704112,-0.05265860,-0.11666539,-0.1025813
 1,0.00008198,0.00130233,-0.00733698,-0.01035435,-0.03032201,-0.0369790
 8,0.00451349,0.00906656,0.01423775,0.05841748,0.13661851,-0.09120879,-
 0.10258120,-0.23511852,0.00014192,-0.00733744,-0.00717048,-0.00076612,
 -0.00850322,-0.00406291,-0.00934985,-0.01423775,-0.04345165,0.10118284
 ,0.13265962,0.28980356\\0.00043309,0.,0.,-0.00030860,0.,0.,-0.00004150
 ,-0.00010134,0.,-0.00004149,0.00005067,-0.00008777,-0.00004149,0.00005
 067,0.00008777\\\@


 THE MOST SERIOUS THREAT TO THE SURVIVAL OF MANKIND IS NOT NOW
 IGNORANCE IN THE TRADITIONAL SENSE,
 BUT A MORALLY NEUTRAL, AN INSENSITIVE OR INHIBITED HUMAN INTELLIGENCE.

                     -- MARGO JEFFERSON IN NEWSWEEK, SEPTEMBER 2, 1974
 Job cpu time:       0 days  0 hours  0 minutes  0.9 seconds.
 Elapsed time:       0 days  0 hours  0 minutes  0.9 seconds.
 File lengths (MBytes):  RWF=      6 Int=      0 D2E=      0 Chk=      1 Scr=      1
 Normal termination of Gaussian 16 at Fri Jun 13 19:45:23 2025.
