 Entering Gaussian System, Link 0=g16
 Input=/home/gaussian/Documents/jeeva/Aromaticity/cyclobutadiene/meth_cyclobutadiene.com
 Output=/home/gaussian/Documents/jeeva/Aromaticity/cyclobutadiene/meth_cyclobutadiene.log
 Initial command:
 /usr/local/g16/l1.exe "/home/gaussian/tmp/Gau-95259.inp" -scrdir="/home/gaussian/tmp/"
 Entering Link 1 = /usr/local/g16/l1.exe PID=     95262.
  
 Copyright (c) 1988-2017, Gaussian, Inc.  All Rights Reserved.
  
 This is part of the Gaussian(R) 16 program.  It is based on
 the Gaussian(R) 09 system (copyright 2009, Gaussian, Inc.),
 the Gaussian(R) 03 system (copyright 2003, Gaussian, Inc.),
 the Gaussian(R) 98 system (copyright 1998, Gaussian, Inc.),
 the Gaussian(R) 94 system (copyright 1995, Gaussian, Inc.),
 the Gaussian 92(TM) system (copyright 1992, Gaussian, Inc.),
 the Gaussian 90(TM) system (copyright 1990, Gaussian, Inc.),
 the Gaussian 88(TM) system (copyright 1988, Gaussian, Inc.),
 the Gaussian 86(TM) system (copyright 1986, Carnegie Mellon
 University), and the Gaussian 82(TM) system (copyright 1983,
 Carnegie Mellon University). Gaussian is a federally registered
 trademark of Gaussian, Inc.
  
 This software contains proprietary and confidential information,
 including trade secrets, belonging to Gaussian, Inc.
  
 This software is provided under written license and may be
 used, copied, transmitted, or stored only in accord with that
 written license.
  
 The following legend is applicable only to US Government
 contracts under FAR:
  
                    RESTRICTED RIGHTS LEGEND
  
 Use, reproduction and disclosure by the US Government is
 subject to restrictions as set forth in subparagraphs (a)
 and (c) of the Commercial Computer Software - Restricted
 Rights clause in FAR 52.227-19.
  
 Gaussian, Inc.
 340 Quinnipiac St., Bldg. 40, Wallingford CT 06492
  
  
 ---------------------------------------------------------------
 Warning -- This program may not be used in any manner that
 competes with the business of Gaussian, Inc. or will provide
 assistance to any competitor of Gaussian, Inc.  The licensee
 of this program is prohibited from giving any competitor of
 Gaussian, Inc. access to this program.  By using this program,
 the user acknowledges that Gaussian, Inc. is engaged in the
 business of creating and licensing software in the field of
 computational chemistry and represents and warrants to the
 licensee that it is not a competitor of Gaussian, Inc. and that
 it will not use this program in any manner prohibited above.
 ---------------------------------------------------------------
  

 Cite this work as:
 Gaussian 16, Revision B.01,
 M. J. Frisch, G. W. Trucks, H. B. Schlegel, G. E. Scuseria, 
 M. A. Robb, J. R. Cheeseman, G. Scalmani, V. Barone, 
 G. A. Petersson, H. Nakatsuji, X. Li, M. Caricato, A. V. Marenich, 
 J. Bloino, B. G. Janesko, R. Gomperts, B. Mennucci, H. P. Hratchian, 
 J. V. Ortiz, A. F. Izmaylov, J. L. Sonnenberg, D. Williams-Young, 
 F. Ding, F. Lipparini, F. Egidi, J. Goings, B. Peng, A. Petrone, 
 T. Henderson, D. Ranasinghe, V. G. Zakrzewski, J. Gao, N. Rega, 
 G. Zheng, W. Liang, M. Hada, M. Ehara, K. Toyota, R. Fukuda, 
 J. Hasegawa, M. Ishida, T. Nakajima, Y. Honda, O. Kitao, H. Nakai, 
 T. Vreven, K. Throssell, J. A. Montgomery, Jr., J. E. Peralta, 
 F. Ogliaro, M. J. Bearpark, J. J. Heyd, E. N. Brothers, K. N. Kudin, 
 V. N. Staroverov, T. A. Keith, R. Kobayashi, J. Normand, 
 K. Raghavachari, A. P. Rendell, J. C. Burant, S. S. Iyengar, 
 J. Tomasi, M. Cossi, J. M. Millam, M. Klene, C. Adamo, R. Cammi, 
 J. W. Ochterski, R. L. Martin, K. Morokuma, O. Farkas, 
 J. B. Foresman, and D. J. Fox, Gaussian, Inc., Wallingford CT, 2016.
 
 ******************************************
 Gaussian 16:  EM64L-G16RevB.01 20-Dec-2017
                 9-Jun-2025 
 ******************************************
 %chk=meth_cyclobutadiene.chk
 -------------------------------------
 # opt freq hf/3-21g geom=connectivity
 -------------------------------------
 1/18=20,19=15,38=1,57=2/1,3;
 2/9=110,12=2,17=6,18=5,40=1/2;
 3/5=5,11=9,25=1,30=1,71=1/1,2,3;
 4//1;
 5/5=2,38=5/2;
 6/7=2,8=2,9=2,10=2,28=1/1;
 7//1,2,3,16;
 1/18=20,19=15/3(2);
 2/9=110/2;
 99//99;
 2/9=110/2;
 3/5=5,11=9,25=1,30=1,71=1/1,2,3;
 4/5=5,16=3,69=1/1;
 5/5=2,38=5/2;
 7//1,2,3,16;
 1/18=20,19=15/3(-5);
 2/9=110/2;
 6/7=2,8=2,9=2,10=2,19=2,28=1/1;
 99/9=1/99;
 ------------
 Optimisation
 ------------
 Symbolic Z-matrix:
 Charge =  0 Multiplicity = 1
 C                     0.1694    1.05464   0. 
 C                     1.71265   1.05464   0. 
 C                     1.71258   2.59783   0. 
 C                     0.16936   2.59783  -0.00027 
 H                    -0.2836    0.60153  -0.90642 
 H                     2.16555   0.60183  -0.90662 
 H                     2.16551   3.05059  -0.90666 
 C                    -0.45866   3.22561  -1.25848 
 H                    -1.51324   3.0446   -1.25896 
 H                    -0.27779   4.28022  -1.25911 
 H                    -0.0213    2.78821  -2.13157 
 

 GradGradGradGradGradGradGradGradGradGradGradGradGradGradGradGradGradGrad
 Berny optimization.
 Initialization pass.
                           ----------------------------
                           !    Initial Parameters    !
                           ! (Angstroms and Degrees)  !
 --------------------------                            --------------------------
 ! Name  Definition              Value          Derivative Info.                !
 --------------------------------------------------------------------------------
 ! R1    R(1,2)                  1.5432         estimate D2E/DX2                !
 ! R2    R(1,4)                  1.5432         estimate D2E/DX2                !
 ! R3    R(1,5)                  1.11           estimate D2E/DX2                !
 ! R4    R(2,3)                  1.5432         estimate D2E/DX2                !
 ! R5    R(2,6)                  1.11           estimate D2E/DX2                !
 ! R6    R(3,4)                  1.5432         estimate D2E/DX2                !
 ! R7    R(3,7)                  1.11           estimate D2E/DX2                !
 ! R8    R(4,8)                  1.54           estimate D2E/DX2                !
 ! R9    R(8,9)                  1.07           estimate D2E/DX2                !
 ! R10   R(8,10)                 1.07           estimate D2E/DX2                !
 ! R11   R(8,11)                 1.07           estimate D2E/DX2                !
 ! A1    A(2,1,4)               90.0016         estimate D2E/DX2                !
 ! A2    A(2,1,5)              114.0856         estimate D2E/DX2                !
 ! A3    A(4,1,5)              114.0826         estimate D2E/DX2                !
 ! A4    A(1,2,3)               89.9977         estimate D2E/DX2                !
 ! A5    A(1,2,6)              114.0807         estimate D2E/DX2                !
 ! A6    A(3,2,6)              114.0763         estimate D2E/DX2                !
 ! A7    A(2,3,4)               90.0022         estimate D2E/DX2                !
 ! A8    A(2,3,7)              114.0706         estimate D2E/DX2                !
 ! A9    A(4,3,7)              114.0724         estimate D2E/DX2                !
 ! A10   A(1,4,3)               89.9985         estimate D2E/DX2                !
 ! A11   A(1,4,8)              114.067          estimate D2E/DX2                !
 ! A12   A(3,4,8)              114.0758         estimate D2E/DX2                !
 ! A13   A(4,8,9)              109.4712         estimate D2E/DX2                !
 ! A14   A(4,8,10)             109.4712         estimate D2E/DX2                !
 ! A15   A(4,8,11)             109.4712         estimate D2E/DX2                !
 ! A16   A(9,8,10)             109.4713         estimate D2E/DX2                !
 ! A17   A(9,8,11)             109.4712         estimate D2E/DX2                !
 ! A18   A(10,8,11)            109.4712         estimate D2E/DX2                !
 ! D1    D(4,1,2,3)              0.01           estimate D2E/DX2                !
 ! D2    D(4,1,2,6)           -116.53           estimate D2E/DX2                !
 ! D3    D(5,1,2,3)            116.5601         estimate D2E/DX2                !
 ! D4    D(5,1,2,6)              0.0201         estimate D2E/DX2                !
 ! D5    D(2,1,4,3)             -0.01           estimate D2E/DX2                !
 ! D6    D(2,1,4,8)            116.5268         estimate D2E/DX2                !
 ! D7    D(5,1,4,3)           -116.5628         estimate D2E/DX2                !
 ! D8    D(5,1,4,8)             -0.026          estimate D2E/DX2                !
 ! D9    D(1,2,3,4)             -0.01           estimate D2E/DX2                !
 ! D10   D(1,2,3,7)           -116.5456         estimate D2E/DX2                !
 ! D11   D(6,2,3,4)            116.5339         estimate D2E/DX2                !
 ! D12   D(6,2,3,7)             -0.0017         estimate D2E/DX2                !
 ! D13   D(2,3,4,1)              0.01           estimate D2E/DX2                !
 ! D14   D(2,3,4,8)           -116.5189         estimate D2E/DX2                !
 ! D15   D(7,3,4,1)            116.544          estimate D2E/DX2                !
 ! D16   D(7,3,4,8)              0.0151         estimate D2E/DX2                !
 ! D17   D(1,4,8,9)             69.2439         estimate D2E/DX2                !
 ! D18   D(1,4,8,10)          -170.7561         estimate D2E/DX2                !
 ! D19   D(1,4,8,11)           -50.7561         estimate D2E/DX2                !
 ! D20   D(3,4,8,9)            170.7534         estimate D2E/DX2                !
 ! D21   D(3,4,8,10)           -69.2466         estimate D2E/DX2                !
 ! D22   D(3,4,8,11)            50.7534         estimate D2E/DX2                !
 --------------------------------------------------------------------------------
 Trust Radius=3.00D-01 FncErr=1.00D-07 GrdErr=1.00D-07 EigMax=2.50D+02 EigMin=1.00D-04
 Number of steps in this run=     61 maximum allowed number of steps=    100.
 GradGradGradGradGradGradGradGradGradGradGradGradGradGradGradGradGradGrad

                          Input orientation:                          
 ---------------------------------------------------------------------
 Center     Atomic      Atomic             Coordinates (Angstroms)
 Number     Number       Type             X           Y           Z
 ---------------------------------------------------------------------
      1          6           0        0.169399    1.054645    0.000000
      2          6           0        1.712646    1.054645    0.000000
      3          6           0        1.712585    2.597835    0.000000
      4          6           0        0.169356    2.597832   -0.000270
      5          1           0       -0.283595    0.601532   -0.906420
      6          1           0        2.165554    0.601832   -0.906615
      7          1           0        2.165511    3.050589   -0.906656
      8          6           0       -0.458661    3.225613   -1.258477
      9          1           0       -1.513239    3.044601   -1.258962
     10          1           0       -0.277794    4.280215   -1.259109
     11          1           0       -0.021299    2.788207   -2.131570
 ---------------------------------------------------------------------
                    Distance matrix (angstroms):
                    1          2          3          4          5
     1  C    0.000000
     2  C    1.543247   0.000000
     3  C    2.182397   1.543190   0.000000
     4  C    1.543187   2.182469   1.543229   0.000000
     5  H    1.110005   2.238724   2.965056   2.238635   0.000000
     6  H    2.238666   1.110007   2.238562   2.964841   2.449149
     7  H    2.964841   2.238505   1.110024   2.238562   3.463524
     8  C    2.586760   3.318349   2.586925   1.540000   2.653374
     9  H    2.894163   3.993900   3.491493   2.148263   2.757697
    10  H    3.491367   3.993934   2.894368   2.148263   3.695556
    11  H    2.754124   3.248907   2.754304   2.148263   2.520187
                    6          7          8          9         10
     6  H    0.000000
     7  H    2.448757   0.000000
     8  C    3.727538   2.653430   0.000000
     9  H    4.429987   3.695586   1.070000   0.000000
    10  H    4.429978   2.757887   1.070000   1.747303   0.000000
    11  H    3.326121   2.520198   1.070000   1.747303   1.747303
                   11
    11  H    0.000000
 Stoichiometry    C5H6
 Framework group  C1[X(C5H6)]
 Deg. of freedom    27
 Full point group                 C1      NOp   1
 Largest Abelian subgroup         C1      NOp   1
 Largest concise Abelian subgroup C1      NOp   1
                         Standard orientation:                         
 ---------------------------------------------------------------------
 Center     Atomic      Atomic             Coordinates (Angstroms)
 Number     Number       Type             X           Y           Z
 ---------------------------------------------------------------------
      1          6           0        0.582087    1.091211   -0.219025
      2          6           0        1.599817    0.000089    0.175046
      3          6           0        0.582340   -1.091187   -0.219026
      4          6           0       -0.435474   -0.000076   -0.612839
      5          1           0        0.254763    1.731887    0.626259
      6          1           0        1.869642    0.000054    1.251758
      7          1           0        0.255115   -1.731638    0.626492
      8          6           0       -1.717900   -0.000059    0.239793
      9          1           0       -2.294198    0.873567    0.017179
     10          1           0       -2.294159   -0.873736    0.017273
     11          1           0       -1.456380    0.000002    1.277342
 ---------------------------------------------------------------------
 Rotational constants (GHZ):          10.8284928           4.8946109           3.9206441
 Standard basis: 3-21G (6D, 7F)
 There are    57 symmetry adapted cartesian basis functions of A   symmetry.
 There are    57 symmetry adapted basis functions of A   symmetry.
    57 basis functions,    93 primitive gaussians,    57 cartesian basis functions
    18 alpha electrons       18 beta electrons
       nuclear repulsion energy       148.4282849705 Hartrees.
 NAtoms=   11 NActive=   11 NUniq=   11 SFac= 1.00D+00 NAtFMM=   60 NAOKFM=F Big=F
 Integral buffers will be    131072 words long.
 Raffenetti 1 integral format.
 Two-electron integral symmetry is turned on.
 One-electron integrals computed using PRISM.
 NBasis=    57 RedAO= T EigKep=  6.47D-03  NBF=    57
 NBsUse=    57 1.00D-06 EigRej= -1.00D+00 NBFU=    57
 ExpMin= 1.83D-01 ExpMax= 1.72D+02 ExpMxC= 1.72D+02 IAcc=3 IRadAn=         5 AccDes= 0.00D+00
 Harris functional with IExCor=  205 and IRadAn=       5 diagonalized for initial guess.
 HarFok:  IExCor=  205 AccDes= 0.00D+00 IRadAn=         5 IDoV= 1 UseB2=F ITyADJ=14
 ICtDFT=  3500011 ScaDFX=  1.000000  1.000000  1.000000  1.000000
 FoFCou: FMM=F IPFlag=           0 FMFlag=      100000 FMFlg1=           0
         NFxFlg=           0 DoJE=T BraDBF=F KetDBF=T FulRan=T
         wScrn=  0.000000 ICntrl=       500 IOpCl=  0 I1Cent=   200000004 NGrid=           0
         NMat0=    1 NMatS0=      1 NMatT0=    0 NMatD0=    1 NMtDS0=    0 NMtDT0=    0
 Petite list used in FoFCou.
 Keep R1 ints in memory in canonical form, NReq=2188434.
 Requested convergence on RMS density matrix=1.00D-08 within 128 cycles.
 Requested convergence on MAX density matrix=1.00D-06.
 Requested convergence on             energy=1.00D-06.
 No special actions if energy rises.
 SCF Done:  E(RHF) =  -191.389261803     A.U. after   17 cycles
            NFock= 17  Conv=0.78D-08     -V/T= 2.0043

 **********************************************************************

            Population analysis using the SCF Density.

 **********************************************************************

 Orbital symmetries:
       Occupied  (A) (A) (A) (A) (A) (A) (A) (A) (A) (A) (A) (A)
                 (A) (A) (A) (A) (A) (A)
       Virtual   (A) (A) (A) (A) (A) (A) (A) (A) (A) (A) (A) (A)
                 (A) (A) (A) (A) (A) (A) (A) (A) (A) (A) (A) (A)
                 (A) (A) (A) (A) (A) (A) (A) (A) (A) (A) (A) (A)
                 (A) (A) (A)
 The electronic state is 1-A.
 Alpha  occ. eigenvalues --  -11.28555 -11.27390 -11.20218 -11.17007 -11.16995
 Alpha  occ. eigenvalues --   -1.15933  -1.01856  -0.85893  -0.84496  -0.66451
 Alpha  occ. eigenvalues --   -0.64832  -0.61643  -0.60717  -0.49654  -0.49351
 Alpha  occ. eigenvalues --   -0.46904  -0.42382  -0.23312
 Alpha virt. eigenvalues --    0.01557   0.08958   0.24159   0.28216   0.30601
 Alpha virt. eigenvalues --    0.32779   0.33794   0.35803   0.37082   0.37319
 Alpha virt. eigenvalues --    0.43835   0.48237   0.64290   0.89633   0.90033
 Alpha virt. eigenvalues --    0.93787   0.95493   0.97389   0.99744   1.01247
 Alpha virt. eigenvalues --    1.04146   1.05878   1.10225   1.10470   1.16578
 Alpha virt. eigenvalues --    1.18227   1.22849   1.25411   1.27360   1.33131
 Alpha virt. eigenvalues --    1.34382   1.35990   1.38132   1.46154   1.73830
 Alpha virt. eigenvalues --    1.96834   2.09815   2.35888   2.82772
          Condensed to atoms (all electrons):
               1          2          3          4          5          6
     1  C    5.756839   0.292398  -0.286878   0.259096   0.387875  -0.036861
     2  C    0.292398   5.503238   0.292010  -0.181256  -0.053243   0.339201
     3  C   -0.286878   0.292010   5.756915   0.259409   0.011083  -0.036872
     4  C    0.259096  -0.181256   0.259409   5.693563  -0.056998   0.008965
     5  H    0.387875  -0.053243   0.011083  -0.056998   0.510931   0.002071
     6  H   -0.036861   0.339201  -0.036872   0.008965   0.002071   0.454163
     7  H    0.011083  -0.053281   0.387892  -0.057022  -0.001092   0.002072
     8  C   -0.065225   0.009320  -0.065200   0.197073   0.003428  -0.000886
     9  H   -0.004730  -0.000081   0.005203  -0.045921   0.000914   0.000014
    10  H    0.005203  -0.000080  -0.004727  -0.045919  -0.000047   0.000014
    11  H   -0.002704  -0.002153  -0.002725  -0.024115  -0.000650   0.000415
               7          8          9         10         11
     1  C    0.011083  -0.065225  -0.004730   0.005203  -0.002704
     2  C   -0.053281   0.009320  -0.000081  -0.000080  -0.002153
     3  C    0.387892  -0.065200   0.005203  -0.004727  -0.002725
     4  C   -0.057022   0.197073  -0.045921  -0.045919  -0.024115
     5  H   -0.001092   0.003428   0.000914  -0.000047  -0.000650
     6  H    0.002072  -0.000886   0.000014   0.000014   0.000415
     7  H    0.511017   0.003429  -0.000047   0.000913  -0.000649
     8  C    0.003429   5.446441   0.365558   0.365568   0.370212
     9  H   -0.000047   0.365558   0.481187  -0.027519  -0.020172
    10  H    0.000913   0.365568  -0.027519   0.481144  -0.020159
    11  H   -0.000649   0.370212  -0.020172  -0.020159   0.438141
 Mulliken charges:
               1
     1  C   -0.316097
     2  C   -0.146076
     3  C   -0.316110
     4  C   -0.006875
     5  H    0.195728
     6  H    0.267703
     7  H    0.195685
     8  C   -0.629719
     9  H    0.245594
    10  H    0.245610
    11  H    0.264558
 Sum of Mulliken charges =  -0.00000
 Mulliken charges with hydrogens summed into heavy atoms:
               1
     1  C   -0.120369
     2  C    0.121627
     3  C   -0.120426
     4  C   -0.006875
     8  C    0.126043
 Electronic spatial extent (au):  <R**2>=            372.2389
 Charge=             -0.0000 electrons
 Dipole moment (field-independent basis, Debye):
    X=             -1.9715    Y=              0.0011    Z=              3.3581  Tot=              3.8941
 Quadrupole moment (field-independent basis, Debye-Ang):
   XX=            -27.9398   YY=            -39.0673   ZZ=            -31.6530
   XY=              0.0015   XZ=              3.7984   YZ=             -0.0005
 Traceless Quadrupole moment (field-independent basis, Debye-Ang):
   XX=              4.9469   YY=             -6.1806   ZZ=              1.2337
   XY=              0.0015   XZ=              3.7984   YZ=             -0.0005
 Octapole moment (field-independent basis, Debye-Ang**2):
  XXX=             -2.9645  YYY=              0.0059  ZZZ=              8.5232  XYY=            -10.0907
  XXY=              0.0015  XXZ=              5.6125  XZZ=             -2.9440  YZZ=              0.0002
  YYZ=              9.9022  XYZ=             -0.0014
 Hexadecapole moment (field-independent basis, Debye-Ang**3):
 XXXX=           -286.9001 YYYY=           -176.6796 ZZZZ=            -64.3193 XXXY=              0.0045
 XXXZ=              8.6209 YYYX=              0.0065 YYYZ=              0.0003 ZZZX=              6.6716
 ZZZY=             -0.0011 XXYY=            -81.1015 XXZZ=            -59.9370 YYZZ=            -41.6002
 XXYZ=             -0.0015 YYXZ=              6.6698 ZZXY=              0.0004
 N-N= 1.484282849705D+02 E-N=-7.409298524674D+02  KE= 1.905665518164D+02
 Calling FoFJK, ICntrl=      2127 FMM=F ISym2X=0 I1Cent= 0 IOpClX= 0 NMat=1 NMatS=1 NMatT=0.
 ***** Axes restored to original set *****
 -------------------------------------------------------------------
 Center     Atomic                   Forces (Hartrees/Bohr)
 Number     Number              X              Y              Z
 -------------------------------------------------------------------
      1        6          -0.001891441   -0.012008435    0.029946105
      2        6          -0.109684318    0.109472831   -0.091203619
      3        6           0.011860395    0.002095202    0.029944039
      4        6           0.108125516   -0.107986243   -0.102335815
      5        1          -0.003669681   -0.003402497    0.033170358
      6        1           0.010688202   -0.010700920    0.034694903
      7        1           0.003400272    0.003689087    0.033171170
      8        6          -0.015301613    0.015316945    0.042727028
      9        1          -0.010332419   -0.000236188   -0.004281411
     10        1           0.000234009    0.010331846   -0.004283443
     11        1           0.006571078   -0.006571627   -0.001549314
 -------------------------------------------------------------------
 Cartesian Forces:  Max     0.109684318 RMS     0.047533333

 GradGradGradGradGradGradGradGradGradGradGradGradGradGradGradGradGradGrad
 Berny optimization.
 FormGI is forming the generalized inverse of G from B-inverse, IUseBI=4.
 Internal  Forces:  Max     0.061472117 RMS     0.026385240
 Search for a local minimum.
 Step number   1 out of a maximum of   61
 All quantities printed in internal units (Hartrees-Bohrs-Radians)
 Mixed Optimization -- RFO/linear search
 Second derivative matrix not updated -- first step.
 ITU=  0
     Eigenvalues ---    0.00230   0.00237   0.03305   0.03501   0.05185
     Eigenvalues ---    0.05212   0.06051   0.07243   0.07243   0.07901
     Eigenvalues ---    0.08498   0.11905   0.16000   0.16000   0.16000
     Eigenvalues ---    0.20738   0.26423   0.27108   0.28234   0.28238
     Eigenvalues ---    0.28519   0.32597   0.32599   0.32599   0.37230
     Eigenvalues ---    0.37230   0.37230
 RFO step:  Lambda=-1.35465495D-01 EMin= 2.30000047D-03
 Linear search not attempted -- first point.
 Maximum step size (   0.300) exceeded in Quadratic search.
    -- Step size scaled by   0.629
 Iteration  1 RMS(Cart)=  0.06925155 RMS(Int)=  0.00546145
 Iteration  2 RMS(Cart)=  0.00675345 RMS(Int)=  0.00285377
 Iteration  3 RMS(Cart)=  0.00001849 RMS(Int)=  0.00285371
 Iteration  4 RMS(Cart)=  0.00000005 RMS(Int)=  0.00285371
 Variable       Old X    -DE/DX   Delta X   Delta X   Delta X     New X
                                 (Linear)    (Quad)   (Total)
    R1        2.91631  -0.05701   0.00000  -0.08003  -0.07898   2.83734
    R2        2.91620  -0.02656   0.00000  -0.04587  -0.04691   2.86929
    R3        2.09761  -0.02420   0.00000  -0.03301  -0.03301   2.06460
    R4        2.91621  -0.05680   0.00000  -0.07970  -0.07864   2.83756
    R5        2.09761  -0.01961   0.00000  -0.02675  -0.02675   2.07086
    R6        2.91628  -0.02672   0.00000  -0.04611  -0.04715   2.86913
    R7        2.09764  -0.02420   0.00000  -0.03301  -0.03301   2.06463
    R8        2.91018  -0.01129   0.00000  -0.01689  -0.01689   2.89329
    R9        2.02201   0.01023   0.00000   0.01268   0.01268   2.03468
   R10        2.02201   0.01023   0.00000   0.01268   0.01268   2.03468
   R11        2.02201   0.00664   0.00000   0.00823   0.00823   2.03023
    A1        1.57082  -0.05109   0.00000  -0.10791  -0.10780   1.46302
    A2        1.99117   0.01577   0.00000   0.03336   0.03437   2.02554
    A3        1.99112   0.01968   0.00000   0.03891   0.03933   2.03045
    A4        1.57076   0.06147   0.00000   0.11952   0.11390   1.68465
    A5        1.99108   0.01072   0.00000   0.06516   0.05572   2.04680
    A6        1.99101   0.01072   0.00000   0.06518   0.05574   2.04675
    A7        1.57083  -0.05111   0.00000  -0.10794  -0.10783   1.46300
    A8        1.99091   0.01578   0.00000   0.03339   0.03441   2.02532
    A9        1.99094   0.01966   0.00000   0.03888   0.03930   2.03024
   A10        1.57077   0.04072   0.00000   0.09629   0.08924   1.66001
   A11        1.99084   0.00958   0.00000   0.05461   0.04914   2.03999
   A12        1.99100   0.00958   0.00000   0.05460   0.04914   2.04013
   A13        1.91063   0.00758   0.00000   0.01686   0.01678   1.92741
   A14        1.91063   0.00758   0.00000   0.01687   0.01678   1.92742
   A15        1.91063  -0.01289   0.00000  -0.02891  -0.02883   1.88180
   A16        1.91063  -0.00352   0.00000  -0.00460  -0.00484   1.90579
   A17        1.91063   0.00063   0.00000  -0.00011  -0.00002   1.91061
   A18        1.91063   0.00063   0.00000  -0.00011  -0.00002   1.91061
    D1        0.00017   0.02908   0.00000   0.10926   0.11255   0.11273
    D2       -2.03383  -0.01601   0.00000  -0.03784  -0.04027  -2.07410
    D3        2.03436   0.02906   0.00000   0.10629   0.10901   2.14337
    D4        0.00035  -0.01602   0.00000  -0.04081  -0.04381  -0.04346
    D5       -0.00017  -0.02907   0.00000  -0.10926  -0.11103  -0.11120
    D6        2.03378   0.00409   0.00000   0.01202   0.01354   2.04732
    D7       -2.03440  -0.02557   0.00000  -0.10132  -0.10253  -2.13694
    D8       -0.00045   0.00760   0.00000   0.01995   0.02204   0.02158
    D9       -0.00017  -0.02908   0.00000  -0.10926  -0.11256  -0.11273
   D10       -2.03410  -0.02906   0.00000  -0.10627  -0.10900  -2.14310
   D11        2.03390   0.01600   0.00000   0.03781   0.04024   2.07414
   D12       -0.00003   0.01602   0.00000   0.04080   0.04380   0.04377
   D13        0.00017   0.02908   0.00000   0.10926   0.11102   0.11119
   D14       -2.03364  -0.00410   0.00000  -0.01204  -0.01358  -2.04722
   D15        2.03408   0.02558   0.00000   0.10136   0.10256   2.13664
   D16        0.00026  -0.00760   0.00000  -0.01995  -0.02203  -0.02177
   D17        1.20853  -0.03264   0.00000  -0.09631  -0.09622   1.11231
   D18       -2.98026  -0.02768   0.00000  -0.08129  -0.08093  -3.06119
   D19       -0.88586  -0.03016   0.00000  -0.08880  -0.08857  -0.97443
   D20        2.98021   0.02768   0.00000   0.08129   0.08093   3.06114
   D21       -1.20858   0.03264   0.00000   0.09631   0.09622  -1.11236
   D22        0.88581   0.03016   0.00000   0.08880   0.08858   0.97439
         Item               Value     Threshold  Converged?
 Maximum Force            0.061472     0.000450     NO 
 RMS     Force            0.026385     0.000300     NO 
 Maximum Displacement     0.172814     0.001800     NO 
 RMS     Displacement     0.069545     0.001200     NO 
 Predicted change in Energy=-7.467836D-02
 GradGradGradGradGradGradGradGradGradGradGradGradGradGradGradGradGradGrad

                          Input orientation:                          
 ---------------------------------------------------------------------
 Center     Atomic      Atomic             Coordinates (Angstroms)
 Number     Number       Type             X           Y           Z
 ---------------------------------------------------------------------
      1          6           0        0.151990    1.030728    0.013604
      2          6           0        1.647879    1.119317   -0.080382
      3          6           0        1.736418    2.615329    0.013584
      4          6           0        0.221546    2.545688   -0.060462
      5          1           0       -0.351937    0.527576   -0.814971
      6          1           0        2.126034    0.641216   -0.942750
      7          1           0        2.239356    3.119072   -0.815255
      8          6           0       -0.444065    3.211057   -1.268104
      9          1           0       -1.505637    3.031416   -1.258527
     10          1           0       -0.264598    4.272661   -1.258667
     11          1           0       -0.016523    2.783485   -2.156150
 ---------------------------------------------------------------------
                    Distance matrix (angstroms):
                    1          2          3          4          5
     1  C    0.000000
     2  C    1.501454   0.000000
     3  C    2.240843   1.501573   0.000000
     4  C    1.518363   2.017264   1.518279   0.000000
     5  H    1.092538   2.211118   3.066993   2.229561   0.000000
     6  H    2.227820   1.095852   2.227891   2.834170   2.483864
     7  H    3.066803   2.211086   1.092555   2.229358   3.664785
     8  C    2.598440   3.187835   2.598485   1.531064   2.723030
     9  H    2.892887   3.871539   3.507466   2.157419   2.792308
    10  H    3.507470   3.871627   2.892998   2.157421   3.772288
    11  H    2.794348   3.138232   2.794428   2.122530   2.645825
                    6          7          8          9         10
     6  H    0.000000
     7  H    2.483720   0.000000
     8  C    3.649020   2.722918   0.000000
     9  H    4.359106   3.772154   1.076707   0.000000
    10  H    4.359164   2.792341   1.076707   1.755240   0.000000
    11  H    3.263772   2.645678   1.074353   1.756319   1.756320
                   11
    11  H    0.000000
 Stoichiometry    C5H6
 Framework group  C1[X(C5H6)]
 Deg. of freedom    27
 Full point group                 C1      NOp   1
 Largest Abelian subgroup         C1      NOp   1
 Largest concise Abelian subgroup C1      NOp   1
                         Standard orientation:                         
 ---------------------------------------------------------------------
 Center     Atomic      Atomic             Coordinates (Angstroms)
 Number     Number       Type             X           Y           Z
 ---------------------------------------------------------------------
      1          6           0        0.598593    1.120386   -0.240214
      2          6           0        1.487831    0.000042    0.216349
      3          6           0        0.598576   -1.120457   -0.240191
      4          6           0       -0.377921   -0.000088   -0.550673
      5          1           0        0.290587    1.832501    0.528983
      6          1           0        1.795724    0.000042    1.268059
      7          1           0        0.290517   -1.832284    0.529274
      8          6           0       -1.699999    0.000039    0.221508
      9          1           0       -2.275580    0.877677   -0.018816
     10          1           0       -2.275686   -0.877562   -0.018701
     11          1           0       -1.468047    0.000094    1.270524
 ---------------------------------------------------------------------
 Rotational constants (GHZ):          10.4759930           5.2000713           4.0159636
 Standard basis: 3-21G (6D, 7F)
 There are    57 symmetry adapted cartesian basis functions of A   symmetry.
 There are    57 symmetry adapted basis functions of A   symmetry.
    57 basis functions,    93 primitive gaussians,    57 cartesian basis functions
    18 alpha electrons       18 beta electrons
       nuclear repulsion energy       150.3297892608 Hartrees.
 NAtoms=   11 NActive=   11 NUniq=   11 SFac= 1.00D+00 NAtFMM=   60 NAOKFM=F Big=F
 Integral buffers will be    131072 words long.
 Raffenetti 1 integral format.
 Two-electron integral symmetry is turned on.
 One-electron integrals computed using PRISM.
 NBasis=    57 RedAO= T EigKep=  7.23D-03  NBF=    57
 NBsUse=    57 1.00D-06 EigRej= -1.00D+00 NBFU=    57
 Initial guess from the checkpoint file:  "meth_cyclobutadiene.chk"
 B after Tr=     0.000000    0.000000    0.000000
         Rot=    0.999976    0.000010    0.006977    0.000034 Ang=   0.80 deg.
 ExpMin= 1.83D-01 ExpMax= 1.72D+02 ExpMxC= 1.72D+02 IAcc=3 IRadAn=         5 AccDes= 0.00D+00
 Harris functional with IExCor=  205 and IRadAn=       5 diagonalized for initial guess.
 HarFok:  IExCor=  205 AccDes= 0.00D+00 IRadAn=         5 IDoV= 1 UseB2=F ITyADJ=14
 ICtDFT=  3500011 ScaDFX=  1.000000  1.000000  1.000000  1.000000
 FoFCou: FMM=F IPFlag=           0 FMFlag=      100000 FMFlg1=           0
         NFxFlg=           0 DoJE=T BraDBF=F KetDBF=T FulRan=T
         wScrn=  0.000000 ICntrl=       500 IOpCl=  0 I1Cent=   200000004 NGrid=           0
         NMat0=    1 NMatS0=      1 NMatT0=    0 NMatD0=    1 NMtDS0=    0 NMtDT0=    0
 Petite list used in FoFCou.
 Keep R1 ints in memory in canonical form, NReq=2188520.
 Requested convergence on RMS density matrix=1.00D-08 within 128 cycles.
 Requested convergence on MAX density matrix=1.00D-06.
 Requested convergence on             energy=1.00D-06.
 No special actions if energy rises.
 SCF Done:  E(RHF) =  -191.459664416     A.U. after   17 cycles
            NFock= 17  Conv=0.35D-08     -V/T= 2.0035
 Calling FoFJK, ICntrl=      2127 FMM=F ISym2X=0 I1Cent= 0 IOpClX= 0 NMat=1 NMatS=1 NMatT=0.
 ***** Axes restored to original set *****
 -------------------------------------------------------------------
 Center     Atomic                   Forces (Hartrees/Bohr)
 Number     Number              X              Y              Z
 -------------------------------------------------------------------
      1        6           0.017772515    0.011973471    0.023823435
      2        6          -0.073536203    0.073356267   -0.065614704
      3        6          -0.012100161   -0.017610158    0.023826472
      4        6           0.071854557   -0.071723516   -0.079527594
      5        1          -0.004844615   -0.003430351    0.023608923
      6        1           0.009221148   -0.009224613    0.024712478
      7        1           0.003434090    0.004854386    0.023609710
      8        6          -0.010766736    0.010771652    0.032985932
      9        1          -0.004666732   -0.000403730   -0.002493665
     10        1           0.000404576    0.004666301   -0.002493486
     11        1           0.003227561   -0.003229708   -0.002437501
 -------------------------------------------------------------------
 Cartesian Forces:  Max     0.079527594 RMS     0.033550663

 GradGradGradGradGradGradGradGradGradGradGradGradGradGradGradGradGradGrad
 Berny optimization.
 Using GEDIIS/GDIIS optimizer.
 FormGI is forming the generalized inverse of G from B-inverse, IUseBI=4.
 Internal  Forces:  Max     0.041697933 RMS     0.017346602
 Search for a local minimum.
 Step number   2 out of a maximum of   61
 All quantities printed in internal units (Hartrees-Bohrs-Radians)
 Mixed Optimization -- RFO/linear search
 Update second derivatives using D2CorX and points    1    2
 DE= -7.04D-02 DEPred=-7.47D-02 R= 9.43D-01
 TightC=F SS=  1.41D+00  RLast= 4.83D-01 DXNew= 5.0454D-01 1.4482D+00
 Trust test= 9.43D-01 RLast= 4.83D-01 DXMaxT set to 5.05D-01
 ITU=  1  0
 Use linear search instead of GDIIS.
 Linear search step of   0.558 exceeds DXMaxT=   0.505 but not scaled.
 Quartic linear search produced a step of  1.92395.
 Iteration  1 RMS(Cart)=  0.11874159 RMS(Int)=  0.02094309
 Iteration  2 RMS(Cart)=  0.02349054 RMS(Int)=  0.01442466
 Iteration  3 RMS(Cart)=  0.00021872 RMS(Int)=  0.01442330
 Iteration  4 RMS(Cart)=  0.00000080 RMS(Int)=  0.01442330
 Variable       Old X    -DE/DX   Delta X   Delta X   Delta X     New X
                                 (Linear)    (Quad)   (Total)
    R1        2.83734  -0.04170  -0.15195   0.00000  -0.14347   2.69386
    R2        2.86929  -0.02571  -0.09025   0.00000  -0.09850   2.77079
    R3        2.06460  -0.01409  -0.06351   0.00000  -0.06351   2.00109
    R4        2.83756  -0.04153  -0.15131   0.00000  -0.14285   2.69471
    R5        2.07086  -0.01140  -0.05146   0.00000  -0.05146   2.01940
    R6        2.86913  -0.02584  -0.09071   0.00000  -0.09894   2.77020
    R7        2.06463  -0.01409  -0.06351   0.00000  -0.06351   2.00112
    R8        2.89329  -0.00990  -0.03249   0.00000  -0.03249   2.86080
    R9        2.03468   0.00465   0.02439   0.00000   0.02439   2.05907
   R10        2.03468   0.00465   0.02439   0.00000   0.02439   2.05907
   R11        2.03023   0.00458   0.01583   0.00000   0.01583   2.04606
    A1        1.46302  -0.02555  -0.20740   0.00000  -0.20782   1.25520
    A2        2.02554   0.01091   0.06613   0.00000   0.07421   2.09975
    A3        2.03045   0.01187   0.07568   0.00000   0.07696   2.10741
    A4        1.68465   0.02975   0.21913   0.00000   0.18271   1.86737
    A5        2.04680   0.00781   0.10720   0.00000   0.05955   2.10635
    A6        2.04675   0.00781   0.10724   0.00000   0.05957   2.10632
    A7        1.46300  -0.02556  -0.20746   0.00000  -0.20786   1.25515
    A8        2.02532   0.01092   0.06620   0.00000   0.07430   2.09961
    A9        2.03024   0.01186   0.07561   0.00000   0.07688   2.10712
   A10        1.66001   0.01659   0.17169   0.00000   0.13479   1.79480
   A11        2.03999   0.00904   0.09455   0.00000   0.06632   2.10631
   A12        2.04013   0.00905   0.09453   0.00000   0.06633   2.10647
   A13        1.92741   0.00376   0.03228   0.00000   0.03174   1.95915
   A14        1.92742   0.00376   0.03229   0.00000   0.03175   1.95917
   A15        1.88180  -0.00525  -0.05546   0.00000  -0.05494   1.82686
   A16        1.90579  -0.00159  -0.00932   0.00000  -0.01066   1.89513
   A17        1.91061  -0.00037  -0.00005   0.00000   0.00047   1.91108
   A18        1.91061  -0.00037  -0.00004   0.00000   0.00047   1.91108
    D1        0.11273   0.02202   0.21655   0.00000   0.23209   0.34482
    D2       -2.07410  -0.01276  -0.07748   0.00000  -0.08216  -2.15627
    D3        2.14337   0.02406   0.20973   0.00000   0.21904   2.36241
    D4       -0.04346  -0.01072  -0.08429   0.00000  -0.09521  -0.13867
    D5       -0.11120  -0.02087  -0.21361   0.00000  -0.21719  -0.32839
    D6        2.04732   0.00517   0.02605   0.00000   0.03396   2.08128
    D7       -2.13694  -0.02183  -0.19727   0.00000  -0.19949  -2.33643
    D8        0.02158   0.00420   0.04240   0.00000   0.05165   0.07324
    D9       -0.11273  -0.02202  -0.21656   0.00000  -0.23217  -0.34490
   D10       -2.14310  -0.02406  -0.20971   0.00000  -0.21904  -2.36214
   D11        2.07414   0.01275   0.07741   0.00000   0.08206   2.15619
   D12        0.04377   0.01072   0.08426   0.00000   0.09519   0.13896
   D13        0.11119   0.02087   0.21359   0.00000   0.21709   0.32829
   D14       -2.04722  -0.00517  -0.02612   0.00000  -0.03408  -2.08129
   D15        2.13664   0.02184   0.19732   0.00000   0.19953   2.33617
   D16       -0.02177  -0.00420  -0.04239   0.00000  -0.05165  -0.07342
   D17        1.11231  -0.01940  -0.18512   0.00000  -0.18189   0.93043
   D18       -3.06119  -0.01646  -0.15571   0.00000  -0.15102   3.07098
   D19       -0.97443  -0.01793  -0.17041   0.00000  -0.16645  -1.14088
   D20        3.06114   0.01646   0.15571   0.00000   0.15103  -3.07102
   D21       -1.11236   0.01940   0.18513   0.00000   0.18189  -0.93047
   D22        0.97439   0.01793   0.17042   0.00000   0.16646   1.14085
         Item               Value     Threshold  Converged?
 Maximum Force            0.041698     0.000450     NO 
 RMS     Force            0.017347     0.000300     NO 
 Maximum Displacement     0.336172     0.001800     NO 
 RMS     Displacement     0.127615     0.001200     NO 
 Predicted change in Energy=-5.537739D-02
 GradGradGradGradGradGradGradGradGradGradGradGradGradGradGradGradGradGrad

                          Input orientation:                          
 ---------------------------------------------------------------------
 Center     Atomic      Atomic             Coordinates (Angstroms)
 Number     Number       Type             X           Y           Z
 ---------------------------------------------------------------------
      1          6           0        0.139066    1.007419    0.037143
      2          6           0        1.518213    1.248785   -0.230881
      3          6           0        1.759592    2.628404    0.037092
      4          6           0        0.318425    2.448917   -0.162298
      5          1           0       -0.444309    0.436070   -0.637076
      6          1           0        2.010487    0.756494   -1.041597
      7          1           0        2.330665    3.211712   -0.637439
      8          6           0       -0.402432    3.169501   -1.281640
      9          1           0       -1.477487    2.993208   -1.260822
     10          1           0       -0.226394    4.244600   -1.260952
     11          1           0        0.014636    2.752435   -2.189611
 ---------------------------------------------------------------------
                    Distance matrix (angstroms):
                    1          2          3          4          5
     1  C    0.000000
     2  C    1.425531   0.000000
     3  C    2.292094   1.425981   0.000000
     4  C    1.466240   1.698384   1.465924   0.000000
     5  H    1.058932   2.162635   3.180882   2.204252   0.000000
     6  H    2.174594   1.068618   2.174987   2.549615   2.508452
     7  H    3.180734   2.162972   1.058945   2.203798   3.924878
     8  C    2.589789   2.912408   2.589631   1.513870   2.808712
     9  H    2.870769   3.616353   3.506614   2.174467   2.827627
    10  H    3.506843   3.616573   2.870739   2.174476   3.865437
    11  H    2.831783   2.891077   2.831689   2.072295   2.826047
                    6          7          8          9         10
     6  H    0.000000
     7  H    2.508775   0.000000
     8  C    3.420878   2.808309   0.000000
     9  H    4.149327   3.865019   1.089612   0.000000
    10  H    4.149534   2.827397   1.089612   1.769524   0.000000
    11  H    3.047152   2.825627   1.082729   1.773993   1.773995
                   11
    11  H    0.000000
 Stoichiometry    C5H6
 Framework group  C1[X(C5H6)]
 Deg. of freedom    27
 Full point group                 C1      NOp   1
 Largest Abelian subgroup         C1      NOp   1
 Largest concise Abelian subgroup C1      NOp   1
                         Standard orientation:                         
 ---------------------------------------------------------------------
 Center     Atomic      Atomic             Coordinates (Angstroms)
 Number     Number       Type             X           Y           Z
 ---------------------------------------------------------------------
      1          6           0        0.630018    1.145872   -0.271471
      2          6           0        1.261883   -0.000057    0.293978
      3          6           0        0.629360   -1.146222   -0.271392
      4          6           0       -0.268461   -0.000126   -0.442608
      5          1           0        0.354697    1.962469    0.343919
      6          1           0        1.579055   -0.000021    1.314442
      7          1           0        0.353539   -1.962409    0.344341
      8          6           0       -1.648300    0.000315    0.180165
      9          1           0       -2.223210    0.885217   -0.091279
     10          1           0       -2.223716   -0.884306   -0.091120
     11          1           0       -1.467366    0.000362    1.247669
 ---------------------------------------------------------------------
 Rotational constants (GHZ):          10.1428998           5.8924337           4.2949996
 Standard basis: 3-21G (6D, 7F)
 There are    57 symmetry adapted cartesian basis functions of A   symmetry.
 There are    57 symmetry adapted basis functions of A   symmetry.
    57 basis functions,    93 primitive gaussians,    57 cartesian basis functions
    18 alpha electrons       18 beta electrons
       nuclear repulsion energy       155.4486345674 Hartrees.
 NAtoms=   11 NActive=   11 NUniq=   11 SFac= 1.00D+00 NAtFMM=   60 NAOKFM=F Big=F
 Integral buffers will be    131072 words long.
 Raffenetti 1 integral format.
 Two-electron integral symmetry is turned on.
 One-electron integrals computed using PRISM.
 NBasis=    57 RedAO= T EigKep=  9.26D-03  NBF=    57
 NBsUse=    57 1.00D-06 EigRej= -1.00D+00 NBFU=    57
 Initial guess from the checkpoint file:  "meth_cyclobutadiene.chk"
 B after Tr=     0.000000    0.000000   -0.000000
         Rot=    0.999856    0.000027    0.016979    0.000093 Ang=   1.95 deg.
 ExpMin= 1.83D-01 ExpMax= 1.72D+02 ExpMxC= 1.72D+02 IAcc=3 IRadAn=         5 AccDes= 0.00D+00
 Harris functional with IExCor=  205 and IRadAn=       5 diagonalized for initial guess.
 HarFok:  IExCor=  205 AccDes= 0.00D+00 IRadAn=         5 IDoV= 1 UseB2=F ITyADJ=14
 ICtDFT=  3500011 ScaDFX=  1.000000  1.000000  1.000000  1.000000
 FoFCou: FMM=F IPFlag=           0 FMFlag=      100000 FMFlg1=           0
         NFxFlg=           0 DoJE=T BraDBF=F KetDBF=T FulRan=T
         wScrn=  0.000000 ICntrl=       500 IOpCl=  0 I1Cent=   200000004 NGrid=           0
         NMat0=    1 NMatS0=      1 NMatT0=    0 NMatD0=    1 NMtDS0=    0 NMtDT0=    0
 Petite list used in FoFCou.
 Keep R1 ints in memory in canonical form, NReq=2188659.
 Requested convergence on RMS density matrix=1.00D-08 within 128 cycles.
 Requested convergence on MAX density matrix=1.00D-06.
 Requested convergence on             energy=1.00D-06.
 No special actions if energy rises.
 SCF Done:  E(RHF) =  -191.514355441     A.U. after   14 cycles
            NFock= 14  Conv=0.75D-08     -V/T= 2.0008
 Calling FoFJK, ICntrl=      2127 FMM=F ISym2X=0 I1Cent= 0 IOpClX= 0 NMat=1 NMatS=1 NMatT=0.
 ***** Axes restored to original set *****
 -------------------------------------------------------------------
 Center     Atomic                   Forces (Hartrees/Bohr)
 Number     Number              X              Y              Z
 -------------------------------------------------------------------
      1        6           0.024058879    0.036132922    0.023927123
      2        6           0.018020604   -0.017960958   -0.028607017
      3        6          -0.036138418   -0.024132421    0.023919579
      4        6          -0.010262302    0.010274833   -0.031086392
      5        1          -0.010538901   -0.008244748    0.003795689
      6        1           0.008954054   -0.008932172    0.000398476
      7        1           0.008252678    0.010531020    0.003789187
      8        6          -0.005183123    0.005166009    0.008454348
      9        1           0.005888031   -0.000938535    0.000344942
     10        1           0.000944966   -0.005888961    0.000350121
     11        1          -0.003996470    0.003993011   -0.005286054
 -------------------------------------------------------------------
 Cartesian Forces:  Max     0.036138418 RMS     0.015919844

 GradGradGradGradGradGradGradGradGradGradGradGradGradGradGradGradGradGrad
 Berny optimization.
 Using GEDIIS/GDIIS optimizer.
 FormGI is forming the generalized inverse of G from B-inverse, IUseBI=4.
 Internal  Forces:  Max     0.029587582 RMS     0.009863336
 Search for a local minimum.
 Step number   3 out of a maximum of   61
 All quantities printed in internal units (Hartrees-Bohrs-Radians)
 Mixed Optimization -- RFO/linear search
 Update second derivatives using D2CorX and points    2    3
 ITU=  0  1  0
 Use linear search instead of GDIIS.
     Eigenvalues ---    0.00237   0.00362   0.01127   0.03966   0.04347
     Eigenvalues ---    0.04693   0.04946   0.06740   0.06854   0.07596
     Eigenvalues ---    0.12524   0.15977   0.16000   0.16139   0.17475
     Eigenvalues ---    0.23020   0.24903   0.26529   0.26973   0.27472
     Eigenvalues ---    0.28517   0.32395   0.32598   0.32613   0.37157
     Eigenvalues ---    0.37230   0.37265
 RFO step:  Lambda=-3.45289221D-02 EMin= 2.36824278D-03
 Quartic linear search produced a step of  0.02550.
 Iteration  1 RMS(Cart)=  0.10394219 RMS(Int)=  0.00844765
 Iteration  2 RMS(Cart)=  0.00836414 RMS(Int)=  0.00292270
 Iteration  3 RMS(Cart)=  0.00006491 RMS(Int)=  0.00292204
 Iteration  4 RMS(Cart)=  0.00000002 RMS(Int)=  0.00292204
 Variable       Old X    -DE/DX   Delta X   Delta X   Delta X     New X
                                 (Linear)    (Quad)   (Total)
    R1        2.69386   0.00315  -0.00366   0.03384   0.02952   2.72339
    R2        2.77079  -0.00563  -0.00251  -0.00988  -0.01174   2.75905
    R3        2.00109   0.00784  -0.00162   0.03034   0.02872   2.02981
    R4        2.69471   0.00307  -0.00364   0.03352   0.02923   2.72394
    R5        2.01940   0.00794  -0.00131   0.02874   0.02742   2.04682
    R6        2.77020  -0.00562  -0.00252  -0.00980  -0.01168   2.75852
    R7        2.00112   0.00784  -0.00162   0.03034   0.02872   2.02984
    R8        2.86080  -0.00063  -0.00083   0.00211   0.00128   2.86208
    R9        2.05907  -0.00565   0.00062  -0.01724  -0.01662   2.04245
   R10        2.05907  -0.00565   0.00062  -0.01724  -0.01662   2.04245
   R11        2.04606   0.00136   0.00040   0.00081   0.00122   2.04728
    A1        1.25520   0.02238  -0.00530   0.07572   0.06749   1.32269
    A2        2.09975  -0.00140   0.00189   0.03203   0.03213   2.13188
    A3        2.10741  -0.00262   0.00196   0.01581   0.01702   2.12443
    A4        1.86737  -0.02959   0.00466  -0.14639  -0.14632   1.72104
    A5        2.10635   0.01681   0.00152   0.12169   0.11932   2.22567
    A6        2.10632   0.01678   0.00152   0.12153   0.11916   2.22548
    A7        1.25515   0.02240  -0.00530   0.07577   0.06754   1.32269
    A8        2.09961  -0.00141   0.00189   0.03197   0.03206   2.13167
    A9        2.10712  -0.00261   0.00196   0.01588   0.01709   2.12421
   A10        1.79480  -0.01946   0.00344  -0.09556  -0.10311   1.69169
   A11        2.10631   0.01447   0.00169   0.10451   0.10364   2.20995
   A12        2.10647   0.01448   0.00169   0.10459   0.10372   2.21019
   A13        1.95915  -0.00339   0.00081  -0.02263  -0.02200   1.93716
   A14        1.95917  -0.00341   0.00081  -0.02269  -0.02206   1.93710
   A15        1.82686   0.01191  -0.00140   0.06922   0.06798   1.89485
   A16        1.89513   0.00214  -0.00027   0.00709   0.00634   1.90148
   A17        1.91108  -0.00362   0.00001  -0.01506  -0.01489   1.89619
   A18        1.91108  -0.00362   0.00001  -0.01505  -0.01488   1.89620
    D1        0.34482   0.00396   0.00592   0.12658   0.12928   0.47410
    D2       -2.15627  -0.00587  -0.00209  -0.03981  -0.04380  -2.20007
    D3        2.36241   0.01204   0.00558   0.17954   0.18475   2.54716
    D4       -0.13867   0.00221  -0.00243   0.01315   0.01166  -0.12701
    D5       -0.32839  -0.00641  -0.00554  -0.13335  -0.13727  -0.46566
    D6        2.08128   0.00809   0.00087   0.02273   0.01971   2.10099
    D7       -2.33643  -0.01627  -0.00509  -0.20757  -0.21066  -2.54709
    D8        0.07324  -0.00177   0.00132  -0.05149  -0.05367   0.01957
    D9       -0.34490  -0.00396  -0.00592  -0.12660  -0.12930  -0.47420
   D10       -2.36214  -0.01205  -0.00558  -0.17964  -0.18484  -2.54698
   D11        2.15619   0.00588   0.00209   0.03986   0.04385   2.20004
   D12        0.13896  -0.00221   0.00243  -0.01318  -0.01170   0.12726
   D13        0.32829   0.00642   0.00554   0.13334   0.13727   0.46556
   D14       -2.08129  -0.00807  -0.00087  -0.02270  -0.01968  -2.10098
   D15        2.33617   0.01626   0.00509   0.20747   0.21056   2.54673
   D16       -0.07342   0.00178  -0.00132   0.05142   0.05361  -0.01981
   D17        0.93043  -0.00067  -0.00464  -0.03987  -0.04932   0.88110
   D18        3.07098  -0.00294  -0.00385  -0.06445  -0.07262   2.99836
   D19       -1.14088  -0.00180  -0.00424  -0.05217  -0.06098  -1.20187
   D20       -3.07102   0.00294   0.00385   0.06451   0.07267  -2.99834
   D21       -0.93047   0.00067   0.00464   0.03992   0.04938  -0.88109
   D22        1.14085   0.00180   0.00424   0.05220   0.06102   1.20187
         Item               Value     Threshold  Converged?
 Maximum Force            0.029588     0.000450     NO 
 RMS     Force            0.009863     0.000300     NO 
 Maximum Displacement     0.284999     0.001800     NO 
 RMS     Displacement     0.104180     0.001200     NO 
 Predicted change in Energy=-2.343647D-02
 GradGradGradGradGradGradGradGradGradGradGradGradGradGradGradGradGradGrad

                          Input orientation:                          
 ---------------------------------------------------------------------
 Center     Atomic      Atomic             Coordinates (Angstroms)
 Number     Number       Type             X           Y           Z
 ---------------------------------------------------------------------
      1          6           0        0.186716    1.035073    0.060231
      2          6           0        1.573341    1.193723   -0.298976
      3          6           0        1.731946    2.580664    0.060208
      4          6           0        0.313745    2.453566   -0.261357
      5          1           0       -0.474978    0.389132   -0.486280
      6          1           0        2.129801    0.637409   -1.043314
      7          1           0        2.377748    3.242252   -0.486624
      8          6           0       -0.439982    3.206996   -1.337503
      9          1           0       -1.503042    3.026026   -1.264539
     10          1           0       -0.259169    4.270090   -1.264672
     11          1           0       -0.095662    2.862612   -2.305253
 ---------------------------------------------------------------------
                    Distance matrix (angstroms):
                    1          2          3          4          5
     1  C    0.000000
     2  C    1.441155   0.000000
     3  C    2.185540   1.441449   0.000000
     4  C    1.460026   1.781909   1.459745   0.000000
     5  H    1.074129   2.208633   3.157844   2.221387   0.000000
     6  H    2.269697   1.083131   2.269866   2.684761   2.675220
     7  H    3.157738   2.208790   1.074143   2.221009   4.034643
     8  C    2.657754   3.030721   2.657661   1.514547   2.943834
     9  H    2.928173   3.708608   3.523982   2.152858   2.935271
    10  H    3.524134   3.708732   2.928141   2.152820   3.964127
    11  H    3.002524   3.097726   3.002508   2.124252   3.093646
                    6          7          8          9         10
     6  H    0.000000
     7  H    2.675180   0.000000
     8  C    3.645971   2.943611   0.000000
     9  H    4.353387   3.963892   1.080819   0.000000
    10  H    4.353453   2.935157   1.080818   1.759237   0.000000
    11  H    3.390679   3.093428   1.083373   1.757984   1.757993
                   11
    11  H    0.000000
 Stoichiometry    C5H6
 Framework group  C1[X(C5H6)]
 Deg. of freedom    27
 Full point group                 C1      NOp   1
 Largest Abelian subgroup         C1      NOp   1
 Largest concise Abelian subgroup C1      NOp   1
                         Standard orientation:                         
 ---------------------------------------------------------------------
 Center     Atomic      Atomic             Coordinates (Angstroms)
 Number     Number       Type             X           Y           Z
 ---------------------------------------------------------------------
      1          6           0        0.654407    1.092685   -0.315127
      2          6           0        1.311819    0.000014    0.356295
      3          6           0        0.654073   -1.092856   -0.315108
      4          6           0       -0.311765   -0.000127   -0.377992
      5          1           0        0.429558    2.017355    0.183053
      6          1           0        1.743103   -0.000062    1.349857
      7          1           0        0.429001   -2.017288    0.183441
      8          6           0       -1.714506    0.000167    0.193118
      9          1           0       -2.259426    0.879837   -0.118993
     10          1           0       -2.259675   -0.879400   -0.118846
     11          1           0       -1.646735    0.000258    1.274369
 ---------------------------------------------------------------------
 Rotational constants (GHZ):          10.5422725           5.4250180           4.1403240
 Standard basis: 3-21G (6D, 7F)
 There are    57 symmetry adapted cartesian basis functions of A   symmetry.
 There are    57 symmetry adapted basis functions of A   symmetry.
    57 basis functions,    93 primitive gaussians,    57 cartesian basis functions
    18 alpha electrons       18 beta electrons
       nuclear repulsion energy       153.6088614120 Hartrees.
 NAtoms=   11 NActive=   11 NUniq=   11 SFac= 1.00D+00 NAtFMM=   60 NAOKFM=F Big=F
 Integral buffers will be    131072 words long.
 Raffenetti 1 integral format.
 Two-electron integral symmetry is turned on.
 One-electron integrals computed using PRISM.
 NBasis=    57 RedAO= T EigKep=  7.97D-03  NBF=    57
 NBsUse=    57 1.00D-06 EigRej= -1.00D+00 NBFU=    57
 Initial guess from the checkpoint file:  "meth_cyclobutadiene.chk"
 B after Tr=    -0.000000   -0.000000   -0.000000
         Rot=    0.999999   -0.000016   -0.001531   -0.000052 Ang=  -0.18 deg.
 ExpMin= 1.83D-01 ExpMax= 1.72D+02 ExpMxC= 1.72D+02 IAcc=3 IRadAn=         5 AccDes= 0.00D+00
 Harris functional with IExCor=  205 and IRadAn=       5 diagonalized for initial guess.
 HarFok:  IExCor=  205 AccDes= 0.00D+00 IRadAn=         5 IDoV= 1 UseB2=F ITyADJ=14
 ICtDFT=  3500011 ScaDFX=  1.000000  1.000000  1.000000  1.000000
 FoFCou: FMM=F IPFlag=           0 FMFlag=      100000 FMFlg1=           0
         NFxFlg=           0 DoJE=T BraDBF=F KetDBF=T FulRan=T
         wScrn=  0.000000 ICntrl=       500 IOpCl=  0 I1Cent=   200000004 NGrid=           0
         NMat0=    1 NMatS0=      1 NMatT0=    0 NMatD0=    1 NMtDS0=    0 NMtDT0=    0
 Petite list used in FoFCou.
 Keep R1 ints in memory in canonical form, NReq=2188661.
 Requested convergence on RMS density matrix=1.00D-08 within 128 cycles.
 Requested convergence on MAX density matrix=1.00D-06.
 Requested convergence on             energy=1.00D-06.
 No special actions if energy rises.
 SCF Done:  E(RHF) =  -191.531672605     A.U. after   13 cycles
            NFock= 13  Conv=0.75D-08     -V/T= 2.0015
 Calling FoFJK, ICntrl=      2127 FMM=F ISym2X=0 I1Cent= 0 IOpClX= 0 NMat=1 NMatS=1 NMatT=0.
 ***** Axes restored to original set *****
 -------------------------------------------------------------------
 Center     Atomic                   Forces (Hartrees/Bohr)
 Number     Number              X              Y              Z
 -------------------------------------------------------------------
      1        6          -0.004823634   -0.001186844   -0.017025580
      2        6          -0.007042518    0.007024498    0.003325734
      3        6           0.001189993    0.004843796   -0.017030517
      4        6           0.011515464   -0.011537018   -0.008747449
      5        1          -0.001456150   -0.001201788    0.006297462
      6        1          -0.000400592    0.000398987    0.011290247
      7        1           0.001205932    0.001461229    0.006302572
      8        6          -0.000874207    0.000880269    0.014930747
      9        1          -0.000849202   -0.000812454    0.000163089
     10        1           0.000812295    0.000851503    0.000159369
     11        1           0.000722619   -0.000722179    0.000334327
 -------------------------------------------------------------------
 Cartesian Forces:  Max     0.017030517 RMS     0.006796735

 GradGradGradGradGradGradGradGradGradGradGradGradGradGradGradGradGradGrad
 Berny optimization.
 Using GEDIIS/GDIIS optimizer.
 FormGI is forming the generalized inverse of G from B-inverse, IUseBI=4.
 Internal  Forces:  Max     0.010883694 RMS     0.004131902
 Search for a local minimum.
 Step number   4 out of a maximum of   61
 All quantities printed in internal units (Hartrees-Bohrs-Radians)
 Mixed Optimization -- RFO/linear search
 Update second derivatives using D2CorX and points    3    4
 DE= -1.73D-02 DEPred=-2.34D-02 R= 7.39D-01
 TightC=F SS=  1.41D+00  RLast= 6.05D-01 DXNew= 8.4853D-01 1.8160D+00
 Trust test= 7.39D-01 RLast= 6.05D-01 DXMaxT set to 8.49D-01
 ITU=  1  0  1  0
 Use linear search instead of GDIIS.
     Eigenvalues ---    0.00237   0.00478   0.00780   0.03899   0.04566
     Eigenvalues ---    0.04576   0.05487   0.06790   0.06993   0.07254
     Eigenvalues ---    0.13146   0.15980   0.16000   0.16129   0.18362
     Eigenvalues ---    0.23919   0.25343   0.26371   0.26389   0.26700
     Eigenvalues ---    0.29692   0.32401   0.32598   0.33850   0.37165
     Eigenvalues ---    0.37230   0.37315
 RFO step:  Lambda=-1.45340993D-02 EMin= 2.36824278D-03
 Quartic linear search produced a step of -0.02307.
 Iteration  1 RMS(Cart)=  0.13986876 RMS(Int)=  0.02163335
 Iteration  2 RMS(Cart)=  0.02821712 RMS(Int)=  0.00347776
 Iteration  3 RMS(Cart)=  0.00090059 RMS(Int)=  0.00341200
 Iteration  4 RMS(Cart)=  0.00000182 RMS(Int)=  0.00341200
 Iteration  5 RMS(Cart)=  0.00000001 RMS(Int)=  0.00341200
 Variable       Old X    -DE/DX   Delta X   Delta X   Delta X     New X
                                 (Linear)    (Quad)   (Total)
    R1        2.72339  -0.00311  -0.00068   0.00430   0.00282   2.72620
    R2        2.75905  -0.00303   0.00027  -0.02126  -0.02019   2.73886
    R3        2.02981  -0.00158  -0.00066   0.00812   0.00746   2.03727
    R4        2.72394  -0.00310  -0.00067   0.00421   0.00273   2.72668
    R5        2.04682  -0.00817  -0.00063  -0.01053  -0.01117   2.03565
    R6        2.75852  -0.00303   0.00027  -0.02122  -0.02015   2.73837
    R7        2.02984  -0.00158  -0.00066   0.00812   0.00746   2.03729
    R8        2.86208  -0.01088  -0.00003  -0.03486  -0.03489   2.82719
    R9        2.04245   0.00098   0.00038  -0.00519  -0.00481   2.03765
   R10        2.04245   0.00098   0.00038  -0.00518  -0.00480   2.03765
   R11        2.04728   0.00016  -0.00003   0.00177   0.00174   2.04902
    A1        1.32269  -0.00188  -0.00156   0.06932   0.06338   1.38607
    A2        2.13188   0.00711  -0.00074   0.08838   0.08033   2.21221
    A3        2.12443   0.00648  -0.00039   0.07367   0.06401   2.18844
    A4        1.72104   0.00456   0.00338  -0.02385  -0.02213   1.69892
    A5        2.22567  -0.00174  -0.00275   0.04210   0.03661   2.26227
    A6        2.22548  -0.00174  -0.00275   0.04203   0.03653   2.26201
    A7        1.32269  -0.00188  -0.00156   0.06933   0.06339   1.38608
    A8        2.13167   0.00712  -0.00074   0.08840   0.08034   2.21202
    A9        2.12421   0.00648  -0.00039   0.07375   0.06408   2.18829
   A10        1.69169   0.00434   0.00238  -0.00225  -0.00286   1.68883
   A11        2.20995  -0.00115  -0.00239   0.05634   0.04605   2.25600
   A12        2.21019  -0.00116  -0.00239   0.05636   0.04607   2.25625
   A13        1.93716  -0.00024   0.00051  -0.01122  -0.01071   1.92644
   A14        1.93710  -0.00023   0.00051  -0.01122  -0.01072   1.92639
   A15        1.89485  -0.00155  -0.00157   0.02408   0.02256   1.91740
   A16        1.90148   0.00083  -0.00015   0.00956   0.00936   1.91084
   A17        1.89619   0.00061   0.00034  -0.00555  -0.00516   1.89103
   A18        1.89620   0.00061   0.00034  -0.00555  -0.00516   1.89104
    D1        0.47410  -0.00503  -0.00298  -0.11932  -0.12352   0.35058
    D2       -2.20007  -0.00702   0.00101  -0.24407  -0.24584  -2.44591
    D3        2.54716   0.00195  -0.00426   0.01280   0.01241   2.55957
    D4       -0.12701  -0.00004  -0.00027  -0.11194  -0.10991  -0.23692
    D5       -0.46566   0.00503   0.00317   0.11054   0.11710  -0.34857
    D6        2.10099   0.00804  -0.00045   0.28863   0.28985   2.39084
    D7       -2.54709  -0.00264   0.00486  -0.03688  -0.03327  -2.58035
    D8        0.01957   0.00037   0.00124   0.14121   0.13949   0.15905
    D9       -0.47420   0.00503   0.00298   0.11936   0.12355  -0.35065
   D10       -2.54698  -0.00195   0.00427  -0.01280  -0.01240  -2.55938
   D11        2.20004   0.00702  -0.00101   0.24412   0.24588   2.44592
   D12        0.12726   0.00004   0.00027   0.11196   0.10993   0.23719
   D13        0.46556  -0.00503  -0.00317  -0.11049  -0.11706   0.34850
   D14       -2.10098  -0.00804   0.00045  -0.28861  -0.28984  -2.39081
   D15        2.54673   0.00264  -0.00486   0.03688   0.03327   2.58000
   D16       -0.01981  -0.00037  -0.00124  -0.14123  -0.13951  -0.15932
   D17        0.88110  -0.00311   0.00114  -0.10414  -0.10459   0.77652
   D18        2.99836  -0.00238   0.00168  -0.10732  -0.10714   2.89122
   D19       -1.20187  -0.00274   0.00141  -0.10573  -0.10587  -1.30774
   D20       -2.99834   0.00238  -0.00168   0.10739   0.10722  -2.89113
   D21       -0.88109   0.00311  -0.00114   0.10422   0.10466  -0.77643
   D22        1.20187   0.00275  -0.00141   0.10580   0.10593   1.30780
         Item               Value     Threshold  Converged?
 Maximum Force            0.010884     0.000450     NO 
 RMS     Force            0.004132     0.000300     NO 
 Maximum Displacement     0.683037     0.001800     NO 
 RMS     Displacement     0.160757     0.001200     NO 
 Predicted change in Energy=-1.149265D-02
 GradGradGradGradGradGradGradGradGradGradGradGradGradGradGradGradGradGrad

                          Input orientation:                          
 ---------------------------------------------------------------------
 Center     Atomic      Atomic             Coordinates (Angstroms)
 Number     Number       Type             X           Y           Z
 ---------------------------------------------------------------------
      1          6           0        0.195833    1.039179   -0.066693
      2          6           0        1.625721    1.141363   -0.228561
      3          6           0        1.727844    2.571510   -0.066714
      4          6           0        0.325534    2.441757   -0.408083
      5          1           0       -0.459915    0.335988   -0.554302
      6          1           0        2.316824    0.450495   -0.681867
      7          1           0        2.430973    3.227148   -0.554593
      8          6           0       -0.503495    3.270480   -1.337704
      9          1           0       -1.552202    3.073976   -1.181885
     10          1           0       -0.307109    4.319236   -1.182055
     11          1           0       -0.259546    3.026413   -2.365623
 ---------------------------------------------------------------------
                    Distance matrix (angstroms):
                    1          2          3          4          5
     1  C    0.000000
     2  C    1.442645   0.000000
     3  C    2.166818   1.442895   0.000000
     4  C    1.449343   1.847631   1.449084   0.000000
     5  H    1.078074   2.259339   3.165690   2.252237   0.000000
     6  H    2.285518   1.077222   2.285610   2.829367   2.782026
     7  H    3.165614   2.259475   1.078090   2.251928   4.088526
     8  C    2.661435   3.208878   2.661362   1.496084   3.037576
     9  H    2.905112   3.839663   3.500683   2.127055   3.013890
    10  H    3.500823   3.839774   2.905093   2.127016   4.035306
    11  H    3.072710   3.416823   3.072724   2.125112   3.249527
                    6          7          8          9         10
     6  H    0.000000
     7  H    2.781911   0.000000
     8  C    4.041861   3.037474   0.000000
     9  H    4.701280   4.035176   1.078276   0.000000
    10  H    4.701316   3.013878   1.078278   1.760945   0.000000
    11  H    4.013486   3.249464   1.084295   1.753413   1.753421
                   11
    11  H    0.000000
 Stoichiometry    C5H6
 Framework group  C1[X(C5H6)]
 Deg. of freedom    27
 Full point group                 C1      NOp   1
 Largest Abelian subgroup         C1      NOp   1
 Largest concise Abelian subgroup C1      NOp   1
                         Standard orientation:                         
 ---------------------------------------------------------------------
 Center     Atomic      Atomic             Coordinates (Angstroms)
 Number     Number       Type             X           Y           Z
 ---------------------------------------------------------------------
      1          6           0        0.617935    1.083363   -0.256722
      2          6           0        1.431688    0.000032    0.238679
      3          6           0        0.617709   -1.083455   -0.256741
      4          6           0       -0.344609   -0.000119   -0.269757
      5          1           0        0.470046    2.044288    0.209107
      6          1           0        2.174092   -0.000122    1.019220
      7          1           0        0.469746   -2.044238    0.209392
      8          6           0       -1.776329    0.000111    0.164345
      9          1           0       -2.279575    0.880603   -0.201931
     10          1           0       -2.279754   -0.880343   -0.201780
     11          1           0       -1.832916    0.000217    1.247163
 ---------------------------------------------------------------------
 Rotational constants (GHZ):          11.4037899           5.1502790           3.8838563
 Standard basis: 3-21G (6D, 7F)
 There are    57 symmetry adapted cartesian basis functions of A   symmetry.
 There are    57 symmetry adapted basis functions of A   symmetry.
    57 basis functions,    93 primitive gaussians,    57 cartesian basis functions
    18 alpha electrons       18 beta electrons
       nuclear repulsion energy       152.6944747612 Hartrees.
 NAtoms=   11 NActive=   11 NUniq=   11 SFac= 1.00D+00 NAtFMM=   60 NAOKFM=F Big=F
 Integral buffers will be    131072 words long.
 Raffenetti 1 integral format.
 Two-electron integral symmetry is turned on.
 One-electron integrals computed using PRISM.
 NBasis=    57 RedAO= T EigKep=  6.21D-03  NBF=    57
 NBsUse=    57 1.00D-06 EigRej= -1.00D+00 NBFU=    57
 Initial guess from the checkpoint file:  "meth_cyclobutadiene.chk"
 B after Tr=     0.000000    0.000000    0.000000
         Rot=    0.999940   -0.000010   -0.010954   -0.000018 Ang=  -1.26 deg.
 ExpMin= 1.83D-01 ExpMax= 1.72D+02 ExpMxC= 1.72D+02 IAcc=3 IRadAn=         5 AccDes= 0.00D+00
 Harris functional with IExCor=  205 and IRadAn=       5 diagonalized for initial guess.
 HarFok:  IExCor=  205 AccDes= 0.00D+00 IRadAn=         5 IDoV= 1 UseB2=F ITyADJ=14
 ICtDFT=  3500011 ScaDFX=  1.000000  1.000000  1.000000  1.000000
 FoFCou: FMM=F IPFlag=           0 FMFlag=      100000 FMFlg1=           0
         NFxFlg=           0 DoJE=T BraDBF=F KetDBF=T FulRan=T
         wScrn=  0.000000 ICntrl=       500 IOpCl=  0 I1Cent=   200000004 NGrid=           0
         NMat0=    1 NMatS0=      1 NMatT0=    0 NMatD0=    1 NMtDS0=    0 NMtDT0=    0
 Petite list used in FoFCou.
 Keep R1 ints in memory in canonical form, NReq=2188492.
 Requested convergence on RMS density matrix=1.00D-08 within 128 cycles.
 Requested convergence on MAX density matrix=1.00D-06.
 Requested convergence on             energy=1.00D-06.
 No special actions if energy rises.
 SCF Done:  E(RHF) =  -191.539764984     A.U. after   17 cycles
            NFock= 17  Conv=0.22D-08     -V/T= 2.0015
 Calling FoFJK, ICntrl=      2127 FMM=F ISym2X=0 I1Cent= 0 IOpClX= 0 NMat=1 NMatS=1 NMatT=0.
 ***** Axes restored to original set *****
 -------------------------------------------------------------------
 Center     Atomic                   Forces (Hartrees/Bohr)
 Number     Number              X              Y              Z
 -------------------------------------------------------------------
      1        6          -0.002690454   -0.005056785   -0.005734336
      2        6          -0.003876566    0.003729339   -0.003789871
      3        6           0.004957257    0.002831607   -0.005747398
      4        6           0.002010847   -0.001903807   -0.011348118
      5        1           0.003944560    0.003301747    0.007879245
      6        1          -0.001672384    0.001659034    0.003181193
      7        1          -0.003306406   -0.003938810    0.007883927
      8        6           0.001409484   -0.001396742    0.007010378
      9        1          -0.003061457   -0.000767701    0.000272312
     10        1           0.000766531    0.003062072    0.000267183
     11        1           0.001518589   -0.001519952    0.000125484
 -------------------------------------------------------------------
 Cartesian Forces:  Max     0.011348118 RMS     0.004198361

 GradGradGradGradGradGradGradGradGradGradGradGradGradGradGradGradGradGrad
 Berny optimization.
 Using GEDIIS/GDIIS optimizer.
 FormGI is forming the generalized inverse of G from B-inverse, IUseBI=4.
 Internal  Forces:  Max     0.008119607 RMS     0.002578144
 Search for a local minimum.
 Step number   5 out of a maximum of   61
 All quantities printed in internal units (Hartrees-Bohrs-Radians)
 Mixed Optimization -- RFO/linear search
 Update second derivatives using D2CorX and points    4    5
 DE= -8.09D-03 DEPred=-1.15D-02 R= 7.04D-01
 TightC=F SS=  1.41D+00  RLast= 7.21D-01 DXNew= 1.4270D+00 2.1623D+00
 Trust test= 7.04D-01 RLast= 7.21D-01 DXMaxT set to 1.43D+00
 ITU=  1  1  0  1  0
 Use linear search instead of GDIIS.
     Eigenvalues ---    0.00237   0.00467   0.01266   0.02525   0.02686
     Eigenvalues ---    0.05673   0.06062   0.06994   0.07157   0.07270
     Eigenvalues ---    0.14168   0.15972   0.16000   0.16179   0.20991
     Eigenvalues ---    0.24358   0.25001   0.26142   0.26461   0.27304
     Eigenvalues ---    0.27980   0.32331   0.32598   0.33484   0.37208
     Eigenvalues ---    0.37230   0.37308
 RFO step:  Lambda=-3.47699904D-03 EMin= 2.36824270D-03
 Quartic linear search produced a step of  0.44614.
 Iteration  1 RMS(Cart)=  0.07058460 RMS(Int)=  0.00676891
 Iteration  2 RMS(Cart)=  0.00614479 RMS(Int)=  0.00404225
 Iteration  3 RMS(Cart)=  0.00002085 RMS(Int)=  0.00404217
 Iteration  4 RMS(Cart)=  0.00000013 RMS(Int)=  0.00404217
 Variable       Old X    -DE/DX   Delta X   Delta X   Delta X     New X
                                 (Linear)    (Quad)   (Total)
    R1        2.72620  -0.00340   0.00126  -0.01460  -0.01438   2.71182
    R2        2.73886   0.00048  -0.00901   0.00056  -0.00742   2.73144
    R3        2.03727  -0.00812   0.00333  -0.03504  -0.03171   2.00555
    R4        2.72668  -0.00326   0.00122  -0.01387  -0.01368   2.71299
    R5        2.03565  -0.00348  -0.00498  -0.01501  -0.02000   2.01566
    R6        2.73837   0.00036  -0.00899  -0.00002  -0.00798   2.73039
    R7        2.03729  -0.00812   0.00333  -0.03505  -0.03172   2.00557
    R8        2.82719  -0.00546  -0.01557  -0.02816  -0.04372   2.78347
    R9        2.03765   0.00316  -0.00214   0.01183   0.00969   2.04733
   R10        2.03765   0.00316  -0.00214   0.01183   0.00969   2.04734
   R11        2.04902   0.00056   0.00078   0.00282   0.00360   2.05262
    A1        1.38607  -0.00160   0.02828  -0.00532   0.01942   1.40549
    A2        2.21221   0.00175   0.03584   0.03586   0.06050   2.27271
    A3        2.18844   0.00265   0.02856   0.05617   0.07393   2.26237
    A4        1.69892   0.00288  -0.00987   0.00202  -0.00658   1.69234
    A5        2.26227  -0.00084   0.01633   0.00284   0.01530   2.27758
    A6        2.26201  -0.00083   0.01630   0.00299   0.01541   2.27742
    A7        1.38608  -0.00161   0.02828  -0.00536   0.01938   1.40546
    A8        2.21202   0.00177   0.03585   0.03597   0.06061   2.27263
    A9        2.18829   0.00264   0.02859   0.05613   0.07393   2.26222
   A10        1.68883  -0.00025  -0.00127  -0.00997  -0.01174   1.67709
   A11        2.25600   0.00059   0.02054   0.01759   0.02913   2.28513
   A12        2.25625   0.00059   0.02055   0.01754   0.02909   2.28534
   A13        1.92644   0.00060  -0.00478   0.00523   0.00041   1.92685
   A14        1.92639   0.00061  -0.00478   0.00529   0.00047   1.92686
   A15        1.91740  -0.00330   0.01006  -0.02702  -0.01698   1.90042
   A16        1.91084   0.00023   0.00418   0.00826   0.01239   1.92323
   A17        1.89103   0.00094  -0.00230   0.00412   0.00180   1.89283
   A18        1.89104   0.00094  -0.00230   0.00412   0.00179   1.89283
    D1        0.35058   0.00116  -0.05511   0.02716  -0.02979   0.32079
    D2       -2.44591  -0.00220  -0.10968   0.00496  -0.10739  -2.55330
    D3        2.55957   0.00387   0.00554   0.10687   0.11538   2.67495
    D4       -0.23692   0.00052  -0.04904   0.08467   0.03778  -0.19915
    D5       -0.34857  -0.00052   0.05224  -0.02462   0.03046  -0.31810
    D6        2.39084   0.00172   0.12931   0.03600   0.16632   2.55716
    D7       -2.58035  -0.00237  -0.01484  -0.08377  -0.10052  -2.68087
    D8        0.15905  -0.00013   0.06223  -0.02315   0.03534   0.19439
    D9       -0.35065  -0.00117   0.05512  -0.02725   0.02972  -0.32092
   D10       -2.55938  -0.00387  -0.00553  -0.10687  -0.11538  -2.67477
   D11        2.44592   0.00218   0.10970  -0.00509   0.10728   2.55321
   D12        0.23719  -0.00052   0.04904  -0.08472  -0.03782   0.19936
   D13        0.34850   0.00050  -0.05222   0.02452  -0.03054   0.31796
   D14       -2.39081  -0.00174  -0.12931  -0.03613  -0.16643  -2.55725
   D15        2.58000   0.00237   0.01484   0.08372   0.10048   2.68048
   D16       -0.15932   0.00013  -0.06224   0.02307  -0.03541  -0.19473
   D17        0.77652  -0.00192  -0.04666  -0.04524  -0.09393   0.68259
   D18        2.89122  -0.00084  -0.04780  -0.02795  -0.07776   2.81345
   D19       -1.30774  -0.00138  -0.04723  -0.03658  -0.08583  -1.39356
   D20       -2.89113   0.00084   0.04783   0.02849   0.07833  -2.81279
   D21       -0.77643   0.00193   0.04669   0.04578   0.09450  -0.68193
   D22        1.30780   0.00138   0.04726   0.03715   0.08643   1.39424
         Item               Value     Threshold  Converged?
 Maximum Force            0.008120     0.000450     NO 
 RMS     Force            0.002578     0.000300     NO 
 Maximum Displacement     0.272065     0.001800     NO 
 RMS     Displacement     0.069372     0.001200     NO 
 Predicted change in Energy=-2.023521D-03
 GradGradGradGradGradGradGradGradGradGradGradGradGradGradGradGradGradGrad

                          Input orientation:                          
 ---------------------------------------------------------------------
 Center     Atomic      Atomic             Coordinates (Angstroms)
 Number     Number       Type             X           Y           Z
 ---------------------------------------------------------------------
      1          6           0        0.207334    1.039956   -0.145207
      2          6           0        1.637000    1.129912   -0.230587
      3          6           0        1.726820    2.560206   -0.145192
      4          6           0        0.336395    2.430976   -0.516191
      5          1           0       -0.456048    0.299255   -0.516194
      6          1           0        2.359351    0.407768   -0.537896
      7          1           0        2.467412    3.223620   -0.516363
      8          6           0       -0.526700    3.293775   -1.340944
      9          1           0       -1.570838    3.081447   -1.144846
     10          1           0       -0.314275    4.337988   -1.145340
     11          1           0       -0.325988    3.092640   -2.389320
 ---------------------------------------------------------------------
                    Distance matrix (angstroms):
                    1          2          3          4          5
     1  C    0.000000
     2  C    1.435036   0.000000
     3  C    2.149418   1.435654   0.000000
[...]
 ! A17   A(9,8,11)             107.5585         -DE/DX =    0.0                 !
 ! A18   A(10,8,11)            108.6378         -DE/DX =    0.0                 !
 ! D1    D(4,1,2,3)             -0.0028         -DE/DX =    0.0                 !
 ! D2    D(4,1,2,6)            180.0095         -DE/DX =    0.0                 !
 ! D3    D(5,1,2,3)            179.9915         -DE/DX =    0.0                 !
 ! D4    D(5,1,2,6)              0.0038         -DE/DX =    0.0                 !
 ! D5    D(2,1,4,3)              0.0033         -DE/DX =    0.0                 !
 ! D6    D(2,1,4,8)            179.9957         -DE/DX =    0.0                 !
 ! D7    D(5,1,4,3)           -179.991          -DE/DX =    0.0                 !
 ! D8    D(5,1,4,8)              0.0014         -DE/DX =    0.0                 !
 ! D9    D(1,2,3,4)              0.0033         -DE/DX =    0.0                 !
 ! D10   D(1,2,3,7)           -179.9927         -DE/DX =    0.0                 !
 ! D11   D(6,2,3,4)           -180.0088         -DE/DX =    0.0                 !
 ! D12   D(6,2,3,7)             -0.0049         -DE/DX =    0.0                 !
 ! D13   D(2,3,4,1)             -0.0028         -DE/DX =    0.0                 !
 ! D14   D(2,3,4,8)           -179.9947         -DE/DX =    0.0                 !
 ! D15   D(7,3,4,1)            179.9933         -DE/DX =    0.0                 !
 ! D16   D(7,3,4,8)              0.0013         -DE/DX =    0.0                 !
 ! D17   D(1,4,8,9)             59.4982         -DE/DX =    0.0                 !
 ! D18   D(1,4,8,10)          -180.0096         -DE/DX =    0.0                 !
 ! D19   D(1,4,8,11)           -59.5153         -DE/DX =    0.0                 !
 ! D20   D(3,4,8,9)           -120.5128         -DE/DX =    0.0                 !
 ! D21   D(3,4,8,10)            -0.0207         -DE/DX =    0.0                 !
 ! D22   D(3,4,8,11)           120.4736         -DE/DX =    0.0                 !
 --------------------------------------------------------------------------------
 GradGradGradGradGradGradGradGradGradGradGradGradGradGradGradGradGradGrad


 ----------------------------------------------------------------------

 Electric dipole moment (input orientation):
 (Debye = 10**-18 statcoulomb cm , SI units = C m)
                  (au)            (Debye)         (10**-30 SI)
   Tot        0.174344D+00      0.443138D+00      0.147815D+01
   x         -0.138260D+00     -0.351422D+00     -0.117222D+01
   y          0.863549D-01      0.219492D+00      0.732147D+00
   z         -0.618286D-01     -0.157153D+00     -0.524205D+00

 Dipole polarizability, Alpha (input orientation).
 (esu units = cm**3 , SI units = C**2 m**2 J**-1)
 Alpha(0;0):
               (au)            (10**-24 esu)      (10**-40 SI)
   iso        0.417248D+02      0.618298D+01      0.687950D+01
   aniso      0.333489D+02      0.494179D+01      0.549849D+01
   xx         0.545148D+02      0.807825D+01      0.898827D+01
   yx        -0.139968D+01     -0.207412D+00     -0.230776D+00
   yy         0.447962D+02      0.663812D+01      0.738590D+01
   zx         0.117403D+02      0.173973D+01      0.193571D+01
   zy        -0.431566D+01     -0.639514D+00     -0.711556D+00
   zz         0.258636D+02      0.383258D+01      0.426432D+01

 First dipole hyperpolarizability, Beta (input orientation).
 ||, _|_  parallel and perpendicular components, (z) with respect to z axis,
 vector components x,y,z.  Values do not include the 1/n! factor of 1/2.
 (esu units = statvolt**-1 cm**4 , SI units = C**3 m**3 J**-2)
 Beta(0;0,0):
               (au)            (10**-30 esu)      (10**-50 SI)
   || (z)    -0.975296D+00     -0.842580D-02     -0.312715D-02
   _|_(z)    -0.325099D+00     -0.280860D-02     -0.104238D-02
   x         -0.204451D+02     -0.176630D+00     -0.655544D-01
   y         -0.136357D+02     -0.117802D+00     -0.437209D-01
   z         -0.487648D+01     -0.421290D-01     -0.156358D-01
   ||         0.501084D+01      0.432898D-01      0.160666D-01
   xxx       -0.762879D+01     -0.659068D-01     -0.244606D-01
   xxy       -0.826931D+01     -0.714404D-01     -0.265144D-01
   yxy        0.181076D+02      0.156435D+00      0.580594D-01
   yyy        0.941912D+01      0.813739D-01      0.302011D-01
   xxz        0.186224D+02      0.160883D+00      0.597102D-01
   yxz       -0.105767D+02     -0.913742D-01     -0.339126D-01
   yyz        0.483574D+01      0.417771D-01      0.155051D-01
   zxz       -0.172938D+02     -0.149405D+00     -0.554503D-01
   zyz       -0.569504D+01     -0.492007D-01     -0.182603D-01
   zzz       -0.250836D+02     -0.216703D+00     -0.804272D-01

 ----------------------------------------------------------------------

 Dipole orientation:
     6          1.79192662         -1.04304993          0.57919665
     6          2.47125037         -2.23673511         -1.50988234
     6          3.71877930         -4.43942005          0.13111615
     6          3.04836877         -3.26177600          2.23557406
     1          0.82061130          0.66907081          1.00852744
     1          2.27346381         -1.88359032         -3.48347329
     1          4.69042080         -6.15132654         -0.29792871
     6          3.29797861         -3.70707014          4.99514958
     1          1.44781506         -3.80407088          5.88055290
     1          4.29145275         -5.46032433          5.36111251
     1          4.33006487         -2.17020315          5.88355083

 Electric dipole moment (dipole orientation):
 (Debye = 10**-18 statcoulomb cm , SI units = C m)
                  (au)            (Debye)         (10**-30 SI)
   Tot        0.174344D+00      0.443138D+00      0.147815D+01
   x          0.000000D+00      0.000000D+00      0.000000D+00
   y          0.000000D+00      0.000000D+00      0.000000D+00
   z          0.174344D+00      0.443138D+00      0.147815D+01

 Dipole polarizability, Alpha (dipole orientation).
 (esu units = cm**3 , SI units = C**2 m**2 J**-1)
 Alpha(0;0):
               (au)            (10**-24 esu)      (10**-40 SI)
   iso        0.417248D+02      0.618298D+01      0.687950D+01
   aniso      0.333489D+02      0.494179D+01      0.549849D+01
   xx         0.272529D+02      0.403846D+01      0.449339D+01
   yx        -0.108132D+02     -0.160235D+01     -0.178286D+01
   yy         0.401752D+02      0.595336D+01      0.662400D+01
   zx        -0.221134D+01     -0.327686D+00     -0.364600D+00
   zy         0.382555D+01      0.566888D+00      0.630748D+00
   zz         0.577464D+02      0.855714D+01      0.952110D+01

 First dipole hyperpolarizability, Beta (dipole orientation).
 ||, _|_  parallel and perpendicular components, (z) with respect to z axis,
 vector components x,y,z.  Values do not include the 1/n! factor of 1/2.
 (esu units = statvolt**-1 cm**4 , SI units = C**3 m**3 J**-2)
 Beta(0;0,0):
               (au)            (10**-30 esu)      (10**-50 SI)
   || (z)     0.223781D+01      0.193329D-01      0.717522D-02
   _|_(z)     0.745936D+00      0.644431D-02      0.239174D-02
   x         -0.110400D+02     -0.953772D-01     -0.353983D-01
   y          0.195099D+02      0.168551D+00      0.625559D-01
   z          0.111890D+02      0.966646D-01      0.358761D-01
   ||         0.501084D+01      0.432898D-01      0.160666D-01
   xxx       -0.145126D+02     -0.125378D+00     -0.465327D-01
   xxy       -0.630867D+00     -0.545020D-02     -0.202279D-02
   yxy        0.166821D+02      0.144121D+00      0.534890D-01
   yyy       -0.335134D+01     -0.289530D-01     -0.107456D-01
   xxz        0.220419D+02      0.190425D+00      0.706744D-01
   yxz        0.809304D+01      0.699176D-01      0.259492D-01
   yyz        0.123684D+02      0.106853D+00      0.396575D-01
   zxz       -0.584952D+01     -0.505353D-01     -0.187557D-01
   zyz        0.104855D+02      0.905867D-01      0.336204D-01
   zzz       -0.306806D+02     -0.265057D+00     -0.983732D-01

 ----------------------------------------------------------------------
 1\1\GINC-IISERK51\Freq\RHF\3-21G\C5H6\GAUSSIAN\09-Jun-2025\0\\#N Geom=
 AllCheck Guess=TCheck SCRF=Check GenChk RHF/3-21G Freq\\Optimisation\\
 0,1\C,0.4250044616,0.878766202,-0.5872918856\C,1.6774485351,0.95270914
 39,-0.1674501739\C,1.6804635894,2.5287634509,-0.421596598\C,0.42655403
 44,2.4671703836,-0.8438603544\H,-0.2932509739,0.1003265857,-0.70900745
 71\H,2.39541275,0.2520337109,0.1933639705\H,2.3986586327,3.3072352239,
 -0.3001277267\C,-0.5924198918,3.421742897,-1.349771225\H,-1.4736264165
 ,3.4119531734,-0.714077582\H,-0.1953188146,4.4298606055,-1.375822278\H
 ,-0.9084632863,3.1469828733,-2.3524381996\\Version=EM64L-G16RevB.01\St
 ate=1-A\HF=-191.5989082\RMSD=8.182e-10\RMSF=3.406e-05\ZeroPoint=0.0965
 772\Thermal=0.1014941\Dipole=-0.1382601,0.0863549,-0.0618286\DipoleDer
 iv=-0.1145206,-0.0636928,0.0637651,0.1075898,-0.0299663,-0.0016826,0.0
 360547,-0.0607134,-0.2472571,-0.0426777,0.06901,0.0409993,-0.050588,0.
 060818,-0.0586811,0.0603022,-0.0174574,-0.1705339,-0.208698,0.0087647,
 0.0263897,0.0741946,-0.0012828,-0.0210735,0.0157785,-0.0436266,-0.2768
 673,0.105923,0.060622,0.0618746,-0.1107819,0.171032,-0.0824296,0.08970
 86,-0.0233099,-0.0672727,0.068456,-0.0497337,-0.0476557,-0.0947937,-0.
 0581428,0.0139555,-0.0403745,0.02947,0.2113061,0.0687055,0.0421733,-0.
 0607798,0.1031562,-0.042863,0.0789664,-0.0706037,0.0579063,0.1915328,0
 .0716645,-0.0451463,-0.0501019,-0.1036386,-0.0617807,0.0128532,-0.0406
 235,0.0330273,0.2188878,0.0672283,-0.0063404,-0.0329909,0.0436249,-0.0
 321798,0.0471248,-0.0411777,0.0299007,0.1468786,-0.082228,0.0322815,0.
 0735517,0.0189229,0.0691467,0.0354217,0.1004285,0.0058931,0.0076256,0.
 0249473,-0.0631676,-0.0137271,-0.0031594,-0.1264118,0.0346115,-0.02342
 34,0.0139242,0.0840088,0.0411996,0.0152294,-0.061325,0.0154733,0.05163
 05,-0.0590664,-0.0860699,-0.0250141,-0.0983087\Polar=54.5147618,-1.399
 6824,44.79623,11.7402748,-4.3156567,25.8635561\PolarDeriv=-5.7291931,1
 .5359586,2.5770409,-0.6394499,0.6282676,0.3544471,0.9701269,1.779602,-
 7.6258252,-0.6355732,1.5769376,-0.9703788,1.1654375,-0.0465142,1.66674
 72,-4.4100557,-1.6764802,-2.5635871,5.8525892,1.6290055,-2.4616863,0.0
 942494,1.0109362,-1.0024234,0.674554,-0.8919116,-4.8331297,1.2547134,0
 .4054938,0.490555,-1.5869743,1.6179495,-0.151191,4.2828319,0.3052205,3
 .1605932,9.8142829,-3.1904987,-1.7872423,1.8175214,-0.9043725,-0.00902
 24,-1.2091717,-0.6185891,4.5276925,0.5515282,-0.8504247,1.0141694,-0.6
 328485,-0.0927554,-1.2722184,5.9346887,0.4010644,3.9666433,-10.9843229
 ,1.3994821,0.6658,-2.2061652,0.2411172,-0.3586223,2.3000851,-1.1150277
 ,8.8569439,0.2640104,-1.8198627,-0.2238132,-0.6675989,-0.2623827,-1.10
 4002,-5.247774,0.3916943,-3.6756778,-3.8184489,-3.1932525,-3.2454722,-
 0.6341442,-0.0601746,-0.3556454,-2.1256797,-3.6957169,-5.6653618,-0.06
 10176,-0.6706706,-0.2835497,-0.7138516,-0.0311888,-0.702358,-0.6260386
 ,-1.4375655,0.1641507,4.7320578,-3.2041873,2.9065389,1.9131969,-1.0111
 122,0.791916,-2.3900073,3.8605952,-4.5345205,-1.2201154,1.7446727,-1.0
 292566,1.6298762,-1.0940518,1.2245007,1.2642156,-2.1357533,1.3370949,4
 .7924921,3.0910514,2.5540456,0.9987935,0.142957,0.4902863,2.7249611,3.
 8263229,4.6114424,0.2265287,0.8886509,0.3327125,0.9891957,-0.030879,0.
 6303899,0.6758397,1.416611,-0.1604555,7.686653,-1.9576059,-3.0395281,-
 0.6800755,0.5925454,2.6646282,-0.6259989,-0.7424248,-5.571389,0.504243
 8,0.8015579,1.859473,-1.9043837,0.69482,-0.2956455,5.6076408,0.0062811
 ,5.423465,-9.4195078,1.7988331,-0.2581063,2.0720419,-0.3064082,-0.9704
 126,0.2198279,-2.0352569,1.2380459,-0.4139643,1.3712005,-0.5678075,2.6
 644022,-0.8999622,0.7487408,-3.5490567,0.2134894,2.2342376,0.9478947,1
 .972686,1.6217587,0.2888815,-0.4952541,-0.065654,0.1470625,0.0665142,9
 .2333194,-0.0861968,-1.0443666,0.2384124,0.5695052,-0.236949,-0.142073
 2,-0.0905248,2.3600314,-1.1193345,-3.8744969,0.1185277,0.4668511,-3.02
 48498,0.1614982,-1.5394977,-0.6857599,-0.4341073,-0.2372179,-0.3841572
 ,-2.4031889,-0.8605164,-1.5127599,0.3819137,-0.6028905,-3.8417669,0.15
 54069,-8.7671299\HyperPolar=-7.6287871,-8.2693098,18.1075809,9.4191193
 ,18.6224061,-10.5766745,4.8357444,-17.2938278,-5.695036,-25.0836439\Qu
 adrupole=1.2158205,1.2199191,-2.4357397,0.0032475,1.4715662,-0.6906539
 \PG=C01 [X(C5H6)]\NImag=0\\0.89679078,0.23294733,0.53322739,0.22665133
 ,0.01507934,0.20578545,-0.57974084,-0.00963701,-0.16726672,0.90068391,
 -0.04278074,-0.04979421,-0.02127666,-0.14493570,0.49550327,-0.16189466
 ,-0.00985285,-0.14429217,0.28638277,-0.10781026,0.25413144,-0.04704604
 ,-0.04895664,-0.01805024,-0.05156336,0.02420067,-0.00396560,0.88676568
 ,-0.05225545,-0.11871130,0.00578307,-0.03300121,-0.13690751,0.00246484
 ,0.22762834,0.54665768,-0.01751479,0.00692387,0.02114078,0.00529417,0.
 02218653,-0.05316752,0.22387434,0.01105071,0.20574334,-0.05485971,-0.0
 3875477,0.00595759,-0.05464496,0.04641190,-0.03543384,-0.56858241,-0.0
 0460937,-0.16360774,0.88184912,0.02731790,-0.12704857,0.02124904,0.044
 14650,-0.10510046,0.03649665,-0.04445066,-0.05220356,-0.02172708,-0.08
 595436,0.46483861,-0.00473921,-0.00152894,-0.05534829,-0.03507269,0.03
 728528,0.00822628,-0.15716247,-0.00799016,-0.14467101,0.25694970,-0.07
 626560,0.27779996,-0.21892127,-0.15924172,-0.03566497,0.00097972,-0.02
 401432,-0.00092074,-0.00361628,-0.00018466,-0.00399629,0.00489685,0.00
 517322,0.00122679,0.21553875,-0.16582415,-0.24579342,-0.02400336,0.004
 11022,0.00436218,0.00312557,-0.00566450,-0.00481662,0.00013108,-0.0102
 2608,0.00694992,-0.00482816,0.17930166,0.24014800,-0.03460098,-0.02173
 604,-0.04918070,-0.00546872,-0.00657079,0.01409650,-0.00311033,0.00202
 020,0.00666149,0.00371820,0.00048422,0.00011656,0.03678382,0.02696864,
 0.03304385,0.00093067,0.02297343,-0.00910951,-0.21927954,0.13991390,-0
 .08275648,0.00594317,-0.00427907,0.00269831,-0.00441436,-0.00171666,-0
 .00432456,-0.00102281,-0.00002733,0.00195583,0.21603438,-0.00568928,0.
 00727763,-0.00045589,0.14653233,-0.21266762,0.07765913,0.01168427,0.00
 671936,0.00295756,0.00303015,-0.00497600,0.00329535,0.00060694,0.00076
 482,-0.00099656,-0.15828971,0.20398863,-0.00447745,0.00942699,0.013511
 70,-0.08382037,0.07537100,-0.08594028,0.00011346,-0.00254162,0.0005735
 9,-0.00509258,0.00166081,0.00691174,0.00185465,-0.00121513,-0.00584979
 ,0.09112035,-0.08336144,0.07086242,-0.00386152,-0.00049058,-0.00396645
 ,0.00562902,0.00568733,0.00158313,-0.21947139,-0.15940866,-0.03598658,
 0.00004136,-0.02475437,-0.00099150,0.00154172,-0.00142415,0.00039768,0
 .00011017,0.00032371,-0.00004335,0.21638651,-0.00586759,-0.00402508,-0
 .00009554,-0.01006847,0.00591045,-0.00469160,-0.16490969,-0.24467841,-
 0.02372055,0.00375754,0.00306609,0.00315443,-0.00135809,0.00048415,-0.
 00037558,-0.00032643,-0.00221870,0.00026005,0.17914491,0.23991223,-0.0
 0309457,0.00175826,0.00652398,0.00413533,0.00073685,-0.00033119,-0.035
 09523,-0.02182286,-0.04872738,-0.00561030,-0.00667367,0.01369429,0.000
 38615,-0.00039773,0.00125588,0.00006196,0.00048443,0.00002676,0.037157
 38,0.02684781,0.03287210,0.00776005,-0.00140599,0.00278591,-0.00199153
 ,-0.00688083,-0.00284216,-0.00511612,0.02393511,-0.01184307,-0.1715809
 1,0.05437010,-0.03767324,0.00087418,-0.00117440,0.00049354,0.00192398,
 0.00139077,0.00043333,-0.00015084,0.00022869,0.00207590,0.57543336,0.0
 1445304,0.00303903,0.00454813,0.00186929,-0.00381406,0.00279765,-0.003
 98263,0.00460990,0.00079143,0.06166270,-0.16600560,0.03391916,-0.00031
 101,-0.00146976,0.00012933,0.00169339,0.00174820,0.00030230,-0.0000361
 1,0.00199893,-0.00135304,0.04953002,0.59676814,0.00021937,-0.00092133,
 0.00056901,-0.00425944,-0.00022234,0.00805333,-0.00731910,0.01041608,0
 .01377240,-0.03885669,0.03140274,-0.10632180,0.00035391,-0.00016807,0.
 00014315,0.00038542,0.00019921,0.00011255,0.00211824,-0.00126132,-0.00
 534554,-0.01489100,0.01686093,0.58751713,0.00072321,0.00120450,-0.0005
 9750,0.00020643,0.00059124,-0.00149850,0.00172030,0.00122843,-0.000500
 46,-0.02948899,0.00037050,0.01254228,-0.00007913,0.00031839,0.00003261
 ,0.00012948,0.00044996,0.00007649,-0.00026932,0.00016770,0.00074598,-0
 .23265915,-0.00414338,0.13281290,0.26065808,-0.00188352,-0.00056973,0.
 00034986,-0.00021639,0.00170733,0.00079527,0.00057971,-0.00082735,0.00
 236429,0.02572632,0.00025234,-0.01726729,0.00003367,-0.00015852,-0.000
 28477,-0.00014845,-0.00045028,-0.00019700,0.00021861,-0.00033978,-0.00
 017606,-0.00303293,-0.05896167,0.00327750,0.00007759,0.05884331,0.0009
 6390,-0.00011035,-0.00008994,0.00031605,-0.00050758,-0.00085631,-0.000
 47877,0.00101638,-0.00168029,-0.01707571,-0.00062014,0.01177487,0.0000
 2919,-0.00009696,0.00007727,0.00005493,0.00012411,0.00008722,-0.000113
 83,0.00005416,0.00031958,0.13171749,0.00379359,-0.15142299,-0.14525284
 ,-0.00487658,0.16536222,-0.00232749,0.00033346,-0.00145603,0.00040421,
 0.00100056,0.00002434,0.00063315,-0.00093136,0.00044606,0.01221326,0.0
 3291836,-0.00055552,-0.00020296,0.00045696,-0.00009280,-0.00054543,-0.
 00039413,-0.00005786,-0.00022347,-0.00065271,0.00000444,-0.09908104,-0
 .10000425,0.00162170,-0.01116181,-0.02988638,-0.00106423,0.10528682,0.
 00102377,0.00305570,0.00013932,0.00072547,-0.00067747,0.00033821,0.001
 67241,0.00174432,0.00025845,-0.01088640,-0.02803531,0.00051970,0.00016
 541,-0.00046582,0.00010843,0.00048606,0.00017178,0.00010860,0.00071285
 ,0.00012499,0.00023643,-0.09705940,-0.30007433,0.00584556,-0.00022151,
 0.00120244,0.00037545,0.10668291,0.33120927,-0.00156805,-0.00009804,0.
 00121286,0.00006910,0.00043318,-0.00018300,0.00002605,-0.00064016,-0.0
 0011324,0.00652902,0.01563005,-0.00188885,-0.00004569,0.00020907,-0.00
 019762,-0.00020058,-0.00019486,-0.00022969,-0.00021683,-0.00023390,0.0
 0003432,0.00114531,0.00482899,-0.05728034,0.00770845,0.02268990,-0.000
 56156,0.00002453,-0.00783607,0.05647691,0.00055215,0.00102799,0.000716
 58,-0.00068307,0.00080600,0.00132175,0.00033330,0.00187790,0.00113605,
 -0.01542926,-0.00742053,-0.03019957,0.00001123,0.00015338,-0.00010885,
 0.00019030,0.00035500,-0.00010669,0.00026776,-0.00011587,-0.00076705,-
 0.07541198,-0.02073108,-0.07218531,0.01022090,0.00853178,0.03090382,-0
 .00499524,-0.00330156,-0.01347130,0.08494391,-0.00144133,-0.00065744,-
 0.00131729,0.00047496,0.00147811,-0.00132260,0.00219872,-0.00158652,-0
 .00121629,0.00984239,0.00826254,0.02970622,-0.00017108,-0.00000492,0.0
 0025290,-0.00027913,-0.00035782,0.00018543,0.00002648,-0.00023487,0.00
 035957,-0.01990115,-0.07783879,-0.06542896,-0.00004341,-0.00069809,0.0
 0084793,-0.00952343,-0.00825558,-0.03478817,0.01881698,0.07989339,0.00
 005512,0.00105909,0.00016733,-0.00030948,0.00037478,0.00026293,0.00116
 788,0.00024350,0.00046784,-0.00747766,-0.00163701,-0.01029375,-0.00000
 681,0.00027505,-0.00016658,0.00011433,0.00028897,-0.00006623,0.0000621
 0,0.00006204,-0.00032281,-0.07140201,-0.06661848,-0.28979690,-0.006069
 42,-0.00667512,-0.02301008,0.00110537,-0.00009408,0.00273021,0.0827605
 7,0.07272126,0.32002803\\-0.00000458,0.00008950,-0.00002143,-0.0000171
 9,-0.00007592,0.00002324,-0.00000355,0.00010302,-0.00002518,0.00001121
 ,-0.00009907,0.00003324,0.00001080,0.00000661,-0.00000101,0.00000963,-
 0.00001047,-0.00000065,-0.00000764,-0.00001359,-0.00000401,0.00000305,
 0.00000765,-0.00001003,-0.00000024,-0.00000114,0.00000210,-0.00000177,
 -0.00000827,0.00000228,0.00000028,0.00000168,0.00000145\\\@


 MATERIAL COPIED FROM ONE SCHOLARLY BOOK WITHOUT CREDIT COMPRISES PLAGIARISM.
 MATERIAL COPIED FROM TWO SCHOLARLY BOOKS COMPRISES AN ESSAY.
 MATERIAL COPIED FROM THREE SCHOLARLY BOOKS COMPRISES A DISSERTATION.
 MATERIAL COPIED FROM FOUR SCHOLARLY BOOKS COMPRISES A FIFTH SCHOLARLY BOOK.

                               -- C&EN, 25 FEB 1980
 Job cpu time:       0 days  0 hours  0 minutes  1.4 seconds.
 Elapsed time:       0 days  0 hours  0 minutes  1.3 seconds.
 File lengths (MBytes):  RWF=      9 Int=      0 D2E=      0 Chk=      2 Scr=      1
 Normal termination of Gaussian 16 at Mon Jun  9 20:55:00 2025.
