 Entering Gaussian System, Link 0=g16
 Input=/home/gaussian/Documents/Summer_Internship/Acid_Base_adduct/Adduct/2,6 DMP - BCl3/26DMP_BCl3_adduct_sp.com
 Output=/home/gaussian/Documents/Summer_Internship/Acid_Base_adduct/Adduct/2,6 DMP - BCl3/26DMP_BCl3_adduct_sp.log
 Initial command:
 /usr/local/g16/l1.exe "/home/gaussian/tmp/Gau-80361.inp" -scrdir="/home/gaussian/tmp/"
 Entering Link 1 = /usr/local/g16/l1.exe PID=     80364.
  
 Copyright (c) 1988-2017, Gaussian, Inc.  All Rights Reserved.
  
 This is part of the Gaussian(R) 16 program.  It is based on
 the Gaussian(R) 09 system (copyright 2009, Gaussian, Inc.),
 the Gaussian(R) 03 system (copyright 2003, Gaussian, Inc.),
 the Gaussian(R) 98 system (copyright 1998, Gaussian, Inc.),
 the Gaussian(R) 94 system (copyright 1995, Gaussian, Inc.),
 the Gaussian 92(TM) system (copyright 1992, Gaussian, Inc.),
 the Gaussian 90(TM) system (copyright 1990, Gaussian, Inc.),
 the Gaussian 88(TM) system (copyright 1988, Gaussian, Inc.),
 the Gaussian 86(TM) system (copyright 1986, Carnegie Mellon
 University), and the Gaussian 82(TM) system (copyright 1983,
 Carnegie Mellon University). Gaussian is a federally registered
 trademark of Gaussian, Inc.
  
 This software contains proprietary and confidential information,
 including trade secrets, belonging to Gaussian, Inc.
  
 This software is provided under written license and may be
 used, copied, transmitted, or stored only in accord with that
 written license.
  
 The following legend is applicable only to US Government
 contracts under FAR:
  
                    RESTRICTED RIGHTS LEGEND
  
 Use, reproduction and disclosure by the US Government is
 subject to restrictions as set forth in subparagraphs (a)
 and (c) of the Commercial Computer Software - Restricted
 Rights clause in FAR 52.227-19.
  
 Gaussian, Inc.
 340 Quinnipiac St., Bldg. 40, Wallingford CT 06492
  
  
 ---------------------------------------------------------------
 Warning -- This program may not be used in any manner that
 competes with the business of Gaussian, Inc. or will provide
 assistance to any competitor of Gaussian, Inc.  The licensee
 of this program is prohibited from giving any competitor of
 Gaussian, Inc. access to this program.  By using this program,
 the user acknowledges that Gaussian, Inc. is engaged in the
 business of creating and licensing software in the field of
 computational chemistry and represents and warrants to the
 licensee that it is not a competitor of Gaussian, Inc. and that
 it will not use this program in any manner prohibited above.
 ---------------------------------------------------------------
  

 Cite this work as:
 Gaussian 16, Revision B.01,
 M. J. Frisch, G. W. Trucks, H. B. Schlegel, G. E. Scuseria, 
 M. A. Robb, J. R. Cheeseman, G. Scalmani, V. Barone, 
 G. A. Petersson, H. Nakatsuji, X. Li, M. Caricato, A. V. Marenich, 
 J. Bloino, B. G. Janesko, R. Gomperts, B. Mennucci, H. P. Hratchian, 
 J. V. Ortiz, A. F. Izmaylov, J. L. Sonnenberg, D. Williams-Young, 
 F. Ding, F. Lipparini, F. Egidi, J. Goings, B. Peng, A. Petrone, 
 T. Henderson, D. Ranasinghe, V. G. Zakrzewski, J. Gao, N. Rega, 
 G. Zheng, W. Liang, M. Hada, M. Ehara, K. Toyota, R. Fukuda, 
 J. Hasegawa, M. Ishida, T. Nakajima, Y. Honda, O. Kitao, H. Nakai, 
 T. Vreven, K. Throssell, J. A. Montgomery, Jr., J. E. Peralta, 
 F. Ogliaro, M. J. Bearpark, J. J. Heyd, E. N. Brothers, K. N. Kudin, 
 V. N. Staroverov, T. A. Keith, R. Kobayashi, J. Normand, 
 K. Raghavachari, A. P. Rendell, J. C. Burant, S. S. Iyengar, 
 J. Tomasi, M. Cossi, J. M. Millam, M. Klene, C. Adamo, R. Cammi, 
 J. W. Ochterski, R. L. Martin, K. Morokuma, O. Farkas, 
 J. B. Foresman, and D. J. Fox, Gaussian, Inc., Wallingford CT, 2016.
 
 ******************************************
 Gaussian 16:  EM64L-G16RevB.01 20-Dec-2017
                16-Jun-2025 
 ******************************************
 %chk=26DMP_BCl3_adduct_sp.chk
 -------------------------------------
 # hf/3-21g pop=full geom=connectivity
 -------------------------------------
 1/38=1,57=2,172=1/1;
 2/12=2,17=6,18=5,40=1/2;
 3/5=5,11=9,25=1,30=1/1,2,3;
 4//1;
 5/5=2,38=5/2;
 6/7=3,28=1/1;
 99/5=1,9=1/99;
 -------------------
 Title Card Required
 -------------------
 Symbolic Z-matrix:
 Charge =  0 Multiplicity = 1
 C                    -1.26586  -1.17932   0.07866 
 C                    -2.62152  -1.18369  -0.17065 
 C                    -3.29912  -0.00007  -0.35692 
 C                    -2.62155   1.18365  -0.17076 
 C                    -1.26596   1.17938   0.07859 
 N                    -0.57363   0.00001   0.0621 
 H                    -4.34731  -0.00009  -0.57725 
 H                    -3.13343  -2.12149  -0.18801 
 H                    -3.13355   2.12141  -0.18818 
 C                    -0.63654  -2.5       0.47859 
 H                    -1.38799  -3.05923   1.02091 
 H                    -0.32762  -3.06932  -0.38362 
 H                     0.21475  -2.35633   1.12199 
 C                    -0.63665   2.50004   0.47869 
 H                     0.21459   2.35626   1.12212 
 H                    -0.32773   3.06952  -0.3834 
 H                    -1.38814   3.05916   1.02108 
 B                     1.04628   0.00004  -0.04221 
 Cl                    1.6929   -1.49828  -1.02408 
 Cl                    1.70138  -0.00035   1.73661 
 Cl                    1.69299   1.49862  -1.02351 
 
                          Input orientation:                          
 ---------------------------------------------------------------------
 Center     Atomic      Atomic             Coordinates (Angstroms)
 Number     Number       Type             X           Y           Z
 ---------------------------------------------------------------------
      1          6           0       -1.265864   -1.179320    0.078664
      2          6           0       -2.621516   -1.183686   -0.170653
      3          6           0       -3.299115   -0.000065   -0.356916
      4          6           0       -2.621548    1.183651   -0.170760
      5          6           0       -1.265960    1.179377    0.078592
      6          7           0       -0.573632    0.000009    0.062103
      7          1           0       -4.347313   -0.000086   -0.577248
      8          1           0       -3.133426   -2.121493   -0.188007
      9          1           0       -3.133545    2.121411   -0.188178
     10          6           0       -0.636535   -2.500003    0.478592
     11          1           0       -1.387992   -3.059232    1.020906
     12          1           0       -0.327623   -3.069321   -0.383617
     13          1           0        0.214747   -2.356326    1.121989
     14          6           0       -0.636652    2.500042    0.478688
     15          1           0        0.214594    2.356261    1.122121
     16          1           0       -0.327728    3.069517   -0.383401
     17          1           0       -1.388142    3.059156    1.021078
     18          5           0        1.046276    0.000042   -0.042205
     19         17           0        1.692904   -1.498278   -1.024082
     20         17           0        1.701375   -0.000345    1.736614
     21         17           0        1.692992    1.498615   -1.023508
 ---------------------------------------------------------------------
                    Distance matrix (angstroms):
                    1          2          3          4          5
     1  C    0.000000
     2  C    1.378394   0.000000
     3  C    2.390498   1.376515   0.000000
     4  C    2.735639   2.367337   1.376566   0.000000
     5  C    2.358697   2.735639   2.390496   1.378337   0.000000
     6  N    1.367580   2.376792   2.757505   2.376803   1.367662
     7  H    3.363947   2.131808   1.071105   2.131837   3.363926
     8  H    2.108694   1.068567   2.134582   3.344592   3.801874
     9  H    3.801876   3.344570   2.134607   1.068568   2.108665
    10  C    1.516641   2.468676   3.746611   4.234530   3.754199
    11  H    2.106372   2.541469   3.861255   4.576438   4.343806
    12  H    2.160117   2.977065   4.272097   4.836855   4.375563
    13  H    2.160111   3.330225   4.481780   4.716694   3.972703
    14  C    3.754149   4.234523   3.746662   2.468700   1.516661
    15  H    3.972517   4.716568   4.481738   3.330204   2.160104
    16  H    4.375639   4.836989   4.272257   2.977132   2.160173
    17  H    4.343705   4.576368   3.861285   2.541513   2.106366
    18  B    2.598364   3.856217   4.356772   3.856214   2.598434
    19  Cl   3.173656   4.409255   5.254522   5.151252   4.140121
    20  Cl   3.597678   4.870867   5.421049   4.871097   3.598035
    21  Cl   4.140163   5.151415   5.254666   4.409267   3.173631
                    6          7          8          9         10
     6  N    0.000000
     7  H    3.827458   0.000000
     8  H    3.334047   2.474954   0.000000
     9  H    3.334088   2.474946   4.242904   0.000000
    10  C    2.535247   4.597201   2.611913   5.295008   0.000000
    11  H    3.307785   4.546433   2.321070   5.598920   1.082372
    12  H    3.111266   5.061186   2.968025   5.903820   1.078403
    13  H    2.701336   5.408481   3.602985   5.742624   1.076700
    14  C    2.535287   4.597243   5.294993   2.612000   5.000045
    15  H    2.701270   5.408440   5.742469   3.603064   4.972107
    16  H    3.111402   5.061334   5.903957   2.968101   5.644284
    17  H    3.307785   4.546460   5.598842   2.321228   5.635907
    18  B    1.623263   5.420062   4.689571   4.689607   3.058318
    19  Cl   2.926063   6.239268   4.937700   6.090607   2.947502
    20  Cl   2.824826   6.476155   5.619496   5.619886   3.646469
    21  Cl   2.926082   6.239434   6.090776   4.937723   4.865382
                   11         12         13         14         15
    11  H    0.000000
    12  H    1.759878   0.000000
    13  H    1.753017   1.751964   0.000000
    14  C    5.635960   5.644189   4.972226   0.000000
    15  H    5.648548   5.656694   4.712587   1.076707   0.000000
    16  H    6.376347   6.138838   5.656876   1.078394   1.751983
    17  H    6.118388   6.376214   5.648618   1.082374   1.753007
    18  B    4.051546   3.380111   2.756675   3.058362   2.756650
    19  Cl   4.013785   2.638352   2.743504   4.865358   4.652855
    20  Cl   4.406043   4.246272   2.852801   3.647010   2.853368
    21  Cl   5.869077   5.035711   4.652842   2.947319   2.743163
                   16         17         18         19         20
    16  H    0.000000
    17  H    1.759871   0.000000
    18  B    3.380233   4.051560   0.000000
    19  Cl   5.035690   5.869048   1.904514   0.000000
    20  Cl   4.246855   4.406547   1.895614   3.140910   0.000000
    21  Cl   2.638329   4.013603   1.904447   2.996893   3.140896
                   21
    21  Cl   0.000000
 Stoichiometry    C7H9BCl3N
 Framework group  C1[X(C7H9BCl3N)]
 Deg. of freedom    57
 Full point group                 C1      NOp   1
 Largest Abelian subgroup         C1      NOp   1
 Largest concise Abelian subgroup C1      NOp   1
                         Standard orientation:                         
 ---------------------------------------------------------------------
 Center     Atomic      Atomic             Coordinates (Angstroms)
 Number     Number       Type             X           Y           Z
 ---------------------------------------------------------------------
      1          6           0       -1.265864   -1.179320    0.078664
      2          6           0       -2.621516   -1.183686   -0.170653
      3          6           0       -3.299115   -0.000065   -0.356916
      4          6           0       -2.621548    1.183651   -0.170760
      5          6           0       -1.265960    1.179377    0.078592
      6          7           0       -0.573632    0.000009    0.062103
      7          1           0       -4.347313   -0.000086   -0.577248
      8          1           0       -3.133426   -2.121493   -0.188007
      9          1           0       -3.133545    2.121411   -0.188178
     10          6           0       -0.636535   -2.500003    0.478592
     11          1           0       -1.387992   -3.059232    1.020906
     12          1           0       -0.327623   -3.069321   -0.383617
     13          1           0        0.214747   -2.356326    1.121989
     14          6           0       -0.636652    2.500042    0.478688
     15          1           0        0.214594    2.356261    1.122121
     16          1           0       -0.327728    3.069517   -0.383401
     17          1           0       -1.388142    3.059156    1.021078
     18          5           0        1.046276    0.000042   -0.042205
     19         17           0        1.692904   -1.498278   -1.024082
     20         17           0        1.701375   -0.000345    1.736614
     21         17           0        1.692992    1.498615   -1.023508
 ---------------------------------------------------------------------
 Rotational constants (GHZ):           0.8096790           0.5644102           0.4450489
 Standard basis: 3-21G (6D, 7F)
 There are   138 symmetry adapted cartesian basis functions of A   symmetry.
 There are   138 symmetry adapted basis functions of A   symmetry.
   138 basis functions,   243 primitive gaussians,   138 cartesian basis functions
    57 alpha electrons       57 beta electrons
       nuclear repulsion energy      1016.5706271356 Hartrees.
 NAtoms=   21 NActive=   21 NUniq=   21 SFac= 1.00D+00 NAtFMM=   60 NAOKFM=F Big=F
 Integral buffers will be    131072 words long.
 Raffenetti 1 integral format.
 Two-electron integral symmetry is turned on.
 One-electron integrals computed using PRISM.
 NBasis=   138 RedAO= T EigKep=  2.52D-03  NBF=   138
 NBsUse=   138 1.00D-06 EigRej= -1.00D+00 NBFU=   138
 ExpMin= 1.24D-01 ExpMax= 1.38D+03 ExpMxC= 1.38D+03 IAcc=3 IRadAn=         5 AccDes= 0.00D+00
 Harris functional with IExCor=  205 and IRadAn=       5 diagonalized for initial guess.
 HarFok:  IExCor=  205 AccDes= 0.00D+00 IRadAn=         5 IDoV= 1 UseB2=F ITyADJ=14
 ICtDFT=  3500011 ScaDFX=  1.000000  1.000000  1.000000  1.000000
 FoFCou: FMM=F IPFlag=           0 FMFlag=      100000 FMFlg1=           0
         NFxFlg=           0 DoJE=T BraDBF=F KetDBF=T FulRan=T
         wScrn=  0.000000 ICntrl=       500 IOpCl=  0 I1Cent=   200000004 NGrid=           0
         NMat0=    1 NMatS0=      1 NMatT0=    0 NMatD0=    1 NMtDS0=    0 NMtDT0=    0
 Petite list used in FoFCou.
 Keep R1 ints in memory in canonical form, NReq=47342355.
 Requested convergence on RMS density matrix=1.00D-08 within 128 cycles.
 Requested convergence on MAX density matrix=1.00D-06.
 Requested convergence on             energy=1.00D-06.
 No special actions if energy rises.
 SCF Done:  E(RHF) =  -1719.54063693     A.U. after   13 cycles
            NFock= 13  Conv=0.67D-08     -V/T= 2.0010

 **********************************************************************

            Population analysis using the SCF Density.

 **********************************************************************

 Orbital symmetries:
       Occupied  (A) (A) (A) (A) (A) (A) (A) (A) (A) (A) (A) (A)
                 (A) (A) (A) (A) (A) (A) (A) (A) (A) (A) (A) (A)
                 (A) (A) (A) (A) (A) (A) (A) (A) (A) (A) (A) (A)
                 (A) (A) (A) (A) (A) (A) (A) (A) (A) (A) (A) (A)
                 (A) (A) (A) (A) (A) (A) (A) (A) (A)
       Virtual   (A) (A) (A) (A) (A) (A) (A) (A) (A) (A) (A) (A)
                 (A) (A) (A) (A) (A) (A) (A) (A) (A) (A) (A) (A)
                 (A) (A) (A) (A) (A) (A) (A) (A) (A) (A) (A) (A)
                 (A) (A) (A) (A) (A) (A) (A) (A) (A) (A) (A) (A)
                 (A) (A) (A) (A) (A) (A) (A) (A) (A) (A) (A) (A)
                 (A) (A) (A) (A) (A) (A) (A) (A) (A) (A) (A) (A)
                 (A) (A) (A) (A) (A) (A) (A) (A) (A)
 The electronic state is 1-A.
 Alpha  occ. eigenvalues -- -104.06512-104.06244-104.06231 -15.62056 -11.31376
 Alpha  occ. eigenvalues --  -11.31354 -11.26542 -11.23315 -11.23305 -11.19946
 Alpha  occ. eigenvalues --  -11.19943 -10.45942 -10.45654 -10.45609  -7.92262
 Alpha  occ. eigenvalues --   -7.91957  -7.91951  -7.91925  -7.91913  -7.91626
 Alpha  occ. eigenvalues --   -7.91606  -7.91600  -7.91589  -7.71681  -1.36412
 Alpha  occ. eigenvalues --   -1.17041  -1.14532  -1.10429  -1.05238  -1.04646
 Alpha  occ. eigenvalues --   -1.04026  -0.98696  -0.91538  -0.89228  -0.78705
 Alpha  occ. eigenvalues --   -0.75118  -0.71740  -0.67071  -0.66597  -0.63545
 Alpha  occ. eigenvalues --   -0.61900  -0.61697  -0.59257  -0.58465  -0.57101
 Alpha  occ. eigenvalues --   -0.56479  -0.55156  -0.51897  -0.51067  -0.46683
 Alpha  occ. eigenvalues --   -0.43960  -0.43539  -0.42984  -0.41225  -0.40828
 Alpha  occ. eigenvalues --   -0.40047  -0.38883
 Alpha virt. eigenvalues --    0.03302   0.09011   0.21382   0.22948   0.23267
 Alpha virt. eigenvalues --    0.24529   0.27251   0.27760   0.29467   0.30839
 Alpha virt. eigenvalues --    0.31065   0.31425   0.32824   0.34851   0.35045
 Alpha virt. eigenvalues --    0.36948   0.38500   0.40685   0.47004   0.48540
 Alpha virt. eigenvalues --    0.50693   0.50733   0.67237   0.69284   0.69568
 Alpha virt. eigenvalues --    0.71916   0.74386   0.76549   0.79861   0.81005
 Alpha virt. eigenvalues --    0.81207   0.82931   0.83811   0.85998   0.86900
 Alpha virt. eigenvalues --    0.87957   0.89860   0.90458   0.91080   0.92065
 Alpha virt. eigenvalues --    0.94995   0.96042   0.98134   0.98543   1.02622
 Alpha virt. eigenvalues --    1.03464   1.03821   1.05433   1.09278   1.11415
 Alpha virt. eigenvalues --    1.11702   1.12671   1.16554   1.17381   1.19454
 Alpha virt. eigenvalues --    1.23795   1.28165   1.31902   1.33975   1.34936
 Alpha virt. eigenvalues --    1.36609   1.36746   1.37214   1.42218   1.42822
 Alpha virt. eigenvalues --    1.45907   1.52405   1.59932   1.61625   1.65425
 Alpha virt. eigenvalues --    1.66279   1.73397   1.81194   1.85799   1.94294
 Alpha virt. eigenvalues --    2.08368   2.16283   2.25811   2.29987   2.34339
 Alpha virt. eigenvalues --    3.22678
     Molecular Orbital Coefficients:
                           1         2         3         4         5
                           O         O         O         O         O
     Eigenvalues --  -104.06512-104.06244-104.06231 -15.62056 -11.31376
   1 1   C  1S          0.00000  -0.00000  -0.00001  -0.00013   0.71473
   2        2S         -0.00001  -0.00003  -0.00001   0.00004   0.07225
   3        2PX        -0.00004   0.00004   0.00008   0.00076  -0.00052
   4        2PY         0.00006   0.00002  -0.00002   0.00042   0.00136
   5        2PZ        -0.00003   0.00015  -0.00001   0.00021   0.00012
   6        3S         -0.00044   0.00030   0.00041   0.02400  -0.05515
   7        3PX         0.00024  -0.00109   0.00013   0.00095   0.01611
   8        3PY        -0.00039   0.00015  -0.00054   0.02975   0.00221
   9        3PZ         0.00022  -0.00051   0.00007  -0.00375   0.00038
  10 2   C  1S         -0.00001   0.00001  -0.00000   0.00039  -0.00097
  11        2S         -0.00007   0.00007   0.00000   0.00188  -0.00265
  12        2PX        -0.00002  -0.00002  -0.00000  -0.00024  -0.00096
  13        2PY        -0.00000   0.00003  -0.00003   0.00057   0.00022
  14        2PZ         0.00000  -0.00004   0.00002  -0.00007  -0.00017
  15        3S          0.00048  -0.00084   0.00010  -0.01809   0.02186
  16        3PX         0.00037  -0.00056  -0.00003  -0.00479   0.01697
  17        3PY         0.00023  -0.00021   0.00053  -0.02200  -0.00310
  18        3PZ        -0.00001   0.00006  -0.00010   0.00093   0.00395
  19 3   C  1S          0.00000   0.00000   0.00001  -0.00028  -0.00006
  20        2S         -0.00001   0.00000   0.00002  -0.00115  -0.00004
  21        2PX        -0.00001  -0.00000  -0.00002   0.00041  -0.00001
  22        2PY        -0.00000  -0.00005   0.00000  -0.00000   0.00102
  23        2PZ        -0.00001  -0.00000  -0.00002   0.00019  -0.00000
  24        3S         -0.00018  -0.00002  -0.00066   0.02930   0.00037
  25        3PX        -0.00024  -0.00001  -0.00022   0.01426   0.00016
  26        3PY         0.00000   0.00008  -0.00000  -0.00000  -0.00766
  27        3PZ        -0.00001   0.00000   0.00001   0.00295   0.00004
  28 4   C  1S         -0.00001  -0.00001  -0.00000   0.00039   0.00094
  29        2S         -0.00007  -0.00007   0.00001   0.00188   0.00258
  30        2PX        -0.00002   0.00002  -0.00000  -0.00024   0.00090
  31        2PY         0.00000   0.00003   0.00003  -0.00057   0.00021
  32        2PZ         0.00000   0.00004   0.00002  -0.00007   0.00016
  33        3S          0.00048   0.00085   0.00004  -0.01809  -0.02154
  34        3PX         0.00037   0.00055  -0.00007  -0.00480  -0.01666
  35        3PY        -0.00023  -0.00025  -0.00051   0.02200  -0.00252
  36        3PZ        -0.00001  -0.00007  -0.00010   0.00093  -0.00384
  37 5   C  1S          0.00000  -0.00000  -0.00001  -0.00013  -0.68122
  38        2S         -0.00001   0.00003  -0.00001   0.00004  -0.06895
  39        2PX        -0.00004  -0.00003   0.00008   0.00076   0.00054
  40        2PY        -0.00006   0.00002   0.00002  -0.00042   0.00138
  41        2PZ        -0.00003  -0.00015   0.00000   0.00021  -0.00012
  42        3S         -0.00044  -0.00027   0.00043   0.02400   0.05299
  43        3PX         0.00024   0.00110   0.00004   0.00095  -0.01611
  44        3PY         0.00039   0.00019   0.00053  -0.02974   0.00126
  45        3PZ         0.00022   0.00051   0.00003  -0.00375  -0.00054
  46 6   N  1S         -0.00002  -0.00000  -0.00003   0.98682   0.00001
  47        2S         -0.00008  -0.00001  -0.00016   0.10723   0.00007
  48        2PX         0.00009   0.00000   0.00006  -0.00248  -0.00002
  49        2PY        -0.00000  -0.00001   0.00000  -0.00000  -0.00051
  50        2PZ         0.00006   0.00000   0.00003  -0.00029  -0.00001
  51        3S          0.00111   0.00003   0.00087  -0.09376  -0.00024
  52        3PX        -0.00003   0.00000   0.00009   0.01691   0.00018
  53        3PY        -0.00000   0.00020  -0.00001   0.00000   0.00451
  54        3PZ         0.00009  -0.00002  -0.00044   0.00127   0.00005
  55 7   H  1S         -0.00003   0.00000   0.00001   0.00017  -0.00000
  56        2S         -0.00005  -0.00000  -0.00003   0.00290   0.00005
  57 8   H  1S         -0.00000  -0.00001   0.00004  -0.00164  -0.00078
  58        2S          0.00017  -0.00013   0.00022  -0.00678   0.00018
  59 9   H  1S         -0.00000   0.00001   0.00004  -0.00164   0.00071
  60        2S          0.00017   0.00015   0.00021  -0.00678  -0.00036
  61 10  C  1S         -0.00004  -0.00001   0.00003  -0.00006  -0.00013
  62        2S         -0.00039  -0.00012   0.00022  -0.00023  -0.00033
  63        2PX        -0.00016  -0.00017   0.00028  -0.00025   0.00013
  64        2PY        -0.00005  -0.00005   0.00021   0.00046  -0.00032
  65        2PZ        -0.00001   0.00008  -0.00020  -0.00013  -0.00043
  66        3S          0.00116   0.00028   0.00005   0.00946   0.00641
  67        3PX         0.00098   0.00074  -0.00089  -0.00485  -0.00515
  68        3PY         0.00018   0.00050  -0.00110   0.00156   0.00366
  69        3PZ         0.00019  -0.00008   0.00085  -0.00174   0.00151
  70 11  H  1S         -0.00002   0.00005  -0.00016  -0.00053  -0.00075
  71        2S          0.00023   0.00043  -0.00085  -0.00121  -0.00126
  72 12  H  1S         -0.00011  -0.00025   0.00034  -0.00035  -0.00042
  73        2S         -0.00013   0.00057  -0.00054  -0.00002   0.00307
  74 13  H  1S          0.00021  -0.00012   0.00038   0.00022  -0.00031
  75        2S         -0.00146  -0.00056  -0.00064   0.00045   0.00016
  76 14  C  1S         -0.00004   0.00002   0.00002  -0.00006   0.00009
  77        2S         -0.00039   0.00014   0.00021  -0.00023   0.00024
  78        2PX        -0.00016   0.00019   0.00027  -0.00025  -0.00014
  79        2PY         0.00005  -0.00006  -0.00020  -0.00046  -0.00034
  80        2PZ        -0.00001  -0.00009  -0.00019  -0.00013   0.00042
  81        3S          0.00115  -0.00027   0.00007   0.00946  -0.00546
  82        3PX         0.00098  -0.00081  -0.00083  -0.00485   0.00483
  83        3PY        -0.00018   0.00058   0.00106  -0.00156   0.00320
  84        3PZ         0.00019   0.00015   0.00084  -0.00174  -0.00162
  85 15  H  1S          0.00021   0.00015   0.00036   0.00022   0.00027
  86        2S         -0.00146   0.00051  -0.00068   0.00045  -0.00012
  87 16  H  1S         -0.00011   0.00027   0.00032  -0.00035   0.00036
  88        2S         -0.00013  -0.00061  -0.00050  -0.00002  -0.00296
  89 17  H  1S         -0.00002  -0.00006  -0.00015  -0.00053   0.00070
  90        2S          0.00023  -0.00049  -0.00081  -0.00121   0.00123
  91 18  B  1S          0.00015   0.00001   0.00016  -0.00067  -0.00001
  92        2S          0.00130   0.00004   0.00116  -0.00259  -0.00008
  93        2PX        -0.00001   0.00001   0.00026  -0.00150   0.00005
  94        2PY         0.00000   0.00007  -0.00000   0.00000   0.00087
  95        2PZ         0.00002  -0.00001  -0.00017  -0.00021   0.00001
  96        3S         -0.00629  -0.00031  -0.00813   0.01443   0.00009
  97        3PX        -0.00103  -0.00009  -0.00232  -0.00453  -0.00010
  98        3PY         0.00000  -0.00505   0.00019  -0.00000  -0.00586
  99        3PZ        -0.00402   0.00015   0.00389   0.00033  -0.00004
 100 19  Cl 1S         -0.03203  -0.67047   0.72208   0.00000   0.00001
 101        2S         -0.00178  -0.03618   0.03891  -0.00000  -0.00000
 102        2PX         0.00001   0.00008  -0.00010   0.00001  -0.00008
 103        2PY        -0.00003  -0.00014   0.00006   0.00003   0.00002
 104        2PZ        -0.00005  -0.00009   0.00011   0.00002   0.00000
 105        3S          0.00086   0.01378  -0.01459   0.00115   0.00030
 106        3PX        -0.00008  -0.00032   0.00044  -0.00021   0.00050
 107        3PY         0.00016   0.00063  -0.00021  -0.00008  -0.00016
 108        3PZ         0.00021   0.00037  -0.00046  -0.00008   0.00001
 109        4S         -0.00034  -0.01019   0.01145  -0.00360  -0.00267
 110        4PX         0.00021   0.00127  -0.00152   0.00208   0.00003
 111        4PY        -0.00014  -0.00212   0.00240  -0.00136  -0.00053
 112        4PZ         0.00022  -0.00169   0.00181  -0.00092  -0.00115
 113 20  Cl 1S          0.98483   0.00179   0.04536  -0.00000  -0.00000
 114        2S          0.05308   0.00009   0.00237   0.00003   0.00000
 115        2PX        -0.00010  -0.00000  -0.00001  -0.00005   0.00000
 116        2PY         0.00000  -0.00004   0.00000   0.00000   0.00003
 117        2PZ        -0.00021   0.00000   0.00006  -0.00006  -0.00000
 118        3S         -0.01982  -0.00002  -0.00043   0.00080   0.00000
 119        3PX         0.00042   0.00000   0.00002   0.00016  -0.00001
 120        3PY        -0.00000   0.00017  -0.00001  -0.00000  -0.00028
 121        3PZ         0.00085  -0.00001  -0.00031   0.00029  -0.00000
 122        4S          0.01483   0.00000   0.00002  -0.00340   0.00001
 123        4PX        -0.00177   0.00001   0.00030   0.00144   0.00002
 124        4PY         0.00000   0.00036  -0.00001  -0.00000   0.00150
 125        4PZ        -0.00402   0.00000   0.00010   0.00137  -0.00001
 126 21  Cl 1S         -0.03215   0.72278   0.66971   0.00000  -0.00001
 127        2S         -0.00179   0.03900   0.03608  -0.00000   0.00000
 128        2PX         0.00001  -0.00009  -0.00010   0.00001   0.00008
 129        2PY         0.00003  -0.00015  -0.00005  -0.00003   0.00002
 130        2PZ        -0.00005   0.00010   0.00010   0.00002  -0.00000
 131        3S          0.00087  -0.01484  -0.01351   0.00115  -0.00029
 132        3PX        -0.00008   0.00036   0.00041  -0.00021  -0.00049
 133        3PY        -0.00016   0.00064   0.00016   0.00008  -0.00016
 134        3PZ         0.00021  -0.00040  -0.00043  -0.00008  -0.00001
 135        4S         -0.00034   0.01102   0.01066  -0.00360   0.00263
 136        4PX         0.00021  -0.00139  -0.00143   0.00208   0.00001
 137        4PY         0.00014  -0.00229  -0.00224   0.00136  -0.00052
 138        4PZ         0.00022   0.00182   0.00168  -0.00092   0.00116
                           6         7         8         9        10
                           O         O         O         O         O
     Eigenvalues --   -11.31354 -11.26542 -11.23315 -11.23305 -11.19946
   1 1   C  1S          0.68095   0.00165   0.00057   0.00040   0.00001
   2        2S          0.06719   0.00009  -0.00237  -0.00249   0.00054
   3        2PX         0.00050   0.00094   0.00119   0.00173   0.00028
   4        2PY        -0.00059  -0.00054  -0.00008  -0.00017  -0.00071
   5        2PZ         0.00010   0.00029   0.00027   0.00038   0.00029
   6        3S         -0.04370  -0.01029   0.02025   0.03019  -0.01138
   7        3PX        -0.00028   0.00338  -0.01218  -0.01993  -0.00978
   8        3PY         0.01976  -0.00011   0.00620   0.01287   0.01074
   9        3PZ        -0.00326   0.00002  -0.00288  -0.00546  -0.00423
  10 2   C  1S         -0.00060  -0.00552   0.70151   0.69472  -0.00161
  11        2S         -0.00147  -0.00485   0.07122   0.07079   0.00028
  12        2PX        -0.00130   0.00032   0.00030   0.00099   0.00041
  13        2PY         0.00017  -0.00158   0.00174   0.00031  -0.00066
  14        2PZ        -0.00025   0.00016   0.00005   0.00009   0.00009
  15        3S          0.00628   0.03789  -0.05928  -0.07935  -0.00201
  16        3PX         0.00599   0.00056  -0.00645  -0.01416  -0.00527
  17        3PY        -0.01189   0.02126  -0.01211  -0.02196   0.00166
  18        3PZ         0.00218  -0.00062  -0.00071  -0.00106  -0.00068
  19 3   C  1S         -0.00240   0.98730   0.00003   0.00666   0.00004
  20        2S         -0.00151   0.09995  -0.00003  -0.00549  -0.00003
  21        2PX        -0.00036   0.00155  -0.00001  -0.00163  -0.00001
  22        2PY        -0.00002  -0.00000   0.00142  -0.00001  -0.00031
  23        2PZ        -0.00012   0.00049  -0.00000  -0.00036  -0.00000
  24        3S          0.01525  -0.09343   0.00028   0.05482   0.00021
  25        3PX         0.00648  -0.02498   0.00015   0.03033   0.00014
  26        3PY         0.00018   0.00000  -0.01483   0.00007   0.00496
  27        3PZ         0.00157  -0.00662   0.00003   0.00682   0.00004
  28 4   C  1S         -0.00064  -0.00552  -0.69455   0.70168   0.00176
  29        2S         -0.00159  -0.00485  -0.07051   0.07149  -0.00030
  30        2PX        -0.00134   0.00032  -0.00029   0.00099  -0.00044
  31        2PY        -0.00018   0.00158   0.00174  -0.00033  -0.00068
  32        2PZ        -0.00026   0.00016  -0.00005   0.00009  -0.00010
  33        3S          0.00732   0.03788   0.05849  -0.07994   0.00194
  34        3PX         0.00680   0.00056   0.00631  -0.01423   0.00540
  35        3PY         0.01202  -0.02126  -0.01189   0.02208   0.00182
  36        3PZ         0.00237  -0.00062   0.00071  -0.00107   0.00068
  37 5   C  1S          0.71448   0.00165  -0.00056   0.00041   0.00002
  38        2S          0.07058   0.00009   0.00235  -0.00251  -0.00062
  39        2PX         0.00047   0.00094  -0.00117   0.00174  -0.00029
  40        2PY         0.00052   0.00054  -0.00008   0.00017  -0.00071
  41        2PZ         0.00011   0.00029  -0.00027   0.00038  -0.00029
  42        3S         -0.04630  -0.01029  -0.01995   0.03039   0.01224
  43        3PX         0.00050   0.00339   0.01198  -0.02006   0.01013
  44        3PY        -0.01983   0.00012   0.00607  -0.01293   0.01124
  45        3PZ        -0.00324   0.00002   0.00283  -0.00549   0.00443
  46 6   N  1S          0.00044  -0.00002   0.00000   0.00031   0.00000
  47        2S          0.00294  -0.00021   0.00001   0.00171   0.00001
  48        2PX        -0.00078   0.00007  -0.00000  -0.00026   0.00001
  49        2PY         0.00001  -0.00000   0.00032  -0.00000  -0.00010
  50        2PZ        -0.00038  -0.00005   0.00000   0.00003   0.00000
  51        3S         -0.00987   0.00154  -0.00007  -0.01385  -0.00011
  52        3PX         0.00758  -0.00048   0.00004   0.00886  -0.00009
  53        3PY        -0.00011   0.00000   0.00169  -0.00001  -0.00315
  54        3PZ         0.00202   0.00042   0.00000   0.00079  -0.00005
  55 7   H  1S         -0.00012  -0.00249   0.00000   0.00008   0.00000
  56        2S          0.00227   0.00550   0.00004   0.00750   0.00005
  57 8   H  1S         -0.00149  -0.00014  -0.00156  -0.00210   0.00010
  58        2S         -0.00364   0.00392   0.00433   0.00262  -0.00009
  59 9   H  1S         -0.00153  -0.00014   0.00153  -0.00211  -0.00011
  60        2S         -0.00363   0.00392  -0.00430   0.00266   0.00007
  61 10  C  1S         -0.00093  -0.00113  -0.00179  -0.00256  -0.67611
  62        2S         -0.00182  -0.00100  -0.00067  -0.00116  -0.07072
  63        2PX        -0.00011   0.00022   0.00019   0.00008   0.00014
  64        2PY         0.00027   0.00004  -0.00012  -0.00000  -0.00025
  65        2PZ        -0.00026   0.00013   0.00002   0.00000   0.00013
  66        3S          0.01958   0.00313   0.00318   0.00761   0.06142
  67        3PX        -0.00640  -0.00273   0.00012   0.00027  -0.00161
  68        3PY         0.00945   0.00078   0.00184   0.00393   0.00563
  69        3PZ        -0.00233  -0.00106  -0.00037  -0.00098  -0.00167
  70 11  H  1S         -0.00109  -0.00046  -0.00023  -0.00024  -0.00036
  71        2S         -0.00047  -0.00035   0.00046   0.00057  -0.00942
  72 12  H  1S         -0.00130  -0.00027  -0.00012  -0.00029  -0.00037
  73        2S          0.00225  -0.00027   0.00004  -0.00009  -0.01013
  74 13  H  1S         -0.00088   0.00000  -0.00012  -0.00037  -0.00027
  75        2S          0.00080   0.00101  -0.00034  -0.00057  -0.01049
  76 14  C  1S         -0.00093  -0.00113   0.00176  -0.00257   0.71998
  77        2S         -0.00184  -0.00100   0.00066  -0.00117   0.07529
  78        2PX        -0.00010   0.00022  -0.00019   0.00008  -0.00015
  79        2PY        -0.00025  -0.00004  -0.00012   0.00001  -0.00027
  80        2PZ        -0.00028   0.00013  -0.00002   0.00000  -0.00014
  81        3S          0.01986   0.00313  -0.00310   0.00764  -0.06520
  82        3PX        -0.00664  -0.00273  -0.00011   0.00027   0.00170
  83        3PY        -0.00962  -0.00078   0.00180  -0.00395   0.00590
  84        3PZ        -0.00226  -0.00106   0.00036  -0.00098   0.00175
  85 15  H  1S         -0.00089   0.00000   0.00012  -0.00037   0.00028
  86        2S          0.00080   0.00101   0.00034  -0.00057   0.01114
  87 16  H  1S         -0.00131  -0.00027   0.00011  -0.00029   0.00038
  88        2S          0.00239  -0.00027  -0.00004  -0.00009   0.01080
  89 17  H  1S         -0.00113  -0.00046   0.00022  -0.00024   0.00038
  90        2S         -0.00053  -0.00035  -0.00045   0.00057   0.01004
  91 18  B  1S         -0.00040   0.00003  -0.00000  -0.00023  -0.00001
  92        2S         -0.00324   0.00016  -0.00001  -0.00147  -0.00004
  93        2PX         0.00222   0.00003   0.00000   0.00067   0.00000
  94        2PY        -0.00002   0.00000   0.00013  -0.00000  -0.00110
  95        2PZ         0.00024   0.00008  -0.00000  -0.00040  -0.00000
  96        3S          0.00384  -0.00039   0.00001   0.00161   0.00011
  97        3PX        -0.00427   0.00019  -0.00000  -0.00057  -0.00009
  98        3PY         0.00014  -0.00000  -0.00298   0.00001   0.00303
  99        3PZ        -0.00195  -0.00067   0.00001   0.00231   0.00016
 100 19  Cl 1S          0.00001   0.00000  -0.00001   0.00000  -0.00002
 101        2S         -0.00000   0.00000   0.00002  -0.00000   0.00002
 102        2PX        -0.00002  -0.00000  -0.00001   0.00000   0.00006
 103        2PY         0.00002  -0.00001   0.00000   0.00001  -0.00002
 104        2PZ         0.00002   0.00000   0.00000   0.00000  -0.00005
 105        3S          0.00011   0.00002   0.00034  -0.00015   0.00025
 106        3PX         0.00010   0.00000   0.00004   0.00000  -0.00039
 107        3PY        -0.00010   0.00004  -0.00003  -0.00007   0.00015
 108        3PZ        -0.00012  -0.00001   0.00001  -0.00000   0.00035
 109        4S         -0.00075  -0.00014  -0.00151   0.00057   0.00086
 110        4PX         0.00079   0.00002   0.00022  -0.00015   0.00037
 111        4PY        -0.00013  -0.00018  -0.00038   0.00045  -0.00002
 112        4PZ         0.00025   0.00006  -0.00060  -0.00013  -0.00019
 113 20  Cl 1S         -0.00000  -0.00000  -0.00000  -0.00001  -0.00000
 114        2S          0.00000   0.00000   0.00000   0.00002   0.00000
 115        2PX         0.00003   0.00001  -0.00000  -0.00000   0.00000
 116        2PY        -0.00000   0.00000   0.00000  -0.00000  -0.00014
 117        2PZ        -0.00000   0.00000   0.00000   0.00000   0.00000
 118        3S          0.00019   0.00002   0.00000   0.00051   0.00009
 119        3PX        -0.00023  -0.00004  -0.00000  -0.00001  -0.00001
 120        3PY         0.00001  -0.00000  -0.00004   0.00000   0.00099
 121        3PZ        -0.00000  -0.00002  -0.00000  -0.00004  -0.00001
 122        4S          0.00044   0.00030  -0.00001  -0.00192  -0.00020
 123        4PX         0.00102  -0.00005   0.00000   0.00058   0.00008
 124        4PY        -0.00004   0.00000   0.00053  -0.00000  -0.00271
 125        4PZ        -0.00039  -0.00016   0.00000   0.00089   0.00007
 126 21  Cl 1S          0.00001   0.00000   0.00001   0.00000   0.00002
 127        2S         -0.00000   0.00000  -0.00002  -0.00000  -0.00003
 128        2PX        -0.00003  -0.00000   0.00001   0.00000  -0.00006
 129        2PY        -0.00002   0.00001   0.00000  -0.00001  -0.00002
 130        2PZ         0.00002   0.00000  -0.00000   0.00000   0.00005
 131        3S          0.00012   0.00002  -0.00034  -0.00015  -0.00031
 132        3PX         0.00012   0.00000  -0.00004   0.00000   0.00041
 133        3PY         0.00011  -0.00004  -0.00003   0.00007   0.00017
 134        3PZ        -0.00012  -0.00001  -0.00001  -0.00000  -0.00037
 135        4S         -0.00088  -0.00014   0.00152   0.00056  -0.00073
 136        4PX         0.00079   0.00002  -0.00022  -0.00015  -0.00040
 137        4PY         0.00015   0.00018  -0.00039  -0.00045  -0.00011
 138        4PZ         0.00019   0.00006   0.00059  -0.00014   0.00022
                          11        12        13        14        15
                           O         O         O         O         O
     Eigenvalues --   -11.19943 -10.45942 -10.45654 -10.45609  -7.92262
   1 1   C  1S          0.00043  -0.00003  -0.00004   0.00006  -0.00001
   2        2S         -0.00132   0.00006   0.00013   0.00004  -0.00009
   3        2PX        -0.00019   0.00023  -0.00025  -0.00041   0.00008
   4        2PY         0.00012  -0.00030  -0.00014   0.00009   0.00018
   5        2PZ        -0.00006   0.00016  -0.00075   0.00004  -0.00002
   6        3S          0.01412   0.00231  -0.00180  -0.00228  -0.00046
   7        3PX         0.00586  -0.00120   0.00610  -0.00041   0.00047
   8        3PY        -0.00834   0.00151  -0.00070   0.00251  -0.00314
   9        3PZ         0.00327  -0.00110   0.00271  -0.00033   0.00123
  10 2   C  1S          0.00245   0.00003  -0.00004   0.00001  -0.00002
  11        2S         -0.00034   0.00036  -0.00036  -0.00003  -0.00010
  12        2PX        -0.00045   0.00013   0.00011   0.00002   0.00004
  13        2PY         0.00040  -0.00001  -0.00016   0.00016  -0.00003
  14        2PZ        -0.00005   0.00001   0.00019  -0.00010   0.00000
  15        3S         -0.00116  -0.00234   0.00464  -0.00019   0.00113
  16        3PX         0.00220  -0.00198   0.00317   0.00020   0.00040
  17        3PY        -0.00254  -0.00082   0.00109  -0.00246   0.00153
  18        3PZ         0.00000  -0.00001  -0.00030   0.00055  -0.00028
  19 3   C  1S          0.00125  -0.00001  -0.00000  -0.00003   0.00001
  20        2S         -0.00107   0.00008  -0.00000  -0.00010  -0.00002
  21        2PX        -0.00033   0.00004   0.00000   0.00010  -0.00007
  22        2PY         0.00001  -0.00000   0.00024  -0.00000  -0.00000
  23        2PZ        -0.00005   0.00003   0.00000   0.00008  -0.00003
  24        3S          0.00685   0.00038   0.00004   0.00304  -0.00176
  25        3PX         0.00438   0.00107   0.00001   0.00098  -0.00058
  26        3PY        -0.00016  -0.00000  -0.00057   0.00001   0.00000
  27        3PZ         0.00123   0.00002  -0.00000  -0.00009   0.00001
  28 4   C  1S          0.00234   0.00003   0.00004   0.00001  -0.00002
  29        2S         -0.00033   0.00036   0.00036  -0.00003  -0.00010
  30        2PX        -0.00043   0.00013  -0.00011   0.00002   0.00004
  31        2PY        -0.00036   0.00001  -0.00016  -0.00016   0.00003
  32        2PZ        -0.00005   0.00001  -0.00019  -0.00010   0.00000
  33        3S         -0.00129  -0.00234  -0.00464  -0.00008   0.00113
  34        3PX         0.00186  -0.00198  -0.00317   0.00028   0.00040
  35        3PY         0.00243   0.00082   0.00115   0.00243  -0.00153
  36        3PZ        -0.00004  -0.00001   0.00031   0.00054  -0.00028
  37 5   C  1S          0.00043  -0.00003   0.00005   0.00006  -0.00001
  38        2S         -0.00128   0.00006  -0.00013   0.00004  -0.00009
  39        2PX        -0.00017   0.00023   0.00024  -0.00042   0.00008
  40        2PY        -0.00007   0.00030  -0.00014  -0.00009  -0.00018
  41        2PZ        -0.00004   0.00016   0.00075   0.00002  -0.00002
  42        3S          0.01337   0.00231   0.00174  -0.00232  -0.00046
  43        3PX         0.00523  -0.00120  -0.00611  -0.00026   0.00047
  44        3PY         0.00765  -0.00151  -0.00076  -0.00250   0.00314
  45        3PZ         0.00300  -0.00110  -0.00272  -0.00026   0.00123
  46 6   N  1S          0.00011   0.00012   0.00000   0.00016   0.00002
  47        2S          0.00039   0.00038   0.00001   0.00084   0.00048
  48        2PX         0.00031  -0.00035  -0.00000  -0.00026   0.00075
  49        2PY         0.00000  -0.00000   0.00013  -0.00000  -0.00000
  50        2PZ         0.00009  -0.00020  -0.00000  -0.00024   0.00051
  51        3S         -0.00345  -0.00558  -0.00006  -0.00505   0.00140
  52        3PX        -0.00290  -0.00043  -0.00002  -0.00126  -0.00368
  53        3PY         0.00010   0.00000  -0.00141   0.00002   0.00000
  54        3PZ        -0.00148  -0.00097   0.00003   0.00255  -0.00167
  55 7   H  1S          0.00002   0.00014  -0.00000  -0.00006   0.00002
  56        2S          0.00170   0.00025   0.00000   0.00012  -0.00002
  57 8   H  1S         -0.00028   0.00004   0.00002  -0.00018   0.00010
  58        2S         -0.00022  -0.00077   0.00072  -0.00111   0.00057
  59 9   H  1S         -0.00027   0.00004  -0.00003  -0.00018   0.00010
  60        2S         -0.00022  -0.00077  -0.00075  -0.00109   0.00057
  61 10  C  1S          0.71991  -0.00003  -0.00001   0.00003  -0.00001
  62        2S          0.07491   0.00199   0.00058  -0.00086  -0.00020
  63        2PX        -0.00017   0.00092   0.00092  -0.00135  -0.00012
  64        2PY         0.00037   0.00033   0.00024  -0.00105  -0.00000
  65        2PZ        -0.00015  -0.00005  -0.00043   0.00101   0.00011
  66        3S         -0.06218  -0.00613  -0.00119  -0.00141  -0.00027
  67        3PX         0.00153  -0.00561  -0.00410   0.00427   0.00193
  68        3PY        -0.00456  -0.00153  -0.00274   0.00564  -0.00086
  69        3PZ         0.00134  -0.00069   0.00045  -0.00462   0.00011
  70 11  H  1S          0.00026   0.00002  -0.00030   0.00084   0.00008
  71        2S          0.01018  -0.00165  -0.00242   0.00450   0.00044
  72 12  H  1S          0.00019   0.00070   0.00134  -0.00166  -0.00016
  73        2S          0.01086   0.00043  -0.00331   0.00300  -0.00032
  74 13  H  1S          0.00019  -0.00092   0.00065  -0.00199   0.00032
  75        2S          0.01070   0.00754   0.00309   0.00428  -0.00216
  76 14  C  1S          0.67604  -0.00003   0.00001   0.00003  -0.00001
  77        2S          0.07032   0.00199  -0.00060  -0.00084  -0.00020
  78        2PX        -0.00016   0.00092  -0.00096  -0.00133  -0.00012
  79        2PY        -0.00036  -0.00033   0.00027   0.00104   0.00000
  80        2PZ        -0.00014  -0.00005   0.00046   0.00100   0.00011
  81        3S         -0.05820  -0.00612   0.00116  -0.00144  -0.00027
  82        3PX         0.00143  -0.00561   0.00421   0.00417   0.00193
  83        3PY         0.00419   0.00153  -0.00288  -0.00557   0.00086
  84        3PZ         0.00123  -0.00068  -0.00057  -0.00461   0.00011
  85 15  H  1S          0.00017  -0.00092  -0.00070  -0.00197   0.00032
  86        2S          0.01002   0.00753  -0.00298   0.00435  -0.00216
  87 16  H  1S          0.00017   0.00070  -0.00138  -0.00162  -0.00016
  88        2S          0.01021   0.00042   0.00338   0.00291  -0.00032
  89 17  H  1S          0.00024   0.00002   0.00032   0.00083   0.00008
  90        2S          0.00957  -0.00165   0.00253   0.00444   0.00044
  91 18  B  1S         -0.00017  -0.00100  -0.00002  -0.00124   0.00088
  92        2S         -0.00117  -0.00691  -0.00010  -0.00776  -0.00008
  93        2PX         0.00009   0.00009  -0.00002  -0.00159  -0.00024
  94        2PY         0.00004  -0.00000  -0.00062   0.00001  -0.00000
  95        2PZ        -0.00002  -0.00033   0.00001   0.00098   0.00070
  96        3S          0.00372   0.03324   0.00065   0.05164  -0.00621
  97        3PX        -0.00290   0.00491   0.00018   0.01397  -0.00243
  98        3PY        -0.00010  -0.00001   0.02970  -0.00036   0.00000
  99        3PZ         0.00506   0.02523  -0.00024  -0.02038  -0.00686
 100 19  Cl 1S          0.00003   0.02641   0.21360  -0.21735   0.00012
 101        2S         -0.00006  -0.08469  -0.68615   0.69837  -0.00047
 102        2PX        -0.00005   0.00028   0.00261  -0.00260  -0.00557
 103        2PY         0.00004  -0.00039  -0.00376   0.00417   0.01396
 104        2PZ         0.00005  -0.00021  -0.00293   0.00294   0.01596
 105        3S         -0.00095  -0.01374  -0.10391   0.10448   0.00193
 106        3PX         0.00037   0.00065   0.00238  -0.00285  -0.00058
 107        3PY        -0.00029  -0.00104  -0.00427   0.00191   0.00158
 108        3PZ        -0.00037  -0.00135  -0.00272   0.00298   0.00212
 109        4S          0.00203   0.00662   0.06114  -0.06538  -0.00315
 110        4PX        -0.00058  -0.00179  -0.00763   0.00850   0.00079
 111        4PY         0.00144   0.00174   0.01261  -0.01400  -0.00169
 112        4PZ         0.00051  -0.00078   0.01013  -0.01043  -0.00205
 113 20  Cl 1S         -0.00008  -0.30360  -0.00053  -0.03752  -0.00296
 114        2S          0.00015   0.97541   0.00172   0.12075   0.01028
 115        2PX         0.00006  -0.00332  -0.00001  -0.00041   0.33069
 116        2PY         0.00000   0.00000   0.00013  -0.00000  -0.00021
 117        2PZ         0.00003  -0.00687  -0.00002  -0.00111   0.91482
 118        3S          0.00280   0.14574   0.00023   0.01566  -0.00663
 119        3PX        -0.00047  -0.00299  -0.00000  -0.00033   0.02836
 120        3PY        -0.00003   0.00000  -0.00082   0.00001  -0.00002
 121        3PZ        -0.00025  -0.00628   0.00001   0.00105   0.07796
 122        4S         -0.00641  -0.08655  -0.00012  -0.00790   0.01307
 123        4PX         0.00255   0.01041  -0.00001  -0.00083  -0.01132
 124        4PY         0.00009  -0.00000  -0.00236   0.00003   0.00001
 125        4PZ         0.00233   0.02345   0.00003   0.00192  -0.03042
 126 21  Cl 1S          0.00003   0.02651  -0.21891  -0.21199   0.00012
 127        2S         -0.00006  -0.08501   0.70319   0.68117  -0.00048
 128        2PX        -0.00005   0.00028  -0.00268  -0.00253  -0.00560
 129        2PY        -0.00004   0.00039  -0.00386  -0.00408  -0.01402
 130        2PZ         0.00005  -0.00021   0.00300   0.00287   0.01601
 131        3S         -0.00093  -0.01379   0.10646   0.10187   0.00193
 132        3PX         0.00034   0.00066  -0.00245  -0.00279  -0.00059
 133        3PY         0.00028   0.00105  -0.00432  -0.00181  -0.00158
 134        3PZ        -0.00035  -0.00135   0.00279   0.00292   0.00212
 135        4S          0.00208   0.00665  -0.06275  -0.06385  -0.00315
 136        4PX        -0.00056  -0.00180   0.00784   0.00831   0.00079
 137        4PY        -0.00144  -0.00175   0.01296   0.01369   0.00170
 138        4PZ         0.00050  -0.00078  -0.01038  -0.01017  -0.00205
                          16        17        18        19        20
                           O         O         O         O         O
     Eigenvalues --    -7.91957  -7.91951  -7.91925  -7.91913  -7.91626
   1 1   C  1S          0.00001  -0.00001  -0.00001  -0.00005  -0.00000
   2        2S         -0.00032  -0.00026  -0.00008  -0.00031  -0.00044
   3        2PX        -0.00044  -0.00047   0.00013   0.00005  -0.00031
   4        2PY        -0.00005   0.00003   0.00013   0.00017  -0.00014
   5        2PZ         0.00031   0.00002   0.00006   0.00020   0.00030
   6        3S         -0.00154  -0.00007   0.00036   0.00173  -0.00164
   7        3PX         0.00008   0.00152  -0.00135   0.00015  -0.00227
   8        3PY        -0.00100   0.00357  -0.00153  -0.00105   0.00007
   9        3PZ        -0.00091   0.00023  -0.00040   0.00015  -0.00121
  10 2   C  1S         -0.00001  -0.00000   0.00001   0.00001   0.00001
  11        2S         -0.00007  -0.00004   0.00004   0.00004   0.00003
  12        2PX         0.00000  -0.00002  -0.00009   0.00001  -0.00006
  13        2PY        -0.00002   0.00006   0.00007  -0.00001   0.00008
  14        2PZ        -0.00006  -0.00003  -0.00001  -0.00004  -0.00011
  15        3S          0.00034   0.00070  -0.00126  -0.00050  -0.00128
  16        3PX         0.00027   0.00068  -0.00009  -0.00023  -0.00053
  17        3PY         0.00036  -0.00180   0.00001   0.00019  -0.00063
  18        3PZ         0.00048   0.00023   0.00003   0.00005   0.00040
  19 3   C  1S          0.00000  -0.00001   0.00000  -0.00001   0.00000
  20        2S          0.00000  -0.00001  -0.00000  -0.00006   0.00000
  21        2PX        -0.00001   0.00009  -0.00000  -0.00004   0.00000
  22        2PY         0.00004   0.00000  -0.00001   0.00000  -0.00005
  23        2PZ        -0.00000   0.00002  -0.00000  -0.00001  -0.00000
  24        3S         -0.00018   0.00208  -0.00001   0.00001  -0.00004
  25        3PX        -0.00002   0.00028  -0.00000   0.00036  -0.00004
  26        3PY        -0.00018  -0.00002  -0.00033   0.00000  -0.00034
  27        3PZ        -0.00001   0.00010  -0.00000   0.00002   0.00000
  28 4   C  1S          0.00001   0.00000  -0.00001   0.00001  -0.00001
  29        2S          0.00008  -0.00003  -0.00004   0.00004  -0.00004
  30        2PX        -0.00000  -0.00002   0.00010   0.00001   0.00006
  31        2PY        -0.00001  -0.00006   0.00007   0.00001   0.00008
  32        2PZ         0.00007  -0.00001   0.00001  -0.00004   0.00011
  33        3S         -0.00046   0.00064   0.00125  -0.00050   0.00139
  34        3PX        -0.00039   0.00062   0.00008  -0.00023   0.00058
  35        3PY         0.00004   0.00184  -0.00001  -0.00019  -0.00068
  36        3PZ        -0.00051   0.00014  -0.00003   0.00005  -0.00042
  37 5   C  1S         -0.00001  -0.00001   0.00001  -0.00005   0.00000
  38        2S          0.00036  -0.00020   0.00009  -0.00031   0.00045
  39        2PX         0.00052  -0.00039  -0.00013   0.00006   0.00032
  40        2PY        -0.00004  -0.00004   0.00013  -0.00017  -0.00013
  41        2PZ        -0.00031  -0.00004  -0.00006   0.00020  -0.00031
  42        3S          0.00153   0.00020  -0.00035   0.00173   0.00164
  43        3PX        -0.00035   0.00150   0.00134   0.00015   0.00237
  44        3PY        -0.00035  -0.00371  -0.00149   0.00105   0.00006
  45        3PZ         0.00085   0.00039   0.00039   0.00015   0.00124
  46 6   N  1S         -0.00000   0.00001  -0.00000  -0.00000  -0.00000
  47        2S          0.00003  -0.00030   0.00000   0.00010  -0.00001
  48        2PX         0.00008  -0.00085   0.00000   0.00015   0.00000
  49        2PY         0.00058   0.00005   0.00005   0.00000   0.00054
  50        2PZ        -0.00003   0.00030  -0.00000   0.00056  -0.00001
  51        3S          0.00021  -0.00238   0.00001   0.00177   0.00005
  52        3PX        -0.00037   0.00422  -0.00002  -0.00024   0.00002
  53        3PY        -0.00210  -0.00019  -0.00150  -0.00000  -0.00313
  54        3PZ         0.00006  -0.00062   0.00000  -0.00176   0.00001
  55 7   H  1S          0.00001  -0.00008   0.00000   0.00004  -0.00000
  56        2S          0.00000  -0.00005   0.00000   0.00015  -0.00001
  57 8   H  1S          0.00002  -0.00016  -0.00002   0.00001  -0.00001
  58        2S          0.00016  -0.00065   0.00030   0.00016  -0.00034
  59 9   H  1S          0.00000  -0.00016   0.00002   0.00001   0.00001
  60        2S         -0.00004  -0.00068  -0.00030   0.00016   0.00036
  61 10  C  1S         -0.00009  -0.00011  -0.00011  -0.00004  -0.00007
  62        2S         -0.00088  -0.00098  -0.00099  -0.00040  -0.00063
  63        2PX        -0.00020  -0.00032  -0.00036  -0.00011  -0.00085
  64        2PY         0.00001  -0.00023   0.00014   0.00011  -0.00056
  65        2PZ         0.00016   0.00039  -0.00023   0.00008   0.00043
  66        3S          0.00340   0.00319   0.00478   0.00178  -0.00069
  67        3PX         0.00162   0.00062   0.00356   0.00173   0.00391
  68        3PY        -0.00026   0.00122   0.00002  -0.00075   0.00426
  69        3PZ        -0.00044  -0.00297   0.00227   0.00032  -0.00167
  70 11  H  1S         -0.00017   0.00002  -0.00018  -0.00006   0.00066
  71        2S          0.00048   0.00114   0.00020   0.00025   0.00288
  72 12  H  1S          0.00011  -0.00006  -0.00036  -0.00006  -0.00122
  73        2S         -0.00231  -0.00260   0.00034  -0.00089   0.00409
  74 13  H  1S          0.00014  -0.00051   0.00098   0.00058  -0.00100
  75        2S         -0.00259   0.00173  -0.00770  -0.00336   0.00091
  76 14  C  1S          0.00011  -0.00009   0.00011  -0.00004   0.00008
  77        2S          0.00104  -0.00080   0.00100  -0.00040   0.00065
  78        2PX         0.00025  -0.00027   0.00036  -0.00011   0.00088
  79        2PY        -0.00003   0.00023   0.00014  -0.00011  -0.00058
  80        2PZ        -0.00022   0.00036   0.00023   0.00007  -0.00045
  81        3S         -0.00391   0.00249  -0.00480   0.00178   0.00076
  82        3PX        -0.00171   0.00029  -0.00356   0.00174  -0.00408
  83        3PY        -0.00004  -0.00125   0.00004   0.00075   0.00442
  84        3PZ         0.00096  -0.00286  -0.00224   0.00032   0.00174
  85 15  H  1S         -0.00005  -0.00053  -0.00097   0.00058   0.00104
  86        2S          0.00224   0.00223   0.00766  -0.00337  -0.00093
  87 16  H  1S         -0.00009  -0.00008   0.00036  -0.00006   0.00128
  88        2S          0.00273  -0.00215  -0.00032  -0.00088  -0.00427
  89 17  H  1S          0.00017   0.00005   0.00018  -0.00006  -0.00069
  90        2S         -0.00068   0.00104  -0.00021   0.00025  -0.00300
  91 18  B  1S          0.00004  -0.00047   0.00000  -0.00039  -0.00001
  92        2S         -0.00019   0.00212  -0.00001  -0.00055  -0.00001
  93        2PX         0.00002  -0.00017  -0.00000  -0.00114  -0.00002
  94        2PY         0.00059   0.00005  -0.00061   0.00000  -0.00058
  95        2PZ        -0.00006   0.00070  -0.00000   0.00031  -0.00000
  96        3S         -0.00049   0.00548  -0.00002   0.00247  -0.00005
  97        3PX        -0.00033   0.00355  -0.00001   0.00666   0.00018
  98        3PY        -0.00746  -0.00063   0.00601  -0.00002   0.00050
  99        3PZ         0.00063  -0.00708   0.00003  -0.00287   0.00005
 100 19  Cl 1S          0.00192   0.00227  -0.00045   0.00022   0.00032
 101        2S         -0.00671  -0.00786   0.00152  -0.00073  -0.00110
 102        2PX        -0.20552  -0.25734   0.06260  -0.03672  -0.51911
 103        2PY         0.48044   0.57429  -0.12696   0.06755  -0.36479
 104        2PZ         0.31165   0.38800  -0.06226   0.02816   0.21853
 105        3S          0.00578   0.00394  -0.00044  -0.00016  -0.00017
 106        3PX        -0.01758  -0.02207   0.00547  -0.00316  -0.04348
 107        3PY         0.04170   0.04858  -0.01072   0.00562  -0.03103
 108        3PZ         0.02678   0.03331  -0.00468   0.00191   0.01852
 109        4S         -0.01071  -0.00793   0.00263  -0.00162   0.00080
 110        4PX         0.00701   0.00848  -0.00291   0.00085   0.01535
 111        4PY        -0.01815  -0.01782   0.00446  -0.00305   0.01278
 112        4PZ        -0.01108  -0.01277   0.00123  -0.00019  -0.00691
 113 20  Cl 1S         -0.00000   0.00005  -0.00000  -0.00030  -0.00000
 114        2S          0.00001  -0.00007   0.00000   0.00107   0.00000
 115        2PX         0.00896  -0.11482   0.00193   0.90871   0.00010
 116        2PY         0.21126   0.02320   0.95013  -0.00110  -0.00054
 117        2PZ        -0.00030   0.00960  -0.00035  -0.33204  -0.00002
 118        3S          0.00026  -0.00288   0.00001  -0.00087   0.00000
 119        3PX         0.00074  -0.00944   0.00016   0.07441   0.00001
 120        3PY         0.01810   0.00197   0.07831  -0.00009   0.00000
 121        3PZ        -0.00012   0.00183  -0.00003  -0.02687  -0.00000
 122        4S         -0.00054   0.00611  -0.00003   0.00094  -0.00004
 123        4PX        -0.00014   0.00192  -0.00005  -0.02442  -0.00002
 124        4PY        -0.00671  -0.00072  -0.02620   0.00003  -0.00023
 125        4PZ         0.00035  -0.00411   0.00003   0.00842   0.00003
 126 21  Cl 1S         -0.00229   0.00190   0.00043   0.00022  -0.00034
 127        2S          0.00799  -0.00657  -0.00145  -0.00070   0.00117
 128        2PX         0.24780  -0.21774  -0.06052  -0.03595   0.54922
 129        2PY         0.57449  -0.48191  -0.12226  -0.06573  -0.38210
 130        2PZ        -0.37501   0.32747   0.05889   0.02696  -0.22414
 131        3S         -0.00638   0.00287   0.00041  -0.00018   0.00003
 132        3PX         0.02121  -0.01868  -0.00530  -0.00309   0.04597
 133        3PY         0.04964  -0.04057  -0.01032  -0.00546  -0.03243
 134        3PZ        -0.03222   0.02810   0.00439   0.00181  -0.01899
 135        4S          0.01195  -0.00594  -0.00257  -0.00158  -0.00062
 136        4PX        -0.00840   0.00714   0.00284   0.00082  -0.01622
 137        4PY        -0.02103   0.01439   0.00432   0.00298   0.01317
 138        4PZ         0.01314  -0.01063  -0.00112  -0.00015   0.00706
                          21        22        23        24        25
                           O         O         O         O         O
     Eigenvalues --    -7.91606  -7.91600  -7.91589  -7.71681  -1.36412
   1 1   C  1S          0.00000  -0.00003  -0.00001  -0.00008  -0.09487
   2        2S          0.00019  -0.00046  -0.00005  -0.00145   0.10750
   3        2PX         0.00011  -0.00060   0.00007  -0.00207   0.01857
   4        2PY        -0.00020   0.00005   0.00000  -0.00069   0.08122
   5        2PZ        -0.00021   0.00031  -0.00001  -0.00011  -0.00426
   6        3S          0.00003   0.00023   0.00063  -0.00530   0.09909
   7        3PX         0.00193   0.00446  -0.00142   0.01828   0.00208
   8        3PY         0.00025   0.00056   0.00038   0.00285  -0.09945
   9        3PZ         0.00076  -0.00088   0.00040   0.00213   0.01497
  10 2   C  1S         -0.00003  -0.00002   0.00002  -0.00019  -0.04262
  11        2S         -0.00015  -0.00007   0.00007  -0.00103   0.04213
  12        2PX        -0.00003   0.00009  -0.00003   0.00024   0.03060
  13        2PY        -0.00004  -0.00000   0.00007   0.00027   0.01954
  14        2PZ         0.00011  -0.00005  -0.00002  -0.00002   0.00490
  15        3S          0.00203   0.00214  -0.00154   0.01610   0.11873
  16        3PX         0.00107   0.00158  -0.00051   0.00845   0.01785
  17        3PY         0.00082  -0.00045  -0.00105  -0.00057   0.09159
  18        3PZ        -0.00034   0.00093  -0.00019   0.00211  -0.00369
  19 3   C  1S          0.00002  -0.00000  -0.00002   0.00001  -0.02992
  20        2S          0.00010  -0.00001  -0.00011   0.00006   0.03950
  21        2PX         0.00003  -0.00000   0.00001   0.00022   0.02493
  22        2PY         0.00000   0.00007  -0.00000   0.00000  -0.00000
  23        2PZ        -0.00002   0.00000   0.00002   0.00006   0.00600
  24        3S         -0.00122   0.00012   0.00158   0.00026  -0.06280
  25        3PX        -0.00123   0.00009   0.00092  -0.00398  -0.04611
  26        3PY        -0.00003  -0.00091   0.00004  -0.00000   0.00001
  27        3PZ         0.00007   0.00001   0.00023  -0.00108  -0.00962
  28 4   C  1S         -0.00002   0.00002   0.00001  -0.00019  -0.04262
  29        2S         -0.00014   0.00009   0.00006  -0.00103   0.04213
  30        2PX        -0.00005  -0.00009  -0.00002   0.00024   0.03060
  31        2PY         0.00004  -0.00001  -0.00007  -0.00027  -0.01954
  32        2PZ         0.00011   0.00004  -0.00002  -0.00002   0.00490
  33        3S          0.00176  -0.00243  -0.00132   0.01610   0.11873
  34        3PX         0.00090  -0.00170  -0.00036   0.00845   0.01786
  35        3PY        -0.00082  -0.00028   0.00108   0.00057  -0.09157
  36        3PZ        -0.00040  -0.00091  -0.00012   0.00211  -0.00368
  37 5   C  1S          0.00001   0.00003  -0.00001  -0.00008  -0.09485
  38        2S          0.00020   0.00044  -0.00008  -0.00145   0.10748
  39        2PX         0.00015   0.00059   0.00002  -0.00207   0.01856
  40        2PY         0.00021   0.00003  -0.00001   0.00069  -0.08120
  41        2PZ        -0.00022  -0.00030   0.00001  -0.00011  -0.00425
  42        3S         -0.00006  -0.00017   0.00066  -0.00530   0.09908
  43        3PX         0.00142  -0.00471  -0.00099   0.01828   0.00210
  44        3PY        -0.00020   0.00054  -0.00043  -0.00284   0.09941
  45        3PZ         0.00077   0.00084   0.00034   0.00213   0.01497
  46 6   N  1S         -0.00005   0.00000  -0.00002   0.00001  -0.18725
  47        2S         -0.00028   0.00001  -0.00014   0.00057   0.15434
  48        2PX         0.00008  -0.00001  -0.00005   0.00104  -0.06199
  49        2PY        -0.00001   0.00006   0.00000  -0.00000  -0.00002
  50        2PZ        -0.00019   0.00002   0.00029   0.00018  -0.00020
  51        3S          0.00244  -0.00005   0.00113  -0.00017   0.66222
  52        3PX         0.00076  -0.00001   0.00060  -0.00224  -0.10855
  53        3PY         0.00014   0.00143  -0.00008   0.00000  -0.00003
  54        3PZ         0.00003  -0.00007  -0.00156  -0.00069  -0.00660
  55 7   H  1S         -0.00008   0.00000   0.00003  -0.00057   0.00734
  56        2S         -0.00035   0.00002   0.00022  -0.00119  -0.01389
  57 8   H  1S          0.00002  -0.00005  -0.00006  -0.00043   0.01547
  58        2S          0.00040  -0.00002  -0.00039  -0.00006   0.02624
  59 9   H  1S          0.00002   0.00005  -0.00006  -0.00043   0.01547
  60        2S          0.00038  -0.00005  -0.00039  -0.00006   0.02623
  61 10  C  1S          0.00003   0.00002  -0.00003   0.00002  -0.01787
  62        2S          0.00035   0.00009  -0.00026  -0.00032   0.01977
  63        2PX         0.00058   0.00018  -0.00049  -0.00028  -0.00474
  64        2PY         0.00045  -0.00020  -0.00011  -0.00091   0.01588
  65        2PZ        -0.00033  -0.00010   0.00033   0.00030  -0.00358
  66        3S          0.00124  -0.00072  -0.00039  -0.00355  -0.00881
  67        3PX        -0.00297  -0.00105   0.00219  -0.00163   0.02387
  68        3PY        -0.00300  -0.00009   0.00102   0.00010  -0.01309
  69        3PZ         0.00098   0.00137  -0.00208  -0.00168   0.00821
  70 11  H  1S         -0.00053  -0.00014   0.00039   0.00017   0.00781
  71        2S         -0.00211  -0.00045   0.00149   0.00057   0.00124
  72 12  H  1S          0.00096   0.00007  -0.00043   0.00009   0.00762
  73        2S         -0.00373   0.00127   0.00005  -0.00045  -0.00665
  74 13  H  1S          0.00054   0.00050  -0.00076  -0.00040   0.00685
  75        2S         -0.00004  -0.00133   0.00182   0.00480  -0.00820
  76 14  C  1S          0.00003  -0.00003  -0.00003   0.00002  -0.01787
  77        2S          0.00031  -0.00014  -0.00024  -0.00032   0.01976
  78        2PX         0.00052  -0.00027  -0.00046  -0.00028  -0.00474
  79        2PY        -0.00044  -0.00015   0.00011   0.00091  -0.01587
  80        2PZ        -0.00030   0.00016   0.00031   0.00030  -0.00358
  81        3S          0.00126   0.00057  -0.00044  -0.00355  -0.00881
  82        3PX        -0.00266   0.00148   0.00203  -0.00163   0.02385
  83        3PY         0.00277  -0.00043  -0.00094  -0.00010   0.01309
  84        3PZ         0.00077  -0.00162  -0.00193  -0.00168   0.00821
  85 15  H  1S          0.00045  -0.00061  -0.00070  -0.00040   0.00685
  86        2S          0.00012   0.00149   0.00169   0.00480  -0.00819
  87 16  H  1S          0.00089  -0.00018  -0.00041   0.00009   0.00762
  88        2S         -0.00361  -0.00095   0.00009  -0.00045  -0.00664
  89 17  H  1S         -0.00048   0.00022   0.00036   0.00017   0.00781
  90        2S         -0.00192   0.00075   0.00140   0.00057   0.00123
  91 18  B  1S         -0.00038   0.00002   0.00013   0.99035  -0.02607
  92        2S         -0.00040   0.00002   0.00007   0.10377   0.03988
  93        2PX        -0.00096   0.00002  -0.00038  -0.00237  -0.03884
  94        2PY        -0.00001  -0.00046   0.00002  -0.00000  -0.00000
  95        2PZ        -0.00027  -0.00003  -0.00101   0.00090   0.00251
  96        3S         -0.00169   0.00015   0.00173  -0.09105   0.01818
  97        3PX         0.00824  -0.00020   0.00352  -0.00373   0.01864
  98        3PY         0.00011   0.00296  -0.00013   0.00000   0.00000
  99        3PZ         0.00351   0.00013   0.00640  -0.00634   0.00303
 100 19  Cl 1S         -0.00036   0.00008   0.00010  -0.00008   0.00213
 101        2S          0.00131  -0.00032  -0.00041   0.00032  -0.01233
 102        2PX         0.63299  -0.38733   0.12063  -0.00005   0.00239
 103        2PY         0.27841   0.16829  -0.35689   0.00108  -0.00208
 104        2PZ         0.00956  -0.52453   0.61063   0.00046  -0.00176
 105        3S         -0.00224   0.00057   0.00171  -0.00404   0.01474
 106        3PX         0.05223  -0.03161   0.00961  -0.00044  -0.00424
 107        3PY         0.02268   0.01416  -0.02877  -0.00004   0.00418
 108        3PZ         0.00055  -0.04303   0.04990   0.00013   0.00370
 109        4S          0.00321   0.00009  -0.00204   0.01922   0.00915
 110        4PX        -0.01835   0.00944  -0.00324  -0.00185  -0.00728
 111        4PY        -0.00661  -0.00520   0.00823   0.00743  -0.00001
 112        4PZ        -0.00023   0.01429  -0.01623   0.00556  -0.00051
 113 20  Cl 1S         -0.00001  -0.00000  -0.00001  -0.00015   0.00225
 114        2S          0.00005   0.00000   0.00011   0.00064  -0.01305
 115        2PX         0.00859   0.00049   0.01843  -0.00028   0.00250
 116        2PY         0.00126   0.02868  -0.00123   0.00000  -0.00000
 117        2PZ        -0.00472  -0.00050  -0.01543  -0.00170   0.00303
 118        3S          0.00000  -0.00003  -0.00063  -0.00716   0.01580
 119        3PX         0.00061   0.00003   0.00114  -0.00004  -0.00445
 120        3PY         0.00007   0.00155  -0.00007  -0.00000   0.00000
 121        3PZ        -0.00017  -0.00002  -0.00049   0.00074  -0.00633
 122        4S         -0.00235  -0.00000  -0.00236   0.02810   0.00775
 123        4PX        -0.00041   0.00006   0.00094  -0.00445  -0.00699
 124        4PY         0.00004   0.00082  -0.00004   0.00000  -0.00000
 125        4PZ         0.00123  -0.00003   0.00050  -0.01372   0.00190
 126 21  Cl 1S         -0.00035  -0.00005   0.00010  -0.00008   0.00213
 127        2S          0.00127   0.00017  -0.00042   0.00032  -0.01233
 128        2PX         0.63778   0.34241   0.09505  -0.00005   0.00240
 129        2PY        -0.24323   0.22112   0.33464  -0.00108   0.00208
 130        2PZ         0.06751   0.57316   0.55929   0.00046  -0.00176
 131        3S         -0.00228  -0.00023   0.00175  -0.00404   0.01474
 132        3PX         0.05256   0.02787   0.00754  -0.00044  -0.00424
 133        3PY        -0.01971   0.01843   0.02690   0.00004  -0.00418
 134        3PZ         0.00533   0.04702   0.04568   0.00013   0.00370
 135        4S          0.00322  -0.00055  -0.00202   0.01922   0.00915
 136        4PX        -0.01832  -0.00813  -0.00266  -0.00185  -0.00728
 137        4PY         0.00547  -0.00641  -0.00755  -0.00743   0.00001
 138        4PZ        -0.00185  -0.01558  -0.01482   0.00556  -0.00052
                          26        27        28        29        30
                           O         O         O         O         O
     Eigenvalues --    -1.17041  -1.14532  -1.10429  -1.05238  -1.04646
   1 1   C  1S         -0.01681   0.12187   0.01098   0.01273   0.01385
   2        2S          0.02200  -0.13499  -0.01062  -0.01449  -0.01593
   3        2PX        -0.09222   0.02207  -0.01312  -0.00089   0.03131
   4        2PY        -0.03007   0.01578  -0.03008   0.02366  -0.00083
   5        2PZ        -0.01109  -0.00003  -0.00069  -0.00094   0.00367
   6        3S          0.02726  -0.24778  -0.01768  -0.03008  -0.02943
   7        3PX        -0.00282   0.05845  -0.01262  -0.00157   0.01796
   8        3PY         0.00351   0.02915  -0.00512   0.00653   0.00692
   9        3PZ         0.00085   0.00203  -0.00173   0.00212   0.00085
  10 2   C  1S         -0.11161   0.08397  -0.02113  -0.00134   0.03079
  11        2S          0.12284  -0.09166   0.02419   0.00144  -0.03271
  12        2PX        -0.00975  -0.05724  -0.01528  -0.01279  -0.00936
  13        2PY         0.06702   0.00727   0.01324   0.01355   0.00007
  14        2PZ        -0.00319  -0.01186  -0.00314  -0.00276  -0.00212
  15        3S          0.23092  -0.16483   0.03201  -0.00167  -0.07392
  16        3PX         0.01446   0.02195  -0.00770  -0.00148   0.00077
  17        3PY         0.00749  -0.03423  -0.00354  -0.00017  -0.00754
  18        3PZ         0.00312   0.00622  -0.00168  -0.00113  -0.00001
  19 3   C  1S         -0.14398   0.00003  -0.03710  -0.01593   0.00002
  20        2S          0.16112  -0.00003   0.04082   0.01651  -0.00002
  21        2PX         0.06588  -0.00001   0.00913   0.00268  -0.00000
  22        2PY         0.00000   0.06273  -0.00001   0.00003   0.03167
  23        2PZ         0.01914  -0.00001   0.00328   0.00107  -0.00000
  24        3S          0.30611  -0.00006   0.09160   0.04746  -0.00006
  25        3PX         0.02058  -0.00000   0.00924   0.00725  -0.00001
  26        3PY        -0.00001  -0.02969   0.00000   0.00000   0.00148
  27        3PZ         0.00774   0.00000   0.00327   0.00266  -0.00000
  28 4   C  1S         -0.11163  -0.08395  -0.02111  -0.00141  -0.03080
  29        2S          0.12286   0.09163   0.02417   0.00151   0.03272
  30        2PX        -0.00971   0.05726  -0.01528  -0.01276   0.00939
  31        2PY        -0.06701   0.00730  -0.01324  -0.01355   0.00011
  32        2PZ        -0.00317   0.01187  -0.00314  -0.00276   0.00213
  33        3S          0.23095   0.16476   0.03197  -0.00151   0.07394
  34        3PX         0.01445  -0.02195  -0.00770  -0.00149  -0.00077
  35        3PY        -0.00750  -0.03423   0.00354   0.00015  -0.00754
  36        3PZ         0.00312  -0.00622  -0.00167  -0.00113   0.00001
  37 5   C  1S         -0.01686  -0.12187   0.01099   0.01269  -0.01388
  38        2S          0.02206   0.13500  -0.01063  -0.01445   0.01597
  39        2PX        -0.09222  -0.02205  -0.01311  -0.00095  -0.03132
  40        2PY         0.03006   0.01577   0.03006  -0.02365  -0.00075
  41        2PZ        -0.01110   0.00003  -0.00069  -0.00095  -0.00367
  42        3S          0.02736   0.24781  -0.01771  -0.03000   0.02952
  43        3PX        -0.00284  -0.05845  -0.01260  -0.00161  -0.01796
  44        3PY        -0.00349   0.02915   0.00511  -0.00652   0.00695
  45        3PZ         0.00085  -0.00203  -0.00173   0.00212  -0.00085
  46 6   N  1S          0.08708  -0.00002   0.03291  -0.01103   0.00002
  47        2S         -0.07668   0.00002  -0.02593   0.01038  -0.00002
  48        2PX        -0.02310   0.00000   0.04860   0.00359   0.00001
  49        2PY         0.00003   0.12063   0.00000  -0.00001  -0.00719
  50        2PZ        -0.00311  -0.00000  -0.00156   0.01264  -0.00001
  51        3S         -0.30350   0.00006  -0.12575   0.04109  -0.00008
  52        3PX        -0.01066  -0.00000   0.03371   0.00018   0.00001
  53        3PY         0.00003   0.12484  -0.00000   0.00000   0.00239
  54        3PZ        -0.00175  -0.00000  -0.00099   0.00980  -0.00001
  55 7   H  1S          0.05877  -0.00001   0.01929   0.00889  -0.00001
  56        2S         -0.00040  -0.00000   0.00361   0.00374  -0.00000
  57 8   H  1S          0.04407  -0.04201   0.01119  -0.00175  -0.01776
  58        2S         -0.00194  -0.01028  -0.00025  -0.00164  -0.00494
  59 9   H  1S          0.04408   0.04200   0.01118  -0.00171   0.01777
  60        2S         -0.00194   0.01028  -0.00025  -0.00163   0.00495
  61 10  C  1S         -0.00399   0.07611  -0.01021   0.02846  -0.00913
  62        2S          0.00573  -0.07210   0.01026  -0.02834   0.00840
  63        2PX        -0.01069   0.02141   0.00369   0.00231   0.01196
  64        2PY        -0.00146  -0.03522   0.00034  -0.00417  -0.00126
  65        2PZ        -0.00121   0.00991  -0.00180   0.00475  -0.00187
  66        3S          0.00392  -0.19852   0.03778  -0.07910   0.03210
  67        3PX        -0.00535  -0.00515   0.00144   0.00715   0.00148
  68        3PY        -0.00579  -0.01441  -0.00319   0.00178   0.00027
  69        3PZ        -0.00103   0.00833   0.00409   0.00219  -0.00080
  70 11  H  1S          0.00590  -0.03662   0.00407  -0.01475   0.00096
  71        2S          0.00041  -0.00200  -0.00348   0.00224  -0.00309
  72 12  H  1S          0.00172  -0.03257   0.00800  -0.01802   0.00999
  73        2S         -0.00032   0.01184  -0.00028   0.00081   0.00049
  74 13  H  1S         -0.00155  -0.03098   0.01071  -0.01246   0.01081
  75        2S          0.00082   0.00650  -0.01010  -0.00208   0.00313
  76 14  C  1S         -0.00402  -0.07611  -0.01020   0.02847   0.00904
  77        2S          0.00575   0.07211   0.01025  -0.02835  -0.00832
  78        2PX        -0.01069  -0.02141   0.00370   0.00228  -0.01197
  79        2PY         0.00144  -0.03522  -0.00033   0.00417  -0.00127
  80        2PZ        -0.00122  -0.00992  -0.00180   0.00476   0.00186
  81        3S          0.00398   0.19852   0.03776  -0.07915  -0.03186
  82        3PX        -0.00534   0.00515   0.00144   0.00714  -0.00149
  83        3PY         0.00578  -0.01441   0.00319  -0.00178   0.00028
  84        3PZ        -0.00103  -0.00832   0.00409   0.00219   0.00079
  85 15  H  1S         -0.00154   0.03098   0.01071  -0.01248  -0.01078
  86        2S          0.00081  -0.00650  -0.01010  -0.00208  -0.00312
  87 16  H  1S          0.00173   0.03257   0.00800  -0.01804  -0.00994
  88        2S         -0.00033  -0.01184  -0.00028   0.00081  -0.00050
  89 17  H  1S          0.00591   0.03662   0.00406  -0.01475  -0.00092
  90        2S          0.00041   0.00200  -0.00348   0.00224   0.00309
  91 18  B  1S          0.03668  -0.00001  -0.08287  -0.00587  -0.00000
  92        2S         -0.04224   0.00001   0.08924   0.00697  -0.00000
  93        2PX         0.02115  -0.00000   0.05170  -0.00115   0.00000
  94        2PY         0.00000   0.01902   0.00002  -0.00011  -0.09684
  95        2PZ        -0.00218  -0.00000  -0.00699   0.10214  -0.00011
  96        3S         -0.04592   0.00002   0.15154   0.00808   0.00001
  97        3PX        -0.00548  -0.00000  -0.00405  -0.00121   0.00000
  98        3PY        -0.00000  -0.02610  -0.00001   0.00000   0.00323
  99        3PZ        -0.00417   0.00001   0.01177  -0.00938   0.00001
 100 19  Cl 1S         -0.00743  -0.00515   0.04100  -0.02997   0.05443
 101        2S          0.04343   0.03023  -0.24029   0.17625  -0.32015
 102        2PX        -0.00358  -0.00366   0.00928  -0.00652   0.01123
 103        2PY         0.00532   0.00103  -0.02149   0.00970  -0.01095
 104        2PZ         0.00378   0.00258  -0.01459   0.00208  -0.01314
 105        3S         -0.05450  -0.03473   0.30441  -0.21610   0.39290
 106        3PX         0.00681   0.00808  -0.01814   0.01284  -0.02217
 107        3PY        -0.01084  -0.00218   0.04439  -0.01978   0.02134
 108        3PZ        -0.00763  -0.00534   0.02958  -0.00314   0.02633
 109        4S         -0.03883  -0.04636   0.23184  -0.20510   0.36996
 110        4PX         0.00628   0.00588  -0.01121   0.01376  -0.02257
 111        4PY        -0.00270  -0.00510   0.01205  -0.01613   0.02557
 112        4PZ        -0.00204  -0.00771   0.01081  -0.01016   0.02384
 113 20  Cl 1S         -0.00812   0.00000   0.03910   0.06385  -0.00005
 114        2S          0.04747  -0.00001  -0.22913  -0.37548   0.00030
 115        2PX        -0.00414   0.00000   0.00827   0.01233  -0.00001
 116        2PY         0.00000  -0.00110  -0.00001   0.00000   0.00549
 117        2PZ        -0.00711   0.00000   0.02520   0.02163  -0.00001
 118        3S         -0.06167   0.00002   0.29471   0.46274  -0.00037
 119        3PX         0.00846  -0.00000  -0.01648  -0.02467   0.00002
 120        3PY        -0.00000   0.00104   0.00001  -0.00000  -0.01208
 121        3PZ         0.01490  -0.00000  -0.05235  -0.04284   0.00003
 122        4S         -0.03678  -0.00000   0.20530   0.43021  -0.00035
 123        4PX         0.00402   0.00000  -0.00504  -0.02337   0.00002
 124        4PY         0.00000   0.01028   0.00000   0.00000  -0.00340
 125        4PZ         0.00042   0.00001  -0.00857  -0.04248   0.00004
 126 21  Cl 1S         -0.00743   0.00516   0.04101  -0.03007  -0.05436
 127        2S          0.04343  -0.03029  -0.24038   0.17684   0.31976
 128        2PX        -0.00357   0.00366   0.00928  -0.00654  -0.01122
 129        2PY        -0.00533   0.00104   0.02150  -0.00972  -0.01094
 130        2PZ         0.00377  -0.00259  -0.01459   0.00210   0.01313
 131        3S         -0.05450   0.03480   0.30452  -0.21682  -0.39242
 132        3PX         0.00681  -0.00809  -0.01815   0.01289   0.02215
 133        3PY         0.01085  -0.00219  -0.04441   0.01982   0.02130
 134        3PZ        -0.00763   0.00535   0.02957  -0.00318  -0.02631
 135        4S         -0.03882   0.04642   0.23195  -0.20577  -0.36953
 136        4PX         0.00628  -0.00589  -0.01122   0.01380   0.02255
 137        4PY         0.00270  -0.00511  -0.01206   0.01618   0.02555
 138        4PZ        -0.00203   0.00771   0.01082  -0.01020  -0.02381
                          31        32        33        34        35
                           O         O         O         O         O
     Eigenvalues --    -1.04026  -0.98696  -0.91538  -0.89228  -0.78705
   1 1   C  1S         -0.05114  -0.00277   0.05771   0.08057   0.00097
   2        2S          0.05852   0.00405  -0.06584  -0.08602  -0.00479
   3        2PX        -0.00494  -0.11421   0.13626  -0.08847  -0.01591
   4        2PY        -0.11182   0.04667  -0.01882  -0.11972  -0.10488
   5        2PZ         0.02054  -0.03109   0.02610   0.00558  -0.00622
   6        3S          0.11682   0.00805  -0.15402  -0.23058   0.04871
   7        3PX        -0.00446  -0.01554   0.05743   0.02687  -0.00842
   8        3PY        -0.03345   0.00520   0.02140  -0.01438  -0.03572
   9        3PZ         0.00600  -0.00326   0.00596   0.00517  -0.00442
  10 2   C  1S         -0.00159  -0.10696   0.03427  -0.05230  -0.05081
  11        2S          0.00184   0.11153  -0.03476   0.05214   0.05122
[...]
  80        2PZ         0.56473
  81        3S          1.15313
  82        3PX         0.53291
  83        3PY         0.35886
  84        3PZ         0.58466
  85 15  H  1S          0.46464
  86        2S          0.24017
  87 16  H  1S          0.46086
  88        2S          0.24926
  89 17  H  1S          0.47089
  90        2S          0.29729
  91 18  B  1S          1.99005
  92        2S          0.33338
  93        2PX         0.34419
  94        2PY         0.36969
  95        2PZ         0.38495
  96        3S          0.66982
  97        3PX         0.14808
  98        3PY         0.21601
  99        3PZ         0.18985
 100 19  Cl 1S          1.99859
 101        2S          1.95882
 102        2PX         1.96957
 103        2PY         1.96675
 104        2PZ         1.96884
 105        3S          1.10718
 106        3PX         1.04653
 107        3PY         0.96817
 108        3PZ         1.02150
 109        4S          0.91040
 110        4PX         0.85824
 111        4PY         0.67778
 112        4PZ         0.79171
 113 20  Cl 1S          1.99860
 114        2S          1.95904
 115        2PX         1.97015
 116        2PY         1.97044
 117        2PZ         1.96485
 118        3S          1.10837
 119        3PX         1.05836
 120        3PY         1.07079
 121        3PZ         0.90737
 122        4S          0.90145
 123        4PX         0.85271
 124        4PY         0.88238
 125        4PZ         0.58270
 126 21  Cl 1S          1.99859
 127        2S          1.95882
 128        2PX         1.96957
 129        2PY         1.96675
 130        2PZ         1.96884
 131        3S          1.10718
 132        3PX         1.04652
 133        3PY         0.96812
 134        3PZ         1.02157
 135        4S          0.91040
 136        4PX         0.85821
 137        4PY         0.67766
 138        4PZ         0.79180
          Condensed to atoms (all electrons):
               1          2          3          4          5          6
     1  C    5.000912   0.450463  -0.112027  -0.003341  -0.095046   0.301238
     2  C    0.450463   5.323736   0.411317  -0.107578  -0.003343  -0.046257
     3  C   -0.112027   0.411317   5.213352   0.411284  -0.112025  -0.028766
     4  C   -0.003341  -0.107578   0.411284   5.323723   0.450514  -0.046262
     5  C   -0.095046  -0.003343  -0.112025   0.450514   5.000932   0.301237
     6  N    0.301238  -0.046257  -0.028766  -0.046262   0.301237   7.580318
     7  H    0.001873  -0.027265   0.390497  -0.027263   0.001873  -0.000064
     8  H   -0.027773   0.394696  -0.027541   0.002659  -0.000126   0.002312
     9  H   -0.000126   0.002659  -0.027541   0.394696  -0.027774   0.002312
    10  C    0.224227  -0.076553   0.003480  -0.000294   0.002269  -0.036018
    11  H   -0.048285  -0.005257   0.000263   0.000011  -0.000099   0.001873
    12  H   -0.046558   0.000153  -0.000071   0.000004  -0.000051   0.000563
    13  H   -0.043405   0.003053  -0.000058   0.000009   0.000041  -0.001364
    14  C    0.002269  -0.000294   0.003480  -0.076551   0.224234  -0.036019
    15  H    0.000041   0.000009  -0.000058   0.003053  -0.043406  -0.001364
    16  H   -0.000051   0.000004  -0.000071   0.000153  -0.046551   0.000564
    17  H   -0.000099   0.000011   0.000263  -0.005258  -0.048287   0.001873
    18  B   -0.046483   0.002075  -0.000972   0.002075  -0.046467   0.110545
    19  Cl  -0.003762   0.000174  -0.000011  -0.000033  -0.000411  -0.028669
    20  Cl  -0.002008  -0.000173   0.000010  -0.000173  -0.002006  -0.047456
    21  Cl  -0.000411  -0.000033  -0.000011   0.000174  -0.003760  -0.028666
               7          8          9         10         11         12
     1  C    0.001873  -0.027773  -0.000126   0.224227  -0.048285  -0.046558
     2  C   -0.027265   0.394696   0.002659  -0.076553  -0.005257   0.000153
     3  C    0.390497  -0.027541  -0.027541   0.003480   0.000263  -0.000071
     4  C   -0.027263   0.002659   0.394696  -0.000294   0.000011   0.000004
     5  C    0.001873  -0.000126  -0.027774   0.002269  -0.000099  -0.000051
     6  N   -0.000064   0.002312   0.002312  -0.036018   0.001873   0.000563
     7  H    0.372705  -0.001127  -0.001127  -0.000036  -0.000001   0.000001
     8  H   -0.001127   0.380451  -0.000021  -0.002545   0.000647   0.000091
     9  H   -0.001127  -0.000021   0.380451   0.000000  -0.000000  -0.000000
    10  C   -0.000036  -0.002545   0.000000   5.421795   0.377237   0.374434
    11  H   -0.000001   0.000647  -0.000000   0.377237   0.483132  -0.020442
    12  H    0.000001   0.000091  -0.000000   0.374434  -0.020442   0.422993
    13  H    0.000000   0.000028  -0.000000   0.382365  -0.022842  -0.015105
    14  C   -0.000036   0.000000  -0.002544  -0.000011   0.000000   0.000000
    15  H    0.000000  -0.000000   0.000028   0.000001  -0.000000   0.000000
    16  H    0.000001  -0.000000   0.000091   0.000000  -0.000000  -0.000000
    17  H   -0.000001  -0.000000   0.000647   0.000000  -0.000000  -0.000000
    18  B    0.000010  -0.000046  -0.000046  -0.012981   0.000588  -0.000626
    19  Cl  -0.000000   0.000018   0.000001  -0.032127   0.001356  -0.005447
    20  Cl  -0.000000   0.000002   0.000002  -0.002367   0.000000   0.000154
    21  Cl  -0.000000   0.000001   0.000018  -0.000022   0.000001   0.000009
              13         14         15         16         17         18
     1  C   -0.043405   0.002269   0.000041  -0.000051  -0.000099  -0.046483
     2  C    0.003053  -0.000294   0.000009   0.000004   0.000011   0.002075
     3  C   -0.000058   0.003480  -0.000058  -0.000071   0.000263  -0.000972
     4  C    0.000009  -0.076551   0.003053   0.000153  -0.005258   0.002075
     5  C    0.000041   0.224234  -0.043406  -0.046551  -0.048287  -0.046467
     6  N   -0.001364  -0.036019  -0.001364   0.000564   0.001873   0.110545
     7  H    0.000000  -0.000036   0.000000   0.000001  -0.000001   0.000010
     8  H    0.000028   0.000000  -0.000000  -0.000000  -0.000000  -0.000046
     9  H   -0.000000  -0.002544   0.000028   0.000091   0.000647  -0.000046
    10  C    0.382365  -0.000011   0.000001   0.000000   0.000000  -0.012981
    11  H   -0.022842   0.000000  -0.000000  -0.000000  -0.000000   0.000588
    12  H   -0.015105   0.000000   0.000000  -0.000000  -0.000000  -0.000626
    13  H    0.413883   0.000001   0.000001   0.000000  -0.000000  -0.004494
    14  C    0.000001   5.421753   0.382373   0.374441   0.377235  -0.012967
    15  H    0.000001   0.382373   0.413912  -0.015105  -0.022845  -0.004493
    16  H    0.000000   0.374441  -0.015105   0.422999  -0.020444  -0.000626
    17  H   -0.000000   0.377235  -0.022845  -0.020444   0.483142   0.000587
    18  B   -0.004494  -0.012967  -0.004493  -0.000626   0.000587   3.975500
    19  Cl  -0.008768  -0.000022   0.000055   0.000009   0.000001   0.235010
    20  Cl   0.001390  -0.002359   0.001389   0.000154   0.000000   0.214821
    21  Cl   0.000055  -0.032147  -0.008780  -0.005452   0.001357   0.235002
              19         20         21
     1  C   -0.003762  -0.002008  -0.000411
     2  C    0.000174  -0.000173  -0.000033
     3  C   -0.000011   0.000010  -0.000011
     4  C   -0.000033  -0.000173   0.000174
     5  C   -0.000411  -0.002006  -0.003760
     6  N   -0.028669  -0.047456  -0.028666
     7  H   -0.000000  -0.000000  -0.000000
     8  H    0.000018   0.000002   0.000001
     9  H    0.000001   0.000002   0.000018
    10  C   -0.032127  -0.002367  -0.000022
    11  H    0.001356   0.000000   0.000001
    12  H   -0.005447   0.000154   0.000009
    13  H   -0.008768   0.001390   0.000055
    14  C   -0.000022  -0.002359  -0.032147
    15  H    0.000055   0.001389  -0.008780
    16  H    0.000009   0.000154  -0.005452
    17  H    0.000001   0.000000   0.001357
    18  B    0.235010   0.214821   0.235002
    19  Cl  17.280422  -0.085460  -0.108274
    20  Cl  -0.085460  17.236749  -0.085456
    21  Cl  -0.108274  -0.085456  17.280428
 Mulliken charges:
               1
     1  C    0.448351
     2  C   -0.321596
     3  C   -0.124795
     4  C   -0.321601
     5  C    0.448253
     6  N   -1.001930
     7  H    0.289960
     8  H    0.278272
     9  H    0.278273
    10  C   -0.622856
    11  H    0.231817
    12  H    0.289898
    13  H    0.295211
    14  C   -0.622837
    15  H    0.295190
    16  H    0.289885
    17  H    0.231818
    18  B    0.353987
    19  Cl  -0.244059
    20  Cl  -0.227213
    21  Cl  -0.244030
 Sum of Mulliken charges =  -0.00000
 Mulliken charges with hydrogens summed into heavy atoms:
               1
     1  C    0.448351
     2  C   -0.043324
     3  C    0.165165
     4  C   -0.043328
     5  C    0.448253
     6  N   -1.001930
    10  C    0.194071
    14  C    0.194057
    18  B    0.353987
    19  Cl  -0.244059
    20  Cl  -0.227213
    21  Cl  -0.244030
 Electronic spatial extent (au):  <R**2>=           2734.9935
 Charge=             -0.0000 electrons
 Dipole moment (field-independent basis, Debye):
    X=            -10.8510    Y=              0.0001    Z=              0.8412  Tot=             10.8836
 Quadrupole moment (field-independent basis, Debye-Ang):
   XX=            -90.0228   YY=            -85.2425   ZZ=           -104.2171
   XY=              0.0003   XZ=              2.4682   YZ=             -0.0001
 Traceless Quadrupole moment (field-independent basis, Debye-Ang):
   XX=              3.1380   YY=              7.9183   ZZ=            -11.0563
   XY=              0.0003   XZ=              2.4682   YZ=             -0.0001
 Octapole moment (field-independent basis, Debye-Ang**2):
  XXX=            -78.1492  YYY=             -0.0028  ZZZ=             -1.8552  XYY=            -26.5556
  XXY=              0.0002  XXZ=             -6.6374  XZZ=             -5.2773  YZZ=              0.0035
  YYZ=             10.2265  XYZ=              0.0001
 Hexadecapole moment (field-independent basis, Debye-Ang**3):
 XXXX=          -1682.2135 YYYY=          -1156.5376 ZZZZ=           -569.8352 XXXY=             -0.0008
 XXXZ=             42.7909 YYYX=             -0.0010 YYYZ=             -0.0029 ZZZX=             -7.7910
 ZZZY=             -0.0005 XXYY=           -500.6553 XXZZ=           -443.9308 YYZZ=           -300.6796
 XXYZ=             -0.0019 YYXZ=              4.4661 ZZXY=              0.0041
 N-N= 1.016570627136D+03 E-N=-6.109215056881D+03  KE= 1.717749959676D+03
 Orbital energies and kinetic energies (alpha):
                                 1                 2
   1         O              -104.065115        136.078023
   2         O              -104.062444        136.075455
   3         O              -104.062309        136.078945
   4         O               -15.620558         21.927252
   5         O               -11.313761         15.877192
   6         O               -11.313544         15.873835
   7         O               -11.265424         15.875246
   8         O               -11.233153         15.870452
   9         O               -11.233046         15.875962
  10         O               -11.199465         15.875656
  11         O               -11.199431         15.874562
  12         O               -10.459422         22.341216
  13         O               -10.456537         22.333965
  14         O               -10.456089         22.346897
  15         O                -7.922619         20.334808
  16         O                -7.919570         20.330855
  17         O                -7.919509         20.335418
  18         O                -7.919254         20.359239
  19         O                -7.919128         20.364260
  20         O                -7.916257         20.350597
  21         O                -7.916059         20.361314
  22         O                -7.916005         20.363033
  23         O                -7.915894         20.366792
  24         O                -7.716813         10.823542
  25         O                -1.364125          1.838096
  26         O                -1.170412          1.660566
  27         O                -1.145324          1.562704
  28         O                -1.104289          2.525006
  29         O                -1.052382          2.838872
  30         O                -1.046465          2.863122
  31         O                -1.040262          1.493312
  32         O                -0.986963          1.579425
  33         O                -0.915382          1.543829
  34         O                -0.892281          1.583391
  35         O                -0.787052          1.332620
  36         O                -0.751179          1.443609
  37         O                -0.717395          1.385747
  38         O                -0.670714          1.263938
  39         O                -0.665969          1.190955
  40         O                -0.635454          1.260306
  41         O                -0.619002          1.365734
  42         O                -0.616966          0.956686
  43         O                -0.592569          1.503866
  44         O                -0.584650          1.156416
  45         O                -0.571006          1.211491
  46         O                -0.564792          1.477302
  47         O                -0.551559          1.629781
  48         O                -0.518973          1.625838
  49         O                -0.510667          1.931370
  50         O                -0.466825          1.592169
  51         O                -0.439599          2.183315
  52         O                -0.435387          2.208261
  53         O                -0.429840          2.053673
  54         O                -0.412250          2.346520
  55         O                -0.408280          2.379341
  56         O                -0.400470          2.057993
  57         O                -0.388827          1.535207
  58         V                 0.033021          1.428486
  59         V                 0.090109          1.288221
  60         V                 0.213824          1.014545
  61         V                 0.229481          1.687299
  62         V                 0.232668          1.911989
  63         V                 0.245293          1.641437
  64         V                 0.272511          0.996664
  65         V                 0.277604          1.481131
  66         V                 0.294668          1.226877
  67         V                 0.308388          1.495217
  68         V                 0.310651          1.403544
  69         V                 0.314247          1.164904
  70         V                 0.328241          1.076520
  71         V                 0.348508          1.603418
  72         V                 0.350446          1.089331
  73         V                 0.369475          1.467780
  74         V                 0.385002          1.664108
  75         V                 0.406845          1.849615
  76         V                 0.470039          1.685519
  77         V                 0.485401          1.603619
  78         V                 0.506934          1.945506
  79         V                 0.507332          2.056524
  80         V                 0.672370          2.260703
  81         V                 0.692844          1.870737
  82         V                 0.695680          2.406393
  83         V                 0.719159          2.731370
  84         V                 0.743863          2.655538
  85         V                 0.765485          2.802245
  86         V                 0.798612          3.080665
  87         V                 0.810052          2.756769
  88         V                 0.812072          3.383977
  89         V                 0.829310          3.520207
  90         V                 0.838107          3.340306
  91         V                 0.859984          2.885493
  92         V                 0.868999          3.010968
  93         V                 0.879571          2.954988
  94         V                 0.898604          2.706788
  95         V                 0.904575          2.510091
  96         V                 0.910803          2.890188
  97         V                 0.920646          3.029901
  98         V                 0.949955          2.906980
  99         V                 0.960423          2.985034
 100         V                 0.981344          2.987189
 101         V                 0.985426          3.001620
 102         V                 1.026224          2.798316
 103         V                 1.034643          2.808511
 104         V                 1.038214          2.774705
 105         V                 1.054325          3.054067
 106         V                 1.092777          3.174514
 107         V                 1.114148          2.847444
 108         V                 1.117017          2.691271
 109         V                 1.126706          2.738385
 110         V                 1.165538          3.122430
 111         V                 1.173807          2.830723
 112         V                 1.194538          3.097481
 113         V                 1.237945          3.394983
 114         V                 1.281652          3.202357
 115         V                 1.319020          3.107269
 116         V                 1.339752          3.015451
 117         V                 1.349356          3.069928
 118         V                 1.366092          2.964804
 119         V                 1.367458          3.128951
 120         V                 1.372140          2.999962
 121         V                 1.422176          2.955066
 122         V                 1.428222          3.097760
 123         V                 1.459068          3.166245
 124         V                 1.524046          3.059581
 125         V                 1.599321          3.756673
 126         V                 1.616255          2.732749
 127         V                 1.654251          2.927924
 128         V                 1.662786          3.371346
 129         V                 1.733975          3.295589
 130         V                 1.811942          3.210630
 131         V                 1.857985          3.287972
 132         V                 1.942937          3.785207
 133         V                 2.083681          3.866945
 134         V                 2.162833          3.650833
 135         V                 2.258111          3.472444
 136         V                 2.299866          4.014278
 137         V                 2.343388          3.498214
 138         V                 3.226778          5.162789
 Total kinetic energy from orbitals= 1.717749959676D+03
 1\1\GINC-IISERK51\SP\RHF\3-21G\C7H9B1Cl3N1\GAUSSIAN\16-Jun-2025\0\\# h
 f/3-21g pop=full geom=connectivity\\Title Card Required\\0,1\C,0,-1.26
 5864,-1.17932,0.078664\C,0,-2.621516,-1.183686,-0.170653\C,0,-3.299115
 ,-0.000065,-0.356916\C,0,-2.621548,1.183651,-0.17076\C,0,-1.26596,1.17
 9377,0.078592\N,0,-0.573632,0.000009,0.062103\H,0,-4.347313,-0.000086,
 -0.577248\H,0,-3.133426,-2.121493,-0.188007\H,0,-3.133545,2.121411,-0.
 188178\C,0,-0.636535,-2.500003,0.478592\H,0,-1.387992,-3.059232,1.0209
 06\H,0,-0.327623,-3.069321,-0.383617\H,0,0.214747,-2.356326,1.121989\C
 ,0,-0.636652,2.500042,0.478688\H,0,0.214594,2.356261,1.122121\H,0,-0.3
 27728,3.069517,-0.383401\H,0,-1.388142,3.059156,1.021078\B,0,1.046276,
 0.000042,-0.042205\Cl,0,1.692904,-1.498278,-1.024082\Cl,0,1.701375,-0.
 000345,1.736614\Cl,0,1.692992,1.498615,-1.023508\\Version=EM64L-G16Rev
 B.01\State=1-A\HF=-1719.5406369\RMSD=6.668e-09\Dipole=-4.2691308,0.000
 0283,0.3309489\Quadrupole=2.3329899,5.8870726,-8.2200625,0.0002457,1.8
 350151,-0.0000671\PG=C01 [X(C7H9B1Cl3N1)]\\@


 A true friend is someone who is there for
 you when he'd rather be anywhere else.
                               -- Len Wein
 Job cpu time:       0 days  0 hours  0 minutes  2.8 seconds.
 Elapsed time:       0 days  0 hours  0 minutes  2.8 seconds.
 File lengths (MBytes):  RWF=     10 Int=      0 D2E=      0 Chk=      2 Scr=      1
 Normal termination of Gaussian 16 at Mon Jun 16 22:48:13 2025.
