 Entering Gaussian System, Link 0=g16
 Input=/home/gaussian/Documents/Summer_Internship/Acid_Base_adduct/Adduct/2,6 DMP - BCl3/py_only_adduct_sp.com
 Output=/home/gaussian/Documents/Summer_Internship/Acid_Base_adduct/Adduct/2,6 DMP - BCl3/py_only_adduct_sp.log
 Initial command:
 /usr/local/g16/l1.exe "/home/gaussian/tmp/Gau-80428.inp" -scrdir="/home/gaussian/tmp/"
 Entering Link 1 = /usr/local/g16/l1.exe PID=     80431.
  
 Copyright (c) 1988-2017, Gaussian, Inc.  All Rights Reserved.
  
 This is part of the Gaussian(R) 16 program.  It is based on
 the Gaussian(R) 09 system (copyright 2009, Gaussian, Inc.),
 the Gaussian(R) 03 system (copyright 2003, Gaussian, Inc.),
 the Gaussian(R) 98 system (copyright 1998, Gaussian, Inc.),
 the Gaussian(R) 94 system (copyright 1995, Gaussian, Inc.),
 the Gaussian 92(TM) system (copyright 1992, Gaussian, Inc.),
 the Gaussian 90(TM) system (copyright 1990, Gaussian, Inc.),
 the Gaussian 88(TM) system (copyright 1988, Gaussian, Inc.),
 the Gaussian 86(TM) system (copyright 1986, Carnegie Mellon
 University), and the Gaussian 82(TM) system (copyright 1983,
 Carnegie Mellon University). Gaussian is a federally registered
 trademark of Gaussian, Inc.
  
 This software contains proprietary and confidential information,
 including trade secrets, belonging to Gaussian, Inc.
  
 This software is provided under written license and may be
 used, copied, transmitted, or stored only in accord with that
 written license.
  
 The following legend is applicable only to US Government
 contracts under FAR:
  
                    RESTRICTED RIGHTS LEGEND
  
 Use, reproduction and disclosure by the US Government is
 subject to restrictions as set forth in subparagraphs (a)
 and (c) of the Commercial Computer Software - Restricted
 Rights clause in FAR 52.227-19.
  
 Gaussian, Inc.
 340 Quinnipiac St., Bldg. 40, Wallingford CT 06492
  
  
 ---------------------------------------------------------------
 Warning -- This program may not be used in any manner that
 competes with the business of Gaussian, Inc. or will provide
 assistance to any competitor of Gaussian, Inc.  The licensee
 of this program is prohibited from giving any competitor of
 Gaussian, Inc. access to this program.  By using this program,
 the user acknowledges that Gaussian, Inc. is engaged in the
 business of creating and licensing software in the field of
 computational chemistry and represents and warrants to the
 licensee that it is not a competitor of Gaussian, Inc. and that
 it will not use this program in any manner prohibited above.
 ---------------------------------------------------------------
  

 Cite this work as:
 Gaussian 16, Revision B.01,
 M. J. Frisch, G. W. Trucks, H. B. Schlegel, G. E. Scuseria, 
 M. A. Robb, J. R. Cheeseman, G. Scalmani, V. Barone, 
 G. A. Petersson, H. Nakatsuji, X. Li, M. Caricato, A. V. Marenich, 
 J. Bloino, B. G. Janesko, R. Gomperts, B. Mennucci, H. P. Hratchian, 
 J. V. Ortiz, A. F. Izmaylov, J. L. Sonnenberg, D. Williams-Young, 
 F. Ding, F. Lipparini, F. Egidi, J. Goings, B. Peng, A. Petrone, 
 T. Henderson, D. Ranasinghe, V. G. Zakrzewski, J. Gao, N. Rega, 
 G. Zheng, W. Liang, M. Hada, M. Ehara, K. Toyota, R. Fukuda, 
 J. Hasegawa, M. Ishida, T. Nakajima, Y. Honda, O. Kitao, H. Nakai, 
 T. Vreven, K. Throssell, J. A. Montgomery, Jr., J. E. Peralta, 
 F. Ogliaro, M. J. Bearpark, J. J. Heyd, E. N. Brothers, K. N. Kudin, 
 V. N. Staroverov, T. A. Keith, R. Kobayashi, J. Normand, 
 K. Raghavachari, A. P. Rendell, J. C. Burant, S. S. Iyengar, 
 J. Tomasi, M. Cossi, J. M. Millam, M. Klene, C. Adamo, R. Cammi, 
 J. W. Ochterski, R. L. Martin, K. Morokuma, O. Farkas, 
 J. B. Foresman, and D. J. Fox, Gaussian, Inc., Wallingford CT, 2016.
 
 ******************************************
 Gaussian 16:  EM64L-G16RevB.01 20-Dec-2017
                16-Jun-2025 
 ******************************************
 %chk=py_only_adduct_sp.chk
 -------------------------------------
 # hf/3-21g pop=full geom=connectivity
 -------------------------------------
 1/38=1,57=2,172=1/1;
 2/12=2,17=6,18=5,40=1/2;
 3/5=5,11=9,25=1,30=1/1,2,3;
 4//1;
 5/5=2,38=5/2;
 6/7=3,28=1/1;
 99/5=1,9=1/99;
 -------------------
 Title Card Required
 -------------------
 Symbolic Z-matrix:
 Charge =  0 Multiplicity = 1
 C                    -1.26586  -1.17932   0.07866 
 C                    -2.62152  -1.18369  -0.17065 
 C                    -3.29912  -0.00007  -0.35692 
 C                    -2.62155   1.18365  -0.17076 
 C                    -1.26596   1.17938   0.07859 
 N                    -0.57363   0.00001   0.0621 
 H                    -4.34731  -0.00009  -0.57725 
 H                    -3.13343  -2.12149  -0.18801 
 H                    -3.13355   2.12141  -0.18818 
 C                    -0.63654  -2.5       0.47859 
 H                    -1.38799  -3.05923   1.02091 
 H                    -0.32762  -3.06932  -0.38362 
 H                     0.21475  -2.35633   1.12199 
 C                    -0.63665   2.50004   0.47869 
 H                     0.21459   2.35626   1.12212 
 H                    -0.32773   3.06952  -0.3834 
 H                    -1.38814   3.05916   1.02108 
 
                          Input orientation:                          
 ---------------------------------------------------------------------
 Center     Atomic      Atomic             Coordinates (Angstroms)
 Number     Number       Type             X           Y           Z
 ---------------------------------------------------------------------
      1          6           0       -1.265864   -1.179320    0.078664
      2          6           0       -2.621516   -1.183686   -0.170653
      3          6           0       -3.299115   -0.000065   -0.356916
      4          6           0       -2.621548    1.183651   -0.170760
      5          6           0       -1.265960    1.179377    0.078592
      6          7           0       -0.573632    0.000009    0.062103
      7          1           0       -4.347313   -0.000086   -0.577248
      8          1           0       -3.133426   -2.121493   -0.188007
      9          1           0       -3.133545    2.121411   -0.188178
     10          6           0       -0.636535   -2.500003    0.478592
     11          1           0       -1.387992   -3.059232    1.020906
     12          1           0       -0.327623   -3.069321   -0.383617
     13          1           0        0.214747   -2.356326    1.121989
     14          6           0       -0.636652    2.500042    0.478688
     15          1           0        0.214594    2.356261    1.122121
     16          1           0       -0.327728    3.069517   -0.383401
     17          1           0       -1.388142    3.059156    1.021078
 ---------------------------------------------------------------------
                    Distance matrix (angstroms):
                    1          2          3          4          5
     1  C    0.000000
     2  C    1.378394   0.000000
     3  C    2.390498   1.376515   0.000000
     4  C    2.735639   2.367337   1.376566   0.000000
     5  C    2.358697   2.735639   2.390496   1.378337   0.000000
     6  N    1.367580   2.376792   2.757505   2.376803   1.367662
     7  H    3.363947   2.131808   1.071105   2.131837   3.363926
     8  H    2.108694   1.068567   2.134582   3.344592   3.801874
     9  H    3.801876   3.344570   2.134607   1.068568   2.108665
    10  C    1.516641   2.468676   3.746611   4.234530   3.754199
    11  H    2.106372   2.541469   3.861255   4.576438   4.343806
    12  H    2.160117   2.977065   4.272097   4.836855   4.375563
    13  H    2.160111   3.330225   4.481780   4.716694   3.972703
    14  C    3.754149   4.234523   3.746662   2.468700   1.516661
    15  H    3.972517   4.716568   4.481738   3.330204   2.160104
    16  H    4.375639   4.836989   4.272257   2.977132   2.160173
    17  H    4.343705   4.576368   3.861285   2.541513   2.106366
                    6          7          8          9         10
     6  N    0.000000
     7  H    3.827458   0.000000
     8  H    3.334047   2.474954   0.000000
     9  H    3.334088   2.474946   4.242904   0.000000
    10  C    2.535247   4.597201   2.611913   5.295008   0.000000
    11  H    3.307785   4.546433   2.321070   5.598920   1.082372
    12  H    3.111266   5.061186   2.968025   5.903820   1.078403
    13  H    2.701336   5.408481   3.602985   5.742624   1.076700
    14  C    2.535287   4.597243   5.294993   2.612000   5.000045
    15  H    2.701270   5.408440   5.742469   3.603064   4.972107
    16  H    3.111402   5.061334   5.903957   2.968101   5.644284
    17  H    3.307785   4.546460   5.598842   2.321228   5.635907
                   11         12         13         14         15
    11  H    0.000000
    12  H    1.759878   0.000000
    13  H    1.753017   1.751964   0.000000
    14  C    5.635960   5.644189   4.972226   0.000000
    15  H    5.648548   5.656694   4.712587   1.076707   0.000000
    16  H    6.376347   6.138838   5.656876   1.078394   1.751983
    17  H    6.118388   6.376214   5.648618   1.082374   1.753007
                   16         17
    16  H    0.000000
    17  H    1.759871   0.000000
 Stoichiometry    C7H9N
 Framework group  C1[X(C7H9N)]
 Deg. of freedom    45
 Full point group                 C1      NOp   1
 Largest Abelian subgroup         C1      NOp   1
 Largest concise Abelian subgroup C1      NOp   1
                         Standard orientation:                         
 ---------------------------------------------------------------------
 Center     Atomic      Atomic             Coordinates (Angstroms)
 Number     Number       Type             X           Y           Z
 ---------------------------------------------------------------------
      1          6           0       -1.179326   -0.301174   -0.095038
      2          6           0       -1.183663    1.073568    0.005145
      3          6           0       -0.000027    1.776212   -0.004453
      4          6           0        1.183674    1.073577    0.005021
      5          6           0        1.179371   -0.301111   -0.095113
      6          7           0       -0.000013   -0.966940   -0.285440
      7          1           0       -0.000025    2.846111    0.046340
      8          1           0       -2.121458    1.573364    0.117303
      9          1           0        2.121446    1.573434    0.117115
     10          6           0       -2.500021   -1.010919    0.133496
     11          1           0       -3.059229   -0.420277    0.847609
     12          1           0       -3.069352   -1.092686   -0.778716
     13          1           0       -2.356359   -1.996816    0.541726
     14          6           0        2.500024   -1.010933    0.133557
     15          1           0        2.356228   -1.996799    0.541834
     16          1           0        3.069486   -1.092765   -0.778556
     17          1           0        3.059159   -0.420301    0.847738
 ---------------------------------------------------------------------
 Rotational constants (GHZ):           3.7625486           1.8037676           1.2497317
 Standard basis: 3-21G (6D, 7F)
 There are    90 symmetry adapted cartesian basis functions of A   symmetry.
 There are    90 symmetry adapted basis functions of A   symmetry.
    90 basis functions,   147 primitive gaussians,    90 cartesian basis functions
    29 alpha electrons       29 beta electrons
       nuclear repulsion energy       345.8866823069 Hartrees.
 NAtoms=   17 NActive=   17 NUniq=   17 SFac= 1.00D+00 NAtFMM=   60 NAOKFM=F Big=F
 Integral buffers will be    131072 words long.
 Raffenetti 1 integral format.
 Two-electron integral symmetry is turned on.
 One-electron integrals computed using PRISM.
 NBasis=    90 RedAO= T EigKep=  2.73D-03  NBF=    90
 NBsUse=    90 1.00D-06 EigRej= -1.00D+00 NBFU=    90
 ExpMin= 1.83D-01 ExpMax= 2.43D+02 ExpMxC= 2.43D+02 IAcc=3 IRadAn=         5 AccDes= 0.00D+00
 Harris functional with IExCor=  205 and IRadAn=       5 diagonalized for initial guess.
 HarFok:  IExCor=  205 AccDes= 0.00D+00 IRadAn=         5 IDoV= 1 UseB2=F ITyADJ=14
 ICtDFT=  3500011 ScaDFX=  1.000000  1.000000  1.000000  1.000000
 FoFCou: FMM=F IPFlag=           0 FMFlag=      100000 FMFlg1=           0
         NFxFlg=           0 DoJE=T BraDBF=F KetDBF=T FulRan=T
         wScrn=  0.000000 ICntrl=       500 IOpCl=  0 I1Cent=   200000004 NGrid=           0
         NMat0=    1 NMatS0=      1 NMatT0=    0 NMatD0=    1 NMtDS0=    0 NMtDT0=    0
 Petite list used in FoFCou.
 Keep R1 ints in memory in canonical form, NReq=9230691.
 Requested convergence on RMS density matrix=1.00D-08 within 128 cycles.
 Requested convergence on MAX density matrix=1.00D-06.
 Requested convergence on             energy=1.00D-06.
 No special actions if energy rises.
 SCF Done:  E(RHF) =  -322.944596035     A.U. after   14 cycles
            NFock= 14  Conv=0.61D-08     -V/T= 2.0019

 **********************************************************************

            Population analysis using the SCF Density.

 **********************************************************************

 Orbital symmetries:
       Occupied  (A) (A) (A) (A) (A) (A) (A) (A) (A) (A) (A) (A)
                 (A) (A) (A) (A) (A) (A) (A) (A) (A) (A) (A) (A)
                 (A) (A) (A) (A) (A)
       Virtual   (A) (A) (A) (A) (A) (A) (A) (A) (A) (A) (A) (A)
                 (A) (A) (A) (A) (A) (A) (A) (A) (A) (A) (A) (A)
                 (A) (A) (A) (A) (A) (A) (A) (A) (A) (A) (A) (A)
                 (A) (A) (A) (A) (A) (A) (A) (A) (A) (A) (A) (A)
                 (A) (A) (A) (A) (A) (A) (A) (A) (A) (A) (A) (A)
                 (A)
 The electronic state is 1-A.
 Alpha  occ. eigenvalues --  -15.48345 -11.22527 -11.22503 -11.19134 -11.17024
 Alpha  occ. eigenvalues --  -11.17013 -11.16237 -11.16232  -1.25248  -1.08276
 Alpha  occ. eigenvalues --   -1.07543  -0.98825  -0.93537  -0.83653  -0.80702
 Alpha  occ. eigenvalues --   -0.69466  -0.67316  -0.61729  -0.59735  -0.57857
 Alpha  occ. eigenvalues --   -0.57403  -0.57264  -0.53656  -0.53458  -0.50233
 Alpha  occ. eigenvalues --   -0.50089  -0.38954  -0.36441  -0.33177
 Alpha virt. eigenvalues --    0.13094   0.14837   0.26452   0.30056   0.30499
 Alpha virt. eigenvalues --    0.31753   0.33239   0.33442   0.35344   0.37539
 Alpha virt. eigenvalues --    0.37568   0.41397   0.43416   0.45091   0.50206
 Alpha virt. eigenvalues --    0.54402   0.56206   0.57974   0.77988   0.79024
 Alpha virt. eigenvalues --    0.88424   0.93573   0.94265   0.95891   0.96878
 Alpha virt. eigenvalues --    0.99162   0.99961   1.02898   1.06343   1.08900
 Alpha virt. eigenvalues --    1.09099   1.09551   1.12490   1.15550   1.17294
 Alpha virt. eigenvalues --    1.19469   1.22392   1.23710   1.29827   1.34420
 Alpha virt. eigenvalues --    1.34447   1.36226   1.37292   1.37692   1.44877
 Alpha virt. eigenvalues --    1.45349   1.45736   1.55021   1.59725   1.66328
 Alpha virt. eigenvalues --    1.71251   1.73199   1.74314   1.86285   1.91417
 Alpha virt. eigenvalues --    1.99937   2.19109   2.23221   2.27500   2.38512
 Alpha virt. eigenvalues --    3.29557
     Molecular Orbital Coefficients:
                           1         2         3         4         5
                           O         O         O         O         O
     Eigenvalues --   -15.48345 -11.22527 -11.22503 -11.19134 -11.17024
   1 1   C  1S         -0.00016   0.69927   0.69676   0.00235  -0.00112
   2        2S         -0.00007   0.07067   0.06848   0.00017   0.00233
   3        2PX         0.00037   0.00095  -0.00098  -0.00053   0.00015
   4        2PY        -0.00070   0.00087  -0.00001  -0.00099   0.00104
   5        2PZ         0.00010   0.00037   0.00014   0.00004  -0.00001
   6        3S          0.02701  -0.05572  -0.04575  -0.01037  -0.01897
   7        3PX         0.03537   0.00239   0.01964  -0.00037  -0.00612
   8        3PY         0.00072  -0.01728  -0.00296  -0.00326  -0.01166
   9        3PZ        -0.00451  -0.00399  -0.00358  -0.00078  -0.00016
  10 2   C  1S          0.00044  -0.00153  -0.00117  -0.00820  -0.69751
  11        2S          0.00206  -0.00280  -0.00178  -0.00511  -0.07072
  12        2PX         0.00062   0.00021   0.00023  -0.00159  -0.00161
  13        2PY         0.00036   0.00096   0.00131  -0.00036   0.00019
  14        2PZ         0.00001   0.00007   0.00006   0.00007   0.00003
  15        3S         -0.02066   0.02290   0.01000   0.03801   0.05821
  16        3PX        -0.02508  -0.00322  -0.01180   0.02133   0.01183
  17        3PY         0.00497  -0.01851  -0.00841  -0.00034  -0.00562
  18        3PZ         0.00236  -0.00044   0.00057  -0.00075  -0.00090
  19 3   C  1S         -0.00031  -0.00001  -0.00339   0.98724   0.00001
  20        2S         -0.00124  -0.00000  -0.00160   0.09999  -0.00000
  21        2PX        -0.00000   0.00107  -0.00000  -0.00000  -0.00147
  22        2PY        -0.00053   0.00000   0.00034  -0.00153   0.00000
  23        2PZ         0.00008  -0.00000  -0.00003   0.00008   0.00000
  24        3S          0.03322   0.00003   0.01505  -0.09357   0.00003
  25        3PX        -0.00000  -0.00844   0.00001   0.00000   0.01518
  26        3PY        -0.01618  -0.00001  -0.00585   0.02574  -0.00002
  27        3PZ        -0.00078   0.00000  -0.00012  -0.00011  -0.00000
  28 4   C  1S          0.00044   0.00152  -0.00117  -0.00820   0.69847
  29        2S          0.00206   0.00279  -0.00179  -0.00511   0.07081
  30        2PX        -0.00062   0.00021  -0.00023   0.00159  -0.00161
  31        2PY         0.00036  -0.00095   0.00131  -0.00036  -0.00019
  32        2PZ         0.00001  -0.00007   0.00006   0.00007  -0.00003
  33        3S         -0.02066  -0.02288   0.01008   0.03801  -0.05832
  34        3PX         0.02507  -0.00318   0.01180  -0.02133   0.01186
  35        3PY         0.00498   0.01849  -0.00847  -0.00034   0.00564
  36        3PZ         0.00236   0.00044   0.00057  -0.00074   0.00090
  37 5   C  1S         -0.00016  -0.69705   0.69897   0.00235   0.00112
  38        2S         -0.00007  -0.07046   0.06870   0.00017  -0.00234
  39        2PX        -0.00037   0.00095   0.00098   0.00053   0.00015
  40        2PY        -0.00070  -0.00087  -0.00000  -0.00099  -0.00104
  41        2PZ         0.00010  -0.00037   0.00014   0.00004   0.00001
  42        3S          0.02700   0.05558  -0.04592  -0.01037   0.01901
  43        3PX        -0.03536   0.00233  -0.01964   0.00037  -0.00614
  44        3PY         0.00072   0.01727  -0.00302  -0.00326   0.01169
  45        3PZ        -0.00450   0.00398  -0.00359  -0.00078   0.00016
  46 6   N  1S          0.98684   0.00000   0.00041  -0.00002   0.00000
  47        2S          0.10648   0.00000   0.00277  -0.00020   0.00000
  48        2PX        -0.00000  -0.00023   0.00000  -0.00000  -0.00049
  49        2PY         0.00529   0.00000   0.00038  -0.00010   0.00000
  50        2PZ         0.00100  -0.00000  -0.00006  -0.00004  -0.00000
  51        3S         -0.09450  -0.00002  -0.00906   0.00164  -0.00001
  52        3PX         0.00000   0.00339  -0.00000   0.00000  -0.00089
  53        3PY        -0.02544  -0.00001  -0.00624   0.00069  -0.00001
  54        3PZ        -0.00542  -0.00000  -0.00059   0.00043  -0.00000
  55 7   H  1S          0.00015  -0.00000  -0.00022  -0.00250   0.00000
  56        2S          0.00314   0.00000   0.00206   0.00558   0.00000
  57 8   H  1S         -0.00186  -0.00078  -0.00157  -0.00013   0.00155
  58        2S         -0.00771   0.00023  -0.00355   0.00391  -0.00448
  59 9   H  1S         -0.00186   0.00078  -0.00158  -0.00013  -0.00155
  60        2S         -0.00771  -0.00025  -0.00354   0.00391   0.00448
  61 10  C  1S         -0.00013  -0.00052  -0.00165  -0.00235   0.00803
  62        2S         -0.00059  -0.00048  -0.00189  -0.00111   0.00136
  63        2PX         0.00054  -0.00047   0.00016   0.00005   0.00019
  64        2PY         0.00031   0.00005   0.00017  -0.00024   0.00016
  65        2PZ        -0.00008  -0.00034  -0.00021   0.00007  -0.00002
  66        3S          0.01257   0.00624   0.01899   0.00312  -0.00354
  67        3PX         0.00267   0.00402   0.00891   0.00070  -0.00207
  68        3PY         0.00627   0.00449   0.00702   0.00280  -0.00004
  69        3PZ        -0.00099   0.00227  -0.00045  -0.00029   0.00064
  70 11  H  1S         -0.00066  -0.00069  -0.00111  -0.00046   0.00020
  71        2S         -0.00132  -0.00092  -0.00060  -0.00037  -0.00051
  72 12  H  1S         -0.00038  -0.00045  -0.00124  -0.00028   0.00012
  73        2S         -0.00060   0.00292   0.00215  -0.00024   0.00013
  74 13  H  1S          0.00011  -0.00041  -0.00075   0.00003   0.00020
  75        2S          0.00113   0.00075   0.00078   0.00083  -0.00002
  76 14  C  1S         -0.00013   0.00051  -0.00165  -0.00235  -0.00804
  77        2S         -0.00059   0.00048  -0.00189  -0.00111  -0.00136
  78        2PX        -0.00054  -0.00047  -0.00016  -0.00005   0.00019
  79        2PY         0.00031  -0.00005   0.00017  -0.00024  -0.00016
  80        2PZ        -0.00008   0.00034  -0.00021   0.00007   0.00002
  81        3S          0.01257  -0.00618   0.01900   0.00312   0.00355
  82        3PX        -0.00267   0.00399  -0.00892  -0.00070  -0.00208
  83        3PY         0.00627  -0.00447   0.00703   0.00280   0.00004
  84        3PZ        -0.00099  -0.00227  -0.00044  -0.00029  -0.00064
  85 15  H  1S          0.00011   0.00041  -0.00076   0.00003  -0.00020
  86        2S          0.00113  -0.00075   0.00078   0.00083   0.00002
  87 16  H  1S         -0.00038   0.00044  -0.00124  -0.00028  -0.00012
  88        2S         -0.00060  -0.00292   0.00216  -0.00024  -0.00013
  89 17  H  1S         -0.00066   0.00069  -0.00111  -0.00046  -0.00020
  90        2S         -0.00132   0.00092  -0.00060  -0.00037   0.00051
                           6         7         8         9        10
                           O         O         O         O         O
     Eigenvalues --   -11.17013 -11.16237 -11.16232  -1.25248  -1.08276
   1 1   C  1S          0.00092  -0.00038   0.00118  -0.10292  -0.01017
   2        2S         -0.00247   0.00063  -0.00134   0.11491   0.00783
   3        2PX        -0.00022  -0.00069   0.00008   0.07771   0.04764
   4        2PY        -0.00161  -0.00048   0.00034  -0.00411  -0.08865
   5        2PZ        -0.00007   0.00013   0.00002  -0.00623  -0.01197
   6        3S          0.02890  -0.01114   0.01406   0.12562   0.01550
   7        3PX         0.01243   0.01085  -0.00652  -0.09216  -0.01785
   8        3PY         0.01929   0.01118  -0.00685  -0.00073  -0.01026
   9        3PZ        -0.00039  -0.00142   0.00141   0.01360   0.00010
  10 2   C  1S          0.69855  -0.00776   0.01149  -0.05803   0.10705
  11        2S          0.07100  -0.00028   0.00051   0.05986  -0.11850
  12        2PX         0.00021  -0.00069   0.00041   0.02665  -0.06691
  13        2PY        -0.00088  -0.00044   0.00047  -0.03504  -0.03048
  14        2PZ        -0.00016  -0.00000   0.00007  -0.00334  -0.00064
  15        3S         -0.07763  -0.00192  -0.00156   0.14215  -0.21077
  16        3PX        -0.02117   0.00194  -0.00335   0.08630   0.01300
  17        3PY         0.01305   0.00584  -0.00241  -0.01511   0.00340
  18        3PZ         0.00245   0.00062  -0.00050  -0.00740  -0.00086
  19 3   C  1S          0.01041   0.00004   0.00310  -0.04510   0.15265
  20        2S         -0.00505  -0.00001  -0.00096   0.05599  -0.16653
  21        2PX         0.00000  -0.00035   0.00000  -0.00000  -0.00003
  22        2PY         0.00165   0.00000   0.00031  -0.03516   0.06098
  23        2PZ         0.00006   0.00000   0.00004  -0.00046  -0.00263
  24        3S          0.05345   0.00011   0.00812  -0.02664  -0.35903
  25        3PX        -0.00001   0.00548  -0.00008   0.00001   0.00002
  26        3PY        -0.02998  -0.00007  -0.00481   0.04085   0.03345
  27        3PZ        -0.00101   0.00000   0.00008   0.00205  -0.00229
  28 4   C  1S          0.69759   0.00808   0.01127  -0.05802   0.10715
  29        2S          0.07090   0.00030   0.00050   0.05986  -0.11861
  30        2PX        -0.00020  -0.00070  -0.00039  -0.02665   0.06689
  31        2PY        -0.00088   0.00045   0.00046  -0.03504  -0.03039
  32        2PZ        -0.00016   0.00001   0.00007  -0.00333  -0.00064
  33        3S         -0.07755   0.00188  -0.00161   0.14215  -0.21095
  34        3PX         0.02115   0.00203   0.00329  -0.08628  -0.01296
  35        3PY         0.01305  -0.00590  -0.00225  -0.01512   0.00336
  36        3PZ         0.00245  -0.00064  -0.00049  -0.00739  -0.00086
  37 5   C  1S          0.00092   0.00041   0.00117  -0.10290  -0.01001
  38        2S         -0.00247  -0.00067  -0.00132   0.11490   0.00765
  39        2PX         0.00022  -0.00069  -0.00006  -0.07770  -0.04765
  40        2PY        -0.00161   0.00049   0.00033  -0.00410  -0.08868
  41        2PZ        -0.00007  -0.00013   0.00002  -0.00622  -0.01197
  42        3S          0.02888   0.01152   0.01374   0.12560   0.01516
  43        3PX        -0.01242   0.01103   0.00621   0.09213   0.01781
  44        3PY         0.01928  -0.01137  -0.00653  -0.00075  -0.01035
  45        3PZ        -0.00039   0.00146   0.00137   0.01359   0.00008
  46 6   N  1S          0.00030   0.00000   0.00010  -0.16381  -0.10586
  47        2S          0.00169   0.00000   0.00019   0.13536   0.09286
  48        2PX         0.00000  -0.00021   0.00000  -0.00002  -0.00008
  49        2PY         0.00003  -0.00000  -0.00003   0.08708   0.02616
  50        2PZ        -0.00006   0.00000   0.00003   0.02170   0.01040
  51        3S         -0.01322  -0.00004  -0.00314   0.56564   0.36161
  52        3PX         0.00000  -0.00269   0.00004  -0.00002  -0.00006
  53        3PY        -0.00788   0.00001   0.00095   0.13126   0.05237
  54        3PZ        -0.00083  -0.00001  -0.00074   0.02929   0.01535
  55 7   H  1S          0.00000  -0.00000  -0.00004   0.01256  -0.06785
  56        2S          0.00727   0.00002   0.00173  -0.01387  -0.00775
  57 8   H  1S         -0.00210   0.00013  -0.00038   0.02093  -0.04558
  58        2S          0.00298  -0.00015  -0.00032   0.02336   0.00531
  59 9   H  1S         -0.00210  -0.00014  -0.00037   0.02093  -0.04563
  60        2S          0.00298   0.00014  -0.00032   0.02336   0.00530
  61 10  C  1S         -0.01158  -0.68851   0.70785  -0.02307  -0.00426
  62        2S         -0.00212  -0.07171   0.07322   0.02547   0.00299
  63        2PX        -0.00009   0.00005   0.00004   0.01784   0.00619
  64        2PY        -0.00007  -0.00019   0.00022   0.00825  -0.00758
  65        2PZ         0.00001   0.00001   0.00001  -0.00222  -0.00151
  66        3S          0.00791   0.06183  -0.05967   0.00381   0.00365
  67        3PX         0.00390   0.00520  -0.00354  -0.01159   0.00393
  68        3PY         0.00007   0.00263  -0.00197  -0.02256  -0.00747
  69        3PZ        -0.00104  -0.00093   0.00027   0.00159  -0.00060
  70 11  H  1S         -0.00023  -0.00038   0.00024   0.01089  -0.00176
  71        2S          0.00048  -0.00999   0.01045   0.00149  -0.00007
  72 12  H  1S         -0.00026  -0.00025   0.00004   0.00980   0.00159
  73        2S         -0.00027  -0.01031   0.01045  -0.00506  -0.00004
  74 13  H  1S         -0.00040  -0.00027   0.00008   0.00840   0.00410
  75        2S         -0.00042  -0.01012   0.01049  -0.00545   0.00206
  76 14  C  1S         -0.01158   0.70799   0.68837  -0.02307  -0.00415
  77        2S         -0.00212   0.07373   0.07119   0.02546   0.00288
  78        2PX         0.00009   0.00005  -0.00004  -0.01784  -0.00615
  79        2PY        -0.00007   0.00020   0.00022   0.00825  -0.00761
  80        2PZ         0.00001  -0.00001   0.00001  -0.00222  -0.00151
  81        3S          0.00790  -0.06347  -0.05792   0.00382   0.00336
  82        3PX        -0.00390   0.00529   0.00339   0.01159  -0.00392
  83        3PY         0.00007  -0.00269  -0.00190  -0.02255  -0.00747
  84        3PZ        -0.00104   0.00093   0.00024   0.00159  -0.00059
  85 15  H  1S         -0.00040   0.00027   0.00008   0.00840   0.00405
  86        2S         -0.00042   0.01041   0.01020  -0.00545   0.00207
  87 16  H  1S         -0.00026   0.00025   0.00003   0.00980   0.00154
  88        2S         -0.00027   0.01060   0.01016  -0.00505  -0.00003
  89 17  H  1S         -0.00023   0.00039   0.00023   0.01088  -0.00182
  90        2S          0.00048   0.01028   0.01016   0.00148  -0.00007
                          11        12        13        14        15
                           O         O         O         O         O
     Eigenvalues --    -1.07543  -0.98825  -0.93537  -0.83653  -0.80702
   1 1   C  1S          0.11557  -0.03647  -0.01791   0.05537  -0.09707
   2        2S         -0.12587   0.04194   0.02019  -0.06170   0.10136
   3        2PX         0.02571  -0.11857   0.04776   0.03189   0.08994
   4        2PY        -0.02439  -0.00207   0.10751  -0.14751  -0.07220
   5        2PZ        -0.00738   0.01952  -0.00233  -0.01333  -0.02107
   6        3S         -0.24902   0.08447   0.04097  -0.16395   0.31909
   7        3PX         0.02254  -0.02800  -0.00357   0.02036   0.02635
   8        3PY        -0.06630   0.01699   0.01257  -0.06963   0.04121
   9        3PZ        -0.01227   0.00593   0.00228  -0.00901   0.00276
  10 2   C  1S          0.08467  -0.00396  -0.10840   0.05099   0.05932
  11        2S         -0.09314   0.00595   0.11273  -0.05340  -0.05712
  12        2PX         0.00987  -0.04798   0.00996   0.08439   0.01616
  13        2PY         0.05613  -0.03539  -0.00540   0.14974  -0.10442
  14        2PZ         0.00241   0.00208  -0.00216   0.00506  -0.01031
  15        3S         -0.15938   0.00537   0.29647  -0.15890  -0.23287
  16        3PX        -0.02626  -0.01190   0.01420   0.01612   0.01894
  17        3PY        -0.02974   0.00443  -0.01504   0.05161   0.00434
  18        3PZ        -0.00049   0.00302  -0.00253   0.00156  -0.00484
  19 3   C  1S          0.00010   0.03965  -0.00001  -0.12160   0.00001
  20        2S         -0.00011  -0.04029   0.00001   0.12634  -0.00001
  21        2PX         0.06344   0.00001  -0.13395   0.00003   0.13405
  22        2PY         0.00004   0.01028  -0.00000   0.07760  -0.00000
  23        2PZ        -0.00000   0.00039   0.00001   0.00602  -0.00001
  24        3S         -0.00024  -0.11274   0.00002   0.39513  -0.00004
  25        3PX        -0.02948   0.00000  -0.03760   0.00001   0.07842
  26        3PY         0.00002   0.01659   0.00000   0.02126  -0.00000
  27        3PZ         0.00000  -0.00053   0.00000   0.00472  -0.00001
  28 4   C  1S         -0.08454  -0.00397   0.10841   0.05096  -0.05934
  29        2S          0.09300   0.00596  -0.11275  -0.05336   0.05714
  30        2PX         0.00996   0.04797   0.00995  -0.08438   0.01620
  31        2PY        -0.05619  -0.03539   0.00543   0.14976   0.10439
  32        2PZ        -0.00241   0.00208   0.00216   0.00507   0.01031
  33        3S          0.15912   0.00540  -0.29650  -0.15877   0.23294
  34        3PX        -0.02628   0.01190   0.01420  -0.01612   0.01895
  35        3PY         0.02974   0.00443   0.01504   0.05160  -0.00435
  36        3PZ         0.00050   0.00302   0.00252   0.00156   0.00484
  37 5   C  1S         -0.11559  -0.03647   0.01792   0.05539   0.09706
  38        2S          0.12589   0.04195  -0.02020  -0.06172  -0.10134
  39        2PX         0.02564   0.11855   0.04777  -0.03186   0.08996
  40        2PY         0.02429  -0.00207  -0.10754  -0.14747   0.07225
  41        2PZ         0.00737   0.01952   0.00234  -0.01331   0.02107
  42        3S          0.24908   0.08448  -0.04098  -0.16401  -0.31907
  43        3PX         0.02256   0.02800  -0.00357  -0.02035   0.02637
  44        3PY         0.06628   0.01699  -0.01258  -0.06962  -0.04118
  45        3PZ         0.01227   0.00593  -0.00228  -0.00901  -0.00276
  46 6   N  1S         -0.00007   0.06103  -0.00000  -0.05990   0.00002
  47        2S          0.00006  -0.05618   0.00000   0.05706  -0.00001
  48        2PX         0.09345   0.00001   0.00118  -0.00003  -0.23781
  49        2PY         0.00002  -0.03881  -0.00000  -0.03502   0.00000
  50        2PZ         0.00000  -0.00348   0.00000   0.00153   0.00001
  51        3S          0.00024  -0.20437   0.00001   0.21637  -0.00007
  52        3PX         0.08165   0.00000   0.00110  -0.00002  -0.19241
  53        3PY         0.00004  -0.04415  -0.00000  -0.01164  -0.00001
  54        3PZ         0.00001  -0.00602   0.00000   0.00468   0.00001
  55 7   H  1S         -0.00005  -0.02041   0.00000   0.12987  -0.00001
  56        2S         -0.00001  -0.00940   0.00000   0.05983  -0.00001
  57 8   H  1S         -0.04434   0.01451   0.06669  -0.03951  -0.07868
  58        2S         -0.00976   0.00557   0.02142  -0.01676  -0.04419
  59 9   H  1S          0.04428   0.01452  -0.06670  -0.03947   0.07871
  60        2S          0.00976   0.00557  -0.02142  -0.01673   0.04420
  61 10  C  1S          0.08595  -0.13483   0.10895  -0.04960   0.05146
  62        2S         -0.08217   0.12875  -0.10138   0.04614  -0.04852
  63        2PX        -0.03226   0.00991   0.00936  -0.02686   0.08058
  64        2PY        -0.02444   0.01690   0.01492  -0.04825   0.01204
  65        2PZ         0.00346   0.00023  -0.00174   0.00297  -0.01617
  66        3S         -0.23186   0.39600  -0.34769   0.17057  -0.17240
  67        3PX        -0.01177   0.00242  -0.00439  -0.00770   0.04737
  68        3PY        -0.00140   0.01340  -0.00066  -0.02198  -0.00946
  69        3PZ         0.00619   0.00055  -0.00119   0.00346  -0.01492
  70 11  H  1S         -0.04415   0.07851  -0.06187   0.02534  -0.06032
  71        2S         -0.00221   0.00665  -0.00789   0.00509  -0.02490
  72 12  H  1S         -0.03931   0.07421  -0.06672   0.03993  -0.05058
  73        2S          0.00736   0.00390  -0.01160   0.01670  -0.02430
  74 13  H  1S         -0.03702   0.07070  -0.07004   0.05340  -0.03872
  75        2S          0.00605   0.00385  -0.01237   0.02200  -0.01718
  76 14  C  1S         -0.08596  -0.13481  -0.10898  -0.04960  -0.05145
  77        2S          0.08218   0.12873   0.10140   0.04614   0.04851
  78        2PX        -0.03226  -0.00991   0.00936   0.02687   0.08058
  79        2PY         0.02443   0.01690  -0.01493  -0.04825  -0.01203
  80        2PZ        -0.00346   0.00023   0.00175   0.00298   0.01618
  81        3S          0.23187   0.39594   0.34777   0.17058   0.17237
  82        3PX        -0.01177  -0.00241  -0.00440   0.00770   0.04737
  83        3PY         0.00139   0.01340   0.00066  -0.02197   0.00946
  84        3PZ        -0.00618   0.00056   0.00119   0.00347   0.01493
  85 15  H  1S          0.03703   0.07069   0.07005   0.05339   0.03870
  86        2S         -0.00605   0.00385   0.01237   0.02200   0.01717
  87 16  H  1S          0.03931   0.07420   0.06673   0.03994   0.05058
  88        2S         -0.00736   0.00390   0.01161   0.01670   0.02430
  89 17  H  1S          0.04415   0.07850   0.06188   0.02535   0.06032
  90        2S          0.00221   0.00665   0.00789   0.00509   0.02490
                          16        17        18        19        20
                           O         O         O         O         O
     Eigenvalues --    -0.69466  -0.67316  -0.61729  -0.59735  -0.57857
   1 1   C  1S         -0.00895  -0.01358  -0.06917   0.00877   0.00156
   2        2S          0.00373   0.01460   0.07188  -0.00991  -0.00228
   3        2PX        -0.06776  -0.12151  -0.11490   0.02012  -0.03763
   4        2PY        -0.06091   0.17659  -0.01506  -0.02839  -0.08688
   5        2PZ         0.00087   0.03409   0.03736   0.12659   0.06864
   6        3S          0.04697   0.05251   0.25013  -0.02930   0.00156
   7        3PX        -0.05165  -0.07954  -0.12577   0.01977  -0.03227
   8        3PY        -0.05244   0.07634  -0.00956  -0.02417  -0.05344
   9        3PZ         0.00212   0.02060   0.03942   0.10921   0.05037
  10 2   C  1S         -0.01971   0.01604   0.04987  -0.00651   0.01010
  11        2S          0.01458  -0.01723  -0.05026   0.00648  -0.01224
  12        2PX        -0.20134  -0.09998   0.07682   0.00703  -0.08017
  13        2PY         0.07796  -0.19864  -0.09894   0.02165   0.06360
  14        2PZ         0.01837  -0.00260  -0.00432   0.08156   0.04469
  15        3S          0.10242  -0.04866  -0.17811   0.02054  -0.02608
  16        3PX        -0.13576  -0.05073   0.12125  -0.01189  -0.07433
  17        3PY         0.05344  -0.11559  -0.06928   0.01137   0.04557
  18        3PZ         0.01254  -0.00056  -0.01009   0.07317   0.04335
  19 3   C  1S          0.01092  -0.00000  -0.04726   0.00489  -0.00000
  20        2S         -0.01773   0.00000   0.05077  -0.00570  -0.00000
  21        2PX        -0.00000   0.24020  -0.00000  -0.00000   0.04091
  22        2PY         0.21966   0.00001   0.13516  -0.05116   0.00011
  23        2PZ         0.01253  -0.00001   0.00696   0.06337   0.00001
  24        3S         -0.00276   0.00002   0.12467  -0.00674   0.00002
  25        3PX        -0.00000   0.12352   0.00000  -0.00000   0.01636
  26        3PY         0.14622   0.00000   0.15655  -0.05528   0.00010
  27        3PZ         0.00813  -0.00001   0.01190   0.05274   0.00001
  28 4   C  1S         -0.01971  -0.01604   0.04986  -0.00650  -0.01008
  29        2S          0.01457   0.01722  -0.05026   0.00647   0.01221
  30        2PX         0.20133  -0.09999  -0.07683  -0.00699  -0.08014
  31        2PY         0.07796   0.19864  -0.09897   0.02168  -0.06369
  32        2PZ         0.01835   0.00260  -0.00431   0.08157  -0.04468
  33        3S          0.10241   0.04865  -0.17811   0.02053   0.02600
  34        3PX         0.13575  -0.05074  -0.12125   0.01191  -0.07433
  35        3PY         0.05344   0.11559  -0.06931   0.01140  -0.04564
  36        3PZ         0.01252   0.00056  -0.01008   0.07317  -0.04333
  37 5   C  1S         -0.00896   0.01358  -0.06917   0.00877  -0.00155
  38        2S          0.00374  -0.01460   0.07188  -0.00992   0.00228
  39        2PX         0.06777  -0.12151   0.11487  -0.02008  -0.03774
  40        2PY        -0.06091  -0.17659  -0.01504  -0.02841   0.08698
  41        2PZ         0.00087  -0.03407   0.03737   0.12659  -0.06862
  42        3S          0.04699  -0.05249   0.25012  -0.02929  -0.00160
  43        3PX         0.05164  -0.07955   0.12574  -0.01972  -0.03235
  44        3PY        -0.05243  -0.07634  -0.00955  -0.02419   0.05353
  45        3PZ         0.00212  -0.02060   0.03943   0.10921  -0.05035
  46 6   N  1S         -0.03795  -0.00000   0.04655  -0.00174   0.00000
  47        2S          0.03378  -0.00000  -0.04656   0.00247  -0.00000
  48        2PX         0.00000   0.19574  -0.00000  -0.00000  -0.01461
  49        2PY        -0.07684   0.00000  -0.01505  -0.02971   0.00006
  50        2PZ        -0.00658  -0.00001   0.02462   0.12036   0.00002
  51        3S          0.14737   0.00002  -0.15908   0.00330   0.00000
  52        3PX         0.00000   0.15623  -0.00000  -0.00000  -0.01347
  53        3PY        -0.05572   0.00001  -0.00064  -0.02997   0.00006
  54        3PZ        -0.00703  -0.00000   0.02136   0.11978   0.00002
  55 7   H  1S          0.11786   0.00001   0.14035  -0.03869   0.00008
  56        2S          0.07779   0.00001   0.08347  -0.02452   0.00006
  57 8   H  1S          0.14285  -0.01746  -0.12756   0.01580   0.06405
  58        2S          0.08935  -0.00845  -0.07566   0.00781   0.05014
  59 9   H  1S          0.14283   0.01746  -0.12758   0.01583  -0.06408
  60        2S          0.08934   0.00845  -0.07567   0.00783  -0.05015
  61 10  C  1S          0.02251   0.00877   0.00930   0.00113   0.00323
  62        2S         -0.01742  -0.00667  -0.00453  -0.00025  -0.00156
  63        2PX         0.05973  -0.01166   0.14956   0.05102   0.10600
  64        2PY         0.04849   0.10720   0.08008  -0.01933   0.02968
  65        2PZ        -0.00815   0.01067  -0.00866   0.20673   0.21474
  66        3S         -0.10535  -0.05264  -0.07752  -0.00661  -0.02104
  67        3PX         0.02861  -0.01881   0.08479   0.04101   0.08110
  68        3PY         0.03107   0.07049   0.03986  -0.01776   0.01760
  69        3PZ        -0.00586   0.00785  -0.00169   0.16383   0.18166
  70 11  H  1S         -0.01861   0.03960  -0.03731   0.06947   0.07346
  71        2S         -0.00722   0.02966  -0.03818   0.06101   0.06611
  72 12  H  1S         -0.03354  -0.01273  -0.05726  -0.13805  -0.17117
  73        2S         -0.02031  -0.01121  -0.05194  -0.11354  -0.14460
  74 13  H  1S         -0.03949  -0.06516  -0.04362   0.06882   0.04497
  75        2S         -0.01870  -0.04406  -0.03983   0.05554   0.03246
  76 14  C  1S          0.02251  -0.00877   0.00930   0.00114  -0.00323
  77        2S         -0.01742   0.00667  -0.00453  -0.00025   0.00156
  78        2PX        -0.05973  -0.01167  -0.14953  -0.05108   0.10619
  79        2PY         0.04849  -0.10719   0.08008  -0.01929  -0.02960
  80        2PZ        -0.00816  -0.01066  -0.00865   0.20673  -0.21463
  81        3S         -0.10534   0.05263  -0.07751  -0.00664   0.02108
  82        3PX        -0.02862  -0.01882  -0.08478  -0.04105   0.08124
  83        3PY         0.03107  -0.07048   0.03987  -0.01773  -0.01752
  84        3PZ        -0.00587  -0.00785  -0.00167   0.16383  -0.18157
  85 15  H  1S         -0.03948   0.06515  -0.04361   0.06880  -0.04502
  86        2S         -0.01870   0.04406  -0.03982   0.05553  -0.03251
  87 16  H  1S         -0.03354   0.01272  -0.05727  -0.13807   0.17117
  88        2S         -0.02031   0.01121  -0.05194  -0.11354   0.14460
  89 17  H  1S         -0.01861  -0.03959  -0.03728   0.06947  -0.07331
  90        2S         -0.00723  -0.02966  -0.03815   0.06101  -0.06599
                          21        22        23        24        25
                           O         O         O         O         O
     Eigenvalues --    -0.57403  -0.57264  -0.53656  -0.53458  -0.50233
   1 1   C  1S          0.00543  -0.00129   0.01385   0.00170  -0.00200
   2        2S         -0.00138   0.00594  -0.01943  -0.00158   0.00090
   3        2PX         0.09820   0.10333  -0.07921  -0.06098   0.04286
   4        2PY         0.09480   0.14736  -0.09804   0.07059  -0.00563
   5        2PZ         0.00183   0.02944   0.00888   0.01390   0.12458
   6        3S         -0.05237  -0.03377  -0.03801   0.00505   0.01697
   7        3PX         0.08065   0.08336  -0.07005  -0.04427   0.02753
   8        3PY         0.09151   0.08575  -0.11150   0.03000   0.00719
   9        3PZ        -0.00088   0.01934   0.00968   0.00775   0.14948
  10 2   C  1S          0.02314  -0.01864   0.00160  -0.01263   0.00121
  11        2S         -0.02385   0.02154  -0.00157   0.01123  -0.00052
  12        2PX        -0.03407   0.18168   0.07480  -0.08066  -0.00678
  13        2PY        -0.06933  -0.11876   0.09277  -0.07406  -0.01197
  14        2PZ        -0.00120  -0.00963   0.01978  -0.00059   0.15260
  15        3S         -0.07886   0.04662  -0.00255   0.05888  -0.01129
  16        3PX        -0.00559   0.15515   0.03208  -0.05898   0.00658
  17        3PY        -0.05224  -0.11114   0.04831  -0.04565   0.00154
  18        3PZ         0.00305  -0.00442   0.01715  -0.00206   0.14430
  19 3   C  1S         -0.00018  -0.00000  -0.02089  -0.00001   0.00650
  20        2S         -0.00227   0.00000   0.02375   0.00001  -0.00646
  21        2PX         0.00011  -0.09979  -0.00009   0.11153   0.00056
  22        2PY         0.18636   0.00023  -0.19270  -0.00013   0.02185
  23        2PZ         0.00620   0.00001   0.01258   0.00001   0.15951
  24        3S          0.02025   0.00003   0.07084   0.00005  -0.03676
  25        3PX         0.00007  -0.06530  -0.00006   0.07152   0.00032
  26        3PY         0.17586   0.00023  -0.18749  -0.00013   0.01875
  27        3PZ         0.00495   0.00001   0.01002   0.00001   0.16025
  28 4   C  1S          0.02310   0.01871   0.00157   0.01263   0.00121
  29        2S         -0.02380  -0.02161  -0.00155  -0.01123  -0.00052
  30        2PX         0.03368   0.18175  -0.07467  -0.08076   0.00591
  31        2PY        -0.06956   0.11860   0.09263   0.07419  -0.01175
  32        2PZ        -0.00118   0.00961   0.01979   0.00063   0.15259
  33        3S         -0.07878  -0.04684  -0.00244  -0.05888  -0.01127
  34        3PX         0.00526   0.15515  -0.03198  -0.05902  -0.00761
  35        3PY        -0.05247   0.11102   0.04822   0.04572   0.00157
  36        3PZ         0.00309   0.00440   0.01715   0.00210   0.14425
  37 5   C  1S          0.00542   0.00129   0.01385  -0.00168  -0.00206
  38        2S         -0.00136  -0.00593  -0.01943   0.00155   0.00095
  39        2PX        -0.09837   0.10312   0.07924  -0.06087  -0.04183
  40        2PY         0.09507  -0.14714  -0.09790  -0.07073  -0.00580
  41        2PZ         0.00198  -0.02944   0.00891  -0.01388   0.12480
  42        3S         -0.05244   0.03371  -0.03801  -0.00510   0.01726
  43        3PX        -0.08078   0.08319   0.07006  -0.04418  -0.02637
  44        3PY         0.09165  -0.08553  -0.11142  -0.03015   0.00682
  45        3PZ        -0.00077  -0.01934   0.00969  -0.00773   0.14967
  46 6   N  1S          0.00097   0.00000  -0.03922  -0.00003   0.01070
  47        2S         -0.00573  -0.00001   0.03592   0.00003  -0.01035
  48        2PX        -0.00005   0.02397  -0.00007   0.11509  -0.00044
  49        2PY         0.14030   0.00018  -0.13903  -0.00010   0.02979
  50        2PZ         0.01359   0.00002  -0.01063  -0.00001   0.17379
  51        3S          0.00455  -0.00001   0.16685   0.00013  -0.04083
  52        3PX        -0.00004   0.01724  -0.00006   0.10968  -0.00042
  53        3PY         0.13245   0.00017  -0.11922  -0.00008   0.03017
  54        3PZ         0.01737   0.00002  -0.01444  -0.00001   0.18223
  55 7   H  1S          0.13356   0.00017  -0.12250  -0.00009   0.01630
  56        2S          0.09762   0.00012  -0.09918  -0.00007   0.01634
  57 8   H  1S         -0.02114  -0.13338  -0.00998   0.03214   0.01063
  58        2S         -0.00334  -0.10251  -0.00995   0.01982   0.01011
  59 9   H  1S         -0.02142   0.13332  -0.00993  -0.03214   0.01007
  60        2S         -0.00355   0.10250  -0.00992  -0.01983   0.00967
  61 10  C  1S         -0.00193  -0.00525  -0.00044  -0.00002   0.00201
  62        2S         -0.00348   0.00185   0.00294   0.00279  -0.00083
  63        2PX        -0.16575  -0.07928  -0.01607   0.11604  -0.04088
  64        2PY         0.11306  -0.07831   0.21317  -0.21663  -0.00971
  65        2PZ         0.07430   0.13490  -0.01628  -0.02998  -0.14659
  66        3S          0.04092   0.04211  -0.02918  -0.01202  -0.01583
  67        3PX        -0.11298  -0.04670  -0.03048   0.09162  -0.04171
  68        3PY         0.10423  -0.06312   0.18618  -0.19756  -0.00896
  69        3PZ         0.05657   0.11214  -0.01740  -0.01949  -0.14641
  70 11  H  1S          0.14213   0.06254   0.08620  -0.14821  -0.06384
  71        2S          0.12766   0.05301   0.08076  -0.14139  -0.05842
  72 12  H  1S          0.01113  -0.04396   0.00585  -0.01336   0.11452
  73        2S          0.01063  -0.03599   0.00182  -0.01130   0.10601
  74 13  H  1S         -0.06980   0.08210  -0.14771   0.15133  -0.04280
  75        2S         -0.05923   0.06643  -0.12032   0.12941  -0.03580
  76 14  C  1S         -0.00194   0.00525  -0.00044   0.00002   0.00193
  77        2S         -0.00348  -0.00185   0.00294  -0.00278  -0.00073
  78        2PX         0.16579  -0.07887   0.01596   0.11609   0.04000
  79        2PY         0.11289   0.07863   0.21282   0.21694  -0.00934
  80        2PZ         0.07486  -0.13479  -0.01633   0.02995  -0.14678
  81        3S          0.04099  -0.04202  -0.02920   0.01197  -0.01588
  82        3PX         0.11299  -0.04641   0.03039   0.09168   0.04116
  83        3PY         0.10408   0.06340   0.18587   0.19784  -0.00875
  84        3PZ         0.05704  -0.11205  -0.01743   0.01946  -0.14651
  85 15  H  1S         -0.06956  -0.08231  -0.14747  -0.15156  -0.04295
  86        2S         -0.05904  -0.06661  -0.12012  -0.12960  -0.03600
  87 16  H  1S          0.01084   0.04401   0.00585   0.01339   0.11435
  88        2S          0.01038   0.03604   0.00182   0.01131   0.10579
  89 17  H  1S          0.14234  -0.06221   0.08599   0.14834  -0.06411
  90        2S          0.12784  -0.05271   0.08056   0.14151  -0.05877
                          26        27        28        29        30
                           O         O         O         O         V
     Eigenvalues --    -0.50089  -0.38954  -0.36441  -0.33177   0.13094
   1 1   C  1S          0.01012  -0.02029   0.01037  -0.00223  -0.01010
   2        2S         -0.00905   0.02412  -0.01304   0.00212   0.01164
   3        2PX         0.20106   0.04689   0.00484   0.05332  -0.01059
   4        2PY         0.03777  -0.16047   0.05451  -0.01427   0.00337
   5        2PZ        -0.04333   0.01187   0.10447   0.21500  -0.16621
   6        3S         -0.05234   0.08603  -0.04696   0.02361   0.04285
   7        3PX         0.22639  -0.00068   0.02408   0.04841  -0.05616
   8        3PY         0.07258   0.00288  -0.02656  -0.00861  -0.03396
   9        3PZ        -0.03791   0.03856   0.15187   0.25539  -0.24027
  10 2   C  1S         -0.00184   0.01941  -0.01172  -0.00303  -0.00279
  11        2S          0.00144  -0.01651   0.01106   0.00353   0.00430
  12        2PX        -0.17064  -0.01306  -0.00827   0.01499  -0.00177
  13        2PY        -0.04493   0.15295  -0.04920  -0.02165   0.00833
  14        2PZ         0.00150  -0.06006  -0.13437   0.24041  -0.11859
  15        3S         -0.00349  -0.16346   0.09327   0.01852   0.02560
  16        3PX        -0.20335  -0.00655  -0.01620   0.02525  -0.02651
  17        3PY        -0.00819   0.19123  -0.06428  -0.00456  -0.00034
  18        3PZ         0.00835  -0.07239  -0.17006   0.30107  -0.29442
  19 3   C  1S         -0.00002  -0.00270   0.00105  -0.00000  -0.00270
  20        2S          0.00002   0.00354  -0.00053   0.00000   0.00102
  21        2PX         0.21418  -0.00002  -0.00001   0.00970   0.00002
  22        2PY        -0.00009  -0.04809   0.02478  -0.00001  -0.01248
  23        2PZ        -0.00043  -0.11119  -0.23694   0.00005   0.27330
  24        3S          0.00012  -0.01584   0.00560   0.00002   0.04752
  25        3PX         0.12280  -0.00001  -0.00001   0.03170   0.00005
  26        3PY        -0.00009  -0.10871   0.05244  -0.00002  -0.02357
  27        3PZ        -0.00042  -0.12789  -0.26484   0.00006   0.61611
  28 4   C  1S          0.00183   0.01941  -0.01172   0.00303  -0.00279
  29        2S         -0.00144  -0.01651   0.01106  -0.00353   0.00431
  30        2PX        -0.17071   0.01305   0.00827   0.01496   0.00174
  31        2PY         0.04502   0.15292  -0.04919   0.02167   0.00833
  32        2PZ        -0.00227  -0.06005  -0.13440  -0.24041  -0.11846
  33        3S          0.00355  -0.16344   0.09326  -0.01856   0.02559
  34        3PX        -0.20334   0.00655   0.01619   0.02522   0.02647
  35        3PY         0.00820   0.19121  -0.06427   0.00459  -0.00036
  36        3PZ        -0.00909  -0.07238  -0.17009  -0.30106  -0.29411
  37 5   C  1S         -0.01012  -0.02029   0.01037   0.00222  -0.01010
  38        2S          0.00905   0.02412  -0.01304  -0.00211   0.01163
  39        2PX         0.20131  -0.04692  -0.00482   0.05332   0.01061
  40        2PY        -0.03780  -0.16046   0.05452   0.01423   0.00336
  41        2PZ         0.04269   0.01187   0.10437  -0.21506  -0.16631
  42        3S          0.05226   0.08607  -0.04697  -0.02358   0.04286
  43        3PX         0.22658   0.00063  -0.02404   0.04842   0.05623
  44        3PY        -0.07266   0.00290  -0.02654   0.00861  -0.03396
  45        3PZ         0.03715   0.03856   0.15177  -0.25547  -0.24045
  46 6   N  1S         -0.00002   0.06526  -0.02222   0.00001   0.00928
  47        2S          0.00002  -0.06460   0.02236  -0.00001  -0.00725
  48        2PX        -0.17637   0.00001   0.00001  -0.01724   0.00001
  49        2PY        -0.00008   0.34979  -0.19641   0.00003  -0.03654
  50        2PZ        -0.00044   0.13748   0.24657  -0.00001   0.26486
  51        3S          0.00007  -0.25230   0.08307  -0.00003  -0.05296
  52        3PX        -0.16812   0.00001   0.00001  -0.01903   0.00003
  53        3PY        -0.00008   0.43098  -0.24185   0.00004  -0.05113
  54        3PZ        -0.00047   0.17068   0.29698  -0.00001   0.47476
  55 7   H  1S         -0.00007  -0.05169   0.01386  -0.00000  -0.00337
  56        2S         -0.00006  -0.03701   0.00806  -0.00001  -0.02716
  57 8   H  1S          0.10943   0.05267  -0.01375   0.00661  -0.01288
  58        2S          0.08425   0.06796  -0.02070   0.00303  -0.02986
  59 9   H  1S         -0.10948   0.05267  -0.01375  -0.00661  -0.01289
  60        2S         -0.08430   0.06796  -0.02070  -0.00303  -0.02989
  61 10  C  1S          0.01440  -0.01525   0.00892   0.00367   0.00564
  62        2S         -0.01898   0.01026  -0.00549  -0.00191  -0.00357
  63        2PX        -0.17415   0.07446  -0.05102  -0.02130  -0.02337
  64        2PY        -0.07812   0.04516  -0.00987  -0.00752   0.00458
  65        2PZ         0.04198  -0.01946  -0.02277  -0.06519   0.01552
  66        3S          0.00452   0.09757  -0.06559  -0.02911  -0.05534
  67        3PX        -0.11043   0.07328  -0.06050  -0.01994  -0.08686
  68        3PY        -0.04663   0.03954   0.00332  -0.01778   0.04696
  69        3PZ         0.02331  -0.01342  -0.03709  -0.07262  -0.03020
  70 11  H  1S          0.05065  -0.00766  -0.00656  -0.03683   0.02980
  71        2S          0.06775  -0.01906  -0.01152  -0.03039   0.02036
  72 12  H  1S          0.03118  -0.00591   0.03643   0.06753  -0.04189
  73        2S          0.04146  -0.01367   0.04659   0.08518  -0.12977
  74 13  H  1S          0.03297  -0.02509  -0.01203  -0.02708   0.01393
  75        2S          0.04231  -0.06359   0.02164  -0.03762   0.12820
  76 14  C  1S         -0.01441  -0.01525   0.00892  -0.00367   0.00565
  77        2S          0.01899   0.01025  -0.00548   0.00191  -0.00358
  78        2PX        -0.17439  -0.07442   0.05100  -0.02132   0.02338
  79        2PY         0.07821   0.04515  -0.00986   0.00754   0.00457
  80        2PZ        -0.04129  -0.01947  -0.02273   0.06520   0.01552
  81        3S         -0.00444   0.09756  -0.06560   0.02915  -0.05539
  82        3PX        -0.11066  -0.07325   0.06049  -0.01997   0.08685
  83        3PY         0.04670   0.03952   0.00332   0.01780   0.04689
  84        3PZ        -0.02260  -0.01342  -0.03705   0.07263  -0.03022
  85 15  H  1S         -0.03277  -0.02509  -0.01202   0.02708   0.01393
  86        2S         -0.04215  -0.06359   0.02165   0.03760   0.12820
  87 16  H  1S         -0.03176  -0.00590   0.03640  -0.06754  -0.04190
  88        2S         -0.04200  -0.01366   0.04655  -0.08519  -0.12981
  89 17  H  1S         -0.05034  -0.00766  -0.00654   0.03684   0.02982
  90        2S         -0.06746  -0.01906  -0.01151   0.03040   0.02047
                          31        32        33        34        35
                           V         V         V         V         V
     Eigenvalues --     0.14837   0.26452   0.30056   0.30499   0.31753
   1 1   C  1S         -0.00327   0.00873   0.00511   0.02699  -0.00227
   2        2S          0.00438  -0.00472  -0.00994  -0.01813  -0.01925
   3        2PX         0.05606   0.03613   0.01167   0.01022   0.00855
   4        2PY        -0.02235  -0.02398   0.01038   0.02498  -0.00050
   5        2PZ         0.24612  -0.04651   0.01204   0.07591   0.09748
   6        3S          0.03082  -0.17698  -0.17094  -0.11987   0.07516
   7        3PX         0.11569   0.04883  -0.03631   0.13690   0.07841
   8        3PY        -0.06307  -0.11008  -0.10796   0.17954  -0.00818
   9        3PZ         0.48898  -0.08050   0.01494   0.13856   0.12860
  10 2   C  1S          0.00089   0.04332   0.02536   0.00353   0.00700
  11        2S         -0.00067  -0.02657  -0.01672   0.01526  -0.00742
  12        2PX        -0.02450   0.09248   0.08884   0.03685   0.00956
  13        2PY         0.01366  -0.07700  -0.03160  -0.01449   0.02529
  14        2PZ        -0.21472   0.01328  -0.02950  -0.07889  -0.10715
  15        3S         -0.00667  -0.47234  -0.36229  -0.25709  -0.08326
  16        3PX        -0.05753   0.44179   0.34915   0.06597  -0.00399
  17        3PY         0.02724  -0.30951  -0.32958   0.17848   0.05089
  18        3PZ        -0.49264   0.01766  -0.08025  -0.22767  -0.30588
  19 3   C  1S         -0.00000   0.03990  -0.00000   0.06831   0.00298
  20        2S          0.00000  -0.00742   0.00000  -0.03247  -0.00083
  21        2PX         0.01876  -0.00000  -0.02350   0.00000   0.00000
  22        2PY        -0.00000  -0.12686  -0.00000  -0.12326  -0.00739
  23        2PZ        -0.00006  -0.03631   0.00003   0.08442   0.12607
  24        3S          0.00001  -0.67532  -0.00001  -0.93064  -0.01904
  25        3PX        -0.00304   0.00001  -0.15199  -0.00000   0.00000
  26        3PY         0.00002  -0.32367  -0.00000  -0.66681  -0.02091
  27        3PZ        -0.00013  -0.08233   0.00009   0.23072   0.35523
  28 4   C  1S         -0.00088   0.04333  -0.02536   0.00354   0.00701
  29        2S          0.00066  -0.02658   0.01672   0.01526  -0.00743
  30        2PX        -0.02449  -0.09246   0.08884  -0.03690  -0.00963
  31        2PY        -0.01366  -0.07699   0.03161  -0.01451   0.02526
  32        2PZ         0.21480   0.01329   0.02945  -0.07888  -0.10717
  33        3S          0.00666  -0.47237   0.36226  -0.25725  -0.08351
  34        3PX        -0.05752  -0.44171   0.34916  -0.06618   0.00367
  35        3PY        -0.02725  -0.30950   0.32964   0.17839   0.05077
  36        3PZ         0.49284   0.01771   0.08007  -0.22766  -0.30593
  37 5   C  1S          0.00327   0.00872  -0.00510   0.02700  -0.00227
  38        2S         -0.00438  -0.00472   0.00994  -0.01813  -0.01924
  39        2PX         0.05605  -0.03614   0.01167  -0.01024  -0.00857
  40        2PY         0.02233  -0.02398  -0.01037   0.02500  -0.00049
  41        2PZ        -0.24606  -0.04652  -0.01199   0.07589   0.09748
  42        3S         -0.03083  -0.17693   0.17099  -0.11995   0.07501
  43        3PX         0.11567  -0.04884  -0.03633  -0.13693  -0.07842
  44        3PY         0.06304  -0.11006   0.10798   0.17960  -0.00810
  45        3PZ        -0.48892  -0.08052  -0.01486   0.13852   0.12863
  46 6   N  1S         -0.00000   0.03244  -0.00000  -0.01899   0.00866
  47        2S          0.00000  -0.02502   0.00000   0.01619  -0.00122
  48        2PX        -0.00556  -0.00000   0.04784  -0.00001  -0.00002
  49        2PY         0.00002  -0.05034   0.00000  -0.03334   0.00827
  50        2PZ        -0.00008   0.03466  -0.00002  -0.06809  -0.10447
  51        3S         -0.00000  -0.22002   0.00001   0.11727  -0.12488
  52        3PX         0.03156  -0.00001   0.07375  -0.00001  -0.00001
  53        3PY         0.00004  -0.10271   0.00001  -0.06696  -0.02515
  54        3PZ        -0.00015   0.05608  -0.00004  -0.12695  -0.18667
  55 7   H  1S         -0.00000   0.04331   0.00000   0.02295  -0.00420
  56        2S         -0.00002   0.85879   0.00000   1.17056   0.00787
  57 8   H  1S          0.00952   0.02978  -0.01879   0.02845  -0.00973
  58        2S          0.01893   0.90656   0.65182   0.22120   0.05767
  59 9   H  1S         -0.00951   0.02978   0.01879   0.02845  -0.00972
  60        2S         -0.01891   0.90651  -0.65184   0.22148   0.05814
  61 10  C  1S         -0.00350   0.03468   0.09149  -0.08867   0.06059
  62        2S          0.00181  -0.00719  -0.01835   0.02445  -0.01521
  63        2PX         0.00012   0.06725   0.10983  -0.01581   0.07193
  64        2PY         0.00953  -0.02003  -0.00058   0.01977   0.04138
  65        2PZ         0.00817  -0.04996  -0.03141   0.04190   0.10988
  66        3S          0.03469  -0.52194  -1.36365   1.21995  -0.87528
  67        3PX        -0.01452   0.27173   0.45269  -0.08762   0.32781
  68        3PY         0.04617  -0.04334   0.03359   0.07121   0.21589
  69        3PZ         0.10435  -0.26345  -0.13035   0.20113   0.57906
  70 11  H  1S         -0.02942   0.01987   0.00613  -0.01697  -0.02828
  71        2S         -0.19636   0.63239   0.88418  -0.77221  -0.09304
  72 12  H  1S          0.05554  -0.01891   0.00019   0.02273   0.04508
  73        2S          0.22243   0.06737   0.67054  -0.27732   1.22840
  74 13  H  1S         -0.02833   0.00100   0.00178  -0.00411  -0.01616
  75        2S         -0.08484   0.18085   0.49900  -0.47433   0.21711
  76 14  C  1S          0.00350   0.03467  -0.09149  -0.08867   0.06059
  77        2S         -0.00181  -0.00719   0.01835   0.02445  -0.01521
  78        2PX         0.00011  -0.06723   0.10981   0.01577  -0.07199
  79        2PY        -0.00955  -0.02002   0.00058   0.01977   0.04137
  80        2PZ        -0.00818  -0.04996   0.03146   0.04188   0.10982
  81        3S         -0.03469  -0.52183   1.36367   1.21996  -0.87534
  82        3PX        -0.01453  -0.27163   0.45264   0.08749  -0.32806
  83        3PY        -0.04621  -0.04329  -0.03359   0.07121   0.21583
  84        3PZ        -0.10434  -0.26344   0.13062   0.20105   0.57880
  85 15  H  1S          0.02833   0.00100  -0.00179  -0.00411  -0.01616
  86        2S          0.08479   0.18085  -0.49908  -0.47431   0.21707
  87 16  H  1S         -0.05552  -0.01891  -0.00017   0.02273   0.04508
  88        2S         -0.22236   0.06734  -0.67030  -0.27739   1.22830
  89 17  H  1S          0.02941   0.01986  -0.00614  -0.01696  -0.02827
  90        2S          0.19638   0.63225  -0.88436  -0.77206  -0.09268
                          36        37        38        39        40
                           V         V         V         V         V
     Eigenvalues --     0.33239   0.33442   0.35344   0.37539   0.37568
   1 1   C  1S          0.04129  -0.00237  -0.00267  -0.02769  -0.01462
   2        2S         -0.01637  -0.01497   0.02357   0.00959  -0.01485
   3        2PX        -0.03374  -0.06814   0.03362   0.03980  -0.03158
   4        2PY         0.06513  -0.01610   0.03896   0.04675  -0.06728
   5        2PZ         0.01577  -0.01096   0.03493  -0.07051  -0.07915
   6        3S         -0.54772   0.10329  -0.13034   0.38863   0.50445
   7        3PX         0.07120  -0.11904   0.07700   0.09504  -0.01370
   8        3PY         0.12112  -0.15384   0.03403   0.28255   0.01489
   9        3PZ         0.03732  -0.06054   0.15851  -0.26290  -0.19223
  10 2   C  1S          0.03539  -0.01629   0.04506   0.05334  -0.04844
  11        2S         -0.01577  -0.00392  -0.00861  -0.01487   0.03924
  12        2PX         0.01959  -0.09557   0.08341   0.08013  -0.02627
  13        2PY        -0.00362   0.05941  -0.02705  -0.01480   0.06936
  14        2PZ         0.02819   0.03799  -0.00546   0.04321   0.08964
  15        3S         -0.41733   0.37499  -0.71862  -0.90100   0.32997
  16        3PX        -0.05802  -0.52008   0.28895   0.41581  -0.58561
  17        3PY        -0.20576   0.10603  -0.24988   0.08297   0.56578
  18        3PZ         0.00258   0.08168  -0.09639   0.11404   0.31959
  19 3   C  1S         -0.03909  -0.00006   0.00000   0.00055   0.08028
  20        2S          0.01801   0.00003   0.00000  -0.00035  -0.04980
  21        2PX         0.00008  -0.04563  -0.03982   0.01250  -0.00009
  22        2PY        -0.02921  -0.00002  -0.00003  -0.00102  -0.14999
  23        2PZ        -0.02511  -0.00006  -0.00000  -0.00059  -0.08776
  24        3S          0.62747   0.00090  -0.00007  -0.00632  -0.93230
  25        3PX         0.00035  -0.18705  -0.31609  -0.06321   0.00041
  26        3PY        -0.06761  -0.00000  -0.00010  -0.00852  -1.24432
  27        3PZ        -0.02801  -0.00010   0.00002  -0.00221  -0.32771
  28 4   C  1S          0.03535   0.01638  -0.04505  -0.05400  -0.04770
  29        2S         -0.01578   0.00388   0.00861   0.01541   0.03903
  30        2PX        -0.01934  -0.09563   0.08340   0.08049   0.02519
  31        2PY        -0.00348  -0.05943   0.02706   0.01575   0.06916
  32        2PZ         0.02828  -0.03786   0.00545  -0.04202   0.09022
  33        3S         -0.41641  -0.37604   0.71848   0.90541   0.31761
  34        3PX         0.05945  -0.51997   0.28893   0.42386   0.57987
  35        3PY        -0.20563  -0.10669   0.24995  -0.07519   0.56696
  36        3PZ         0.00276  -0.08151   0.09635  -0.10974   0.32104
  37 5   C  1S          0.04129   0.00248   0.00268   0.02753  -0.01501
  38        2S         -0.01641   0.01493  -0.02357  -0.00982  -0.01471
  39        2PX         0.03394  -0.06807   0.03364   0.04023   0.03105
  40        2PY         0.06510   0.01627  -0.03895  -0.04761  -0.06665
  41        2PZ         0.01574   0.01096  -0.03490   0.06943  -0.08009
  42        3S         -0.54758  -0.10480   0.13026  -0.38205   0.50985
  43        3PX        -0.07078  -0.11924   0.07699   0.09508   0.01244
  44        3PY         0.12070   0.15410  -0.03400  -0.28211   0.01875
  45        3PZ         0.03719   0.06057  -0.15842   0.26029  -0.19573
  46 6   N  1S         -0.05109  -0.00007  -0.00001   0.00007   0.01176
  47        2S          0.02434   0.00003   0.00000   0.00005   0.00565
  48        2PX         0.00012  -0.07152  -0.03159   0.04607  -0.00031
  49        2PY         0.06736   0.00008   0.00001   0.00020   0.02855
  50        2PZ        -0.01155   0.00001  -0.00002   0.00046   0.06722
  51        3S          0.43246   0.00055   0.00007  -0.00128  -0.20004
  52        3PX         0.00017  -0.07305  -0.07473   0.14200  -0.00095
  53        3PY         0.12235   0.00015   0.00002  -0.00009  -0.01067
  54        3PZ         0.01494   0.00006  -0.00004   0.00096   0.13972
  55 7   H  1S         -0.00084  -0.00000  -0.00000  -0.00007  -0.01137
  56        2S         -0.15111  -0.00032   0.00015   0.01149   1.68260
  57 8   H  1S         -0.00086  -0.02524  -0.00482   0.01929  -0.01807
  58        2S          0.26162  -0.79760   0.72985   0.81355  -0.99390
  59 9   H  1S         -0.00095   0.02524   0.00482  -0.01954  -0.01781
  60        2S          0.25954   0.79833  -0.72980  -0.82712  -0.98274
  61 10  C  1S         -0.00326   0.06589  -0.01949  -0.02386   0.03892
  62        2S         -0.00166  -0.02090   0.00214   0.00775  -0.00946
  63        2PX        -0.01121  -0.04481  -0.06997   0.01704  -0.03112
  64        2PY         0.15815   0.11989   0.11567   0.03044   0.06420
  65        2PZ        -0.04053   0.06718  -0.09777   0.17003   0.02219
  66        3S          0.01445  -0.90365   0.27772   0.35203  -0.52207
  67        3PX        -0.09870  -0.20651  -0.37245   0.09501  -0.12892
  68        3PY         0.89440   0.57239   0.65392   0.20230   0.16937
  69        3PZ        -0.21657   0.33104  -0.51299   0.81751   0.13440
  70 11  H  1S         -0.04449  -0.02909  -0.02719  -0.03145   0.01181
  71        2S         -0.56238  -0.44777  -0.41515  -0.89220  -0.07275
  72 12  H  1S         -0.01389   0.00107  -0.02285   0.01656  -0.01117
  73        2S         -0.23450   0.61868  -0.82216   0.78988   0.24868
  74 13  H  1S          0.07112   0.01946   0.05203   0.01628  -0.00938
  75        2S          1.15195   0.91281   0.94697  -0.27718   0.41508
  76 14  C  1S         -0.00308  -0.06590   0.01950   0.02437   0.03859
  77        2S         -0.00171   0.02090  -0.00214  -0.00787  -0.00936
  78        2PX         0.01138  -0.04475  -0.06999   0.01742   0.03092
  79        2PY         0.15850  -0.11945  -0.11560  -0.02960   0.06461
  80        2PZ        -0.04038  -0.06734   0.09776  -0.16973   0.02448
  81        3S          0.01200   0.90371  -0.27782  -0.35887  -0.51719
  82        3PX         0.09952  -0.20612  -0.37252   0.09654   0.12774
  83        3PY         0.89610  -0.56989  -0.65356  -0.20013   0.17211
  84        3PZ        -0.21587  -0.33189   0.51295  -0.81571   0.14540
  85 15  H  1S          0.07120  -0.01926  -0.05201  -0.01641  -0.00915
  86        2S          1.15474  -0.90947  -0.94655   0.28259   0.41135
  87 16  H  1S         -0.01390  -0.00113   0.02285  -0.01670  -0.01095
  88        2S         -0.23311  -0.61970   0.82221  -0.78646   0.25920
  89 17  H  1S         -0.04458   0.02898   0.02717   0.03162   0.01137
  90        2S         -0.56369   0.44637   0.41491   0.89141  -0.08492
                          41        42        43        44        45
                           V         V         V         V         V
     Eigenvalues --     0.41397   0.43416   0.45091   0.50206   0.54402
   1 1   C  1S         -0.07596  -0.08732   0.10450   0.01800   0.00969
   2        2S          0.04327   0.03044  -0.02971   0.01876  -0.01572
   3        2PX        -0.04454  -0.03621   0.16399  -0.12871  -0.13763
   4        2PY        -0.04153  -0.08864   0.01791  -0.11532  -0.17627
   5        2PZ        -0.10324   0.13142  -0.04218   0.04262   0.01079
   6        3S          0.82993   1.23951  -1.73577  -0.44893  -0.09519
   7        3PX        -0.55969  -0.44305   0.97174  -0.84896  -0.89732
   8        3PY        -0.29985  -0.36930  -0.08876  -0.41184  -1.33196
   9        3PZ        -0.24768   0.51495  -0.21855   0.18889   0.01435
  10 2   C  1S          0.04076   0.00272  -0.07189   0.02648  -0.08288
  11        2S         -0.03447  -0.00841   0.02277   0.00607   0.00396
  12        2PX         0.05225   0.02106   0.06648  -0.07207   0.15694
  13        2PY        -0.02556   0.05128  -0.00663  -0.07466   0.01633
  14        2PZ         0.10834  -0.10014   0.00089  -0.02016   0.00653
  15        3S         -0.28051   0.08904   1.28315  -0.59110   2.06795
  16        3PX         0.75876   0.42289  -0.05176  -0.74797   1.22197
  17        3PY        -0.12268   0.29106  -0.29243  -0.82249  -0.38612
  18        3PZ         0.22046  -0.34517   0.02412  -0.13172  -0.13452
  19 3   C  1S         -0.01700   0.02537  -0.00002  -0.10588   0.00000
  20        2S          0.03981   0.01342   0.00001   0.04106  -0.00001
  21        2PX         0.00002  -0.00002   0.08187   0.00003   0.06109
  22        2PY        -0.00003  -0.02003  -0.00005  -0.19884   0.00004
  23        2PZ        -0.09723   0.06841   0.00003   0.01423  -0.00000
  24        3S         -0.38411  -0.86272   0.00029   1.97773   0.00002
  25        3PX         0.00010  -0.00015   0.64876   0.00025   1.74556
  26        3PY         0.56403   0.16313  -0.00023  -1.20350   0.00019
  27        3PZ        -0.24933   0.27880   0.00012   0.07912  -0.00010
  28 4   C  1S          0.04076   0.00268   0.07189   0.02647   0.08286
  29        2S         -0.03448  -0.00840  -0.02277   0.00608  -0.00397
  30        2PX        -0.05219  -0.02109   0.06653   0.07207   0.15698
  31        2PY        -0.02555   0.05129   0.00661  -0.07470  -0.01637
  32        2PZ         0.10833  -0.10014  -0.00099  -0.02018  -0.00653
  33        3S         -0.28056   0.08971  -1.28325  -0.59095  -2.06730
  34        3PX        -0.75857  -0.42279  -0.05146   0.74829   1.22218
  35        3PY        -0.12276   0.29099   0.29217  -0.82299   0.38585
  36        3PZ         0.22045  -0.34518  -0.02451  -0.13181   0.13443
  37 5   C  1S         -0.07598  -0.08727  -0.10451   0.01806  -0.00968
  38        2S          0.04329   0.03043   0.02972   0.01875   0.01572
  39        2PX         0.04459   0.03611   0.16404   0.12863  -0.13775
  40        2PY        -0.04157  -0.08865  -0.01800  -0.11524   0.17618
  41        2PZ        -0.10319   0.13142   0.04231   0.04262  -0.01083
  42        3S          0.83019   1.23879   1.73584  -0.45025   0.09503
  43        3PX         0.55992   0.44250   0.97199   0.84828  -0.89819
  44        3PY        -0.30004  -0.36937   0.08841  -0.41174   1.33142
  45        3PZ        -0.24750   0.51494   0.21903   0.18883  -0.01458
  46 6   N  1S          0.03496   0.05102  -0.00001  -0.08016   0.00005
  47        2S         -0.03439  -0.03754   0.00000   0.02334  -0.00001
  48        2PX        -0.00001  -0.00000  -0.06213   0.00006   0.04483
  49        2PY        -0.08905  -0.02029   0.00003   0.12662  -0.00002
  50        2PZ         0.07934  -0.16440  -0.00006  -0.00147  -0.00001
  51        3S         -0.15537  -0.38176   0.00007   1.07325  -0.00069
  52        3PX        -0.00000  -0.00004  -0.05061   0.00012   0.23191
  53        3PY        -0.01581   0.02055   0.00012   0.61977  -0.00014
  54        3PZ         0.18992  -0.39944  -0.00016   0.02813  -0.00004
  55 7   H  1S         -0.02485  -0.03814   0.00001   0.03365   0.00004
  56        2S         -0.41713   0.11160   0.00016   0.59753  -0.00016
  57 8   H  1S          0.02096  -0.01609   0.03538   0.00575   0.04536
  58        2S          0.86350   0.17487  -0.27126  -0.00496   0.60596
  59 9   H  1S          0.02095  -0.01607  -0.03539   0.00573  -0.04531
  60        2S          0.86330   0.17458   0.27115  -0.00500  -0.60614
  61 10  C  1S          0.01720   0.05430  -0.06398   0.02848   0.02993
  62        2S          0.00075  -0.00303   0.00118  -0.00166   0.02085
  63        2PX        -0.10319  -0.10558   0.08052   0.00636  -0.02722
  64        2PY        -0.00047   0.01747   0.08079  -0.11025   0.02965
  65        2PZ         0.13605  -0.10200   0.01210   0.02147   0.02810
  66        3S         -0.27961  -0.86638   1.00495  -0.49348  -0.79361
  67        3PX        -0.68608  -0.88706   0.88556  -0.45532  -0.91976
  68        3PY        -0.06597  -0.16775   0.77074  -0.46435  -0.08567
  69        3PZ         0.66443  -0.42627  -0.04386   0.11986   0.24998
  70 11  H  1S         -0.03366  -0.02476   0.04721  -0.06768  -0.02925
  71        2S         -0.80645   0.23187  -0.24838   0.06880  -0.32252
  72 12  H  1S         -0.02333  -0.01371   0.03788  -0.03069  -0.03973
  73        2S          0.34544  -0.61386   0.16342   0.03354  -0.02068
  74 13  H  1S         -0.00530  -0.04123   0.03016   0.03246  -0.05462
  75        2S         -0.12654   0.50349   0.20678  -0.33261   0.13841
  76 14  C  1S          0.01723   0.05427   0.06401   0.02844  -0.02994
  77        2S          0.00074  -0.00303  -0.00118  -0.00167  -0.02087
  78        2PX         0.10321   0.10556   0.08054  -0.00640  -0.02716
  79        2PY        -0.00051   0.01752  -0.08084  -0.11027  -0.02961
  80        2PZ         0.13601  -0.10203  -0.01216   0.02149  -0.02808
  81        3S         -0.27994  -0.86600  -1.00532  -0.49267   0.79407
  82        3PX         0.68625   0.88674   0.88588   0.45458  -0.91980
  83        3PY        -0.06624  -0.16740  -0.77100  -0.46402   0.08622
  84        3PZ         0.66429  -0.42639   0.04364   0.11984  -0.25005
  85 15  H  1S         -0.00532  -0.04122  -0.03018   0.03249   0.05459
  86        2S         -0.12653   0.50381  -0.20668  -0.33268  -0.13819
  87 16  H  1S         -0.02334  -0.01368  -0.03789  -0.03067   0.03973
  88        2S          0.34517  -0.61398  -0.16381   0.03361   0.02066
  89 17  H  1S         -0.03367  -0.02474  -0.04724  -0.06764   0.02929
  90        2S         -0.80613   0.23190   0.24869   0.06878   0.32216
                          46        47        48        49        50
                           V         V         V         V         V
     Eigenvalues --     0.56206   0.57974   0.77988   0.79024   0.88424
   1 1   C  1S         -0.01121   0.08959   0.07869   0.02280  -0.03547
   2        2S          0.00359  -0.00650   0.07586   0.01706   0.04915
   3        2PX        -0.14827  -0.13287   0.04566  -0.12476   0.14587
   4        2PY         0.20235   0.00238  -0.15332   0.13459  -0.17852
   5        2PZ         0.01652   0.01552  -0.01115  -0.00981  -0.01416
   6        3S          0.80676  -1.92814  -1.95223   0.41489   0.10657
   7        3PX        -1.20375  -0.68124  -1.33361  -1.70386   0.00447
   8        3PY         1.26953  -0.54325  -1.48552   2.12631   0.50593
   9        3PZ         0.19284   0.04858   0.07289   0.40831   0.03094
  10 2   C  1S          0.02030   0.00051  -0.13994  -0.00968   0.02088
  11        2S          0.02379   0.01745   0.06508   0.03841  -0.03617
  12        2PX         0.08289   0.02321   0.11673   0.04590   0.13501
  13        2PY         0.06246  -0.15084  -0.17724   0.05009   0.39287
  14        2PZ        -0.00584  -0.00405  -0.00912  -0.05664   0.01954
  15        3S         -0.77637  -0.38245   3.14483  -0.13000  -0.00161
  16        3PX         0.91085  -0.33186   2.10431   1.42735  -0.18765
  17        3PY         1.17864  -1.70014  -1.17670   2.10116  -0.03687
  18        3PZ         0.05583  -0.10222  -0.22646   0.03624  -0.01104
  19 3   C  1S          0.03723   0.00002   0.11704   0.00001  -0.00001
  20        2S          0.03715   0.00004   0.01574   0.00001   0.00004
  21        2PX         0.00019  -0.22427  -0.00002   0.13744  -0.35697
  22        2PY        -0.05152  -0.00006   0.11287  -0.00000  -0.00006
  23        2PZ        -0.00769   0.00000  -0.00424  -0.00001   0.00001
  24        3S         -1.73253  -0.00115  -3.12107  -0.00059   0.00008
  25        3PX         0.00197  -1.70262  -0.00012   2.40702   0.69193
  26        3PY         0.30848   0.00019   2.46765   0.00033   0.00001
  27        3PZ        -0.05177   0.00005   0.08454  -0.00014  -0.00003
  28 4   C  1S          0.02036  -0.00047  -0.13994   0.00964  -0.02087
  29        2S          0.02382  -0.01740   0.06510  -0.03839   0.03624
  30        2PX        -0.08286   0.02306  -0.11675   0.04588   0.13499
  31        2PY         0.06215   0.15090  -0.17720  -0.05014  -0.39291
  32        2PZ        -0.00584   0.00404  -0.00912   0.05660  -0.01953
  33        3S         -0.77866   0.38079   3.14490   0.13102   0.00166
  34        3PX        -0.90972  -0.33339  -2.10442   1.42688  -0.18749
  35        3PY         1.17609   1.70189  -1.17669  -2.10131   0.03679
  36        3PZ         0.05578   0.10233  -0.22624  -0.03636   0.01104
  37 5   C  1S         -0.01107  -0.08959   0.07870  -0.02279   0.03546
  38        2S          0.00358   0.00654   0.07585  -0.01698  -0.04907
  39        2PX         0.14846  -0.13263  -0.04558  -0.12491   0.14578
  40        2PY         0.20248  -0.00209  -0.15323  -0.13463   0.17860
  41        2PZ         0.01652  -0.01550  -0.01111   0.00982   0.01415
  42        3S          0.80394   1.92914  -1.95253  -0.41584  -0.10667
  43        3PX         1.20434  -0.67875   1.33396  -1.70327   0.00443
  44        3PY         1.26951   0.54549  -1.48537  -2.12645  -0.50617
  45        3PZ         0.19283  -0.04822   0.07296  -0.40808  -0.03091
  46 6   N  1S         -0.13245  -0.00014  -0.06598  -0.00002   0.00001
  47        2S          0.02220   0.00002   0.02268  -0.00000  -0.00000
  48        2PX         0.00025  -0.25311   0.00006  -0.35501  -0.03568
  49        2PY         0.03284   0.00004   0.11563  -0.00002   0.00002
  50        2PZ         0.04719   0.00006  -0.00200  -0.00000  -0.00001
  51        3S          2.00680   0.00219   1.26919   0.00058  -0.00011
  52        3PX         0.00084  -0.90555   0.00023  -1.84953   0.03974
  53        3PY         0.37410   0.00047   0.85273   0.00010  -0.00003
  54        3PZ         0.19286   0.00025   0.09843   0.00009  -0.00003
  55 7   H  1S         -0.14559  -0.00012   0.13206   0.00000  -0.00001
  56        2S          0.15629   0.00013  -0.94631  -0.00008   0.00001
  57 8   H  1S         -0.09803  -0.09085  -0.10950  -0.01531   0.03425
  58        2S          0.33753   0.52000   0.95934   0.19251  -0.16022
  59 9   H  1S         -0.09822   0.09067  -0.10950   0.01527  -0.03423
  60        2S          0.33822  -0.51932   0.95938  -0.19232   0.16016
  61 10  C  1S          0.01230  -0.00673  -0.00266  -0.00375   0.00289
[...]
  81        3S          0.00000   0.00001   0.00000   0.00000  -0.00000
  82        3PX         0.00001   0.00001   0.00000   0.00000   0.00000
  83        3PY        -0.00000  -0.00000   0.00000  -0.00000  -0.00000
  84        3PZ        -0.00000  -0.00000  -0.00000   0.00000  -0.00000
  85 15  H  1S          0.00000  -0.00000   0.00000   0.00000   0.00000
  86        2S         -0.00000  -0.00001   0.00000  -0.00000  -0.00000
  87 16  H  1S         -0.00000  -0.00000  -0.00000   0.00000   0.00000
  88        2S         -0.00000  -0.00000  -0.00000  -0.00000   0.00000
  89 17  H  1S         -0.00000   0.00000  -0.00000  -0.00000   0.00000
  90        2S         -0.00000   0.00000  -0.00000   0.00000  -0.00000
                          71        72        73        74        75
  71        2S          0.13299
  72 12  H  1S         -0.00500   0.18192
  73        2S         -0.01362   0.09000   0.12494
  74 13  H  1S         -0.00545  -0.00018  -0.00475   0.18187
  75        2S         -0.01336  -0.00428  -0.01092   0.08471   0.11479
  76 14  C  1S         -0.00000   0.00000  -0.00000   0.00000   0.00000
  77        2S          0.00000   0.00000   0.00000  -0.00000  -0.00000
  78        2PX         0.00000  -0.00000   0.00000  -0.00000  -0.00000
  79        2PY         0.00000  -0.00000  -0.00000   0.00000   0.00000
  80        2PZ        -0.00000  -0.00000  -0.00000   0.00000  -0.00000
  81        3S         -0.00000  -0.00000  -0.00000   0.00000  -0.00000
  82        3PX         0.00000  -0.00000  -0.00000  -0.00000  -0.00001
  83        3PY        -0.00000  -0.00000  -0.00000   0.00000   0.00000
  84        3PZ         0.00000   0.00000  -0.00000   0.00000  -0.00000
  85 15  H  1S          0.00000   0.00000   0.00000  -0.00000  -0.00000
  86        2S          0.00000   0.00000   0.00000  -0.00000   0.00000
  87 16  H  1S         -0.00000   0.00000  -0.00000   0.00000   0.00000
  88        2S         -0.00000  -0.00000  -0.00000   0.00000   0.00000
  89 17  H  1S         -0.00000   0.00000   0.00000   0.00000  -0.00000
  90        2S         -0.00000  -0.00000  -0.00000   0.00000   0.00000
                          76        77        78        79        80
  76 14  C  1S          2.03931
  77        2S          0.02274   0.10033
  78        2PX         0.00000   0.00000   0.27358
  79        2PY         0.00000   0.00000   0.00000   0.28978
  80        2PZ         0.00000   0.00000  -0.00000   0.00000   0.28536
  81        3S         -0.07922   0.17737   0.00000   0.00000   0.00000
  82        3PX         0.00000   0.00000   0.09835   0.00000  -0.00000
  83        3PY         0.00000   0.00000   0.00000   0.12591   0.00000
  84        3PZ         0.00000   0.00000  -0.00000   0.00000   0.12883
  85 15  H  1S         -0.00107   0.01001   0.00140   0.05317   0.00886
  86        2S          0.00190   0.00331   0.00050   0.03532   0.00567
  87 16  H  1S         -0.00104   0.00972   0.01690   0.00032   0.04548
  88        2S          0.00191   0.00305   0.01239   0.00032   0.03085
  89 17  H  1S         -0.00101   0.00920   0.01615   0.01929   0.02692
  90        2S          0.00182   0.00240   0.01242   0.01360   0.01910
                          81        82        83        84        85
  81        3S          0.87616
  82        3PX         0.00000   0.13407
  83        3PY         0.00000   0.00000   0.20456
  84        3PZ         0.00000  -0.00000   0.00000   0.21098
  85 15  H  1S          0.06151   0.00290   0.07362   0.01325   0.18187
  86        2S          0.01728   0.00181   0.07280   0.01243   0.08471
  87 16  H  1S          0.05659   0.02125   0.00004   0.06759  -0.00018
  88        2S          0.01466   0.02335   0.00025   0.06940  -0.00475
  89 17  H  1S          0.06016   0.01846   0.03108   0.03733  -0.00020
  90        2S          0.02415   0.02118   0.03248   0.03905  -0.00545
                          86        87        88        89        90
  86        2S          0.11479
  87 16  H  1S         -0.00428   0.18192
  88        2S         -0.01092   0.09000   0.12494
  89 17  H  1S         -0.00467  -0.00019  -0.00510   0.18297
  90        2S         -0.01337  -0.00500  -0.01362   0.09362   0.13299
     Gross orbital populations:
                           1
   1 1   C  1S          1.98782
   2        2S          0.39962
   3        2PX         0.56578
   4        2PY         0.61886
   5        2PZ         0.38536
   6        3S          0.75313
   7        3PX         0.21447
   8        3PY         0.23857
   9        3PZ         0.53741
  10 2   C  1S          1.98842
  11        2S          0.39643
  12        2PX         0.59780
  13        2PY         0.61727
  14        2PZ         0.42971
  15        3S          0.89606
  16        3PX         0.46596
  17        3PY         0.27299
  18        3PZ         0.63220
  19 3   C  1S          1.98840
  20        2S          0.40351
  21        2PX         0.63656
  22        2PY         0.60021
  23        2PZ         0.37961
  24        3S          0.87580
  25        3PX         0.25175
  26        3PY         0.48340
  27        3PZ         0.54905
  28 4   C  1S          1.98842
  29        2S          0.39643
  30        2PX         0.59778
  31        2PY         0.61729
  32        2PZ         0.42971
  33        3S          0.89606
  34        3PX         0.46596
  35        3PY         0.27299
  36        3PZ         0.63220
  37 5   C  1S          1.98782
  38        2S          0.39961
  39        2PX         0.56574
  40        2PY         0.61887
  41        2PZ         0.38537
  42        3S          0.75318
  43        3PX         0.21452
  44        3PY         0.23854
  45        3PZ         0.53743
  46 6   N  1S          1.99055
  47        2S          0.37662
  48        2PX         0.54880
  49        2PY         0.74104
  50        2PZ         0.45044
  51        3S          1.49184
  52        3PX         0.53437
  53        3PY         0.90586
  54        3PZ         0.67541
  55 7   H  1S          0.47935
  56        2S          0.27166
  57 8   H  1S          0.47902
  58        2S          0.28538
  59 9   H  1S          0.47902
  60        2S          0.28538
  61 10  C  1S          1.98851
  62        2S          0.35608
  63        2PX         0.53144
  64        2PY         0.56044
  65        2PZ         0.55353
  66        3S          1.13537
  67        3PX         0.39529
  68        3PY         0.52265
  69        3PZ         0.56236
  70 11  H  1S          0.47220
  71        2S          0.31366
  72 12  H  1S          0.47008
  73        2S          0.29971
  74 13  H  1S          0.47048
  75        2S          0.28882
  76 14  C  1S          1.98851
  77        2S          0.35607
  78        2PX         0.53143
  79        2PY         0.56043
  80        2PZ         0.55353
  81        3S          1.13538
  82        3PX         0.39532
  83        3PY         0.52264
  84        3PZ         0.56235
  85 15  H  1S          0.47048
  86        2S          0.28882
  87 16  H  1S          0.47008
  88        2S          0.29970
  89 17  H  1S          0.47220
  90        2S          0.31366
          Condensed to atoms (all electrons):
               1          2          3          4          5          6
     1  C    5.054947   0.349684  -0.110257  -0.005474  -0.119011   0.433050
     2  C    0.349684   5.445475   0.436317  -0.105487  -0.005479  -0.078070
     3  C   -0.110257   0.436317   5.193209   0.436281  -0.110257  -0.022357
     4  C   -0.005474  -0.105487   0.436281   5.445458   0.349724  -0.078070
     5  C   -0.119011  -0.005479  -0.110257   0.349724   5.054982   0.433031
     6  N    0.433050  -0.078070  -0.022357  -0.078070   0.433031   7.107118
     7  H    0.001984  -0.030722   0.398683  -0.030720   0.001984  -0.000008
     8  H   -0.026376   0.391117  -0.030450   0.002713   0.000074   0.002430
     9  H    0.000074   0.002713  -0.030450   0.391118  -0.026377   0.002429
    10  C    0.266493  -0.113693   0.003680  -0.000652   0.002977  -0.045921
    11  H   -0.055704   0.000099   0.000258   0.000036  -0.000156   0.001529
    12  H   -0.047750   0.001068  -0.000077   0.000009  -0.000069   0.000650
    13  H   -0.043481   0.004400  -0.000080   0.000031   0.000075   0.001426
    14  C    0.002976  -0.000652   0.003679  -0.113684   0.266504  -0.045918
    15  H    0.000076   0.000031  -0.000080   0.004399  -0.043481   0.001427
    16  H   -0.000069   0.000009  -0.000077   0.001068  -0.047742   0.000650
    17  H   -0.000156   0.000036   0.000258   0.000098  -0.055706   0.001529
               7          8          9         10         11         12
     1  C    0.001984  -0.026376   0.000074   0.266493  -0.055704  -0.047750
     2  C   -0.030722   0.391117   0.002713  -0.113693   0.000099   0.001068
     3  C    0.398683  -0.030450  -0.030450   0.003680   0.000258  -0.000077
     4  C   -0.030720   0.002713   0.391118  -0.000652   0.000036   0.000009
     5  C    0.001984   0.000074  -0.026377   0.002977  -0.000156  -0.000069
     6  N   -0.000008   0.002430   0.002429  -0.045921   0.001529   0.000650
     7  H    0.412479  -0.001290  -0.001290  -0.000045  -0.000002   0.000001
     8  H   -0.001290   0.426483  -0.000018  -0.000805   0.000433   0.000110
     9  H   -0.001290  -0.000018   0.426482   0.000003  -0.000000  -0.000000
    10  C   -0.000045  -0.000805   0.000003   5.362097   0.383783   0.373031
    11  H   -0.000002   0.000433  -0.000000   0.383783   0.503195  -0.023914
    12  H    0.000001   0.000110  -0.000000   0.373031  -0.023914   0.486855
    13  H    0.000000  -0.000018  -0.000000   0.374685  -0.023689  -0.020133
    14  C   -0.000045   0.000003  -0.000805   0.000028   0.000000  -0.000000
    15  H    0.000000  -0.000000  -0.000018  -0.000009   0.000000   0.000000
    16  H    0.000001  -0.000000   0.000110  -0.000000  -0.000000  -0.000000
    17  H   -0.000002  -0.000000   0.000433   0.000000  -0.000000  -0.000000
              13         14         15         16         17
     1  C   -0.043481   0.002976   0.000076  -0.000069  -0.000156
     2  C    0.004400  -0.000652   0.000031   0.000009   0.000036
     3  C   -0.000080   0.003679  -0.000080  -0.000077   0.000258
     4  C    0.000031  -0.113684   0.004399   0.001068   0.000098
     5  C    0.000075   0.266504  -0.043481  -0.047742  -0.055706
     6  N    0.001426  -0.045918   0.001427   0.000650   0.001529
     7  H    0.000000  -0.000045   0.000000   0.000001  -0.000002
     8  H   -0.000018   0.000003  -0.000000  -0.000000  -0.000000
     9  H   -0.000000  -0.000805  -0.000018   0.000110   0.000433
    10  C    0.374685   0.000028  -0.000009  -0.000000   0.000000
    11  H   -0.023689   0.000000   0.000000  -0.000000  -0.000000
    12  H   -0.020133  -0.000000   0.000000  -0.000000  -0.000000
    13  H    0.466088  -0.000009   0.000002   0.000000   0.000000
    14  C   -0.000009   5.362084   0.374682   0.373031   0.383781
    15  H    0.000002   0.374682   0.466089  -0.020131  -0.023691
    16  H    0.000000   0.373031  -0.020131   0.486850  -0.023915
    17  H    0.000000   0.383781  -0.023691  -0.023915   0.503200
 Mulliken charges:
               1
     1  C    0.298993
     2  C   -0.296848
     3  C   -0.168279
     4  C   -0.296849
     5  C    0.298928
     6  N   -0.714924
     7  H    0.248990
     8  H    0.235595
     9  H    0.235596
    10  C   -0.605652
    11  H    0.214132
    12  H    0.230219
    13  H    0.240702
    14  C   -0.605656
    15  H    0.240703
    16  H    0.230216
    17  H    0.214135
 Sum of Mulliken charges =  -0.00000
 Mulliken charges with hydrogens summed into heavy atoms:
               1
     1  C    0.298993
     2  C   -0.061253
     3  C    0.080711
     4  C   -0.061253
     5  C    0.298928
     6  N   -0.714924
    10  C    0.079400
    14  C    0.079398
 Electronic spatial extent (au):  <R**2>=            985.5099
 Charge=             -0.0000 electrons
 Dipole moment (field-independent basis, Debye):
    X=             -0.0001    Y=              1.7337    Z=              0.7508  Tot=              1.8893
 Quadrupole moment (field-independent basis, Debye-Ang):
   XX=            -40.7371   YY=            -47.7747   ZZ=            -51.8239
   XY=              0.0001   XZ=              0.0001   YZ=             -0.5714
 Traceless Quadrupole moment (field-independent basis, Debye-Ang):
   XX=              6.0414   YY=             -0.9961   ZZ=             -5.0453
   XY=              0.0001   XZ=              0.0001   YZ=             -0.5714
 Octapole moment (field-independent basis, Debye-Ang**2):
  XXX=             -0.0001  YYY=             10.9522  ZZZ=             -0.0321  XYY=              0.0002
  XXY=             -2.8766  XXZ=              1.2274  XZZ=             -0.0002  YZZ=             -3.7296
  YYZ=              3.5240  XYZ=             -0.0004
 Hexadecapole moment (field-independent basis, Debye-Ang**3):
 XXXX=           -820.3620 YYYY=           -388.5513 ZZZZ=            -70.7869 XXXY=             -0.0008
 XXXZ=             -0.0020 YYYX=              0.0020 YYYZ=             -4.3663 ZZZX=              0.0016
 ZZZY=              1.0012 XXYY=           -199.8929 XXZZ=           -152.8537 YYZZ=            -86.9851
 XXYZ=              4.4865 YYXZ=             -0.0004 ZZXY=             -0.0001
 N-N= 3.458866823069D+02 E-N=-1.443511128946D+03  KE= 3.223201272424D+02
 Orbital energies and kinetic energies (alpha):
                                 1                 2
   1         O               -15.483450         21.931695
   2         O               -11.225274         15.876690
   3         O               -11.225026         15.873088
   4         O               -11.191342         15.874625
   5         O               -11.170240         15.870645
   6         O               -11.170133         15.875826
   7         O               -11.162367         15.875778
   8         O               -11.162321         15.874401
   9         O                -1.252484          1.753229
  10         O                -1.082759          1.711510
  11         O                -1.075429          1.516994
  12         O                -0.988254          1.386575
  13         O                -0.935374          1.493093
  14         O                -0.836526          1.510693
  15         O                -0.807018          1.564437
  16         O                -0.694663          1.050008
  17         O                -0.673163          1.391444
  18         O                -0.617292          1.361397
  19         O                -0.597349          0.924938
  20         O                -0.578572          1.002995
  21         O                -0.574029          1.129965
  22         O                -0.572637          1.202809
  23         O                -0.536561          1.262097
  24         O                -0.534583          1.152439
  25         O                -0.502334          1.035371
  26         O                -0.500886          1.485800
  27         O                -0.389535          1.732943
  28         O                -0.364406          1.328246
  29         O                -0.331770          1.110333
  30         V                 0.130936          1.415943
  31         V                 0.148368          1.247149
  32         V                 0.264520          0.935857
  33         V                 0.300564          0.975371
  34         V                 0.304991          1.162176
  35         V                 0.317527          1.055412
  36         V                 0.332393          1.074032
  37         V                 0.334416          1.007298
  38         V                 0.353440          0.933284
  39         V                 0.375386          1.070762
  40         V                 0.375685          1.184657
  41         V                 0.413975          1.491607
  42         V                 0.434160          1.718611
  43         V                 0.450906          1.845515
  44         V                 0.502055          1.782612
  45         V                 0.544024          1.588759
  46         V                 0.562063          1.857306
  47         V                 0.579738          1.919707
  48         V                 0.779885          2.833127
  49         V                 0.790243          2.034993
  50         V                 0.884238          2.112315
  51         V                 0.935735          2.323617
  52         V                 0.942650          2.390041
  53         V                 0.958910          2.206877
  54         V                 0.968776          2.491670
  55         V                 0.991617          2.286744
  56         V                 0.999606          2.752017
  57         V                 1.028977          2.852148
  58         V                 1.063430          3.397868
  59         V                 1.088997          2.667825
  60         V                 1.090994          2.711922
  61         V                 1.095507          2.590047
  62         V                 1.124896          2.867862
  63         V                 1.155502          2.798366
  64         V                 1.172943          2.783131
  65         V                 1.194686          2.829541
  66         V                 1.223916          2.931302
  67         V                 1.237099          2.646926
  68         V                 1.298269          3.424648
  69         V                 1.344197          3.088506
  70         V                 1.344472          3.044587
  71         V                 1.362264          3.124595
  72         V                 1.372919          2.957656
  73         V                 1.376923          2.887806
  74         V                 1.448769          3.266869
  75         V                 1.453490          3.233856
  76         V                 1.457363          3.046458
  77         V                 1.550212          2.983189
  78         V                 1.597247          3.786087
  79         V                 1.663280          3.193658
  80         V                 1.712507          3.175257
  81         V                 1.731991          3.376749
  82         V                 1.743141          3.269466
  83         V                 1.862850          3.207675
  84         V                 1.914172          3.246929
  85         V                 1.999371          3.686733
  86         V                 2.191089          3.218031
  87         V                 2.232211          3.446586
  88         V                 2.275004          3.636216
  89         V                 2.385116          3.469816
  90         V                 3.295565          5.136549
 Total kinetic energy from orbitals= 3.223201272424D+02
 1\1\GINC-IISERK51\SP\RHF\3-21G\C7H9N1\GAUSSIAN\16-Jun-2025\0\\# hf/3-2
 1g pop=full geom=connectivity\\Title Card Required\\0,1\C,0,-1.265864,
 -1.17932,0.078664\C,0,-2.621516,-1.183686,-0.170653\C,0,-3.299115,-0.0
 00065,-0.356916\C,0,-2.621548,1.183651,-0.17076\C,0,-1.26596,1.179377,
 0.078592\N,0,-0.573632,0.000009,0.062103\H,0,-4.347313,-0.000086,-0.57
 7248\H,0,-3.133426,-2.121493,-0.188007\H,0,-3.133545,2.121411,-0.18817
 8\C,0,-0.636535,-2.500003,0.478592\H,0,-1.387992,-3.059232,1.020906\H,
 0,-0.327623,-3.069321,-0.383617\H,0,0.214747,-2.356326,1.121989\C,0,-0
 .636652,2.500042,0.478688\H,0,0.214594,2.356261,1.122121\H,0,-0.327728
 ,3.069517,-0.383401\H,0,-1.388142,3.059156,1.021078\\Version=EM64L-G16
 RevB.01\State=1-A\HF=-322.944596\RMSD=6.117e-09\Dipole=-0.7344889,-0.0
 000461,0.1140511\Quadrupole=-1.138697,4.4916584,-3.3529614,-0.0002322,
 1.1047284,0.0001046\PG=C01 [X(C7H9N1)]\\@


 FROM THE ASHES OF OUR DESPAIR GROW THE FLOWERS OF TOMORROW.
 Job cpu time:       0 days  0 hours  0 minutes  1.3 seconds.
 Elapsed time:       0 days  0 hours  0 minutes  1.3 seconds.
 File lengths (MBytes):  RWF=      6 Int=      0 D2E=      0 Chk=      2 Scr=      1
 Normal termination of Gaussian 16 at Mon Jun 16 22:53:57 2025.
