 Entering Gaussian System, Link 0=g16
 Input=/home/gaussian/Documents/Summer_Internship/Acid_Base_adduct/Adduct/NH3 - BF3/BF3_only_adduct_sp.com
 Output=/home/gaussian/Documents/Summer_Internship/Acid_Base_adduct/Adduct/NH3 - BF3/BF3_only_adduct_sp.log
 Initial command:
 /usr/local/g16/l1.exe "/home/gaussian/tmp/Gau-91519.inp" -scrdir="/home/gaussian/tmp/"
 Entering Link 1 = /usr/local/g16/l1.exe PID=     91522.
  
 Copyright (c) 1988-2017, Gaussian, Inc.  All Rights Reserved.
  
 This is part of the Gaussian(R) 16 program.  It is based on
 the Gaussian(R) 09 system (copyright 2009, Gaussian, Inc.),
 the Gaussian(R) 03 system (copyright 2003, Gaussian, Inc.),
 the Gaussian(R) 98 system (copyright 1998, Gaussian, Inc.),
 the Gaussian(R) 94 system (copyright 1995, Gaussian, Inc.),
 the Gaussian 92(TM) system (copyright 1992, Gaussian, Inc.),
 the Gaussian 90(TM) system (copyright 1990, Gaussian, Inc.),
 the Gaussian 88(TM) system (copyright 1988, Gaussian, Inc.),
 the Gaussian 86(TM) system (copyright 1986, Carnegie Mellon
 University), and the Gaussian 82(TM) system (copyright 1983,
 Carnegie Mellon University). Gaussian is a federally registered
 trademark of Gaussian, Inc.
  
 This software contains proprietary and confidential information,
 including trade secrets, belonging to Gaussian, Inc.
  
 This software is provided under written license and may be
 used, copied, transmitted, or stored only in accord with that
 written license.
  
 The following legend is applicable only to US Government
 contracts under FAR:
  
                    RESTRICTED RIGHTS LEGEND
  
 Use, reproduction and disclosure by the US Government is
 subject to restrictions as set forth in subparagraphs (a)
 and (c) of the Commercial Computer Software - Restricted
 Rights clause in FAR 52.227-19.
  
 Gaussian, Inc.
 340 Quinnipiac St., Bldg. 40, Wallingford CT 06492
  
  
 ---------------------------------------------------------------
 Warning -- This program may not be used in any manner that
 competes with the business of Gaussian, Inc. or will provide
 assistance to any competitor of Gaussian, Inc.  The licensee
 of this program is prohibited from giving any competitor of
 Gaussian, Inc. access to this program.  By using this program,
 the user acknowledges that Gaussian, Inc. is engaged in the
 business of creating and licensing software in the field of
 computational chemistry and represents and warrants to the
 licensee that it is not a competitor of Gaussian, Inc. and that
 it will not use this program in any manner prohibited above.
 ---------------------------------------------------------------
  

 Cite this work as:
 Gaussian 16, Revision B.01,
 M. J. Frisch, G. W. Trucks, H. B. Schlegel, G. E. Scuseria, 
 M. A. Robb, J. R. Cheeseman, G. Scalmani, V. Barone, 
 G. A. Petersson, H. Nakatsuji, X. Li, M. Caricato, A. V. Marenich, 
 J. Bloino, B. G. Janesko, R. Gomperts, B. Mennucci, H. P. Hratchian, 
 J. V. Ortiz, A. F. Izmaylov, J. L. Sonnenberg, D. Williams-Young, 
 F. Ding, F. Lipparini, F. Egidi, J. Goings, B. Peng, A. Petrone, 
 T. Henderson, D. Ranasinghe, V. G. Zakrzewski, J. Gao, N. Rega, 
 G. Zheng, W. Liang, M. Hada, M. Ehara, K. Toyota, R. Fukuda, 
 J. Hasegawa, M. Ishida, T. Nakajima, Y. Honda, O. Kitao, H. Nakai, 
 T. Vreven, K. Throssell, J. A. Montgomery, Jr., J. E. Peralta, 
 F. Ogliaro, M. J. Bearpark, J. J. Heyd, E. N. Brothers, K. N. Kudin, 
 V. N. Staroverov, T. A. Keith, R. Kobayashi, J. Normand, 
 K. Raghavachari, A. P. Rendell, J. C. Burant, S. S. Iyengar, 
 J. Tomasi, M. Cossi, J. M. Millam, M. Klene, C. Adamo, R. Cammi, 
 J. W. Ochterski, R. L. Martin, K. Morokuma, O. Farkas, 
 J. B. Foresman, and D. J. Fox, Gaussian, Inc., Wallingford CT, 2016.
 
 ******************************************
 Gaussian 16:  EM64L-G16RevB.01 20-Dec-2017
                17-Jun-2025 
 ******************************************
 %chk=BF3_only_adduct_sp.chk
 -------------------------------------
 # hf/3-21g pop=full geom=connectivity
 -------------------------------------
 1/38=1,57=2,172=1/1;
 2/12=2,17=6,18=5,40=1/2;
 3/5=5,11=9,25=1,30=1/1,2,3;
 4//1;
 5/5=2,38=5/2;
 6/7=3,28=1/1;
 99/5=1,9=1/99;
 -------------------
 Title Card Required
 -------------------
 Symbolic Z-matrix:
 Charge =  0 Multiplicity = 1
 B                    -0.20757  -0.00001   0.00002 
 F                    -0.54666  -0.40482   1.27152 
 F                    -0.54719  -0.89873  -0.98616 
 F                    -0.54712   1.30349  -0.28505 
 
                          Input orientation:                          
 ---------------------------------------------------------------------
 Center     Atomic      Atomic             Coordinates (Angstroms)
 Number     Number       Type             X           Y           Z
 ---------------------------------------------------------------------
      1          5           0       -0.207565   -0.000007    0.000016
      2          9           0       -0.546657   -0.404818    1.271520
      3          9           0       -0.547187   -0.898731   -0.986157
      4          9           0       -0.547117    1.303486   -0.285053
 ---------------------------------------------------------------------
                    Distance matrix (angstroms):
                    1          2          3          4
     1  B    0.000000
     2  F    1.376800   0.000000
     3  F    1.376802   2.311072   0.000000
     4  F    1.376827   2.311108   2.311127   0.000000
 Stoichiometry    BF3
 Framework group  C1[X(BF3)]
 Deg. of freedom     6
 Full point group                 C1      NOp   1
 Largest Abelian subgroup         C1      NOp   1
 Largest concise Abelian subgroup C1      NOp   1
                         Standard orientation:                         
 ---------------------------------------------------------------------
 Center     Atomic      Atomic             Coordinates (Angstroms)
 Number     Number       Type             X           Y           Z
 ---------------------------------------------------------------------
      1          5           0       -0.000001   -0.000004    0.286387
      2          9           0       -0.464251    1.250933   -0.053034
      3          9           0       -0.851243   -1.027508   -0.053035
      4          9           0        1.315495   -0.223423   -0.053035
 ---------------------------------------------------------------------
 Rotational constants (GHZ):           9.7565955           9.7560682           4.9803708
 Standard basis: 3-21G (6D, 7F)
 There are    36 symmetry adapted cartesian basis functions of A   symmetry.
 There are    36 symmetry adapted basis functions of A   symmetry.
    36 basis functions,    60 primitive gaussians,    36 cartesian basis functions
    16 alpha electrons       16 beta electrons
       nuclear repulsion energy       107.5274183669 Hartrees.
 NAtoms=    4 NActive=    4 NUniq=    4 SFac= 1.00D+00 NAtFMM=   60 NAOKFM=F Big=F
 Integral buffers will be    131072 words long.
 Raffenetti 1 integral format.
 Two-electron integral symmetry is turned on.
 One-electron integrals computed using PRISM.
 NBasis=    36 RedAO= T EigKep=  9.33D-02  NBF=    36
 NBsUse=    36 1.00D-06 EigRej= -1.00D+00 NBFU=    36
 ExpMin= 1.24D-01 ExpMax= 4.14D+02 ExpMxC= 4.14D+02 IAcc=3 IRadAn=         5 AccDes= 0.00D+00
 Harris functional with IExCor=  205 and IRadAn=       5 diagonalized for initial guess.
 HarFok:  IExCor=  205 AccDes= 0.00D+00 IRadAn=         5 IDoV= 1 UseB2=F ITyADJ=14
 ICtDFT=  3500011 ScaDFX=  1.000000  1.000000  1.000000  1.000000
 FoFCou: FMM=F IPFlag=           0 FMFlag=      100000 FMFlg1=           0
         NFxFlg=           0 DoJE=T BraDBF=F KetDBF=T FulRan=T
         wScrn=  0.000000 ICntrl=       500 IOpCl=  0 I1Cent=   200000004 NGrid=           0
         NMat0=    1 NMatS0=      1 NMatT0=    0 NMatD0=    1 NMtDS0=    0 NMtDT0=    0
 Petite list used in FoFCou.
 Keep R1 ints in memory in canonical form, NReq=1028086.
 Requested convergence on RMS density matrix=1.00D-08 within 128 cycles.
 Requested convergence on MAX density matrix=1.00D-06.
 Requested convergence on             energy=1.00D-06.
 No special actions if energy rises.
 SCF Done:  E(RHF) =  -321.427428505     A.U. after   10 cycles
            NFock= 10  Conv=0.34D-08     -V/T= 2.0053

 **********************************************************************

            Population analysis using the SCF Density.

 **********************************************************************

 Orbital symmetries:
       Occupied  (A) (A) (A) (A) (A) (A) (A) (A) (A) (A) (A) (A)
                 (A) (A) (A) (A)
       Virtual   (A) (A) (A) (A) (A) (A) (A) (A) (A) (A) (A) (A)
                 (A) (A) (A) (A) (A) (A) (A) (A)
 The electronic state is 1-A.
 Alpha  occ. eigenvalues --  -26.20447 -26.20391 -26.20390  -7.79941  -1.65287
 Alpha  occ. eigenvalues --   -1.60435  -1.60435  -0.82075  -0.76195  -0.76195
 Alpha  occ. eigenvalues --   -0.72531  -0.65828  -0.65828  -0.64723  -0.64722
 Alpha  occ. eigenvalues --   -0.63417
 Alpha virt. eigenvalues --    0.06172   0.36993   0.37060   0.37061   0.55638
 Alpha virt. eigenvalues --    0.71098   0.71099   0.85931   2.15089   2.15090
 Alpha virt. eigenvalues --    2.30262   2.31831   2.31832   2.36486   2.40320
 Alpha virt. eigenvalues --    2.46315   2.46316   3.86908   3.86909   4.17046
     Molecular Orbital Coefficients:
                           1         2         3         4         5
                           O         O         O         O         O
     Eigenvalues --   -26.20447 -26.20391 -26.20390  -7.79941  -1.65287
   1 1   B  1S         -0.00056   0.00000  -0.00000   0.98744  -0.08604
   2        2S          0.00290  -0.00000   0.00001   0.09044   0.09017
   3        2PX        -0.00002  -0.00098   0.00392  -0.00000  -0.00001
   4        2PY         0.00000  -0.00392  -0.00098   0.00000   0.00000
   5        2PZ        -0.00220   0.00000  -0.00001  -0.00266  -0.02127
   6        3S          0.01461  -0.00002   0.00007  -0.02190   0.03140
   7        3PX        -0.00004  -0.00212   0.00849  -0.00000   0.00000
   8        3PY         0.00000  -0.00849  -0.00212   0.00000  -0.00000
   9        3PZ        -0.00437   0.00000  -0.00002  -0.00146   0.00795
  10 2   F  1S          0.56854  -0.66225  -0.45011   0.00001  -0.13831
  11        2S          0.05677  -0.06492  -0.04412   0.00210   0.13142
  12        2PX         0.00061  -0.00090   0.00019   0.00045   0.01332
  13        2PY        -0.00166   0.00128   0.00116  -0.00121  -0.03588
  14        2PZ         0.00014  -0.00064  -0.00044   0.00015   0.00823
  15        3S         -0.02212   0.02276   0.01545  -0.00474   0.43540
  16        3PX        -0.00162   0.00249  -0.00143  -0.00289   0.01882
  17        3PY         0.00441  -0.00224  -0.00267   0.00779  -0.05071
  18        3PZ         0.00023   0.00142   0.00097  -0.00142   0.01226
  19 3   F  1S          0.56958   0.72240  -0.34370   0.00001  -0.13830
  20        2S          0.05687   0.07082  -0.03369   0.00210   0.13142
  21        2PX         0.00113   0.00129  -0.00001   0.00082   0.02442
  22        2PY         0.00137   0.00108  -0.00101   0.00100   0.02947
  23        2PZ         0.00014   0.00070  -0.00034   0.00015   0.00823
  24        3S         -0.02215  -0.02482   0.01180  -0.00474   0.43539
  25        3PX        -0.00299  -0.00298  -0.00093  -0.00530   0.03451
  26        3PY        -0.00363  -0.00173   0.00276  -0.00639   0.04166
  27        3PZ         0.00023  -0.00155   0.00074  -0.00142   0.01226
  28 4   F  1S          0.56303  -0.06207   0.80222   0.00001  -0.13826
  29        2S          0.05623  -0.00609   0.07865   0.00210   0.13137
  30        2PX        -0.00174   0.00002  -0.00182  -0.00127  -0.03772
  31        2PY         0.00029  -0.00072   0.00025   0.00022   0.00641
  32        2PZ         0.00013  -0.00006   0.00078   0.00015   0.00822
  33        3S         -0.02193   0.00214  -0.02758  -0.00474   0.43526
  34        3PX         0.00460   0.00018   0.00359   0.00819  -0.05332
  35        3PY        -0.00078   0.00275  -0.00040  -0.00139   0.00906
  36        3PZ         0.00025   0.00013  -0.00171  -0.00142   0.01226
                           6         7         8         9        10
                           O         O         O         O         O
     Eigenvalues --    -1.60435  -1.60435  -0.82075  -0.76195  -0.76195
   1 1   B  1S          0.00000  -0.00001   0.13941   0.00001  -0.00000
   2        2S         -0.00000   0.00001  -0.24525  -0.00002   0.00001
   3        2PX        -0.02246   0.08819   0.00002  -0.26424   0.03606
   4        2PY        -0.08819  -0.02246  -0.00001  -0.03606  -0.26425
   5        2PZ         0.00000  -0.00000   0.06244   0.00001  -0.00000
   6        3S         -0.00000   0.00001  -0.09679  -0.00001   0.00001
   7        3PX         0.00121  -0.00476  -0.00000  -0.05326   0.00727
   8        3PY         0.00476   0.00121   0.00000  -0.00726  -0.05325
   9        3PZ        -0.00000   0.00000  -0.01240   0.00000  -0.00000
  10 2   F  1S          0.16804   0.11612  -0.04771   0.00934  -0.04185
  11        2S         -0.16231  -0.11216   0.05159  -0.00881   0.03944
  12        2PX        -0.01583  -0.00258  -0.08684  -0.20515  -0.14725
  13        2PY         0.03067   0.02429   0.23403  -0.14226   0.24153
  14        2PZ        -0.01076  -0.00744  -0.01951   0.01797  -0.08044
  15        3S         -0.53009  -0.36631   0.18061  -0.04231   0.18951
  16        3PX        -0.01965  -0.00481  -0.09475  -0.22554  -0.15478
  17        3PY         0.04037   0.03115   0.25535  -0.15177   0.24744
  18        3PZ        -0.01583  -0.01094  -0.02017   0.01815  -0.08126
  19 3   F  1S         -0.18460   0.08743  -0.04771   0.03156   0.02902
  20        2S          0.17830  -0.08445   0.05159  -0.02975  -0.02735
  21        2PX         0.02643  -0.00627  -0.15924   0.00448   0.26333
  22        2PY         0.02698  -0.01795  -0.19223   0.26827   0.03190
  23        2PZ         0.01182  -0.00560  -0.01951   0.06068   0.05578
  24        3S          0.58233  -0.27582   0.18061  -0.14295  -0.13142
  25        3PX         0.03385  -0.00948  -0.17374  -0.00356   0.27996
  26        3PY         0.03570  -0.02234  -0.20974   0.28293   0.02548
  27        3PZ         0.01739  -0.00824  -0.02017   0.06130   0.05635
  28 4   F  1S          0.01656  -0.20362  -0.04771  -0.04092   0.01283
  29        2S         -0.01600   0.19667   0.05158   0.03856  -0.01209
  30        2PX         0.00211  -0.04103   0.24605   0.25525  -0.12351
  31        2PY        -0.00777   0.00636  -0.04179  -0.11854  -0.21882
  32        2PZ        -0.00106   0.01304  -0.01950  -0.07863   0.02466
  33        3S         -0.05225   0.64232   0.18058   0.18530  -0.05810
  34        3PX         0.00306  -0.05349   0.26847   0.26197  -0.12965
  35        3PY        -0.00829   0.00845  -0.04560  -0.12666  -0.24001
  36        3PZ        -0.00156   0.01918  -0.02016  -0.07943   0.02491
                          11        12        13        14        15
                           O         O         O         O         O
     Eigenvalues --    -0.72531  -0.65828  -0.65828  -0.64723  -0.64722
   1 1   B  1S         -0.03701   0.00000   0.00000   0.00000  -0.00000
   2        2S          0.05763  -0.00000  -0.00000   0.00000  -0.00000
   3        2PX         0.00000  -0.06520  -0.08562   0.01248  -0.03350
   4        2PY        -0.00000  -0.08559   0.06520   0.03352   0.01248
   5        2PZ         0.16973  -0.00000  -0.00000  -0.00000   0.00000
   6        3S          0.05669  -0.00000  -0.00001   0.00000  -0.00000
   7        3PX         0.00000   0.05084   0.06675  -0.03635   0.09759
   8        3PY        -0.00000   0.06675  -0.05084  -0.09761  -0.03635
   9        3PZ         0.16251  -0.00000  -0.00001  -0.00000   0.00001
  10 2   F  1S          0.00477  -0.00607   0.00959  -0.00027  -0.00023
  11        2S         -0.00944   0.01116  -0.01763  -0.00603  -0.00521
  12        2PX        -0.01377   0.21547   0.20573  -0.03191   0.16116
  13        2PY         0.03713   0.17596  -0.07528  -0.20021  -0.10269
  14        2PZ         0.27492  -0.13272   0.20951  -0.26086  -0.22507
  15        3S         -0.00425   0.00814  -0.01286   0.02813   0.02428
  16        3PX        -0.01131   0.24259   0.23055  -0.02401   0.16950
  17        3PY         0.03050   0.19663  -0.08281  -0.22381  -0.12249
  18        3PZ         0.29373  -0.15728   0.24829  -0.29521  -0.25471
  19 3   F  1S          0.00477   0.01134   0.00046   0.00033  -0.00012
  20        2S         -0.00944  -0.02085  -0.00085   0.00753  -0.00262
  21        2PX        -0.02525   0.09742   0.24414  -0.10187   0.15978
  22        2PY        -0.03050   0.13760  -0.19329  -0.20162  -0.03272
  23        2PZ         0.27492   0.24780   0.01012   0.32534  -0.11338
  24        3S         -0.00425  -0.01521  -0.00062  -0.03509   0.01223
  25        3PX        -0.02074   0.10805   0.27433  -0.12135   0.16757
  26        3PY        -0.02506   0.15290  -0.21731  -0.22576  -0.02514
  27        3PZ         0.29374   0.29366   0.01199   0.36819  -0.12832
  28 4   F  1S          0.00477  -0.00527  -0.01006  -0.00007   0.00035
  29        2S         -0.00944   0.00969   0.01849  -0.00149   0.00783
  30        2PX         0.03902   0.12322   0.12276  -0.06811   0.22110
  31        2PY        -0.00663   0.25898  -0.16751  -0.14032  -0.06648
  32        2PZ         0.27489  -0.11510  -0.21966  -0.06449   0.33849
  33        3S         -0.00425   0.00707   0.01349   0.00695  -0.03650
  34        3PX         0.03205   0.13745   0.13599  -0.07437   0.25287
  35        3PY        -0.00544   0.29125  -0.18793  -0.14049  -0.07211
  36        3PZ         0.29369  -0.13640  -0.26031  -0.07299   0.38307
                          16        17        18        19        20
                           O         V         V         V         V
     Eigenvalues --    -0.63417   0.06172   0.36993   0.37060   0.37061
   1 1   B  1S         -0.00000  -0.10960  -0.13845  -0.00058   0.00070
   2        2S          0.00000   0.02139  -0.10027  -0.00042   0.00051
   3        2PX         0.00000   0.00000   0.00113  -0.01891   0.20355
   4        2PY        -0.00000  -0.00000  -0.00076   0.20355   0.01891
   5        2PZ        -0.00000   0.38155  -0.18121  -0.00075   0.00091
   6        3S          0.00000   0.75972   1.32104   0.00554  -0.00669
   7        3PX        -0.00000   0.00000   0.00711  -0.12195   1.31314
   8        3PY         0.00001  -0.00000  -0.00486   1.31313   0.12198
   9        3PZ        -0.00000   0.46247  -0.74770  -0.00313   0.00378
  10 2   F  1S         -0.00000   0.02411   0.06285   0.07344  -0.02000
  11        2S          0.00000  -0.01488  -0.04265  -0.02814   0.00774
  12        2PX        -0.30139  -0.01736  -0.04808  -0.06348  -0.14295
  13        2PY        -0.11184   0.04679   0.12775   0.04787  -0.07283
  14        2PZ        -0.00000  -0.15350   0.07079  -0.07317   0.01940
  15        3S         -0.00000  -0.16851  -0.50065  -0.69436   0.18874
  16        3PX        -0.33291  -0.02848  -0.09328  -0.12996  -0.23533
  17        3PY        -0.12354   0.07674   0.24833   0.14207  -0.13963
  18        3PZ        -0.00000  -0.22913   0.10009  -0.11963   0.03179
  19 3   F  1S          0.00000   0.02411   0.06321  -0.05337  -0.05385
  20        2S         -0.00000  -0.01488  -0.04279   0.02032   0.02067
  21        2PX         0.24754  -0.03184  -0.08812   0.12045  -0.05851
  22        2PY        -0.20508  -0.03843  -0.10468  -0.03734   0.11244
  23        2PZ         0.00001  -0.15350   0.07042   0.05414   0.05339
  24        3S          0.00000  -0.16851  -0.50404   0.50526   0.50898
  25        3PX         0.27343  -0.05223  -0.17119   0.23385  -0.06834
  26        3PY        -0.22653  -0.06304  -0.20379  -0.02643   0.22679
  27        3PZ         0.00001  -0.22913   0.09950   0.08840   0.08732
  28 4   F  1S         -0.00000   0.02411   0.06371  -0.01928   0.07290
  29        2S         -0.00000  -0.01488  -0.04298   0.00729  -0.02776
  30        2PX         0.05382   0.04921   0.13543  -0.04362   0.05769
  31        2PY         0.31697  -0.00836  -0.02254  -0.15431  -0.05297
  32        2PZ        -0.00001  -0.15350   0.06992   0.01991  -0.07386
  33        3S          0.00000  -0.16851  -0.50873   0.18275  -0.69005
  34        3PX         0.05945   0.08072   0.26371  -0.09068   0.16153
  35        3PY         0.35011  -0.01371  -0.04401  -0.25780  -0.10036
  36        3PZ        -0.00001  -0.22913   0.09867   0.03247  -0.12061
                          21        22        23        24        25
                           V         V         V         V         V
     Eigenvalues --     0.55638   0.71098   0.71099   0.85931   2.15089
   1 1   B  1S         -0.00849  -0.00001   0.00000  -0.10003   0.00000
   2        2S          0.35095   0.00013  -0.00001   1.61239   0.00001
   3        2PX        -0.00002   1.25366   0.34815  -0.00012  -0.06587
   4        2PY         0.00000  -0.34814   1.25366   0.00004  -0.00657
   5        2PZ         1.08556  -0.00000   0.00000  -0.30511  -0.00001
   6        3S         -0.47830  -0.00016   0.00001  -1.20142   0.00000
   7        3PX         0.00002  -0.76507  -0.21246   0.00005  -0.11238
   8        3PY        -0.00001   0.21246  -0.76506  -0.00002  -0.01121
   9        3PZ        -0.96409   0.00002  -0.00000   0.22513  -0.00001
  10 2   F  1S         -0.00735  -0.01353   0.01870   0.01001   0.00291
  11        2S          0.00750   0.02311  -0.03195  -0.02780  -0.01232
  12        2PX         0.00824   0.01841  -0.08558  -0.06555  -0.40785
  13        2PY        -0.02219  -0.13713   0.16728   0.17663  -0.20860
  14        2PZ        -0.00268   0.03953  -0.05465  -0.04368  -0.16319
  15        3S          0.04880  -0.00029   0.00043   0.10412  -0.00792
  16        3PX         0.01732   0.08539  -0.09327  -0.05631   0.40300
  17        3PY        -0.04666  -0.19402   0.27741   0.15173   0.21129
  18        3PZ         0.06788   0.05418  -0.07491  -0.05298   0.15124
  19 3   F  1S         -0.00735  -0.00943  -0.02107   0.01000   0.00817
  20        2S          0.00750   0.01611   0.03599  -0.02780  -0.03461
  21        2PX         0.01510   0.03362   0.14593  -0.12019  -0.15839
  22        2PY         0.01823   0.09435   0.15207  -0.14508   0.32698
  23        2PZ        -0.00268   0.02756   0.06156  -0.04368  -0.45852
  24        3S          0.04879  -0.00019  -0.00049   0.10412  -0.02223
  25        3PX         0.03175   0.10501   0.20535  -0.10324   0.14883
  26        3PY         0.03833   0.10459   0.25779  -0.12462  -0.33441
  27        3PZ         0.06788   0.03778   0.08438  -0.05298   0.42494
  28 4   F  1S         -0.00735   0.02296   0.00237   0.01000  -0.01108
  29        2S          0.00750  -0.03922  -0.00404  -0.02780   0.04693
  30        2PX        -0.02334   0.22651   0.01700   0.18570   0.18066
  31        2PY         0.00396  -0.03457  -0.04081  -0.03154  -0.15685
  32        2PZ        -0.00268  -0.06710  -0.00691  -0.04367   0.62168
  33        3S          0.04879   0.00058   0.00005   0.10414   0.03014
  34        3PX        -0.04907   0.35379   0.03905   0.15948  -0.19662
  35        3PY         0.00833  -0.06170   0.00900  -0.02709   0.15856
  36        3PZ         0.06789  -0.09197  -0.00947  -0.05296  -0.57616
                          26        27        28        29        30
                           V         V         V         V         V
     Eigenvalues --     2.15090   2.30262   2.31831   2.31832   2.36486
   1 1   B  1S         -0.00000   0.00000   0.00000  -0.00000   0.00101
   2        2S         -0.00001   0.00000   0.00007  -0.00004   0.24854
   3        2PX         0.00657  -0.00004  -0.25876   0.02648   0.00001
   4        2PY        -0.06586  -0.00004  -0.02649  -0.25878  -0.00001
   5        2PZ         0.00000  -0.00000  -0.00002   0.00001  -0.15062
   6        3S         -0.00000  -0.00000   0.00000  -0.00000   0.07782
   7        3PX         0.01121  -0.00006  -0.27989   0.02865   0.00003
   8        3PY        -0.11237  -0.00007  -0.02864  -0.27988  -0.00002
   9        3PZ         0.00000  -0.00000  -0.00001   0.00001  -0.34505
  10 2   F  1S         -0.01111  -0.00000   0.00932  -0.03597   0.02393
  11        2S          0.04708   0.00002  -0.04410   0.17029  -0.11831
  12        2PX        -0.18293   0.54758  -0.53233  -0.20038   0.11523
  13        2PY         0.15081   0.20322  -0.24405   0.10509  -0.31034
  14        2PZ         0.62367  -0.00007   0.12825  -0.49533  -0.47129
  15        3S          0.03023   0.00001  -0.01529   0.05903  -0.01443
  16        3PX         0.18764  -0.55058   0.58013   0.24487  -0.14603
  17        3PY        -0.16621  -0.20434   0.28569  -0.18084   0.39331
  18        3PZ        -0.57801   0.00007  -0.13801   0.53303   0.51779
  19 3   F  1S          0.00808   0.00001   0.02650   0.02605   0.02393
  20        2S         -0.03421  -0.00005  -0.12543  -0.12332  -0.11832
  21        2PX         0.35259  -0.44989  -0.24647   0.40896   0.21125
  22        2PY        -0.09866   0.37273   0.36511  -0.18064   0.25488
  23        2PZ        -0.45316   0.00015   0.36485   0.35876  -0.47127
  24        3S         -0.02196  -0.00001  -0.04348  -0.04274  -0.01443
  25        3PX        -0.35800   0.45236   0.23889  -0.48255  -0.26773
  26        3PY         0.08798  -0.37480  -0.44157   0.16028  -0.32304
  27        3PZ         0.41998  -0.00016  -0.39262  -0.38606   0.51777
  28 4   F  1S          0.00304  -0.00001  -0.03581   0.00992   0.02393
  29        2S         -0.01287   0.00003   0.16950  -0.04695  -0.11834
  30        2PX        -0.13119  -0.09784   0.13805  -0.14300  -0.32638
  31        2PY        -0.43771  -0.57615  -0.18663  -0.56515   0.05541
  32        2PZ        -0.17051  -0.00008  -0.49315   0.13661  -0.47124
  33        3S         -0.00826   0.00001   0.05875  -0.01627  -0.01443
  34        3PX         0.13491   0.09837  -0.22018   0.17638   0.41364
  35        3PY         0.43342   0.57933   0.21716   0.61935  -0.07023
  36        3PZ         0.15802   0.00009   0.53067  -0.14701   0.51773
                          31        32        33        34        35
                           V         V         V         V         V
     Eigenvalues --     2.40320   2.46315   2.46316   3.86908   3.86909
   1 1   B  1S          0.02554  -0.00000   0.00000  -0.00000  -0.00000
   2        2S          0.70065  -0.00000   0.00001   0.00000  -0.00001
   3        2PX        -0.00000   0.42882  -0.01004   0.13884   0.31697
   4        2PY        -0.00000   0.01005   0.42881  -0.31697   0.13884
   5        2PZ        -0.14513  -0.00000  -0.00000  -0.00000  -0.00000
   6        3S         -0.06966   0.00001  -0.00000   0.00002   0.00002
   7        3PX         0.00003  -0.28840   0.00675   0.21511   0.49111
   8        3PY        -0.00001  -0.00676  -0.28842  -0.49108   0.21511
   9        3PZ         0.18167  -0.00001   0.00000  -0.00001  -0.00001
  10 2   F  1S          0.02088  -0.00407   0.01181   0.08537  -0.00492
  11        2S         -0.08759   0.02168  -0.06291  -1.27510   0.07341
  12        2PX         0.15923  -0.34585   0.16681  -0.03434   0.12437
  13        2PY        -0.42893   0.14180  -0.72189   0.11406   0.03885
  14        2PZ         0.35071  -0.01752   0.05080  -0.07435   0.00428
  15        3S         -0.00378  -0.01644   0.04771   1.45104  -0.08353
  16        3PX        -0.20328   0.38481  -0.20612   0.08751  -0.25813
  17        3PY         0.54763  -0.17717   0.85184  -0.28032  -0.07778
  18        3PZ        -0.40346   0.02535  -0.07350   0.15795  -0.00909
  19 3   F  1S          0.02088  -0.00819  -0.00943  -0.03843   0.07639
  20        2S         -0.08760   0.04363   0.05023   0.57404  -1.14096
  21        2PX         0.29194  -0.49420  -0.22746   0.12381  -0.02275
  22        2PY         0.35232  -0.25250  -0.57352  -0.03306  -0.11928
  23        2PZ         0.35072  -0.03525  -0.04055   0.03347  -0.06653
  24        3S         -0.00378  -0.03308  -0.03810  -0.65324   1.29840
  25        3PX        -0.37272   0.56906   0.28355  -0.26963   0.07413
  26        3PY        -0.44981   0.31255   0.66757   0.05192   0.27934
  27        3PZ        -0.40347   0.05101   0.05868  -0.07110   0.14134
  28 4   F  1S          0.02089   0.01227  -0.00238  -0.04694  -0.07148
  29        2S         -0.08762  -0.06533   0.01268   0.70114   1.06762
  30        2PX        -0.45109  -0.76154   0.09817  -0.08269  -0.08615
  31        2PY         0.07660   0.07318  -0.30620  -0.09646   0.08720
  32        2PZ         0.35075   0.05276  -0.01023   0.04088   0.06225
  33        3S         -0.00378   0.04953  -0.00961  -0.79788  -1.21493
  34        3PX         0.57591   0.90107  -0.12087   0.19670   0.21729
  35        3PY        -0.09780  -0.09192   0.33557   0.19509  -0.18696
  36        3PZ        -0.40350  -0.07633   0.01480  -0.08684  -0.13224
                          36
                           V
     Eigenvalues --     4.17046
   1 1   B  1S          0.04888
   2        2S         -0.30573
   3        2PX         0.00003
   4        2PY        -0.00001
   5        2PZ         0.18202
   6        3S         -0.84004
   7        3PX         0.00003
   8        3PY        -0.00002
   9        3PZ         0.28363
  10 2   F  1S          0.05109
  11        2S         -0.93505
  12        2PX        -0.05091
  13        2PY         0.13718
  14        2PZ         0.03309
  15        3S          1.15000
  16        3PX         0.13199
  17        3PY        -0.35568
  18        3PZ        -0.05063
  19 3   F  1S          0.05109
  20        2S         -0.93502
  21        2PX        -0.09335
  22        2PY        -0.11268
  23        2PZ         0.03309
  24        3S          1.14996
  25        3PX         0.24202
  26        3PY         0.29215
  27        3PZ        -0.05064
  28 4   F  1S          0.05109
  29        2S         -0.93495
  30        2PX         0.14426
  31        2PY        -0.02450
  32        2PZ         0.03310
  33        3S          1.14986
  34        3PX        -0.37399
  35        3PY         0.06352
  36        3PZ        -0.05065
     Density Matrix:
                           1         2         3         4         5
   1 1   B  1S          2.00648
   2        2S          0.09044   0.15957
   3        2PX         0.00000  -0.00000   0.18456
   4        2PY         0.00000   0.00000   0.00000   0.18456
   5        2PZ         0.00325  -0.01539   0.00000  -0.00000   0.06634
   6        3S         -0.07986   0.05580   0.00001  -0.00000   0.00587
   7        3PX        -0.00000   0.00000   0.00234  -0.00000  -0.00000
   8        3PY         0.00000  -0.00000  -0.00000   0.00234   0.00000
   9        3PZ        -0.01974   0.02596  -0.00000   0.00000   0.05330
  10 2   F  1S          0.00954   0.00230   0.00188  -0.00507  -0.00095
  11        2S         -0.00345  -0.00199  -0.00345   0.00931  -0.00261
  12        2PX        -0.02460   0.04350   0.02313   0.08735  -0.01609
  13        2PY         0.06628  -0.11720   0.08735  -0.17983   0.04336
  14        2PZ        -0.02691   0.04277  -0.02612   0.07039   0.09054
  15        3S         -0.03358  -0.01155  -0.00448   0.01206   0.00271
  16        3PX        -0.03453   0.04804   0.02497   0.09289  -0.01645
  17        3PY         0.09303  -0.12944   0.09289  -0.19085   0.04433
  18        3PZ        -0.03229   0.04570  -0.02897   0.07806   0.09668
  19 3   F  1S          0.00954   0.00230   0.00345   0.00417  -0.00095
  20        2S         -0.00345  -0.00199  -0.00633  -0.00765  -0.00261
  21        2PX        -0.04510   0.07975  -0.05344  -0.13156  -0.02951
  22        2PY        -0.05444   0.09627  -0.13156  -0.10325  -0.03562
  23        2PZ        -0.02691   0.04277  -0.04790  -0.05782   0.09054
  24        3S         -0.03358  -0.01155  -0.00821  -0.00990   0.00271
  25        3PX        -0.06331   0.08808  -0.05645  -0.13990  -0.03017
  26        3PY        -0.07641   0.10632  -0.13990  -0.10942  -0.03641
  27        3PZ        -0.03229   0.04570  -0.05312  -0.06412   0.09667
  28 4   F  1S          0.00954   0.00230  -0.00533   0.00091  -0.00095
  29        2S         -0.00345  -0.00199   0.00979  -0.00166  -0.00261
  30        2PX         0.06970  -0.12325  -0.20474   0.04421   0.04560
  31        2PY        -0.01184   0.02093   0.04421   0.04804  -0.00774
  32        2PZ        -0.02690   0.04276   0.07402  -0.01257   0.09053
  33        3S         -0.03358  -0.01155   0.01268  -0.00215   0.00272
  34        3PX         0.09783  -0.13611  -0.21734   0.04701   0.04662
  35        3PY        -0.01661   0.02312   0.04701   0.05146  -0.00792
  36        3PZ        -0.03228   0.04570   0.08208  -0.01394   0.09667
                           6         7         8         9        10
   6        3S          0.02852
   7        3PX         0.00000   0.04175
   8        3PY        -0.00000   0.00000   0.04175
   9        3PZ         0.02126   0.00000  -0.00000   0.05329
  10 2   F  1S          0.01766  -0.00655   0.01764  -0.00442   2.05908
  11        2S         -0.00124  -0.00009   0.00024  -0.00276   0.06437
  12        2PX         0.01608   0.10286   0.02087  -0.00212   0.01004
  13        2PY        -0.04334   0.02087   0.05436   0.00571  -0.02704
  14        2PZ         0.03546  -0.01353   0.03646   0.08996   0.01121
  15        3S         -0.00854   0.01144  -0.03082   0.00127  -0.48717
  16        3PX         0.01832   0.11202   0.02083  -0.00101   0.00230
  17        3PY        -0.04936   0.02083   0.06362   0.00271  -0.00621
  18        3PZ         0.03805  -0.01414   0.03809   0.09616   0.00507
  19 3   F  1S          0.01766  -0.01201  -0.01449  -0.00442  -0.00060
  20        2S         -0.00124  -0.00016  -0.00020  -0.00276   0.00211
  21        2PX         0.02949   0.08456  -0.03144  -0.00388  -0.00326
  22        2PY         0.03560  -0.03144   0.07266  -0.00469   0.01293
  23        2PZ         0.03546  -0.02481  -0.02995   0.08996  -0.00206
  24        3S         -0.00854   0.02097   0.02532   0.00127  -0.00048
  25        3PX         0.03359   0.09376  -0.03137  -0.00184  -0.00216
  26        3PY         0.04055  -0.03137   0.08188  -0.00222   0.00801
  27        3PZ         0.03804  -0.02592  -0.03129   0.09616  -0.00013
  28 4   F  1S          0.01766   0.01855  -0.00315  -0.00442  -0.00060
  29        2S         -0.00124   0.00025  -0.00004  -0.00276   0.00211
  30        2PX        -0.04558   0.04840   0.01056   0.00600  -0.00596
  31        2PY         0.00774   0.01056   0.10881  -0.00102   0.01192
  32        2PZ         0.03546   0.03835  -0.00651   0.08996  -0.00206
  33        3S         -0.00854  -0.03241   0.00550   0.00127  -0.00048
  34        3PX        -0.05192   0.05768   0.01054   0.00285  -0.00359
  35        3PY         0.00882   0.01054   0.11796  -0.00048   0.00748
  36        3PZ         0.03805   0.04006  -0.00680   0.09616  -0.00013
                          11        12        13        14        15
  11        2S          0.14093
  12        2PX        -0.01105   0.55703
  13        2PY         0.02977   0.03546   0.47464
  14        2PZ        -0.01126  -0.01415   0.03813   0.52642
  15        3S          0.39628  -0.03525   0.09497  -0.05058   1.35595
  16        3PX        -0.00998   0.61228   0.04137  -0.01648  -0.02790
  17        3PY         0.02688   0.04137   0.51616   0.04440   0.07516
  18        3PZ        -0.00984  -0.01610   0.04338   0.59118  -0.04446
  19 3   F  1S          0.00211  -0.00735  -0.01113  -0.00206  -0.00048
  20        2S         -0.00078  -0.00088   0.00632  -0.00191  -0.00223
  21        2PX        -0.00291   0.00004  -0.00079   0.00771   0.03729
  22        2PY        -0.00568   0.02049   0.05636  -0.00219  -0.07534
  23        2PZ        -0.00191   0.00801  -0.00048  -0.03514   0.02195
  24        3S         -0.00223   0.06008   0.05881   0.02195  -0.00995
  25        3PX        -0.00261   0.00603   0.00227   0.02434   0.04096
  26        3PY        -0.00616   0.03294   0.06269  -0.00182  -0.08066
  27        3PZ        -0.00166   0.02012   0.00240  -0.05187   0.02358
  28 4   F  1S          0.00211   0.01283  -0.00364  -0.00206  -0.00048
  29        2S         -0.00078  -0.00346   0.00536  -0.00191  -0.00223
  30        2PX         0.00591   0.03375  -0.01868  -0.00442   0.02089
  31        2PY        -0.00240  -0.03995   0.02265  -0.00669  -0.08143
  32        2PZ        -0.00191  -0.00576  -0.00558  -0.03514   0.02195
  33        3S         -0.00223  -0.08389   0.00537   0.02195  -0.00995
  34        3PX         0.00600   0.04756  -0.01530  -0.01725   0.02158
  35        3PY        -0.00297  -0.04597   0.02116  -0.01726  -0.08786
  36        3PZ        -0.00166  -0.01681  -0.01130  -0.05187   0.02358
                          16        17        18        19        20
  16        3PX         0.67372
  17        3PY         0.04762   0.56307
  18        3PZ        -0.01864   0.05023   0.66511
  19 3   F  1S         -0.00469  -0.00685  -0.00013   2.05908
  20        2S         -0.00043   0.00668  -0.00166   0.06437   0.14093
  21        2PX         0.00123  -0.01145   0.01820   0.01840  -0.02026
  22        2PY         0.01922   0.06749  -0.00891   0.02221  -0.02445
  23        2PZ         0.02357  -0.00632  -0.05187   0.01121  -0.01126
  24        3S          0.06530   0.06261   0.02358  -0.48717   0.39628
  25        3PX         0.00792  -0.00905   0.03770   0.00422  -0.01829
  26        3PY         0.03234   0.07452  -0.00964   0.00510  -0.02208
  27        3PZ         0.03877  -0.00335  -0.07206   0.00507  -0.00984
  28 4   F  1S          0.00802  -0.00213  -0.00013  -0.00060   0.00211
  29        2S         -0.00403   0.00534  -0.00166   0.00211  -0.00078
  30        2PX         0.03328  -0.01800  -0.00798  -0.00957   0.00637
  31        2PY        -0.04867   0.03544  -0.01862  -0.00929   0.00031
  32        2PZ        -0.01375  -0.02016  -0.05187  -0.00206  -0.00191
  33        3S         -0.09034   0.00485   0.02358  -0.00048  -0.00223
  34        3PX         0.04779  -0.01396  -0.02228  -0.00586   0.00664
  35        3PY        -0.05535   0.03465  -0.03190  -0.00588   0.00082
  36        3PZ        -0.02719  -0.02783  -0.07206  -0.00013  -0.00166
                          21        22        23        24        25
  21        2PX         0.52594
  22        2PY        -0.05341   0.50573
  23        2PZ        -0.02595  -0.03132   0.52642
  24        3S         -0.06463  -0.07801  -0.05058   1.35595
  25        3PX         0.57601  -0.06231  -0.03021  -0.05115   0.63197
  26        3PY        -0.06231   0.55242  -0.03647  -0.06174  -0.07172
  27        3PZ        -0.02952  -0.03563   0.59118  -0.04446  -0.03418
  28 4   F  1S          0.01331  -0.00080  -0.00206  -0.00048   0.00828
  29        2S         -0.00504  -0.00392  -0.00191  -0.00223  -0.00557
  30        2PX         0.05081   0.00882  -0.00196   0.04660   0.05429
  31        2PY         0.03010   0.00559   0.00778   0.06997   0.04208
  32        2PZ        -0.00359   0.00717  -0.03514   0.02195  -0.00632
  33        3S         -0.08096   0.02263   0.02195  -0.00995  -0.08687
  34        3PX         0.06377   0.00039  -0.01059   0.04937   0.06796
  35        3PY         0.03106   0.00494   0.02198   0.07581   0.04371
  36        3PZ        -0.01214   0.01622  -0.05187   0.02358  -0.01648
                          26        27        28        29        30
  26        3PY         0.60482
  27        3PZ        -0.04126   0.66511
  28 4   F  1S         -0.00063  -0.00013   2.05908
  29        2S         -0.00371  -0.00166   0.06437   0.14093
  30        2PX         0.01141  -0.00138  -0.02843   0.03131   0.46452
  31        2PY         0.01443   0.02021   0.00483  -0.00532   0.01795
  32        2PZ         0.02357  -0.05187   0.01121  -0.01126   0.04010
  33        3S          0.02525   0.02358  -0.48716   0.39628   0.09987
  34        3PX         0.00231  -0.01051  -0.00653   0.02827   0.50436
  35        3PY         0.01448   0.03746   0.00111  -0.00480   0.02094
  36        3PZ         0.03525  -0.07206   0.00507  -0.00984   0.04561
                          31        32        33        34        35
  31        2PY         0.56715
  32        2PZ        -0.00681   0.52642
  33        3S         -0.01696  -0.05057   1.35595
  34        3PX         0.02094   0.04669   0.07904   0.54950
  35        3PY         0.62408  -0.00793  -0.01342   0.02410   0.68730
  36        3PZ        -0.00775   0.59118  -0.04446   0.05282  -0.00897
                          36
  36        3PZ         0.66511
    Full Mulliken population analysis:
                           1         2         3         4         5
   1 1   B  1S          2.00648
   2        2S          0.01654   0.15957
   3        2PX         0.00000   0.00000   0.18456
   4        2PY         0.00000   0.00000   0.00000   0.18456
   5        2PZ         0.00000   0.00000   0.00000  -0.00000   0.06634
   6        3S         -0.01388   0.04326   0.00000   0.00000   0.00000
   7        3PX         0.00000   0.00000   0.00129  -0.00000  -0.00000
   8        3PY         0.00000   0.00000  -0.00000   0.00129   0.00000
   9        3PZ         0.00000   0.00000  -0.00000   0.00000   0.02938
  10 2   F  1S          0.00000   0.00002  -0.00002  -0.00012   0.00001
  11        2S         -0.00000  -0.00014   0.00017   0.00122   0.00009
  12        2PX        -0.00000   0.00109   0.00029   0.00430   0.00022
  13        2PY        -0.00002   0.00794   0.00430   0.01833   0.00156
  14        2PZ        -0.00000   0.00079   0.00035   0.00253   0.00190
  15        3S         -0.00077  -0.00260   0.00050   0.00361  -0.00022
  16        3PX        -0.00086   0.00614   0.00284   0.01711   0.00082
  17        3PY        -0.00624   0.04459   0.01711   0.05996   0.00597
  18        3PZ        -0.00059   0.00427   0.00145   0.01051   0.01408
  19 3   F  1S          0.00000   0.00002  -0.00005  -0.00008   0.00001
  20        2S         -0.00000  -0.00014   0.00056   0.00082   0.00009
  21        2PX        -0.00001   0.00368   0.00164   0.00976   0.00072
  22        2PY        -0.00001   0.00536   0.00976   0.00607   0.00105
  23        2PZ        -0.00000   0.00079   0.00117   0.00171   0.00190
  24        3S         -0.00077  -0.00260   0.00167   0.00243  -0.00022
  25        3PX        -0.00289   0.02065   0.00269   0.03882   0.00277
  26        3PY        -0.00421   0.03008   0.03882   0.01671   0.00403
  27        3PZ        -0.00059   0.00427   0.00487   0.00709   0.01408
  28 4   F  1S          0.00000   0.00002  -0.00013  -0.00000   0.00001
  29        2S         -0.00000  -0.00014   0.00134   0.00004   0.00009
  30        2PX        -0.00002   0.00878   0.02374   0.00110   0.00173
  31        2PY        -0.00000   0.00025   0.00110   0.00128   0.00005
  32        2PZ        -0.00000   0.00079   0.00280   0.00008   0.00190
  33        3S         -0.00077  -0.00260   0.00399   0.00012  -0.00022
  34        3PX        -0.00690   0.04930   0.07971   0.00438   0.00660
  35        3PY        -0.00020   0.00142   0.00438   0.00856   0.00019
  36        3PZ        -0.00059   0.00427   0.01163   0.00034   0.01408
                           6         7         8         9        10
   6        3S          0.02852
   7        3PX         0.00000   0.04175
   8        3PY         0.00000   0.00000   0.04175
   9        3PZ         0.00000   0.00000  -0.00000   0.05329
  10 2   F  1S          0.00053   0.00012   0.00087   0.00006   2.05908
  11        2S         -0.00019   0.00001   0.00006   0.00018   0.01382
  12        2PX         0.00029   0.00489   0.00059   0.00002   0.00000
  13        2PY         0.00210   0.00059  -0.00099   0.00012   0.00000
  14        2PZ         0.00047   0.00010   0.00075   0.00472   0.00000
  15        3S         -0.00317  -0.00209  -0.01518  -0.00017  -0.08944
  16        3PX         0.00170   0.02848   0.00256   0.00003   0.00000
  17        3PY         0.01234   0.00256  -0.00200   0.00024   0.00000
  18        3PZ         0.00258   0.00047   0.00342   0.02649   0.00000
  19 3   F  1S          0.00053   0.00040   0.00059   0.00006   0.00000
  20        2S         -0.00019   0.00003   0.00004   0.00018   0.00000
  21        2PX         0.00097   0.00192   0.00134   0.00005  -0.00000
  22        2PY         0.00141   0.00134   0.00048   0.00008   0.00000
  23        2PZ         0.00047   0.00035   0.00051   0.00472  -0.00000
  24        3S         -0.00317  -0.00703  -0.01024  -0.00017  -0.00000
  25        3PX         0.00571   0.01373   0.00581   0.00011  -0.00000
  26        3PY         0.00833   0.00581   0.00625   0.00016   0.00000
  27        3PZ         0.00258   0.00159   0.00231   0.02649  -0.00000
  28 4   F  1S          0.00053   0.00096   0.00003   0.00006   0.00000
  29        2S         -0.00019   0.00006   0.00000   0.00018   0.00000
  30        2PX         0.00232  -0.00127   0.00015   0.00013   0.00000
  31        2PY         0.00007   0.00015   0.00605   0.00000   0.00000
  32        2PZ         0.00047   0.00083   0.00002   0.00472  -0.00000
  33        3S         -0.00317  -0.01678  -0.00048  -0.00017  -0.00000
  34        3PX         0.01365  -0.00384   0.00066   0.00027   0.00000
  35        3PY         0.00039   0.00066   0.03413   0.00001   0.00000
  36        3PZ         0.00258   0.00379   0.00011   0.02649  -0.00000
                          11        12        13        14        15
  11        2S          0.14093
  12        2PX         0.00000   0.55703
  13        2PY         0.00000   0.00000   0.47464
  14        2PZ         0.00000  -0.00000   0.00000   0.52642
  15        3S          0.29016   0.00000   0.00000   0.00000   1.35595
  16        3PX         0.00000   0.29902   0.00000  -0.00000   0.00000
  17        3PY         0.00000   0.00000   0.25208   0.00000   0.00000
  18        3PZ         0.00000  -0.00000   0.00000   0.28871   0.00000
  19 3   F  1S          0.00000   0.00000   0.00000   0.00000  -0.00000
  20        2S         -0.00000   0.00000  -0.00000   0.00000  -0.00000
  21        2PX        -0.00000  -0.00000   0.00000  -0.00000   0.00001
  22        2PY        -0.00000  -0.00000  -0.00000   0.00000  -0.00006
  23        2PZ        -0.00000  -0.00000   0.00000  -0.00000   0.00000
  24        3S         -0.00000  -0.00001  -0.00005  -0.00000  -0.00010
  25        3PX        -0.00000   0.00000  -0.00000  -0.00000   0.00021
  26        3PY        -0.00001  -0.00002  -0.00023   0.00000  -0.00242
  27        3PZ        -0.00000  -0.00000  -0.00000  -0.00001   0.00000
  28 4   F  1S          0.00000   0.00000   0.00000   0.00000  -0.00000
  29        2S         -0.00000  -0.00000  -0.00000   0.00000  -0.00000
  30        2PX        -0.00000  -0.00000  -0.00000  -0.00000  -0.00001
  31        2PY        -0.00000  -0.00000  -0.00000   0.00000  -0.00004
  32        2PZ        -0.00000  -0.00000   0.00000  -0.00000   0.00000
  33        3S         -0.00000  -0.00005  -0.00000  -0.00000  -0.00010
  34        3PX        -0.00001  -0.00010  -0.00003  -0.00000  -0.00051
  35        3PY        -0.00000  -0.00009  -0.00003   0.00000  -0.00171
  36        3PZ        -0.00000  -0.00000   0.00000  -0.00001   0.00000
                          16        17        18        19        20
  16        3PX         0.67372
  17        3PY         0.00000   0.56307
  18        3PZ        -0.00000   0.00000   0.66511
  19 3   F  1S          0.00000   0.00000   0.00000   2.05908
  20        2S          0.00000  -0.00001   0.00000   0.01382   0.14093
  21        2PX         0.00000   0.00001  -0.00000   0.00000   0.00000
  22        2PY        -0.00001  -0.00024   0.00000   0.00000   0.00000
  23        2PZ        -0.00000   0.00000  -0.00001   0.00000   0.00000
  24        3S         -0.00033  -0.00188  -0.00000  -0.08944   0.29016
  25        3PX         0.00006   0.00014  -0.00000   0.00000   0.00000
  26        3PY        -0.00049  -0.00595   0.00000   0.00000   0.00000
  27        3PZ        -0.00000   0.00000  -0.00072   0.00000   0.00000
  28 4   F  1S          0.00000   0.00000   0.00000   0.00000   0.00000
  29        2S         -0.00001  -0.00001   0.00000   0.00000  -0.00000
  30        2PX        -0.00007  -0.00004  -0.00000   0.00000  -0.00000
  31        2PY        -0.00010  -0.00005   0.00000   0.00000  -0.00000
  32        2PZ        -0.00000   0.00000  -0.00001   0.00000   0.00000
  33        3S         -0.00212  -0.00009  -0.00000  -0.00000  -0.00000
  34        3PX        -0.00214  -0.00063  -0.00000   0.00000  -0.00001
  35        3PY        -0.00251  -0.00096   0.00000   0.00000  -0.00000
  36        3PZ        -0.00000   0.00000  -0.00072   0.00000   0.00000
                          21        22        23        24        25
  21        2PX         0.52594
  22        2PY        -0.00000   0.50573
  23        2PZ        -0.00000  -0.00000   0.52642
  24        3S          0.00000   0.00000   0.00000   1.35595
  25        3PX         0.28131  -0.00000  -0.00000   0.00000   0.63197
  26        3PY        -0.00000   0.26979  -0.00000   0.00000  -0.00000
  27        3PZ        -0.00000  -0.00000   0.28872   0.00000  -0.00000
  28 4   F  1S          0.00000  -0.00000  -0.00000  -0.00000   0.00000
  29        2S         -0.00000  -0.00000  -0.00000  -0.00000  -0.00001
  30        2PX        -0.00000  -0.00000   0.00000  -0.00004  -0.00018
  31        2PY        -0.00000  -0.00000  -0.00000  -0.00002  -0.00005
  32        2PZ         0.00000  -0.00000  -0.00000  -0.00000   0.00000
  33        3S         -0.00006   0.00001   0.00000  -0.00010  -0.00248
  34        3PX        -0.00021  -0.00000   0.00000  -0.00141  -0.00484
  35        3PY        -0.00004  -0.00000  -0.00000  -0.00080  -0.00132
  36        3PZ         0.00000  -0.00000  -0.00001  -0.00000   0.00000
                          26        27        28        29        30
  26        3PY         0.60482
  27        3PZ        -0.00000   0.66511
  28 4   F  1S         -0.00000  -0.00000   2.05908
  29        2S         -0.00000  -0.00000   0.01382   0.14093
  30        2PX        -0.00001   0.00000   0.00000   0.00000   0.46452
  31        2PY        -0.00000  -0.00000   0.00000   0.00000   0.00000
  32        2PZ        -0.00000  -0.00001   0.00000   0.00000   0.00000
  33        3S          0.00027   0.00000  -0.08944   0.29016   0.00000
  34        3PX        -0.00007   0.00000   0.00000   0.00000   0.24631
  35        3PY        -0.00002  -0.00000   0.00000   0.00000   0.00000
  36        3PZ        -0.00000  -0.00072   0.00000   0.00000   0.00000
                          31        32        33        34        35
  31        2PY         0.56715
  32        2PZ        -0.00000   0.52642
  33        3S          0.00000   0.00000   1.35595
  34        3PX         0.00000   0.00000   0.00000   0.54950
  35        3PY         0.30478  -0.00000   0.00000   0.00000   0.68730
  36        3PZ        -0.00000   0.28872   0.00000   0.00000  -0.00000
                          36
  36        3PZ         0.66511
     Gross orbital populations:
                           1
   1 1   B  1S          1.98369
   2        2S          0.40568
   3        2PX         0.40254
   4        2PY         0.40254
   5        2PZ         0.16902
   6        3S          0.10780
   7        3PX         0.08088
   8        3PY         0.08089
   9        3PZ         0.17774
  10 2   F  1S          1.98494
  11        2S          0.44627
  12        2PX         0.86746
  13        2PY         0.76031
  14        2PZ         0.82672
  15        3S          1.53185
  16        3PX         1.02384
  17        3PY         0.93997
  18        3PZ         1.01504
  19 3   F  1S          1.98494
  20        2S          0.44627
  21        2PX         0.82703
  22        2PY         0.80074
  23        2PZ         0.82672
  24        3S          1.53185
  25        3PX         0.99220
  26        3PY         0.97162
  27        3PZ         1.01504
  28 4   F  1S          1.98494
  29        2S          0.44627
  30        2PX         0.74714
  31        2PY         0.88062
  32        2PZ         0.82672
  33        3S          1.53185
  34        3PX         0.92968
  35        3PY         1.03414
  36        3PZ         1.01505
          Condensed to atoms (all electrons):
               1          2          3          4
     1  B    2.922589   0.296067   0.296066   0.296061
     2  F    0.296067   9.124658  -0.012161  -0.012159
     3  F    0.296066  -0.012161   9.124657  -0.012158
     4  F    0.296061  -0.012159  -0.012158   9.124666
 Mulliken charges:
               1
     1  B    1.189217
     2  F   -0.396404
     3  F   -0.396403
     4  F   -0.396409
 Sum of Mulliken charges =  -0.00000
 Mulliken charges with hydrogens summed into heavy atoms:
               1
     1  B    1.189217
     2  F   -0.396404
     3  F   -0.396403
     4  F   -0.396409
 Electronic spatial extent (au):  <R**2>=            219.4238
 Charge=             -0.0000 electrons
 Dipole moment (field-independent basis, Debye):
    X=             -0.0000    Y=             -0.0000    Z=              2.1723  Tot=              2.1723
 Quadrupole moment (field-independent basis, Debye-Ang):
   XX=            -22.7814   YY=            -22.7811   ZZ=            -16.3419
   XY=              0.0000   XZ=             -0.0000   YZ=             -0.0000
 Traceless Quadrupole moment (field-independent basis, Debye-Ang):
   XX=             -2.1466   YY=             -2.1463   ZZ=              4.2929
   XY=              0.0000   XZ=             -0.0000   YZ=             -0.0000
 Octapole moment (field-independent basis, Debye-Ang**2):
  XXX=             -2.8342  YYY=             -1.5655  ZZZ=              0.0641  XYY=              2.8339
  XXY=              1.5656  XXZ=             -0.1928  XZZ=             -0.0000  YZZ=              0.0000
  YYZ=             -0.1928  XYZ=              0.0000
 Hexadecapole moment (field-independent basis, Debye-Ang**3):
 XXXX=            -92.3247 YYYY=            -92.3199 ZZZZ=            -11.1975 XXXY=              0.0000
 XXXZ=             -0.1239 YYYX=              0.0000 YYYZ=             -0.0684 ZZZX=             -0.0000
 ZZZY=             -0.0000 XXYY=            -30.7741 XXZZ=            -16.2850 YYZZ=            -16.2843
 XXYZ=              0.0684 YYXZ=              0.1239 ZZXY=              0.0000
 N-N= 1.075274183669D+02 E-N=-9.824576433035D+02  KE= 3.197247515764D+02
 Orbital energies and kinetic energies (alpha):
                                 1                 2
   1         O               -26.204469         36.901284
   2         O               -26.203908         36.901971
   3         O               -26.203904         36.901971
   4         O                -7.799407         10.791952
   5         O                -1.652875          3.596723
   6         O                -1.604351          3.867721
   7         O                -1.604345          3.867711
   8         O                -0.820752          2.896811
   9         O                -0.761952          2.782913
  10         O                -0.761950          2.782928
  11         O                -0.725307          2.580082
  12         O                -0.658282          3.123729
  13         O                -0.658281          3.123730
  14         O                -0.647227          3.201894
  15         O                -0.647225          3.201886
  16         O                -0.634168          3.339069
  17         V                 0.061717          1.625955
  18         V                 0.369926          2.124403
  19         V                 0.370598          1.592206
  20         V                 0.370605          1.592229
  21         V                 0.556384          1.635363
  22         V                 0.710983          2.860839
  23         V                 0.710992          2.860864
  24         V                 0.859312          2.921104
  25         V                 2.150892          6.524924
  26         V                 2.150900          6.524930
  27         V                 2.302619          6.554366
  28         V                 2.318314          6.590406
  29         V                 2.318323          6.590408
  30         V                 2.364861          6.597946
  31         V                 2.403204          6.521448
  32         V                 2.463149          6.702650
  33         V                 2.463159          6.702654
  34         V                 3.869084          8.643035
  35         V                 3.869091          8.643031
  36         V                 4.170460          8.766742
 Total kinetic energy from orbitals= 3.197247515764D+02
 1\1\GINC-IISERK51\SP\RHF\3-21G\B1F3\GAUSSIAN\17-Jun-2025\0\\# hf/3-21g
  pop=full geom=connectivity\\Title Card Required\\0,1\B,0,-0.207565,-0
 .000007,0.000016\F,0,-0.546657,-0.404818,1.27152\F,0,-0.547187,-0.8987
 31,-0.986157\F,0,-0.547117,1.303486,-0.285053\\Version=EM64L-G16RevB.0
 1\State=1-A\HF=-321.4274285\RMSD=3.441e-09\Dipole=0.8546545,0.0000222,
 -0.0002179\Quadrupole=3.1916702,-1.5959393,-1.5957309,0.0002157,-0.001
 1771,0.0000153\PG=C01 [X(B1F3)]\\@


 OUR LITTLE SYSTEMS HAVE THEIR DAY,    
   THEY HAVE THEIR DAY AND CEASE TO BE.
   THEY ARE BUT BROKEN LIGHTS OF THEE, 
 AND THOU, OH LORD, ART MORE THAN THEY.
          -------------------          
 LET KNOWLEDGE GROW FROM MORE TO MORE, 
   BUT MORE OF REVERENCE IN US DWELL.  
   THAT MIND AND SOUL, ACCORDING WELL, 
 MAY MAKE ONE MUSIC AS BEFORE.....     
          -------------------          
                    LORD TENNYSON      
 Job cpu time:       0 days  0 hours  0 minutes  0.4 seconds.
 Elapsed time:       0 days  0 hours  0 minutes  0.4 seconds.
 File lengths (MBytes):  RWF=      6 Int=      0 D2E=      0 Chk=      1 Scr=      1
 Normal termination of Gaussian 16 at Tue Jun 17 14:19:43 2025.
