 Entering Gaussian System, Link 0=g16
 Input=/home/gaussian/Documents/Summer_Internship/Acid_Base_adduct/Adduct/NH3 - BF3/NH3_BF3_adduct_opt.com
 Output=/home/gaussian/Documents/Summer_Internship/Acid_Base_adduct/Adduct/NH3 - BF3/NH3_BF3_adduct_opt.log
 Initial command:
 /usr/local/g16/l1.exe "/home/gaussian/tmp/Gau-91372.inp" -scrdir="/home/gaussian/tmp/"
 Entering Link 1 = /usr/local/g16/l1.exe PID=     91375.
  
 Copyright (c) 1988-2017, Gaussian, Inc.  All Rights Reserved.
  
 This is part of the Gaussian(R) 16 program.  It is based on
 the Gaussian(R) 09 system (copyright 2009, Gaussian, Inc.),
 the Gaussian(R) 03 system (copyright 2003, Gaussian, Inc.),
 the Gaussian(R) 98 system (copyright 1998, Gaussian, Inc.),
 the Gaussian(R) 94 system (copyright 1995, Gaussian, Inc.),
 the Gaussian 92(TM) system (copyright 1992, Gaussian, Inc.),
 the Gaussian 90(TM) system (copyright 1990, Gaussian, Inc.),
 the Gaussian 88(TM) system (copyright 1988, Gaussian, Inc.),
 the Gaussian 86(TM) system (copyright 1986, Carnegie Mellon
 University), and the Gaussian 82(TM) system (copyright 1983,
 Carnegie Mellon University). Gaussian is a federally registered
 trademark of Gaussian, Inc.
  
 This software contains proprietary and confidential information,
 including trade secrets, belonging to Gaussian, Inc.
  
 This software is provided under written license and may be
 used, copied, transmitted, or stored only in accord with that
 written license.
  
 The following legend is applicable only to US Government
 contracts under FAR:
  
                    RESTRICTED RIGHTS LEGEND
  
 Use, reproduction and disclosure by the US Government is
 subject to restrictions as set forth in subparagraphs (a)
 and (c) of the Commercial Computer Software - Restricted
 Rights clause in FAR 52.227-19.
  
 Gaussian, Inc.
 340 Quinnipiac St., Bldg. 40, Wallingford CT 06492
  
  
 ---------------------------------------------------------------
 Warning -- This program may not be used in any manner that
 competes with the business of Gaussian, Inc. or will provide
 assistance to any competitor of Gaussian, Inc.  The licensee
 of this program is prohibited from giving any competitor of
 Gaussian, Inc. access to this program.  By using this program,
 the user acknowledges that Gaussian, Inc. is engaged in the
 business of creating and licensing software in the field of
 computational chemistry and represents and warrants to the
 licensee that it is not a competitor of Gaussian, Inc. and that
 it will not use this program in any manner prohibited above.
 ---------------------------------------------------------------
  

 Cite this work as:
 Gaussian 16, Revision B.01,
 M. J. Frisch, G. W. Trucks, H. B. Schlegel, G. E. Scuseria, 
 M. A. Robb, J. R. Cheeseman, G. Scalmani, V. Barone, 
 G. A. Petersson, H. Nakatsuji, X. Li, M. Caricato, A. V. Marenich, 
 J. Bloino, B. G. Janesko, R. Gomperts, B. Mennucci, H. P. Hratchian, 
 J. V. Ortiz, A. F. Izmaylov, J. L. Sonnenberg, D. Williams-Young, 
 F. Ding, F. Lipparini, F. Egidi, J. Goings, B. Peng, A. Petrone, 
 T. Henderson, D. Ranasinghe, V. G. Zakrzewski, J. Gao, N. Rega, 
 G. Zheng, W. Liang, M. Hada, M. Ehara, K. Toyota, R. Fukuda, 
 J. Hasegawa, M. Ishida, T. Nakajima, Y. Honda, O. Kitao, H. Nakai, 
 T. Vreven, K. Throssell, J. A. Montgomery, Jr., J. E. Peralta, 
 F. Ogliaro, M. J. Bearpark, J. J. Heyd, E. N. Brothers, K. N. Kudin, 
 V. N. Staroverov, T. A. Keith, R. Kobayashi, J. Normand, 
 K. Raghavachari, A. P. Rendell, J. C. Burant, S. S. Iyengar, 
 J. Tomasi, M. Cossi, J. M. Millam, M. Klene, C. Adamo, R. Cammi, 
 J. W. Ochterski, R. L. Martin, K. Morokuma, O. Farkas, 
 J. B. Foresman, and D. J. Fox, Gaussian, Inc., Wallingford CT, 2016.
 
 ******************************************
 Gaussian 16:  EM64L-G16RevB.01 20-Dec-2017
                17-Jun-2025 
 ******************************************
 %chk=NH3_BF3_adduct_opt.chk
 ----------------------------------------------
 # opt freq hf/3-21g pop=full geom=connectivity
 ----------------------------------------------
 1/18=20,19=15,38=1,57=2/1,3;
 2/9=110,12=2,17=6,18=5,40=1/2;
 3/5=5,11=9,25=1,30=1,71=1/1,2,3;
 4//1;
 5/5=2,38=5/2;
 6/7=3,28=1/1;
 7//1,2,3,16;
 1/18=20,19=15/3(2);
 2/9=110/2;
 99//99;
 2/9=110/2;
 3/5=5,11=9,25=1,30=1,71=1/1,2,3;
 4/5=5,16=3,69=1/1;
 5/5=2,38=5/2;
 7//1,2,3,16;
 1/18=20,19=15/3(-5);
 2/9=110/2;
 6/7=3,19=2,28=1/1;
 99/9=1/99;
 -------------------
 Title Card Required
 -------------------
 Symbolic Z-matrix:
 Charge =  0 Multiplicity = 1
 B                     0.20225  -0.00009   0.00008 
 F                     0.54235   1.32495  -0.15103 
 F                     0.54127  -0.79446  -1.07142 
 F                     0.53855  -0.53186   1.22408 
 N                    -1.47774   0.00122  -0.00142 
 H                    -1.80208  -0.6609   -0.69384 
 H                    -1.80068   0.93223  -0.22941 
 H                    -1.80299  -0.26701   0.91799 
 

 GradGradGradGradGradGradGradGradGradGradGradGradGradGradGradGradGradGrad
 Berny optimization.
 Initialization pass.
                           ----------------------------
                           !    Initial Parameters    !
                           ! (Angstroms and Degrees)  !
 --------------------------                            --------------------------
 ! Name  Definition              Value          Derivative Info.                !
 --------------------------------------------------------------------------------
 ! R1    R(1,2)                  1.3763         estimate D2E/DX2                !
 ! R2    R(1,3)                  1.3763         estimate D2E/DX2                !
 ! R3    R(1,4)                  1.3762         estimate D2E/DX2                !
 ! R4    R(1,5)                  1.68           estimate D2E/DX2                !
 ! R5    R(5,6)                  1.0114         estimate D2E/DX2                !
 ! R6    R(5,7)                  1.0115         estimate D2E/DX2                !
 ! R7    R(5,8)                  1.0115         estimate D2E/DX2                !
 ! A1    A(2,1,3)              114.1636         estimate D2E/DX2                !
 ! A2    A(2,1,4)              114.1588         estimate D2E/DX2                !
 ! A3    A(2,1,5)              104.2565         estimate D2E/DX2                !
 ! A4    A(3,1,4)              114.1554         estimate D2E/DX2                !
 ! A5    A(3,1,5)              104.2459         estimate D2E/DX2                !
 ! A6    A(4,1,5)              104.2086         estimate D2E/DX2                !
 ! A7    A(1,5,6)              108.7098         estimate D2E/DX2                !
 ! A8    A(1,5,7)              108.6745         estimate D2E/DX2                !
 ! A9    A(1,5,8)              108.6958         estimate D2E/DX2                !
 ! A10   A(6,5,7)              110.2348         estimate D2E/DX2                !
 ! A11   A(6,5,8)              110.2161         estimate D2E/DX2                !
 ! A12   A(7,5,8)              110.2623         estimate D2E/DX2                !
 ! D1    D(2,1,5,6)            127.2236         estimate D2E/DX2                !
 ! D2    D(2,1,5,7)              7.2286         estimate D2E/DX2                !
 ! D3    D(2,1,5,8)           -112.7914         estimate D2E/DX2                !
 ! D4    D(3,1,5,6)              7.2063         estimate D2E/DX2                !
 ! D5    D(3,1,5,7)           -112.7887         estimate D2E/DX2                !
 ! D6    D(3,1,5,8)            127.1912         estimate D2E/DX2                !
 ! D7    D(4,1,5,6)           -112.7808         estimate D2E/DX2                !
 ! D8    D(4,1,5,7)            127.2242         estimate D2E/DX2                !
 ! D9    D(4,1,5,8)              7.2041         estimate D2E/DX2                !
 --------------------------------------------------------------------------------
 Trust Radius=3.00D-01 FncErr=1.00D-07 GrdErr=1.00D-07 EigMax=2.50D+02 EigMin=1.00D-04
 Number of steps in this run=     38 maximum allowed number of steps=    100.
 GradGradGradGradGradGradGradGradGradGradGradGradGradGradGradGradGradGrad

                          Input orientation:                          
 ---------------------------------------------------------------------
 Center     Atomic      Atomic             Coordinates (Angstroms)
 Number     Number       Type             X           Y           Z
 ---------------------------------------------------------------------
      1          5           0        0.202255   -0.000085    0.000081
      2          9           0        0.542351    1.324951   -0.151033
      3          9           0        0.541274   -0.794459   -1.071416
      4          9           0        0.538551   -0.531858    1.224082
      5          7           0       -1.477744    0.001216   -0.001424
      6          1           0       -1.802084   -0.660898   -0.693835
      7          1           0       -1.800679    0.932229   -0.229410
      8          1           0       -1.802993   -0.267011    0.917987
 ---------------------------------------------------------------------
                    Distance matrix (angstroms):
                    1          2          3          4          5
     1  B    0.000000
     2  F    1.376307   0.000000
     3  F    1.376252   2.310629   0.000000
     4  F    1.376247   2.310562   2.310471   0.000000
     5  N    1.680000   2.419802   2.419590   2.418983   0.000000
     6  H    2.221614   3.120033   2.377337   3.028800   1.011447
     7  H    2.221175   2.377007   3.029054   3.119004   1.011459
     8  H    2.221445   3.029485   3.119537   2.376271   1.011459
                    6          7          8
     6  H    0.000000
     7  H    1.659442   0.000000
     8  H    1.659252   1.659729   0.000000
 Stoichiometry    BF3H3N
 Framework group  C1[X(BF3H3N)]
 Deg. of freedom    18
 Full point group                 C1      NOp   1
 Largest Abelian subgroup         C1      NOp   1
 Largest concise Abelian subgroup C1      NOp   1
                         Standard orientation:                         
 ---------------------------------------------------------------------
 Center     Atomic      Atomic             Coordinates (Angstroms)
 Number     Number       Type             X           Y           Z
 ---------------------------------------------------------------------
      1          5           0        0.205567   -0.000097    0.000094
      2          9           0        0.545726    1.325313   -0.147564
      3          9           0        0.544604   -0.791701   -1.073446
      4          9           0        0.541783   -0.535059    1.222726
      5          7           0       -1.474432    0.001279   -0.001488
      6          1           0       -1.798767   -0.659022   -0.695631
      7          1           0       -1.797317    0.932894   -0.227072
      8          1           0       -1.799736   -0.269320    0.917208
 ---------------------------------------------------------------------
 Rotational constants (GHZ):           4.8500258           4.6345173           4.6341642
 Standard basis: 3-21G (6D, 7F)
 There are    51 symmetry adapted cartesian basis functions of A   symmetry.
 There are    51 symmetry adapted basis functions of A   symmetry.
    51 basis functions,    84 primitive gaussians,    51 cartesian basis functions
    21 alpha electrons       21 beta electrons
       nuclear repulsion energy       190.7479930783 Hartrees.
 NAtoms=    8 NActive=    8 NUniq=    8 SFac= 1.00D+00 NAtFMM=   60 NAOKFM=F Big=F
 Integral buffers will be    131072 words long.
 Raffenetti 1 integral format.
 Two-electron integral symmetry is turned on.
 One-electron integrals computed using PRISM.
 NBasis=    51 RedAO= T EigKep=  4.04D-02  NBF=    51
 NBsUse=    51 1.00D-06 EigRej= -1.00D+00 NBFU=    51
 ExpMin= 1.24D-01 ExpMax= 4.14D+02 ExpMxC= 4.14D+02 IAcc=3 IRadAn=         5 AccDes= 0.00D+00
 Harris functional with IExCor=  205 and IRadAn=       5 diagonalized for initial guess.
 HarFok:  IExCor=  205 AccDes= 0.00D+00 IRadAn=         5 IDoV= 1 UseB2=F ITyADJ=14
 ICtDFT=  3500011 ScaDFX=  1.000000  1.000000  1.000000  1.000000
 FoFCou: FMM=F IPFlag=           0 FMFlag=      100000 FMFlg1=           0
         NFxFlg=           0 DoJE=T BraDBF=F KetDBF=T FulRan=T
         wScrn=  0.000000 ICntrl=       500 IOpCl=  0 I1Cent=   200000004 NGrid=           0
         NMat0=    1 NMatS0=      1 NMatT0=    0 NMatD0=    1 NMtDS0=    0 NMtDT0=    0
 Petite list used in FoFCou.
 Keep R1 ints in memory in canonical form, NReq=1693804.
 Requested convergence on RMS density matrix=1.00D-08 within 128 cycles.
 Requested convergence on MAX density matrix=1.00D-06.
 Requested convergence on             energy=1.00D-06.
 No special actions if energy rises.
 SCF Done:  E(RHF) =  -377.405076956     A.U. after   10 cycles
            NFock= 10  Conv=0.67D-08     -V/T= 2.0041

 **********************************************************************

            Population analysis using the SCF Density.

 **********************************************************************

 Orbital symmetries:
       Occupied  (A) (A) (A) (A) (A) (A) (A) (A) (A) (A) (A) (A)
                 (A) (A) (A) (A) (A) (A) (A) (A) (A)
       Virtual   (A) (A) (A) (A) (A) (A) (A) (A) (A) (A) (A) (A)
                 (A) (A) (A) (A) (A) (A) (A) (A) (A) (A) (A) (A)
                 (A) (A) (A) (A) (A) (A)
 The electronic state is 1-A.
 Alpha  occ. eigenvalues --  -26.11168 -26.11090 -26.11087 -15.59254  -7.68615
 Alpha  occ. eigenvalues --   -1.57572  -1.52616  -1.52614  -1.27922  -0.77089
 Alpha  occ. eigenvalues --   -0.76473  -0.76464  -0.70061  -0.68011  -0.68010
 Alpha  occ. eigenvalues --   -0.59043  -0.59043  -0.57071  -0.57070  -0.55443
 Alpha  occ. eigenvalues --   -0.54336
 Alpha virt. eigenvalues --    0.20028   0.27536   0.27540   0.42694   0.45631
 Alpha virt. eigenvalues --    0.45636   0.49151   0.69607   0.80780   0.80782
 Alpha virt. eigenvalues --    0.96957   1.15527   1.15554   1.20674   1.47702
 Alpha virt. eigenvalues --    1.47706   1.55106   2.27629   2.27644   2.37696
 Alpha virt. eigenvalues --    2.39268   2.39270   2.45423   2.55980   2.55988
 Alpha virt. eigenvalues --    2.56056   2.76966   4.03918   4.03939   4.47456
     Molecular Orbital Coefficients:
                           1         2         3         4         5
                           O         O         O         O         O
     Eigenvalues --   -26.11168 -26.11090 -26.11087 -15.59254  -7.68615
   1 1   B  1S         -0.00104   0.00001  -0.00003  -0.00051   0.98716
   2        2S          0.00148  -0.00002   0.00004   0.00086   0.09239
   3        2PX         0.00179  -0.00002   0.00004  -0.00295   0.00097
   4        2PY         0.00007   0.00387  -0.00104   0.00000  -0.00000
   5        2PZ        -0.00008   0.00105   0.00387  -0.00000   0.00000
   6        3S          0.02425  -0.00031   0.00063   0.01104  -0.01892
   7        3PX        -0.00265   0.00004  -0.00009  -0.00697   0.00049
   8        3PY         0.00021   0.01065  -0.00298   0.00000  -0.00000
   9        3PZ        -0.00023   0.00299   0.01064  -0.00000   0.00000
  10 2   F  1S          0.58404   0.73708  -0.28310   0.00009   0.00006
  11        2S          0.05903   0.07267  -0.02788   0.00089   0.00245
  12        2PX        -0.00047  -0.00061   0.00023  -0.00028  -0.00021
  13        2PY        -0.00179  -0.00153   0.00068  -0.00001  -0.00135
  14        2PZ         0.00018   0.00050   0.00074  -0.00001   0.00015
  15        3S         -0.02475  -0.02653   0.01012  -0.00283  -0.00586
  16        3PX         0.00130   0.00150  -0.00055   0.00161   0.00176
  17        3PY         0.00513   0.00315  -0.00156   0.00052   0.00866
  18        3PZ        -0.00051  -0.00162  -0.00297  -0.00004  -0.00096
  19 3   F  1S          0.57159  -0.63747  -0.48109   0.00009   0.00006
  20        2S          0.05780  -0.06289  -0.04741   0.00089   0.00245
  21        2PX        -0.00046   0.00052   0.00040  -0.00028  -0.00021
  22        2PY         0.00107  -0.00038  -0.00116   0.00000   0.00080
  23        2PZ         0.00141  -0.00143  -0.00041   0.00001   0.00109
  24        3S         -0.02431   0.02304   0.01725  -0.00283  -0.00586
  25        3PX         0.00127  -0.00129  -0.00097   0.00160   0.00175
  26        3PY        -0.00311   0.00007   0.00340  -0.00029  -0.00517
  27        3PZ        -0.00405   0.00358   0.00013  -0.00043  -0.00702
  28 4   F  1S          0.54502  -0.12132   0.80794   0.00009   0.00006
  29        2S          0.05518  -0.01198   0.07972   0.00089   0.00245
  30        2PX        -0.00043   0.00010  -0.00066  -0.00028  -0.00021
  31        2PY         0.00069   0.00069   0.00081   0.00001   0.00054
  32        2PZ        -0.00157   0.00059  -0.00156  -0.00001  -0.00124
  33        3S         -0.02335   0.00442  -0.02923  -0.00284  -0.00586
  34        3PX         0.00121  -0.00026   0.00163   0.00160   0.00173
  35        3PY        -0.00202  -0.00283  -0.00193  -0.00023  -0.00350
  36        3PZ         0.00456  -0.00187   0.00323   0.00047   0.00799
  37 5   N  1S          0.00037  -0.00000   0.00001   0.98579   0.00051
  38        2S          0.00239  -0.00003   0.00006   0.10081   0.00439
  39        2PX         0.00090  -0.00001   0.00002  -0.00022   0.00094
  40        2PY         0.00001   0.00062  -0.00012   0.00000  -0.00000
  41        2PZ        -0.00001   0.00012   0.00062  -0.00000   0.00000
  42        3S         -0.00712   0.00009  -0.00019  -0.05606  -0.00920
  43        3PX        -0.00612   0.00008  -0.00016  -0.00222  -0.00486
  44        3PY        -0.00006  -0.00334   0.00073   0.00000   0.00000
  45        3PZ         0.00007  -0.00073  -0.00334  -0.00000  -0.00000
  46 6   H  1S          0.00062  -0.00082  -0.00041   0.00215   0.00082
  47        2S         -0.00193   0.00050  -0.00011   0.00626   0.00211
  48 7   H  1S          0.00065   0.00076  -0.00047   0.00215   0.00082
  49        2S         -0.00195  -0.00016   0.00039   0.00626   0.00211
  50 8   H  1S          0.00060   0.00003   0.00092   0.00215   0.00082
  51        2S         -0.00193  -0.00026  -0.00043   0.00626   0.00211
                           6         7         8         9        10
                           O         O         O         O         O
     Eigenvalues --    -1.57572  -1.52616  -1.52614  -1.27922  -0.77089
   1 1   B  1S         -0.08567   0.00000  -0.00001  -0.01740  -0.14033
   2        2S          0.08568   0.00000   0.00001   0.02386   0.22232
   3        2PX         0.02244   0.00005  -0.00014  -0.04394  -0.03314
   4        2PY        -0.00003   0.08186  -0.02691   0.00005   0.00035
   5        2PZ         0.00003   0.02691   0.08186  -0.00005   0.00009
   6        3S          0.01918   0.00001  -0.00001  -0.01467   0.07718
   7        3PX         0.00689  -0.00000   0.00002   0.01355  -0.03669
   8        3PY         0.00000  -0.00498   0.00158   0.00000   0.00008
   9        3PZ        -0.00000  -0.00158  -0.00498   0.00000  -0.00006
  10 2   F  1S         -0.13777  -0.18581   0.08506   0.01620   0.04337
  11        2S          0.12907   0.17724  -0.08115  -0.01665  -0.04653
  12        2PX        -0.00972  -0.01372   0.00628  -0.00961  -0.08254
  13        2PY        -0.03638  -0.03498   0.01688  -0.00164  -0.18884
  14        2PZ         0.00402   0.00681   0.00464   0.00017   0.02118
  15        3S          0.43670   0.58942  -0.26979  -0.05079  -0.15923
  16        3PX        -0.01583  -0.01868   0.00852  -0.01152  -0.08514
  17        3PY        -0.05078  -0.04474   0.02147  -0.00113  -0.21135
  18        3PZ         0.00561   0.00830   0.00506   0.00007   0.02370
  19 3   F  1S         -0.13779   0.16656   0.11837   0.01621   0.04322
  20        2S          0.12909  -0.15889  -0.11291  -0.01666  -0.04639
  21        2PX        -0.00969   0.01228   0.00871  -0.00961  -0.08179
  22        2PY         0.02171  -0.01556  -0.01807   0.00099   0.11276
  23        2PZ         0.02949  -0.02810  -0.01480   0.00132   0.15249
  24        3S          0.43677  -0.52833  -0.37550  -0.05080  -0.15860
  25        3PX        -0.01578   0.01670   0.01187  -0.01152  -0.08432
  26        3PY         0.03029  -0.02033  -0.02246   0.00065   0.12621
  27        3PZ         0.04116  -0.03558  -0.01938   0.00094   0.17074
  28 4   F  1S         -0.13777   0.01922  -0.20345   0.01624   0.04330
  29        2S          0.12906  -0.01833   0.19407  -0.01669  -0.04646
  30        2PX        -0.00962   0.00141  -0.01491  -0.00962  -0.08166
  31        2PY         0.01471   0.00499   0.01627   0.00068   0.07630
  32        2PZ        -0.03355   0.00620  -0.03538  -0.00153  -0.17404
  33        3S          0.43670  -0.06101   0.64535  -0.05089  -0.15891
  34        3PX        -0.01568   0.00194  -0.02030  -0.01153  -0.08416
  35        3PY         0.02054   0.00550   0.02072   0.00051   0.08541
  36        3PZ        -0.04683   0.00754  -0.04525  -0.00104  -0.19479
  37 5   N  1S         -0.01689   0.00000  -0.00002  -0.22222   0.00168
  38        2S          0.01044  -0.00000   0.00001   0.19839  -0.01183
  39        2PX         0.00768  -0.00000   0.00000  -0.03584   0.21027
  40        2PY        -0.00001   0.00436  -0.00132   0.00002   0.00171
  41        2PZ         0.00001   0.00132   0.00436  -0.00005   0.00074
  42        3S          0.05493  -0.00002   0.00006   0.70317   0.02767
  43        3PX         0.02137   0.00000   0.00000  -0.01944   0.24626
  44        3PY        -0.00002   0.00628  -0.00273   0.00001   0.00167
  45        3PZ         0.00002   0.00273   0.00628  -0.00004   0.00077
  46 6   H  1S          0.00421  -0.00014  -0.00029   0.10937  -0.04511
  47        2S          0.00406  -0.00625  -0.00428   0.01109  -0.03211
  48 7   H  1S          0.00421   0.00032   0.00003   0.10936  -0.04296
  49        2S          0.00406   0.00684  -0.00327   0.01108  -0.03085
  50 8   H  1S          0.00421  -0.00018   0.00028   0.10935  -0.04404
  51        2S          0.00406  -0.00059   0.00756   0.01108  -0.03150
                          11        12        13        14        15
                           O         O         O         O         O
     Eigenvalues --    -0.76473  -0.76464  -0.70061  -0.68011  -0.68010
   1 1   B  1S          0.00049   0.00054   0.02470   0.00001  -0.00000
   2        2S         -0.00080  -0.00087  -0.07712   0.00002   0.00000
   3        2PX         0.00019  -0.00000  -0.20146  -0.00018  -0.00019
   4        2PY         0.06391   0.03864  -0.00002  -0.22617   0.08761
   5        2PZ        -0.03857   0.06396  -0.00017   0.08762   0.22616
   6        3S         -0.00024  -0.00030   0.04489  -0.00011   0.00000
   7        3PX         0.00013   0.00010  -0.14955   0.00012  -0.00002
   8        3PY         0.00475   0.00346   0.00011  -0.05079   0.02013
   9        3PZ        -0.00343   0.00476  -0.00018   0.02017   0.05080
  10 2   F  1S          0.01741   0.00768  -0.01496  -0.03586   0.00957
  11        2S         -0.01672  -0.00731   0.01522   0.03231  -0.00860
  12        2PX        -0.06720  -0.02900  -0.17189   0.07332  -0.02066
  13        2PY        -0.05381  -0.01891   0.16131   0.27903  -0.04690
  14        2PZ        -0.01466   0.04457  -0.01817   0.02852   0.23256
  15        3S         -0.07119  -0.03162   0.06210   0.16687  -0.04462
  16        3PX        -0.07215  -0.03106  -0.17517   0.07326  -0.02083
  17        3PY        -0.05203  -0.01736   0.17722   0.29640  -0.04832
  18        3PZ        -0.01704   0.04903  -0.02000   0.03356   0.25966
  19 3   F  1S         -0.00215  -0.01931  -0.01491   0.00965  -0.03584
  20        2S          0.00213   0.01856   0.01518  -0.00871   0.03228
  21        2PX         0.00881   0.07334  -0.17222  -0.01897   0.07324
  22        2PY         0.03421  -0.03756  -0.09592  -0.13714  -0.21214
  23        2PZ        -0.03240  -0.04520  -0.13038   0.19361  -0.18372
  24        3S          0.00855   0.07893   0.06185  -0.04480   0.16683
  25        3PX         0.00952   0.07867  -0.17551  -0.01886   0.07323
  26        3PY         0.03833  -0.03669  -0.10546  -0.15591  -0.22798
  27        3PZ        -0.03536  -0.04328  -0.14322   0.21307  -0.19276
  28 4   F  1S         -0.01573   0.01114  -0.01489   0.02623   0.02627
  29        2S          0.01510  -0.01071   0.01516  -0.02361  -0.02368
  30        2PX         0.05925  -0.04356  -0.17256  -0.05352  -0.05241
  31        2PY         0.00471   0.04875  -0.06473  -0.07190   0.23118
  32        2PZ         0.05481  -0.01430   0.14779  -0.24983  -0.11875
  33        3S          0.06437  -0.04545   0.06176  -0.12213  -0.12222
  34        3PX         0.06353  -0.04682  -0.17588  -0.05358  -0.05224
  35        3PY         0.00806   0.05207  -0.07110  -0.08509   0.25387
  36        3PZ         0.05441  -0.01143   0.16245  -0.26890  -0.12220
  37 5   N  1S         -0.00001  -0.00002  -0.00186  -0.00000   0.00000
  38        2S          0.00005   0.00006   0.00957  -0.00000  -0.00001
  39        2PX        -0.00019  -0.00080   0.20620  -0.00002   0.00007
  40        2PY         0.32969   0.19432  -0.00023   0.10207  -0.03805
  41        2PZ        -0.19434   0.32967   0.00002  -0.03792  -0.10211
  42        3S         -0.00009  -0.00005  -0.02895   0.00007  -0.00000
  43        3PX        -0.00031  -0.00094   0.20879  -0.00005   0.00007
  44        3PY         0.32745   0.19360  -0.00027   0.08930  -0.02981
  45        3PZ        -0.19363   0.32746   0.00003  -0.02970  -0.08936
  46 6   H  1S         -0.05323  -0.22981  -0.03519  -0.02913   0.06771
  47        2S         -0.03316  -0.13888  -0.02775  -0.02223   0.06503
  48 7   H  1S          0.22601   0.06890  -0.03524   0.07318  -0.00866
  49        2S          0.13709   0.04079  -0.02779   0.06743  -0.01326
  50 8   H  1S         -0.17234   0.16135  -0.03536  -0.04397  -0.05906
  51        2S         -0.10359   0.09842  -0.02784  -0.04512  -0.05180
                          16        17        18        19        20
                           O         O         O         O         O
     Eigenvalues --    -0.59043  -0.59043  -0.57071  -0.57070  -0.55443
   1 1   B  1S          0.00001  -0.00001   0.00001  -0.00001   0.00005
   2        2S         -0.00001  -0.00001  -0.00002   0.00002  -0.00064
   3        2PX        -0.00006   0.00014   0.00002  -0.00006  -0.00130
   4        2PY        -0.07751   0.02243   0.06098  -0.01312   0.00003
   5        2PZ        -0.02242  -0.07757   0.01311   0.06096   0.00003
   6        3S         -0.00005   0.00015  -0.00004   0.00006   0.00080
   7        3PX         0.00016  -0.00035  -0.00000   0.00009   0.00150
   8        3PY         0.09725  -0.02789  -0.12403   0.02653  -0.00008
   9        3PZ         0.02788   0.09735  -0.02655  -0.12396  -0.00008
  10 2   F  1S         -0.00656   0.00274   0.00102  -0.00034  -0.00005
  11        2S          0.01558  -0.00647  -0.01039   0.00346   0.00016
  12        2PX         0.28814  -0.12116   0.26553  -0.08700   0.00364
  13        2PY         0.11285  -0.01459  -0.25096   0.05783   0.03619
  14        2PZ         0.09404   0.25254  -0.03994  -0.21269   0.31565
  15        3S         -0.00717   0.00286   0.03512  -0.01167  -0.00013
  16        3PX         0.34028  -0.14307   0.30211  -0.09900   0.00408
  17        3PY         0.12730  -0.01623  -0.29078   0.06939   0.04102
  18        3PZ         0.10690   0.28652  -0.03982  -0.22733   0.35608
  19 3   F  1S          0.00564   0.00432  -0.00081  -0.00071  -0.00005
  20        2S         -0.01338  -0.01026   0.00820   0.00726   0.00017
  21        2PX        -0.24822  -0.18948  -0.20836  -0.18633   0.00445
  22        2PY         0.18386  -0.13391  -0.22967   0.02812   0.25520
  23        2PZ        -0.02637   0.18206  -0.07002  -0.23359  -0.18949
  24        3S          0.00609   0.00478  -0.02766  -0.02457  -0.00021
  25        3PX        -0.29319  -0.22373  -0.23708  -0.21203   0.00500
  26        3PY         0.20823  -0.15229  -0.25563   0.02006   0.28777
  27        3PZ        -0.03045   0.20622  -0.08959  -0.26204  -0.21392
  28 4   F  1S          0.00091  -0.00704  -0.00022   0.00106  -0.00005
  29        2S         -0.00218   0.01672   0.00220  -0.01073   0.00016
  30        2PX        -0.03924   0.30936  -0.05734   0.27411   0.00389
  31        2PY         0.25183  -0.01389  -0.21433   0.06086  -0.29179
  32        2PZ         0.09470   0.11440  -0.03687  -0.24834  -0.12660
  33        3S          0.00110  -0.00770  -0.00744   0.03620  -0.00014
  34        3PX        -0.04635   0.36540  -0.06526   0.31193   0.00436
  35        3PY         0.28578  -0.01551  -0.23019   0.07454  -0.32925
  36        3PZ         0.10757   0.12906  -0.03463  -0.28683  -0.14264
  37 5   N  1S         -0.00002   0.00002  -0.00002   0.00001  -0.00117
  38        2S          0.00000   0.00001   0.00001  -0.00000   0.00034
  39        2PX         0.00012  -0.00020   0.00019  -0.00021   0.00561
  40        2PY         0.05791  -0.01463   0.04957  -0.00966  -0.00000
  41        2PZ         0.01462   0.05799   0.00967   0.04963   0.00002
  42        3S          0.00015  -0.00018   0.00015  -0.00009   0.00854
  43        3PX         0.00015  -0.00028   0.00026  -0.00031   0.00595
  44        3PY         0.02844   0.00064   0.05439  -0.00866  -0.00000
  45        3PZ        -0.00065   0.02845   0.00865   0.05445   0.00002
  46 6   H  1S         -0.04090  -0.02449  -0.02842  -0.01979  -0.00095
  47        2S          0.00540   0.01232  -0.00669  -0.00146  -0.00256
  48 7   H  1S          0.04163  -0.02317   0.03130  -0.01469  -0.00094
  49        2S         -0.01347  -0.00152   0.00458  -0.00503  -0.00252
  50 8   H  1S         -0.00077   0.04773  -0.00295   0.03454  -0.00093
  51        2S          0.00802  -0.01085   0.00207   0.00647  -0.00253
                          21        22        23        24        25
                           O         V         V         V         V
     Eigenvalues --    -0.54336   0.20028   0.27536   0.27540   0.42694
   1 1   B  1S          0.00502   0.01650  -0.00001   0.00004  -0.06915
   2        2S         -0.01996   0.01910   0.00002  -0.00005  -0.10201
   3        2PX        -0.08004   0.01971  -0.00012   0.00002   0.29312
   4        2PY         0.00011  -0.00004   0.03441  -0.04850  -0.00037
   5        2PZ        -0.00014   0.00004   0.04852   0.03439   0.00052
   6        3S         -0.03265  -0.06563   0.00006  -0.00020   0.65677
   7        3PX         0.15629  -0.10316  -0.00018  -0.00008   1.16600
   8        3PY        -0.00012   0.00003   0.05930  -0.09961  -0.00181
   9        3PZ         0.00017   0.00005   0.09985   0.05936   0.00231
  10 2   F  1S         -0.00119  -0.01220   0.00207  -0.00309   0.04734
  11        2S          0.00537   0.01161  -0.00001  -0.00228  -0.03198
  12        2PX         0.22435  -0.03514   0.00037   0.00784  -0.11508
  13        2PY         0.05245  -0.00818   0.01367  -0.03137   0.10863
  14        2PZ        -0.01130  -0.00046  -0.02649  -0.00386  -0.01223
  15        3S         -0.00702   0.06922  -0.02213   0.04359  -0.37570
  16        3PX         0.24325  -0.03712  -0.00389   0.01548  -0.19633
  17        3PY         0.06941  -0.02229   0.02010  -0.04633   0.21409
  18        3PZ        -0.01392   0.00067  -0.03815  -0.00703  -0.02418
  19 3   F  1S         -0.00119  -0.01220  -0.00373  -0.00026   0.04736
  20        2S          0.00537   0.01161  -0.00196   0.00115  -0.03199
  21        2PX         0.22466  -0.03511   0.00664  -0.00419  -0.11515
  22        2PY        -0.03654   0.00380   0.02557   0.01962  -0.06443
  23        2PZ        -0.03951   0.00726   0.02449  -0.01574  -0.08819
  24        3S         -0.00700   0.06919   0.04894  -0.00254  -0.37586
  25        3PX         0.24360  -0.03707   0.01540  -0.00430  -0.19649
  26        3PY        -0.04734   0.01187   0.03633   0.02877  -0.12718
  27        3PZ        -0.05285   0.01889   0.03698  -0.02322  -0.17373
  28 4   F  1S         -0.00119  -0.01219   0.00164   0.00333   0.04744
  29        2S          0.00537   0.01161   0.00198   0.00114  -0.03203
  30        2PX         0.22491  -0.03511  -0.00698  -0.00374  -0.11527
  31        2PY        -0.01650   0.00447  -0.02455   0.00442  -0.04376
  32        2PZ         0.05170  -0.00692   0.00930   0.03433   0.09988
  33        3S         -0.00697   0.06911  -0.02673  -0.04090  -0.37654
  34        3PX         0.24389  -0.03708  -0.01149  -0.01135  -0.19680
  35        3PY        -0.02272   0.01053  -0.03684   0.00524  -0.08620
  36        3PZ         0.06775  -0.01970   0.01346   0.04987   0.19705
  37 5   N  1S         -0.05037  -0.14428  -0.00000  -0.00002  -0.03224
  38        2S          0.03269   0.05160   0.00000   0.00002   0.00656
  39        2PX         0.32709  -0.13150  -0.00004  -0.00036   0.04095
  40        2PY        -0.00047   0.00015   0.17942  -0.22017   0.00005
  41        2PZ         0.00037  -0.00018   0.22014   0.17942  -0.00004
  42        3S          0.30453   1.50681  -0.00001   0.00017   0.37479
  43        3PX         0.44037  -0.38271  -0.00009  -0.00131   0.28382
  44        3PY        -0.00053   0.00038   0.61135  -0.75676  -0.00009
  45        3PZ         0.00044  -0.00048   0.75656   0.61142   0.00017
  46 6   H  1S         -0.04146  -0.04424   0.10723  -0.01093  -0.00306
  47        2S         -0.03613  -0.79761   1.44537  -0.12020   0.08468
  48 7   H  1S         -0.04158  -0.04429  -0.04413   0.09830  -0.00298
  49        2S         -0.03622  -0.79767  -0.61870   1.31187   0.08450
  50 8   H  1S         -0.04140  -0.04430  -0.06318  -0.08732  -0.00323
  51        2S         -0.03614  -0.79743  -0.82679  -1.19177   0.08457
                          26        27        28        29        30
                           V         V         V         V         V
     Eigenvalues --     0.45631   0.45636   0.49151   0.69607   0.80780
   1 1   B  1S          0.00064  -0.00047  -0.18417   0.08326   0.00002
   2        2S          0.00002   0.00003   0.04366   0.24041   0.00035
   3        2PX         0.00106  -0.00088  -0.53674  -1.06150   0.00172
   4        2PY        -0.02110   0.17522   0.00018   0.00093   1.26052
   5        2PZ         0.17519   0.02104  -0.00027  -0.00139  -0.35808
   6        3S         -0.00578   0.00413   1.65227  -1.22859  -0.00084
   7        3PX        -0.00109   0.00051  -0.51159   1.57969  -0.00077
   8        3PY        -0.14259   1.38936  -0.00364  -0.00122  -0.82118
   9        3PZ         1.38927   0.14256   0.00393   0.00142   0.23715
  10 2   F  1S         -0.01675   0.07617   0.04726  -0.02648   0.02191
  11        2S          0.00633  -0.02873  -0.03441   0.02577  -0.04015
  12        2PX        -0.01347   0.06351   0.09047  -0.05018   0.07518
  13        2PY        -0.03131   0.05005   0.07147  -0.06871   0.22327
  14        2PZ        -0.16387  -0.04217  -0.00884   0.00825  -0.01973
  15        3S          0.15979  -0.72827  -0.37533   0.18648   0.01913
  16        3PX        -0.02442   0.11283   0.15531  -0.16732   0.08895
  17        3PY        -0.06990   0.16110   0.14888  -0.12769   0.34937
  18        3PZ        -0.27821  -0.08022  -0.01773   0.01464  -0.04293
  19 3   F  1S         -0.05775  -0.05223   0.04744  -0.02649  -0.00810
  20        2S          0.02183   0.01959  -0.03447   0.02577   0.01474
  21        2PX        -0.04806  -0.04331   0.09052  -0.05011  -0.02766
  22        2PY         0.11675  -0.07882  -0.04278   0.04151   0.02543
  23        2PZ        -0.03510   0.10502  -0.05814   0.05533   0.08002
  24        3S          0.55207   0.49973  -0.37713   0.18658  -0.00470
  25        3PX        -0.08513  -0.07730   0.15543  -0.16721  -0.03207
  26        3PY         0.23352  -0.10390  -0.08885   0.07679   0.09130
  27        3PZ        -0.01344   0.22152  -0.12138   0.10312   0.08847
  28 4   F  1S          0.07394  -0.02355   0.04781  -0.02652  -0.01385
  29        2S         -0.02776   0.00886  -0.03460   0.02577   0.02544
  30        2PX         0.06112  -0.01983   0.09056  -0.04990  -0.04717
  31        2PY        -0.06858  -0.14222  -0.02846   0.02726   0.03792
  32        2PZ         0.02795  -0.07971   0.06677  -0.06369  -0.14138
  33        3S         -0.70747   0.22551  -0.38077   0.18704  -0.01399
  34        3PX         0.10864  -0.03477   0.15554  -0.16692  -0.05624
  35        3PY        -0.14703  -0.23345  -0.05999   0.05131   0.10655
  36        3PZ         0.11533  -0.15788   0.13913  -0.11834  -0.20110
  37 5   N  1S         -0.00011   0.00010   0.05291  -0.00274  -0.00001
  38        2S          0.00020  -0.00016  -0.06987  -0.05685   0.00001
  39        2PX         0.00105  -0.00077  -0.30120  -0.00212  -0.00001
  40        2PY         0.00355  -0.10002   0.00045  -0.00003  -0.06434
  41        2PZ        -0.10008  -0.00365  -0.00055  -0.00000   0.01936
  42        3S          0.00026  -0.00031  -0.29533   0.36485   0.00009
  43        3PX         0.00232  -0.00175  -0.77488   0.30949   0.00025
  44        3PY         0.00156  -0.16245   0.00097  -0.00035   0.01512
  45        3PZ        -0.16274  -0.00178  -0.00124   0.00036  -0.00387
  46 6   H  1S          0.07847   0.09631  -0.06396  -0.05441   0.00311
  47        2S         -0.03822  -0.01049  -0.28385   0.37504  -0.09598
  48 7   H  1S          0.04449  -0.11611  -0.06374  -0.05454  -0.00565
  49        2S          0.01208   0.03751  -0.28328   0.37557   0.21074
  50 8   H  1S         -0.12235   0.01945  -0.06448  -0.05448   0.00269
  51        2S          0.02893  -0.02915  -0.28356   0.37516  -0.11444
                          31        32        33        34        35
                           V         V         V         V         V
     Eigenvalues --     0.80782   0.96957   1.15527   1.15554   1.20674
   1 1   B  1S          0.00000  -0.07037   0.00005  -0.00006  -0.01929
   2        2S         -0.00006   1.73519   0.00000   0.00007  -0.08039
   3        2PX        -0.00134   0.15449   0.00031  -0.00018  -0.07834
   4        2PY         0.35809  -0.00042  -0.02227   0.03687  -0.00005
   5        2PZ         1.26055   0.00034  -0.03669  -0.02227  -0.00006
   6        3S          0.00009  -1.70854  -0.00009   0.00006   0.05487
   7        3PX         0.00082   0.29987   0.00009   0.00082   0.06464
   8        3PY        -0.23707  -0.00013  -0.25951   0.45374  -0.00129
   9        3PZ        -0.82101   0.00000  -0.45384  -0.25922  -0.00039
  10 2   F  1S          0.00332   0.00256  -0.00783   0.01645   0.00069
  11        2S         -0.00618  -0.01804   0.00639  -0.01097  -0.00367
  12        2PX         0.01153   0.00935   0.02851  -0.07292   0.00370
  13        2PY         0.03422   0.17942   0.00650   0.01232   0.00854
  14        2PZ        -0.03227  -0.01960   0.07860   0.02976  -0.00069
  15        3S          0.00534   0.16300   0.08598  -0.19315  -0.00376
  16        3PX         0.01424  -0.00294  -0.01308   0.02538  -0.00683
  17        3PY         0.06063   0.13637  -0.01121   0.03633  -0.00979
  18        3PZ         0.01529  -0.01507   0.04378   0.01410   0.00059
  19 3   F  1S         -0.02065   0.00257   0.01815  -0.00145   0.00078
  20        2S          0.03787  -0.01804  -0.01265  -0.00004  -0.00375
  21        2PX        -0.07067   0.00920  -0.07750   0.01159   0.00334
  22        2PY         0.13422  -0.10681  -0.01518  -0.06597  -0.00488
  23        2PZ         0.16559  -0.14559   0.00036   0.05167  -0.00710
  24        3S         -0.01902   0.16292  -0.21027   0.02227  -0.00468
  25        3PX        -0.08395  -0.00303   0.02848  -0.00148  -0.00665
  26        3PY         0.19232  -0.08137  -0.02696  -0.03468   0.00533
  27        3PZ         0.27348  -0.11063  -0.02723   0.02983   0.00803
  28 4   F  1S          0.01734   0.00256  -0.01031  -0.01497   0.00075
  29        2S         -0.03170  -0.01804   0.00626   0.01092  -0.00373
  30        2PX         0.05888   0.00888   0.04898   0.06139   0.00351
  31        2PY        -0.08734  -0.07273   0.06327  -0.04583  -0.00339
  32        2PZ         0.15327   0.16532   0.02060  -0.02681   0.00795
  33        3S          0.01365   0.16313   0.12431   0.17087  -0.00429
  34        3PX         0.06917  -0.00331  -0.01531  -0.02387  -0.00670
  35        3PY        -0.09739  -0.05515   0.04250  -0.01278   0.00446
  36        3PZ         0.25846   0.12579  -0.00533  -0.03962  -0.00861
  37 5   N  1S          0.00001   0.00591  -0.00019   0.00016   0.10309
  38        2S         -0.00002  -0.06392   0.00027  -0.00025  -0.16794
  39        2PX        -0.00001   0.02045   0.00055  -0.00060  -0.21503
  40        2PY        -0.01938  -0.00008   0.02323  -0.03305   0.00054
  41        2PZ        -0.06428   0.00004   0.03279   0.02331  -0.00009
  42        3S          0.00001   0.17732   0.00030  -0.00023  -0.19396
  43        3PX        -0.00010   0.20790  -0.00113   0.00004   0.52401
  44        3PY         0.00387  -0.00012   0.30961  -0.55600   0.00092
  45        3PZ         0.01507   0.00022   0.55591   0.30973   0.00104
  46 6   H  1S          0.00466  -0.00032   1.07908  -0.27254   0.77120
  47        2S         -0.18753   0.20084  -0.76125   0.19229  -0.31094
  48 7   H  1S          0.00022  -0.00053  -0.30460   1.07391   0.76629
  49        2S          0.01067   0.20121   0.21462  -0.75648  -0.30766
  50 8   H  1S         -0.00501  -0.00039  -0.77865  -0.79779   0.76849
  51        2S          0.17698   0.20100   0.54853   0.56261  -0.30914
                          36        37        38        39        40
                           V         V         V         V         V
     Eigenvalues --     1.47702   1.47706   1.55106   2.27629   2.27644
   1 1   B  1S         -0.00001  -0.00003   0.04272  -0.00001  -0.00001
   2        2S         -0.00004  -0.00023   0.05429   0.00005  -0.00018
   3        2PX         0.00015  -0.00023   0.20049  -0.00004  -0.00005
   4        2PY        -0.02131  -0.13528  -0.00024   0.07485  -0.02924
   5        2PZ        -0.13518   0.02131   0.00014   0.02922   0.07488
   6        3S          0.00010   0.00093  -1.14022   0.00013   0.00043
   7        3PX         0.00018  -0.00074   0.65316   0.00009  -0.00061
   8        3PY        -0.02879  -0.22649  -0.00072   0.20229  -0.06489
   9        3PZ        -0.22648   0.02866   0.00055   0.06484   0.20233
  10 2   F  1S          0.00053  -0.01472  -0.01373   0.01609  -0.00746
  11        2S         -0.00306   0.02304   0.01638  -0.07104   0.03272
  12        2PX         0.01208   0.05952   0.00748   0.60038  -0.27692
  13        2PY         0.00444   0.00739   0.01584  -0.24019   0.15807
  14        2PZ         0.04949  -0.00866   0.00051   0.19249   0.33610
  15        3S          0.00263   0.12385   0.14953  -0.04532   0.02111
  16        3PX        -0.00582  -0.05415  -0.07438  -0.56839   0.26193
  17        3PY         0.00022  -0.05031  -0.05203   0.25901  -0.16995
  18        3PZ         0.01095   0.00822   0.00490  -0.20218  -0.35105
  19 3   F  1S          0.01249   0.00783  -0.01371  -0.01450  -0.01020
  20        2S         -0.01841  -0.01418   0.01634   0.06382   0.04513
  21        2PX        -0.05768  -0.01923   0.00739  -0.53947  -0.38254
  22        2PY        -0.01048   0.04083  -0.00751   0.04194  -0.35322
  23        2PZ         0.01606  -0.02369  -0.01397  -0.32064   0.05518
  24        3S         -0.10865  -0.05988   0.14942   0.04096   0.02863
  25        3PX         0.04979   0.02212  -0.07426   0.51047   0.36244
  26        3PY        -0.03276  -0.00810   0.03041  -0.03901   0.37222
  27        3PZ        -0.03129  -0.02468   0.04252   0.34168  -0.05418
  28 4   F  1S         -0.01300   0.00690  -0.01372  -0.00158   0.01766
  29        2S          0.02142  -0.00884   0.01631   0.00714  -0.07787
  30        2PX         0.04565  -0.04037   0.00763  -0.06066   0.65919
  31        2PY         0.02573   0.03710  -0.00828   0.34388   0.14448
  32        2PZ         0.01993   0.01255   0.01351   0.17895  -0.24603
  33        3S          0.10603  -0.06434   0.14961   0.00434  -0.04987
  34        3PX        -0.04393   0.03213  -0.07423   0.05771  -0.62409
  35        3PY         0.02048  -0.00069   0.02181  -0.35970  -0.15480
  36        3PZ        -0.03877   0.02855  -0.04772  -0.18708   0.26585
  37 5   N  1S          0.00002   0.00005  -0.03732  -0.00002   0.00002
  38        2S         -0.00006  -0.00020   0.24799   0.00054  -0.00084
  39        2PX         0.00092  -0.00053  -1.07548   0.00008   0.00004
  40        2PY        -0.18540  -1.09370   0.00021   0.08659  -0.04491
  41        2PZ        -1.09367   0.18541  -0.00097   0.04490   0.08677
  42        3S          0.00001   0.00007  -0.27988  -0.00067   0.00116
  43        3PX        -0.00120   0.00079   1.65260  -0.00018  -0.00021
  44        3PY         0.25646   1.53393  -0.00014  -0.21830   0.10639
  45        3PZ         1.53361  -0.25673   0.00153  -0.10627  -0.21871
  46 6   H  1S         -0.04400  -0.02182  -0.15752  -0.14483  -0.08421
  47        2S          0.70105   0.46311   0.55968   0.09493   0.09084
  48 7   H  1S          0.00298   0.04922  -0.15798   0.14533  -0.08365
  49        2S          0.05087  -0.83934   0.55891  -0.12645   0.03623
  50 8   H  1S          0.04134  -0.02654  -0.15766  -0.00038   0.16762
  51        2S         -0.75213   0.37490   0.55952   0.03170  -0.12818
                          41        42        43        44        45
                           V         V         V         V         V
     Eigenvalues --     2.37696   2.39268   2.39270   2.45423   2.55980
   1 1   B  1S         -0.00062   0.00000   0.00000   0.01716   0.00115
   2        2S          0.00480   0.00025  -0.00024   0.73659   0.00691
   3        2PX        -0.00158  -0.00022   0.00045   0.14654   0.01081
   4        2PY         0.00022  -0.27772   0.05889  -0.00012   0.40965
   5        2PZ         0.00033  -0.05889  -0.27775   0.00014   0.05976
   6        3S          0.01292   0.00004  -0.00004  -0.03197   0.00133
   7        3PX        -0.00394  -0.00018   0.00038   0.11921  -0.02967
   8        3PY         0.00029  -0.28704   0.06064  -0.00004  -0.41363
   9        3PZ         0.00045  -0.06062  -0.28703   0.00009  -0.06130
  10 2   F  1S          0.00060  -0.03806   0.01256   0.03170   0.00358
  11        2S         -0.00267   0.18003  -0.05930  -0.14402  -0.02165
  12        2PX         0.00382   0.45415  -0.14869   0.03633  -0.12475
  13        2PY         0.06015   0.19706  -0.13679  -0.54773  -0.72746
  14        2PZ         0.58399  -0.21467  -0.56700   0.05399  -0.01398
  15        3S         -0.00126   0.05983  -0.01996  -0.01130   0.07088
  16        3PX        -0.00312  -0.49236   0.16125  -0.02692   0.15461
  17        3PY        -0.05839  -0.28688   0.17358   0.69653   0.85789
  18        3PZ        -0.58342   0.24371   0.62037  -0.07034   0.01178
  19 3   F  1S          0.00050   0.02994   0.02667   0.03168  -0.00264
  20        2S         -0.00220  -0.14149  -0.12622  -0.14393   0.01643
  21        2PX         0.00685  -0.35672  -0.31751   0.03706   0.03783
  22        2PY         0.47462  -0.22215   0.45991   0.32089  -0.51579
  23        2PZ        -0.34375   0.37942  -0.14754   0.44711  -0.25885
  24        3S         -0.00111  -0.04726  -0.04182  -0.01133  -0.05031
  25        3PX        -0.00623   0.38677   0.34413  -0.02779  -0.05088
  26        3PY        -0.47482   0.21104  -0.53457  -0.40952   0.59765
  27        3PZ         0.34206  -0.46182   0.12209  -0.56776   0.31333
  28 4   F  1S          0.00060   0.00816  -0.03927   0.03166  -0.00102
  29        2S         -0.00270  -0.03868   0.18568  -0.14382   0.00635
  30        2PX         0.00426  -0.09767   0.46681   0.03849  -0.00606
  31        2PY        -0.53409  -0.52961  -0.20485   0.22703  -0.40297
  32        2PZ        -0.23919  -0.28300   0.15989  -0.50114   0.02836
  33        3S         -0.00128  -0.01264   0.06186  -0.01134  -0.01795
  34        3PX        -0.00356   0.10580  -0.50592  -0.02956   0.00442
  35        3PY         0.53255   0.57567   0.25434  -0.28725   0.45868
  36        3PZ         0.24038   0.32472  -0.24265   0.63816  -0.04104
  37 5   N  1S         -0.00036  -0.00000   0.00001  -0.00289   0.00116
  38        2S          0.02092   0.00043  -0.00069   0.36648  -0.06057
  39        2PX         0.00605  -0.00001   0.00006  -0.01311  -0.00677
  40        2PY        -0.00001   0.02029  -0.00387  -0.00002  -0.07119
  41        2PZ        -0.00001   0.00387   0.02026  -0.00003  -0.01346
  42        3S         -0.02588  -0.00063   0.00108  -0.50347   0.07542
  43        3PX        -0.01082   0.00006  -0.00019   0.05775  -0.00317
  44        3PY        -0.00005   0.01721  -0.00353  -0.00000   0.18957
  45        3PZ        -0.00007   0.00356   0.01725   0.00013   0.03543
  46 6   H  1S          0.00426   0.00355   0.00427   0.06480   0.05091
  47        2S         -0.00219  -0.02021  -0.01572   0.08803  -0.04406
  48 7   H  1S          0.00424  -0.00542   0.00075   0.06475  -0.08007
  49        2S         -0.00214   0.02370  -0.01001   0.08803   0.02923
  50 8   H  1S          0.00426   0.00207  -0.00531   0.06485   0.00121
  51        2S         -0.00219  -0.00322   0.02516   0.08783  -0.02668
                          46        47        48        49        50
                           V         V         V         V         V
     Eigenvalues --     2.55988   2.56056   2.76966   4.03918   4.03939
   1 1   B  1S         -0.00119   0.01808   0.04753  -0.00001   0.00001
   2        2S         -0.00709   0.10956   0.05080   0.00019  -0.00007
   3        2PX        -0.01142   0.16303   0.27167   0.00059  -0.00024
   4        2PY        -0.05800  -0.02993  -0.00043   0.10282  -0.32454
   5        2PZ         0.40977   0.02328   0.00047  -0.32453  -0.10285
   6        3S         -0.00149   0.02411  -0.76786   0.00005  -0.00010
   7        3PX         0.03098  -0.46728   0.90215   0.00139  -0.00054
   8        3PY         0.05955   0.03074  -0.00051   0.21913  -0.66990
   9        3PZ        -0.41394  -0.02388   0.00075  -0.66961  -0.21918
  10 2   F  1S         -0.00089  -0.00072  -0.01264  -0.03347   0.07423
  11        2S          0.00533   0.00764   0.07777   0.53041  -1.17637
  12        2PX         0.05703  -0.47595   0.33910  -0.02198   0.05047
  13        2PY         0.15142  -0.04588  -0.09437  -0.06112   0.09170
  14        2PZ        -0.37760  -0.00559   0.01342  -0.14037  -0.07728
  15        3S         -0.01931   0.00797  -0.00110  -0.63151   1.39975
  16        3PX        -0.06872   0.55351  -0.49990   0.05454  -0.12451
  17        3PY        -0.18052   0.05428   0.10992   0.15150  -0.24622
  18        3PZ         0.42717   0.00638  -0.01570   0.28771   0.16599
  19 3   F  1S         -0.00264  -0.00044  -0.01265  -0.04758  -0.06606
  20        2S          0.01586   0.00592   0.07783   0.75386   1.04700
  21        2PX         0.10085  -0.48359   0.33892  -0.03224  -0.04451
  22        2PY        -0.10751   0.09356   0.05834   0.14331  -0.02237
  23        2PZ        -0.58358   0.05677   0.07533  -0.02622   0.12688
  24        3S         -0.05241   0.01353  -0.00101  -0.89666  -1.24624
  25        3PX        -0.12432   0.56311  -0.49969   0.07953   0.10995
  26        3PY         0.13764  -0.10855  -0.06780  -0.31813   0.01659
  27        3PZ         0.68086  -0.06855  -0.08777   0.02472  -0.30307
  28 4   F  1S          0.00361  -0.00012  -0.01266   0.08098  -0.00813
  29        2S         -0.02236   0.00397   0.07784  -1.28332   0.12883
  30        2PX        -0.06085  -0.49153   0.33861   0.05441  -0.00604
  31        2PY         0.19351   0.07362   0.03565  -0.05780  -0.14229
  32        2PZ        -0.68582  -0.14540  -0.08806   0.09369  -0.07400
  33        3S          0.06905   0.01950  -0.00081   1.52713  -0.15292
  34        3PX         0.08017   0.57313  -0.49932  -0.13431   0.01466
  35        3PY        -0.23299  -0.08685  -0.04140   0.14456   0.29175
  36        3PZ         0.80717   0.17180   0.10231  -0.25038   0.15913
  37 5   N  1S         -0.00120   0.01827  -0.00919  -0.00001   0.00001
  38        2S          0.06279  -0.94797  -1.52979   0.00001   0.00002
  39        2PX         0.00700  -0.10564  -0.12379   0.00013  -0.00007
  40        2PY         0.01318   0.00562   0.00014   0.01370  -0.05926
  41        2PZ        -0.07137  -0.00404  -0.00009  -0.05919  -0.01374
  42        3S         -0.07823   1.17834   2.54365   0.00021  -0.00012
  43        3PX         0.00334  -0.05410   0.39106  -0.00028   0.00021
  44        3PY        -0.03475  -0.01464  -0.00044  -0.06801   0.25686
  45        3PZ         0.19004   0.01042   0.00027   0.25663   0.06810
  46 6   H  1S          0.05688  -0.14700  -0.23750   0.03451   0.07151
  47        2S         -0.01792  -0.21801  -0.12287   0.00842  -0.02641
  48 7   H  1S          0.03815  -0.13973  -0.23742   0.04457  -0.06566
  49        2S          0.00459  -0.22119  -0.12286  -0.02699   0.00605
  50 8   H  1S         -0.06593  -0.15206  -0.23742  -0.07904  -0.00574
  51        2S          0.05648  -0.21412  -0.12286   0.01863   0.02036
                          51
                           V
     Eigenvalues --     4.47456
   1 1   B  1S         -0.08354
   2        2S          0.21664
   3        2PX         0.11671
   4        2PY        -0.00031
   5        2PZ         0.00031
   6        3S          1.50863
   7        3PX        -0.24718
   8        3PY        -0.00015
   9        3PZ         0.00016
  10 2   F  1S         -0.04484
  11        2S          0.95511
  12        2PX        -0.03395
  13        2PY        -0.13810
  14        2PZ         0.01577
  15        3S         -1.26097
  16        3PX         0.10690
  17        3PY         0.38738
  18        3PZ        -0.04385
  19 3   F  1S         -0.04485
  20        2S          0.95549
  21        2PX        -0.03383
  22        2PY         0.08269
  23        2PZ         0.11178
  24        3S         -1.26153
  25        3PX         0.10661
  26        3PY        -0.23174
  27        3PZ        -0.31373
  28 4   F  1S         -0.04488
  29        2S          0.95607
  30        2PX        -0.03347
  31        2PY         0.05546
  32        2PZ        -0.12759
  33        3S         -1.26239
  34        3PX         0.10570
  35        3PY        -0.15593
  36        3PZ         0.35788
  37 5   N  1S          0.02145
  38        2S          0.32956
  39        2PX         0.08250
  40        2PY        -0.00005
  41        2PZ         0.00005
  42        3S         -0.72396
  43        3PX        -0.42818
  44        3PY         0.00035
  45        3PZ        -0.00039
  46 6   H  1S          0.07451
  47        2S         -0.10595
  48 7   H  1S          0.07456
  49        2S         -0.10598
  50 8   H  1S          0.07447
  51        2S         -0.10595
     Density Matrix:
                           1         2         3         4         5
   1 1   B  1S          2.00492
   2        2S          0.10048   0.14444
   3        2PX        -0.00185   0.02146   0.10108
   4        2PY         0.00000  -0.00003   0.00007   0.16449
   5        2PZ         0.00000   0.00003  -0.00009   0.00000   0.16450
   6        3S         -0.05996   0.02788  -0.01584   0.00005  -0.00004
   7        3PX         0.00381   0.00241   0.03682  -0.00006   0.00007
   8        3PY        -0.00002   0.00001  -0.00005  -0.00559   0.00022
   9        3PZ         0.00001  -0.00001   0.00006  -0.00022  -0.00559
  10 2   F  1S          0.00908   0.00046  -0.00225  -0.00658   0.00072
  11        2S         -0.00298  -0.00127   0.00358   0.01109  -0.00125
  12        2PX         0.01842  -0.02117   0.03912  -0.06564   0.00748
  13        2PY         0.06506  -0.11741  -0.06261  -0.19982   0.02787
  14        2PZ        -0.00729   0.01293   0.00705   0.02777   0.04781
  15        3S         -0.03698  -0.00868   0.01071   0.02163  -0.00256
  16        3PX         0.02418  -0.02333   0.03746  -0.07163   0.00816
  17        3PY         0.09454  -0.13113  -0.07092  -0.21686   0.03050
  18        3PZ        -0.01056   0.01443   0.00801   0.03043   0.05420
  19 3   F  1S          0.00908   0.00046  -0.00224   0.00392   0.00534
  20        2S         -0.00298  -0.00127   0.00357  -0.00663  -0.00898
  21        2PX         0.01837  -0.02107   0.03922   0.03921   0.05292
  22        2PY        -0.03891   0.06999   0.03732  -0.03841  -0.12122
  23        2PZ        -0.05268   0.09518   0.05053  -0.12128  -0.11370
  24        3S         -0.03699  -0.00868   0.01071  -0.01307  -0.01744
  25        3PX         0.02409  -0.02322   0.03757   0.04281   0.05775
  26        3PY        -0.05649   0.07817   0.04232  -0.04020  -0.13271
  27        3PZ        -0.07656   0.10631   0.05722  -0.13275  -0.12258
  28 4   F  1S          0.00908   0.00046  -0.00223   0.00267  -0.00606
  29        2S         -0.00298  -0.00127   0.00355  -0.00447   0.01024
  30        2PX         0.01821  -0.02084   0.03946   0.02604  -0.05993
  31        2PY        -0.02623   0.04751   0.02492   0.00998   0.09347
  32        2PZ         0.06005  -0.10822  -0.05712   0.09338  -0.16236
  33        3S         -0.03700  -0.00867   0.01067  -0.00861   0.02005
  34        3PX         0.02387  -0.02295   0.03784   0.02843  -0.06542
  35        3PY        -0.03814   0.05307   0.02822   0.01280   0.10230
  36        3PZ         0.08722  -0.12086  -0.06476   0.10223  -0.17588
  37 5   N  1S          0.00957  -0.00867   0.02166  -0.00002   0.00003
  38        2S          0.00398   0.00420  -0.02585   0.00003  -0.00003
  39        2PX        -0.04377   0.04841  -0.14589   0.00015  -0.00017
  40        2PY         0.00005  -0.00005   0.00015   0.00177  -0.00009
  41        2PZ        -0.00004   0.00005  -0.00013   0.00009   0.00177
  42        3S         -0.05811   0.04575  -0.09799   0.00009  -0.00011
  43        3PX        -0.06695   0.06152  -0.16831   0.00018  -0.00021
  44        3PY         0.00005  -0.00006   0.00019   0.01483   0.00056
  45        3PZ        -0.00006   0.00006  -0.00016  -0.00055   0.01483
  46 6   H  1S          0.00728  -0.00639   0.01434   0.00273   0.00265
  47        2S          0.01017  -0.00664   0.01824   0.00460   0.00678
  48 7   H  1S          0.00729  -0.00639   0.01433  -0.00366   0.00107
  49        2S          0.01019  -0.00665   0.01825  -0.00818   0.00066
  50 8   H  1S          0.00728  -0.00639   0.01434   0.00090  -0.00367
  51        2S          0.01019  -0.00665   0.01826   0.00352  -0.00738
                           6         7         8         9        10
   6        3S          0.02138
   7        3PX        -0.02973   0.09686
   8        3PY         0.00003  -0.00003   0.05898
   9        3PZ        -0.00003   0.00003  -0.00000   0.05899
  10 2   F  1S          0.02717  -0.00352   0.02230  -0.00248   2.05888
  11        2S          0.00199   0.00156   0.00203  -0.00016   0.06815
  12        2PX        -0.04299   0.12737  -0.01676   0.00112  -0.00788
  13        2PY        -0.01943  -0.01832   0.05756   0.00904  -0.02541
  14        2PZ         0.00305   0.00117   0.00937   0.13446   0.00286
  15        3S         -0.00128  -0.00429  -0.03789   0.00446  -0.49193
  16        3PX        -0.04506   0.13431  -0.01507   0.00078   0.00049
  17        3PY        -0.02318  -0.01632   0.06939   0.00930  -0.00471
  18        3PZ         0.00358   0.00084   0.00971   0.14833   0.00054
  19 3   F  1S          0.02718  -0.00354  -0.01330  -0.01806  -0.00053
  20        2S          0.00199   0.00156  -0.00116  -0.00167   0.00262
  21        2PX        -0.04295   0.12739   0.00936   0.01387   0.00293
  22        2PY         0.01241   0.01022   0.10721  -0.03811   0.01357
  23        2PZ         0.01526   0.01518  -0.03775   0.08481  -0.00101
  24        3S         -0.00128  -0.00427   0.02282   0.03058  -0.00149
  25        3PX        -0.04501   0.13432   0.00825   0.01256   0.00387
  26        3PY         0.01475   0.00895   0.12032  -0.03919   0.00763
  27        3PZ         0.01825   0.01360  -0.03873   0.09740  -0.00101
  28 4   F  1S          0.02719  -0.00360  -0.00900   0.02055  -0.00053
  29        2S          0.00199   0.00155  -0.00088   0.00184   0.00262
  30        2PX        -0.04274   0.12735   0.00730  -0.01489   0.00298
  31        2PY         0.00711   0.00803   0.12320   0.02855   0.01351
  32        2PZ        -0.01842  -0.01629   0.02888   0.06873  -0.00202
  33        3S         -0.00129  -0.00417   0.01508  -0.03506  -0.00149
  34        3PX        -0.04477   0.13426   0.00675  -0.01328   0.00386
  35        3PY         0.00853   0.00731   0.13682   0.02924   0.00771
  36        3PZ        -0.02194  -0.01440   0.02966   0.08082  -0.00072
  37 5   N  1S          0.03102  -0.03531   0.00002  -0.00003  -0.00163
  38        2S         -0.00635   0.01233  -0.00001   0.00001   0.00489
  39        2PX         0.03097   0.02429  -0.00003   0.00002   0.00902
  40        2PY        -0.00004  -0.00003  -0.00819  -0.00002   0.00500
  41        2PZ         0.00002   0.00004   0.00002  -0.00818  -0.00071
  42        3S         -0.03796   0.12247  -0.00009   0.00010   0.00211
  43        3PX         0.02924   0.05697  -0.00006   0.00006   0.00058
  44        3PY        -0.00003  -0.00006  -0.01442   0.00114  -0.00089
  45        3PZ         0.00001   0.00008  -0.00113  -0.01444  -0.00014
  46 6   H  1S         -0.01025   0.00379   0.00298   0.00324  -0.00226
  47        2S         -0.00519  -0.00041   0.00560   0.00810  -0.00295
  48 7   H  1S         -0.01026   0.00380  -0.00430   0.00096   0.00475
  49        2S         -0.00521  -0.00042  -0.00982   0.00080  -0.00786
  50 8   H  1S         -0.01026   0.00381   0.00131  -0.00419  -0.00121
  51        2S         -0.00521  -0.00039   0.00421  -0.00890  -0.00349
                          11        12        13        14        15
  11        2S          0.13754
  12        2PX         0.00882   0.54811
  13        2PY         0.02834  -0.02216   0.46233
  14        2PZ        -0.00310   0.00252   0.01048   0.55435
  15        3S          0.38973   0.02835   0.08317  -0.00964   1.36309
  16        3PX         0.00736   0.61612  -0.02611   0.00309   0.01887
  17        3PY         0.02728  -0.02784   0.51412   0.01198   0.06699
  18        3PZ        -0.00299   0.00326   0.01191   0.61930  -0.00796
  19 3   F  1S          0.00261   0.00296  -0.00851  -0.01068  -0.00148
  20        2S         -0.00081  -0.00051   0.00606  -0.00016  -0.00260
  21        2PX        -0.00056  -0.01292   0.01075  -0.00654  -0.02277
  22        2PY        -0.00398  -0.00263   0.04504   0.03248  -0.08670
  23        2PZ        -0.00457  -0.01236   0.00914   0.00665   0.02676
  24        3S         -0.00252  -0.02321   0.03955   0.08196  -0.01234
  25        3PX        -0.00127  -0.03157   0.01498  -0.01863  -0.02568
  26        3PY        -0.00471  -0.00285   0.04636   0.04650  -0.09499
  27        3PZ        -0.00442  -0.02733   0.01134   0.01497   0.03064
  28 4   F  1S          0.00263   0.00289  -0.00591   0.01227  -0.00150
  29        2S         -0.00081  -0.00055   0.00595  -0.00116  -0.00252
  30        2PX        -0.00052  -0.01295   0.01210   0.00378  -0.02325
  31        2PY        -0.00289   0.00042   0.03427  -0.03869  -0.09075
  32        2PZ         0.00532   0.01248  -0.01533   0.01746  -0.00680
  33        3S         -0.00260  -0.02249   0.02018  -0.08854  -0.01234
  34        3PX        -0.00122  -0.03167   0.01894   0.01476  -0.02620
  35        3PY        -0.00364   0.00363   0.03240  -0.05049  -0.09976
  36        3PZ         0.00534   0.02702  -0.01521   0.02898  -0.00875
  37 5   N  1S          0.00408  -0.01823  -0.00467   0.00032   0.00217
  38        2S         -0.00170   0.00925   0.00956  -0.00121  -0.00730
  39        2PX        -0.00648   0.04207   0.02132  -0.00243  -0.03557
  40        2PY        -0.00404   0.02533   0.00408  -0.00043  -0.01374
  41        2PZ         0.00051  -0.00342  -0.00082  -0.00432   0.00190
  42        3S         -0.01039   0.12780   0.00653   0.00138  -0.03936
  43        3PX        -0.00638   0.08560   0.01944  -0.00324  -0.03756
  44        3PY        -0.00585   0.00509  -0.01312   0.00404  -0.01429
  45        3PZ         0.00109  -0.00572   0.00102  -0.01787   0.00400
  46 6   H  1S          0.00170  -0.01712  -0.00413   0.00130   0.00837
  47        2S          0.00151   0.00183  -0.00648   0.02473   0.00449
  48 7   H  1S         -0.00259   0.02384   0.00712  -0.00058  -0.00681
  49        2S          0.00389  -0.01658   0.01449  -0.00520   0.02139
  50 8   H  1S          0.00118  -0.01112  -0.00248  -0.00120   0.00658
  51        2S          0.00111   0.00931  -0.01216  -0.02275   0.00268
                          16        17        18        19        20
  16        3PX         0.69447
  17        3PY        -0.03240   0.57353
  18        3PZ         0.00393   0.01344   0.69223
  19 3   F  1S          0.00386  -0.00449  -0.00632   2.05888
  20        2S         -0.00121   0.00645   0.00048   0.06815   0.13753
  21        2PX        -0.03157   0.02184  -0.01658  -0.00786   0.00879
  22        2PY         0.00353   0.05822   0.03560   0.01521  -0.01688
  23        2PZ        -0.02381   0.00035   0.00304   0.02057  -0.02298
  24        3S         -0.02615   0.04238   0.09073  -0.49193   0.38973
  25        3PX        -0.05410   0.02743  -0.03142   0.00050   0.00734
  26        3PY         0.00441   0.06025   0.05095   0.00282  -0.01626
  27        3PZ        -0.04165   0.00161   0.01172   0.00380  -0.02211
  28 4   F  1S          0.00385  -0.00294   0.00712  -0.00053   0.00262
  29        2S         -0.00127   0.00619  -0.00187   0.00263  -0.00081
  30        2PX        -0.03162   0.02517   0.01103   0.00292  -0.00057
  31        2PY         0.00882   0.04786  -0.04560  -0.00767  -0.00196
  32        2PZ         0.02216  -0.01041   0.01357  -0.01125   0.00574
  33        3S         -0.02537   0.02097  -0.09767  -0.00151  -0.00253
  34        3PX        -0.05424   0.03395   0.02437   0.00386  -0.00128
  35        3PY         0.01373   0.04660  -0.05878  -0.00470  -0.00147
  36        3PZ         0.03923  -0.00940   0.02554  -0.00610   0.00629
  37 5   N  1S         -0.01535  -0.00520   0.00043  -0.00163   0.00408
  38        2S          0.01001   0.01164  -0.00148   0.00490  -0.00170
  39        2PX         0.05209   0.02932  -0.00336   0.00902  -0.00648
  40        2PY         0.03174   0.00687  -0.00049  -0.00313   0.00248
  41        2PZ        -0.00430  -0.00091  -0.00350  -0.00397   0.00324
  42        3S          0.13577   0.01356   0.00078   0.00211  -0.01039
  43        3PX         0.09943   0.02914  -0.00451   0.00059  -0.00638
  44        3PY         0.00806  -0.01216   0.00457   0.00033   0.00388
  45        3PZ        -0.00709   0.00102  -0.01880   0.00084   0.00452
  46 6   H  1S         -0.02203  -0.00603   0.00077   0.00475  -0.00259
  47        2S          0.00123  -0.00805   0.02787  -0.00786   0.00388
  48 7   H  1S          0.02774   0.00856  -0.00080  -0.00121   0.00118
  49        2S         -0.02017   0.01562  -0.00587  -0.00349   0.00111
  50 8   H  1S         -0.01483  -0.00363  -0.00034  -0.00225   0.00170
  51        2S          0.01022  -0.01411  -0.02542  -0.00295   0.00151
                          21        22        23        24        25
  21        2PX         0.54816
  22        2PY         0.01323   0.52217
  23        2PZ         0.01785  -0.04513   0.49448
  24        3S          0.02827  -0.05003  -0.06716   1.36309
  25        3PX         0.61618   0.01569   0.02099   0.01879   0.69454
  26        3PY         0.01670   0.58254  -0.05153  -0.04045   0.01953
  27        3PZ         0.02240  -0.05160   0.55083  -0.05400   0.02601
  28 4   F  1S          0.00294  -0.00500   0.01272  -0.00149   0.00384
  29        2S         -0.00051  -0.00316  -0.00517  -0.00260  -0.00121
  30        2PX        -0.01297  -0.01100  -0.00607  -0.02267  -0.03167
  31        2PY        -0.00938  -0.00172   0.01789   0.06660  -0.02234
  32        2PZ         0.00839  -0.00549   0.05347   0.06168   0.00876
  33        3S         -0.02298   0.05128  -0.07526  -0.01234  -0.02590
  34        3PX        -0.03170  -0.02353  -0.00372  -0.02557  -0.05430
  35        3PY        -0.02218  -0.00209   0.01669   0.07411  -0.03816
  36        3PZ         0.01599  -0.01852   0.06358   0.06691   0.01684
  37 5   N  1S         -0.01823   0.00265   0.00387   0.00216  -0.01535
  38        2S          0.00925  -0.00586  -0.00766  -0.00730   0.01001
  39        2PX         0.04205  -0.01289  -0.01721  -0.03559   0.05207
  40        2PY        -0.01573  -0.00161   0.00418   0.00860  -0.01971
  41        2PZ        -0.02020   0.00380   0.00141   0.01094  -0.02531
  42        3S          0.12776  -0.00234  -0.00627  -0.03936   0.13572
  43        3PX         0.08559  -0.01276  -0.01515  -0.03758   0.09942
  44        3PY        -0.00771  -0.01880   0.00233   0.01069  -0.01041
  45        3PZ        -0.00147  -0.00072  -0.01213   0.01036  -0.00335
  46 6   H  1S          0.02385  -0.00411  -0.00585  -0.00681   0.02775
  47        2S         -0.01657  -0.01169  -0.00997   0.02137  -0.02015
  48 7   H  1S         -0.01112   0.00022   0.00273   0.00659  -0.01482
  49        2S          0.00927  -0.01365   0.02191   0.00268   0.01016
  50 8   H  1S         -0.01711   0.00323   0.00291   0.00838  -0.02202
  51        2S          0.00189   0.02467  -0.00676   0.00451   0.00130
                          26        27        28        29        30
  26        3PY         0.65077
  27        3PZ        -0.05819   0.61492
  28 4   F  1S         -0.00324   0.00705   2.05888
  29        2S         -0.00280  -0.00583   0.06815   0.13753
  30        2PX        -0.02519  -0.01063  -0.00780   0.00873   0.54827
  31        2PY         0.00141   0.03252   0.01023  -0.01149   0.00878
  32        2PZ        -0.00276   0.05999  -0.02346   0.02611  -0.02019
  33        3S          0.05748  -0.08210  -0.49194   0.38972   0.02805
  34        3PX        -0.04076  -0.00809   0.00052   0.00728   0.61634
  35        3PY         0.00133   0.03251   0.00189  -0.01105   0.01096
  36        3PZ        -0.01688   0.07088  -0.00434   0.02514  -0.02543
  37 5   N  1S          0.00302   0.00427  -0.00164   0.00409  -0.01823
  38        2S         -0.00714  -0.00932   0.00490  -0.00171   0.00926
  39        2PX        -0.01773  -0.02366   0.00901  -0.00648   0.04198
  40        2PY        -0.00021   0.00510  -0.00190   0.00158  -0.00974
  41        2PZ         0.00468   0.00364   0.00471  -0.00377   0.02376
  42        3S         -0.00640  -0.01205   0.00211  -0.01041   0.12777
  43        3PX        -0.01875  -0.02291   0.00059  -0.00638   0.08548
  44        3PY        -0.01946   0.00329   0.00056   0.00199   0.00236
  45        3PZ        -0.00030  -0.01141  -0.00069  -0.00563   0.00746
  46 6   H  1S         -0.00503  -0.00700  -0.00121   0.00118  -0.01113
  47        2S         -0.01282  -0.01061  -0.00349   0.00111   0.00926
  48 7   H  1S          0.00155   0.00330  -0.00225   0.00170  -0.01711
  49        2S         -0.01499   0.02494  -0.00296   0.00151   0.00183
  50 8   H  1S          0.00373   0.00481   0.00476  -0.00260   0.02385
  51        2S          0.02819  -0.00697  -0.00787   0.00389  -0.01667
                          31        32        33        34        35
  31        2PY         0.54041
  32        2PZ         0.03463   0.47613
  33        3S         -0.03324   0.07692   1.36312
  34        3PX         0.01025  -0.02386   0.01860   0.69475
  35        3PY         0.60334   0.03965  -0.02661   0.01265   0.67420
  36        3PZ         0.03957   0.52992   0.06204  -0.02966   0.04473
  37 5   N  1S          0.00207  -0.00425   0.00217  -0.01536   0.00224
  38        2S         -0.00374   0.00892  -0.00731   0.01002  -0.00455
  39        2PX        -0.00858   0.01981  -0.03559   0.05199  -0.01178
  40        2PY        -0.00276  -0.00318   0.00526  -0.01219  -0.00151
  41        2PZ        -0.00355   0.00263  -0.01297   0.02978  -0.00440
  42        3S         -0.00453   0.00532  -0.03940   0.13574  -0.00753
  43        3PX        -0.00699   0.01878  -0.03759   0.09929  -0.01077
  44        3PY        -0.01445  -0.00181   0.00372   0.00205  -0.01467
  45        3PZ        -0.00483  -0.01644  -0.01448   0.01076  -0.00606
  46 6   H  1S          0.00230  -0.00157   0.00660  -0.01483   0.00214
  47        2S          0.02580   0.00086   0.00268   0.01015   0.02908
  48 7   H  1S          0.00093  -0.00427   0.00839  -0.02202   0.00233
  49        2S         -0.01823  -0.01799   0.00452   0.00124  -0.02017
  50 8   H  1S         -0.00307   0.00651  -0.00684   0.02776  -0.00361
  51        2S         -0.00276   0.01514   0.02140  -0.02027  -0.00275
                          36        37        38        39        40
  36        3PZ         0.59139
  37 5   N  1S         -0.00477   2.04799
  38        2S          0.01085   0.10688   0.10191
  39        2PX         0.02725  -0.01780   0.00627   0.39020
  40        2PY        -0.00398   0.00002  -0.00001  -0.00009   0.32892
  41        2PZ         0.00502  -0.00002   0.00001   0.00006   0.00001
  42        3S          0.01174  -0.45540   0.28744   0.14945  -0.00017
  43        3PX         0.02789  -0.04079   0.01917   0.47952  -0.00020
  44        3PY        -0.00250   0.00004  -0.00002  -0.00017   0.32055
  45        3PZ        -0.01616  -0.00004   0.00002   0.00013  -0.00077
  46 6   H  1S         -0.00301  -0.04034   0.04157  -0.06799  -0.14206
  47        2S          0.00050   0.01092   0.00360  -0.04911  -0.08580
  48 7   H  1S         -0.00567  -0.04035   0.04157  -0.06775   0.20021
  49        2S         -0.02094   0.01092   0.00360  -0.04901   0.12007
  50 8   H  1S          0.00788  -0.04035   0.04159  -0.06820  -0.05795
  51        2S          0.01645   0.01091   0.00360  -0.04926  -0.03408
                          41        42        43        44        45
  41        2PZ         0.32895
  42        3S          0.00018   1.19032
  43        3PX         0.00015   0.24528   0.59820
  44        3PY         0.00078  -0.00024  -0.00030   0.31495
  45        3PZ         0.32058   0.00024   0.00023   0.00001   0.31499
  46 6   H  1S         -0.14912   0.12829  -0.07706  -0.13827  -0.14437
  47        2S         -0.08909  -0.00688  -0.05926  -0.08383  -0.08817
  48 7   H  1S         -0.04863   0.12831  -0.07683   0.19420  -0.04774
  49        2S         -0.02986  -0.00690  -0.05918   0.11828  -0.02864
  50 8   H  1S          0.19754   0.12835  -0.07727  -0.05571   0.19188
  51        2S          0.11880  -0.00686  -0.05940  -0.03424   0.11663
                          46        47        48        49        50
  46 6   H  1S          0.16306
  47        2S          0.08720   0.05739
  48 7   H  1S         -0.03086  -0.02880   0.16305
  49        2S         -0.02772  -0.01890   0.08719   0.05739
  50 8   H  1S         -0.03086  -0.02773  -0.03087  -0.02878   0.16305
  51        2S         -0.02881  -0.01892  -0.02769  -0.01888   0.08717
                          51
  51        2S          0.05738
    Full Mulliken population analysis:
                           1         2         3         4         5
   1 1   B  1S          2.00492
   2        2S          0.01837   0.14444
   3        2PX         0.00000   0.00000   0.10108
   4        2PY         0.00000   0.00000   0.00000   0.16449
   5        2PZ         0.00000   0.00000   0.00000  -0.00000   0.16450
   6        3S         -0.01042   0.02162   0.00000   0.00000   0.00000
   7        3PX         0.00000   0.00000   0.02030  -0.00000  -0.00000
   8        3PY         0.00000   0.00000  -0.00000  -0.00308  -0.00000
   9        3PZ         0.00000   0.00000  -0.00000   0.00000  -0.00308
  10 2   F  1S          0.00000   0.00000  -0.00001  -0.00016  -0.00000
  11        2S         -0.00000  -0.00009   0.00013   0.00154   0.00002
  12        2PX        -0.00000   0.00039   0.00082   0.00251   0.00003
  13        2PY        -0.00002   0.00844   0.00240   0.02366   0.00046
  14        2PZ        -0.00000   0.00010   0.00003   0.00046   0.00139
  15        3S         -0.00085  -0.00195   0.00087   0.00686   0.00009
  16        3PX        -0.00044   0.00219   0.00546   0.01026   0.00013
  17        3PY        -0.00673   0.04791   0.01015   0.08144   0.00190
  18        3PZ        -0.00008   0.00059   0.00013   0.00189   0.00951
  19 3   F  1S          0.00000   0.00000  -0.00001  -0.00006  -0.00010
  20        2S         -0.00000  -0.00009   0.00013   0.00055   0.00101
  21        2PX        -0.00000   0.00039   0.00083   0.00089   0.00164
  22        2PY        -0.00001   0.00301   0.00085   0.00086   0.00876
  23        2PZ        -0.00001   0.00554   0.00156   0.00876   0.00763
  24        3S         -0.00085  -0.00195   0.00087   0.00248   0.00448
  25        3PX        -0.00044   0.00217   0.00548   0.00365   0.00668
  26        3PY        -0.00240   0.01706   0.00361   0.00067   0.03583
  27        3PZ        -0.00442   0.03146   0.00662   0.03584   0.02251
  28 4   F  1S          0.00000   0.00000  -0.00001  -0.00003  -0.00014
  29        2S         -0.00000  -0.00009   0.00012   0.00025   0.00131
  30        2PX        -0.00000   0.00038   0.00084   0.00040   0.00209
  31        2PY        -0.00000   0.00138   0.00038   0.00007   0.00520
  32        2PZ        -0.00002   0.00718   0.00200   0.00519   0.01562
  33        3S         -0.00085  -0.00195   0.00086   0.00110   0.00587
  34        3PX        -0.00043   0.00213   0.00554   0.00162   0.00854
  35        3PY        -0.00110   0.00783   0.00161   0.00117   0.02125
  36        3PZ        -0.00573   0.04074   0.00846   0.02124   0.05142
  37 5   N  1S          0.00000  -0.00003  -0.00023  -0.00000  -0.00000
  38        2S          0.00000   0.00018   0.00240   0.00000   0.00000
  39        2PX        -0.00002   0.00305   0.01791   0.00000   0.00000
  40        2PY        -0.00000   0.00000   0.00000   0.00004  -0.00000
  41        2PZ        -0.00000   0.00000   0.00000   0.00000   0.00004
  42        3S         -0.00122   0.00823   0.02349   0.00000   0.00000
  43        3PX        -0.00446   0.02244   0.06232   0.00000   0.00000
  44        3PY        -0.00000   0.00000   0.00000   0.00210   0.00000
  45        3PZ        -0.00000   0.00000   0.00000  -0.00000   0.00210
  46 6   H  1S          0.00000  -0.00003  -0.00019  -0.00001  -0.00001
  47        2S          0.00011  -0.00062  -0.00201  -0.00017  -0.00026
  48 7   H  1S          0.00000  -0.00003  -0.00019  -0.00002  -0.00000
  49        2S          0.00011  -0.00063  -0.00201  -0.00042  -0.00001
  50 8   H  1S          0.00000  -0.00003  -0.00019  -0.00000  -0.00002
  51        2S          0.00011  -0.00063  -0.00202  -0.00005  -0.00037
                           6         7         8         9        10
   6        3S          0.02138
   7        3PX         0.00000   0.09686
   8        3PY         0.00000  -0.00000   0.05898
   9        3PZ         0.00000  -0.00000   0.00000   0.05899
  10 2   F  1S          0.00081  -0.00005   0.00117   0.00001   2.05888
  11        2S          0.00031   0.00010   0.00052   0.00000   0.01463
  12        2PX         0.00057   0.00668   0.00037   0.00000   0.00000
  13        2PY         0.00100   0.00040  -0.00159   0.00009   0.00000
  14        2PZ         0.00002   0.00000   0.00009   0.00766   0.00000
  15        3S         -0.00048  -0.00057  -0.01978  -0.00026  -0.09031
  16        3PX         0.00306   0.03701   0.00144   0.00001   0.00000
  17        3PY         0.00614   0.00156  -0.00500   0.00039   0.00000
  18        3PZ         0.00011   0.00001   0.00040   0.04382   0.00000
  19 3   F  1S          0.00081  -0.00005   0.00042   0.00077   0.00000
  20        2S          0.00031   0.00010   0.00018   0.00035   0.00000
  21        2PX         0.00056   0.00668   0.00012   0.00025   0.00000
  22        2PY         0.00038   0.00013   0.00295   0.00158   0.00000
[...]

 GradGradGradGradGradGradGradGradGradGradGradGradGradGradGradGradGradGrad
 Berny optimization.
 Internal  Forces:  Max     0.000409413 RMS     0.000145413
 Search for a local minimum.
 Step number   1 out of a maximum of    2
 All quantities printed in internal units (Hartrees-Bohrs-Radians)
 Second derivative matrix not updated -- analytic derivatives used.
 ITU=  0
     Eigenvalues ---   -0.00001   0.04761   0.04762   0.09320   0.09321
     Eigenvalues ---    0.10501   0.11900   0.11900   0.13968   0.22367
     Eigenvalues ---    0.22370   0.41627   0.46343   0.46347   0.48466
     Eigenvalues ---    0.48467   0.48619   0.54600
 Eigenvalue     1 is  -9.17D-06 should be greater than     0.000000 Eigenvector:
                          D6        D3        D4        D1        D9
   1                   -0.33333  -0.33333  -0.33333  -0.33333  -0.33333
                          D7        D5        D2        D8        R4
   1                   -0.33332  -0.33332  -0.33332  -0.33331   0.00366
 Quadratic step=3.996D-01 exceeds max=3.000D-01 adjusted using Lamda=-3.042D-06.
 Angle between NR and scaled steps=   0.19 degrees.
 Angle between quadratic step and forces=  89.15 degrees.
 Linear search not attempted -- first point.
 Iteration  1 RMS(Cart)=  0.04813699 RMS(Int)=  0.00134210
 Iteration  2 RMS(Cart)=  0.00137532 RMS(Int)=  0.00000075
 Iteration  3 RMS(Cart)=  0.00000080 RMS(Int)=  0.00000023
 Variable       Old X    -DE/DX   Delta X   Delta X   Delta X     New X
                                 (Linear)    (Quad)   (Total)
    R1        2.60178  -0.00038   0.00000  -0.00109  -0.00109   2.60069
    R2        2.60178  -0.00039   0.00000  -0.00109  -0.00109   2.60069
    R3        2.60183  -0.00041   0.00000  -0.00114  -0.00114   2.60069
    R4        3.19510   0.00021   0.00000   0.00198   0.00198   3.19707
    R5        1.91156  -0.00007   0.00000  -0.00020  -0.00020   1.91137
    R6        1.91156  -0.00006   0.00000  -0.00019  -0.00019   1.91137
    R7        1.91155  -0.00006   0.00000  -0.00019  -0.00019   1.91137
    A1        1.99195   0.00009   0.00000   0.00067   0.00067   1.99262
    A2        1.99197   0.00008   0.00000   0.00065   0.00065   1.99262
    A3        1.81982  -0.00009   0.00000  -0.00076  -0.00076   1.81906
    A4        1.99200   0.00008   0.00000   0.00063   0.00063   1.99262
    A5        1.81994  -0.00011   0.00000  -0.00086  -0.00087   1.81907
    A6        1.81992  -0.00012   0.00000  -0.00085  -0.00085   1.81907
    A7        1.89775  -0.00006   0.00000   0.00006   0.00006   1.89781
    A8        1.89770  -0.00006   0.00000   0.00010   0.00010   1.89780
    A9        1.89757  -0.00004   0.00000   0.00023   0.00023   1.89780
   A10        1.92341   0.00006   0.00000  -0.00013  -0.00013   1.92329
   A11        1.92347   0.00005   0.00000  -0.00019  -0.00019   1.92328
   A12        1.92336   0.00006   0.00000  -0.00007  -0.00007   1.92328
    D1        2.22319   0.00000   0.00000   0.10000   0.10000   2.32319
    D2        0.12873   0.00001   0.00000   0.10006   0.10006   0.22879
    D3       -1.96555   0.00000   0.00000   0.09995   0.09995  -1.86560
    D4        0.12883  -0.00000   0.00000   0.09997   0.09997   0.22879
    D5       -1.96563  -0.00000   0.00000   0.10003   0.10003  -1.86561
    D6        2.22327  -0.00001   0.00000   0.09992   0.09992   2.32319
    D7       -1.96562   0.00000   0.00000   0.10002   0.10002  -1.86560
    D8        2.22311   0.00001   0.00000   0.10008   0.10008   2.32318
    D9        0.12882   0.00000   0.00000   0.09997   0.09997   0.22879
         Item               Value     Threshold  Converged?
 Maximum Force            0.000409     0.000450     YES
 RMS     Force            0.000145     0.000300     YES
 Maximum Displacement     0.115685     0.001800     NO 
 RMS     Displacement     0.048126     0.001200     NO 
 Predicted change in Energy=-2.675590D-06
                           ----------------------------
                           ! Non-Optimized Parameters !
                           ! (Angstroms and Degrees)  !
 --------------------------                            --------------------------
 ! Name  Definition              Value          Derivative Info.                !
 --------------------------------------------------------------------------------
 ! R1    R(1,2)                  1.3762         -DE/DX =   -0.0004              !
 ! R2    R(1,3)                  1.3762         -DE/DX =   -0.0004              !
 ! R3    R(1,4)                  1.3762         -DE/DX =   -0.0004              !
 ! R4    R(1,5)                  1.6918         -DE/DX =    0.0002              !
 ! R5    R(5,6)                  1.0115         -DE/DX =   -0.0001              !
 ! R6    R(5,7)                  1.0115         -DE/DX =   -0.0001              !
 ! R7    R(5,8)                  1.0115         -DE/DX =   -0.0001              !
 ! A1    A(2,1,3)              114.1688         -DE/DX =    0.0001              !
 ! A2    A(2,1,4)              114.1687         -DE/DX =    0.0001              !
 ! A3    A(2,1,5)              104.2247         -DE/DX =   -0.0001              !
 ! A4    A(3,1,4)              114.1688         -DE/DX =    0.0001              !
 ! A5    A(3,1,5)              104.2251         -DE/DX =   -0.0001              !
 ! A6    A(4,1,5)              104.225          -DE/DX =   -0.0001              !
 ! A7    A(1,5,6)              108.7366         -DE/DX =   -0.0001              !
 ! A8    A(1,5,7)              108.7361         -DE/DX =   -0.0001              !
 ! A9    A(1,5,8)              108.7361         -DE/DX =    0.0                 !
 ! A10   A(6,5,7)              110.1961         -DE/DX =    0.0001              !
 ! A11   A(6,5,8)              110.196          -DE/DX =    0.0                 !
 ! A12   A(7,5,8)              110.1961         -DE/DX =    0.0001              !
 ! D1    D(2,1,5,6)            133.1088         -DE/DX =    0.0                 !
 ! D2    D(2,1,5,7)             13.1087         -DE/DX =    0.0                 !
 ! D3    D(2,1,5,8)           -106.8911         -DE/DX =    0.0                 !
 ! D4    D(3,1,5,6)             13.1088         -DE/DX =    0.0                 !
 ! D5    D(3,1,5,7)           -106.8913         -DE/DX =    0.0                 !
 ! D6    D(3,1,5,8)            133.1089         -DE/DX =    0.0                 !
 ! D7    D(4,1,5,6)           -106.8913         -DE/DX =    0.0                 !
 ! D8    D(4,1,5,7)            133.1085         -DE/DX =    0.0                 !
 ! D9    D(4,1,5,8)             13.1087         -DE/DX =    0.0                 !
 --------------------------------------------------------------------------------
 GradGradGradGradGradGradGradGradGradGradGradGradGradGradGradGradGradGrad


 ----------------------------------------------------------------------

 Electric dipole moment (input orientation):
 (Debye = 10**-18 statcoulomb cm , SI units = C m)
                  (au)            (Debye)         (10**-30 SI)
   Tot        0.268948D+01      0.683597D+01      0.228023D+02
   x         -0.268947D+01     -0.683596D+01     -0.228023D+02
   y          0.238291D-02      0.605676D-02      0.202032D-01
   z         -0.274623D-02     -0.698021D-02     -0.232835D-01

 Dipole polarizability, Alpha (input orientation).
 (esu units = cm**3 , SI units = C**2 m**2 J**-1)
 Alpha(0;0):
               (au)            (10**-24 esu)      (10**-40 SI)
   iso        0.136064D+02      0.201626D+01      0.224339D+01
   aniso      0.189321D+01      0.280545D+00      0.312148D+00
   xx         0.123442D+02      0.182923D+01      0.203529D+01
   yx         0.130515D-02      0.193403D-03      0.215190D-03
   yy         0.142371D+02      0.210972D+01      0.234739D+01
   zx        -0.163852D-02     -0.242803D-03     -0.270155D-03
   zy         0.113447D-03      0.168112D-04      0.187050D-04
   zz         0.142377D+02      0.210982D+01      0.234749D+01

 First dipole hyperpolarizability, Beta (input orientation).
 ||, _|_  parallel and perpendicular components, (z) with respect to z axis,
 vector components x,y,z.  Values do not include the 1/n! factor of 1/2.
 (esu units = statvolt**-1 cm**4 , SI units = C**3 m**3 J**-2)
 Beta(0;0,0):
               (au)            (10**-30 esu)      (10**-50 SI)
   || (z)    -0.164973D-01     -0.142524D-03     -0.528962D-04
   _|_(z)    -0.549909D-02     -0.475079D-04     -0.176321D-04
   x         -0.819510D+02     -0.707993D+00     -0.262765D+00
   y          0.700155D-01      0.604879D-03      0.224495D-03
   z         -0.824864D-01     -0.712618D-03     -0.264481D-03
   ||         0.163902D+02      0.141599D+00      0.525530D-01
   xxx        0.307602D+01      0.265744D-01      0.986284D-02
   xxy       -0.308285D-01     -0.266334D-03     -0.988472D-04
   yxy       -0.151809D+02     -0.131151D+00     -0.486754D-01
   yyy        0.787752D+01      0.680557D-01      0.252582D-01
   xxz        0.325559D-01      0.281257D-03      0.104386D-03
   yxz       -0.124454D-02     -0.107518D-04     -0.399043D-05
   yyz       -0.860283D+01     -0.743218D-01     -0.275838D-01
   zxz       -0.152121D+02     -0.131421D+00     -0.487756D-01
   zyz       -0.782336D+01     -0.675877D-01     -0.250845D-01
   zzz        0.854278D+01      0.738030D-01      0.273912D-01

 ----------------------------------------------------------------------

 Dipole orientation:
     5          0.00004997         -0.00015985         -0.39215155
     9         -0.28179748          2.50554284         -1.03344103
     9         -2.02901486         -1.49701930         -1.03368500
     9          2.31101655         -1.00888035         -1.03357121
     7         -0.00001651         -0.00009480          2.80294569
     1         -1.30669237         -1.25300724          3.41685454
     1         -0.43166006          1.75802981          3.41672960
     1          1.73848794         -0.50516244          3.41658151

 Electric dipole moment (dipole orientation):
 (Debye = 10**-18 statcoulomb cm , SI units = C m)
                  (au)            (Debye)         (10**-30 SI)
   Tot        0.268948D+01      0.683597D+01      0.228023D+02
   x          0.000000D+00      0.000000D+00      0.000000D+00
   y          0.000000D+00      0.000000D+00      0.000000D+00
   z          0.268948D+01      0.683597D+01      0.228023D+02

 Dipole polarizability, Alpha (dipole orientation).
 (esu units = cm**3 , SI units = C**2 m**2 J**-1)
 Alpha(0;0):
               (au)            (10**-24 esu)      (10**-40 SI)
   iso        0.136064D+02      0.201626D+01      0.224339D+01
   aniso      0.189321D+01      0.280545D+00      0.312148D+00
   xx         0.142377D+02      0.210982D+01      0.234749D+01
   yx         0.111829D-03      0.165714D-04      0.184382D-04
   yy         0.142371D+02      0.210972D+01      0.234739D+01
   zx        -0.294525D-03     -0.436441D-04     -0.485606D-04
   zy         0.372135D-03      0.551448D-04      0.613568D-04
   zz         0.123442D+02      0.182923D+01      0.203529D+01

 First dipole hyperpolarizability, Beta (dipole orientation).
 ||, _|_  parallel and perpendicular components, (z) with respect to z axis,
 vector components x,y,z.  Values do not include the 1/n! factor of 1/2.
 (esu units = statvolt**-1 cm**4 , SI units = C**3 m**3 J**-2)
 Beta(0;0,0):
               (au)            (10**-30 esu)      (10**-50 SI)
   || (z)     0.163902D+02      0.141599D+00      0.525530D-01
   _|_(z)     0.546340D+01      0.471996D-01      0.175177D-01
   x          0.119163D-02      0.102948D-04      0.382080D-05
   y         -0.259535D-02     -0.224218D-04     -0.832164D-05
   z          0.819511D+02      0.707993D+00      0.262765D+00
   ||         0.163902D+02      0.141599D+00      0.525530D-01
   xxx        0.856848D+01      0.740250D-01      0.274737D-01
   xxy       -0.785964D+01     -0.679011D-01     -0.252008D-01
   yxy       -0.856645D+01     -0.740075D-01     -0.274671D-01
   yyy        0.785996D+01      0.679039D-01      0.252019D-01
   xxz        0.151965D+02      0.131286D+00      0.487255D-01
   yxz        0.159457D-02      0.137758D-04      0.511276D-05
   yyz        0.151966D+02      0.131287D+00      0.487259D-01
   zxz       -0.163398D-02     -0.141163D-04     -0.523912D-05
   zyz       -0.118951D-02     -0.102765D-04     -0.381401D-05
   zzz       -0.307611D+01     -0.265752D-01     -0.986312D-02

 ----------------------------------------------------------------------
 1\1\GINC-IISERK51\Freq\RHF\3-21G\B1F3H3N1\GAUSSIAN\17-Jun-2025\0\\#N G
 eom=AllCheck Guess=TCheck SCRF=Check GenChk RHF/3-21G Freq\\Title Card
  Required\\0,1\B,0.2075173738,-0.0002684275,0.0002384146\F,0.548201038
 6,1.3252583337,-0.149737002\F,0.5473949593,-0.7936248166,-1.0724470079
 \F,0.5452205459,-0.5332760227,1.2239676774\N,-1.4832536637,0.001264012
 1,-0.001523243\H,-1.8080024693,-0.6620736152,-0.6927299855\H,-1.806995
 6155,0.93170795,-0.2310949332\H,-1.8091511691,-0.2649024137,0.91835807
 96\\Version=EM64L-G16RevB.01\State=1-A\HF=-377.4051185\RMSD=2.749e-10\
 RMSF=2.206e-04\ZeroPoint=0.0565299\Thermal=0.0620586\Dipole=-2.6894735
 ,0.0023829,-0.0027462\DipoleDeriv=2.215257,-0.000453,0.0004856,-0.0004
 387,1.7481474,-0.001196,0.000478,0.0011833,1.7481486,-0.6702268,-0.066
 115,0.0047462,-0.1488491,-0.8194345,0.0297083,0.0169572,0.0317801,-0.5
 500273,-0.6700688,0.0373462,0.0546478,0.0892688,-0.6442769,-0.1330988,
 0.1201889,-0.131232,-0.7253148,-0.669718,0.0287531,-0.0593433,0.059535
 8,-0.590792,0.1004047,-0.1370768,0.1024416,-0.7791544,-1.1884152,0.000
 6491,-0.0007085,0.0006672,-0.4919809,0.0051052,-0.0007289,-0.0050919,-
 0.4920035,0.3277143,-0.040319,-0.0392979,-0.0116433,0.2662465,0.000932
 8,-0.0116147,0.0014946,0.265992,0.327806,0.054161,-0.0151323,0.0158434
 ,0.2670601,-0.0009591,-0.0041386,-0.0003269,0.2650875,0.3276516,-0.014
 0223,0.0546024,-0.004384,0.2650304,-0.000897,0.0159348,-0.0002488,0.26
 7272\Polar=12.3442304,0.0013051,14.2371292,-0.0016385,0.0001134,14.237
 7446\PolarDeriv=-0.4894493,0.0013422,1.0754505,-0.0015724,0.0002632,1.
 0738505,0.0003125,0.0341334,0.4889939,-0.0359248,-0.3432461,-0.4911321
 ,-0.0006866,0.0363224,-0.3421947,0.0325271,-0.4900919,0.3445218,1.3991
 29,1.2741514,0.2324375,-0.1517855,-0.0961921,-0.315172,0.6596136,0.674
 6319,3.2464783,-0.0253896,-0.1252273,0.3309465,-0.0795676,-0.0361252,0
 .0192869,0.3720073,1.5326259,-0.4013875,1.3973319,-0.7711118,-0.095739
 7,-1.0260759,0.2849179,0.0125717,-0.3998474,0.4735957,-1.9919831,0.151
 3422,-1.1690833,-0.1292984,-0.5305722,0.1418986,-0.2007745,0.5715313,-
 0.8563683,-2.7064006,1.3920022,-0.5055114,-0.262277,1.1806536,-0.18882
 34,0.1774828,-0.2605461,0.4176451,-1.368954,-0.1106207,1.4224976,-0.08
 98533,0.6113707,-0.1211101,0.3079568,0.6227984,-0.5659288,2.9843547,-0
 .6517318,0.0048916,1.8587046,-0.0052337,-0.0002824,1.8662369,0.0056967
 ,2.8219053,-2.1562995,0.0266854,1.8418427,2.1477774,-0.0060435,-0.0273
 315,1.8409155,2.8292793,2.1465249,-1.832422,-1.0156159,-1.5032296,-0.9
 2576,-1.5528152,-0.4687481,-0.9487685,-0.4877375,-1.4634622,-2.8959023
 ,-0.3644607,-2.0405627,-1.1942472,-0.5162143,-0.3605656,-1.1500155,-1.
 4864149,-2.0326592,-3.0700715,-1.0101777,2.0943661,-1.3465458,-0.52365
 2,0.2256025,-0.52625,0.688821,-1.7908366,5.4634567,0.1701487,-1.042931
 4,0.23983,-0.1611246,0.1743351,-0.7609774,-1.1545192,1.4307342,-0.6805
 568,-1.0214884,-0.5948985,-0.5362702,2.0804811,0.2432626,-1.3399514,-0
 .2063128,-1.1676127,-0.7857899,0.1882196,1.4567105,-0.8140228,0.682838
 1,0.1925762,0.2858029,-1.7872093,-1.1648368,5.3619618\HyperPolar=3.076
 0214,-0.0308285,-15.1808732,7.8775232,0.0325559,-0.0012445,-8.6028302,
 -15.2121492,-7.8233562,8.5427789\Quadrupole=5.3751102,-2.6875338,-2.68
 75763,-0.0071377,0.0083881,0.0001702\PG=C01 [X(B1F3H3N1)]\NImag=0\\0.2
 8996395,0.00036293,0.71161396,-0.00046342,0.00002350,0.71157760,-0.079
 69246,-0.08370218,0.00923491,0.08482225,-0.06870655,-0.36136649,0.0328
 2438,0.10747521,0.44404474,0.00768256,0.03293431,-0.07216232,-0.011824
 24,-0.04255950,0.06923351,-0.07960125,0.04976277,0.06771406,0.01425690
 ,-0.00663879,-0.00315461,0.08467826,0.04092246,-0.17312873,-0.14183084
 ,0.00680592,-0.04138751,-0.03445697,-0.06387756,0.20007203,0.05550596,
 -0.14168897,-0.26049103,0.00270947,-0.01317043,0.00296841,-0.08695076,
 0.18370840,0.31333303,-0.07935259,0.03358285,-0.07650351,0.01425500,-0
 .00581042,0.00460857,0.01425398,0.00058040,0.00734185,0.08432837,0.027
 43057,-0.11600630,0.10879875,0.00594060,-0.02873911,0.04176560,-0.0010
 4513,0.01250326,-0.01795791,-0.04314970,0.12610317,-0.06274214,0.10891
 651,-0.31780856,-0.00411004,0.02045632,-0.00967385,-0.00718590,0.00336
 038,-0.05091345,0.09821981,-0.14112381,0.38759604,-0.03455827,-0.00003
 026,0.00003810,-0.03169426,-0.02228435,0.00195294,-0.03165099,0.012918
 93,0.01826658,-0.03155901,0.00944509,-0.02032117,0.41792480,-0.0000335
 2,-0.06973860,0.00057639,-0.03232954,-0.00981966,0.00311630,0.01808814
 ,0.00498311,-0.01136977,0.01432320,0.01013017,0.00880310,0.00034817,0.
 79717526,0.00004037,-0.00057989,-0.06973871,0.00211763,0.00275997,0.01
 340297,0.02688327,-0.01174761,-0.00143023,-0.02910371,0.00843923,-0.00
 667005,-0.00035909,0.00001336,0.79718541,-0.00557809,-0.02305642,-0.02
 426024,-0.00514864,-0.00071899,0.00262583,0.00684767,0.00186663,0.0014
 3653,-0.00363852,0.00299980,0.00041290,-0.09614233,-0.09390928,-0.0983
 3055,0.09173583,-0.00440224,0.00279112,-0.00060624,-0.00037449,0.00026
 837,0.00009970,0.00232245,-0.00192990,-0.00021009,0.00138550,-0.001471
 52,0.00042264,-0.07454017,-0.23781286,-0.16260220,0.08819023,0.2493232
 3,-0.00479421,-0.00037969,0.00295431,0.00208886,0.00086801,-0.00116061
 ,0.00217700,-0.00028825,-0.00248977,-0.00008911,0.00022298,0.00027638,
 -0.07869286,-0.16339069,-0.25068961,0.09241088,0.18406717,0.26397182,-
 0.00554052,0.03254377,-0.00785730,0.00684108,-0.00218200,0.00091848,-0
 .00364831,-0.00185760,0.00238629,-0.00514130,-0.00191180,-0.00194605,-
 0.09588655,0.13178777,-0.03211466,0.00594254,-0.01734326,0.00403819,0.
 09146827,0.00635691,0.00246709,0.00022300,-0.00305353,-0.00256427,-0.0
 0008626,-0.00061568,0.00012011,0.00069293,-0.00161601,-0.00038269,-0.0
 0124732,0.10509606,-0.38876587,0.07656645,0.01242343,-0.02387708,0.009
 54805,-0.12375915,0.41986341,-0.00143510,0.00050457,0.00323799,0.00094
 248,-0.00016250,-0.00185020,0.00123927,0.00049086,-0.00130579,-0.00137
 906,-0.00048022,-0.00051555,-0.02515915,0.07583175,-0.09999758,0.01266
 107,-0.03219431,0.01187937,0.03012092,-0.08598058,0.09371458,-0.005640
 78,-0.00946345,0.03209740,-0.00363988,-0.00113411,-0.00280953,-0.00513
 626,0.00264083,-0.00069592,0.00685407,0.00029058,-0.00232741,-0.096433
 38,-0.03827496,0.13086673,0.00598155,0.00476198,-0.01713874,0.00596480
 ,0.00516798,-0.01699043,0.09204988,-0.00193056,0.00336795,-0.00000894,
 -0.00076199,-0.00043608,-0.00081318,0.00200381,-0.00123237,-0.00000416
 ,0.00070418,-0.00213697,0.00041218,-0.03095347,-0.10615154,0.08715069,
 0.01220460,0.01270865,-0.03064757,-0.01727772,-0.00686070,0.04199043,0
 .03601115,0.10074106,0.00620598,0.00026966,0.00243071,-0.00115907,-0.0
 0101625,-0.00075792,-0.00072233,0.00076403,0.00032881,-0.00309484,0.00
 033538,-0.00229095,0.10427465,0.08641956,-0.38206219,0.01304357,0.0110
 2333,-0.02474188,0.00445412,0.00028373,-0.00516283,-0.12300209,-0.0980
 7944,0.41225625\\-0.00069857,-0.00000109,-0.00000471,0.00015204,0.0003
 4779,-0.00004484,0.00016256,-0.00020983,-0.00029173,0.00016897,-0.0001
 4756,0.00034973,0.00043002,0.00000189,-0.00000840,-0.00007297,-0.00002
 605,-0.00003715,-0.00007738,0.00003891,-0.00000223,-0.00006467,-0.0000
 0405,0.00003933\\\@


 AN OPTIMIST IS A GUY
 THAT HAS NEVER HAD
 MUCH EXPERIENCE
   (CERTAIN MAXIMS OF ARCHY  -- DON MARQUIS)
 Job cpu time:       0 days  0 hours  0 minutes  1.0 seconds.
 Elapsed time:       0 days  0 hours  0 minutes  1.0 seconds.
 File lengths (MBytes):  RWF=      7 Int=      0 D2E=      0 Chk=      2 Scr=      1
 Normal termination of Gaussian 16 at Tue Jun 17 14:08:53 2025.
