 Entering Gaussian System, Link 0=g16
 Input=/home/gaussian/Documents/Summer_Internship/Acid_Base_adduct/Adduct/NH3 - BF3/NH3_BF3_adduct_sp.com
 Output=/home/gaussian/Documents/Summer_Internship/Acid_Base_adduct/Adduct/NH3 - BF3/NH3_BF3_adduct_sp.log
 Initial command:
 /usr/local/g16/l1.exe "/home/gaussian/tmp/Gau-91423.inp" -scrdir="/home/gaussian/tmp/"
 Entering Link 1 = /usr/local/g16/l1.exe PID=     91426.
  
 Copyright (c) 1988-2017, Gaussian, Inc.  All Rights Reserved.
  
 This is part of the Gaussian(R) 16 program.  It is based on
 the Gaussian(R) 09 system (copyright 2009, Gaussian, Inc.),
 the Gaussian(R) 03 system (copyright 2003, Gaussian, Inc.),
 the Gaussian(R) 98 system (copyright 1998, Gaussian, Inc.),
 the Gaussian(R) 94 system (copyright 1995, Gaussian, Inc.),
 the Gaussian 92(TM) system (copyright 1992, Gaussian, Inc.),
 the Gaussian 90(TM) system (copyright 1990, Gaussian, Inc.),
 the Gaussian 88(TM) system (copyright 1988, Gaussian, Inc.),
 the Gaussian 86(TM) system (copyright 1986, Carnegie Mellon
 University), and the Gaussian 82(TM) system (copyright 1983,
 Carnegie Mellon University). Gaussian is a federally registered
 trademark of Gaussian, Inc.
  
 This software contains proprietary and confidential information,
 including trade secrets, belonging to Gaussian, Inc.
  
 This software is provided under written license and may be
 used, copied, transmitted, or stored only in accord with that
 written license.
  
 The following legend is applicable only to US Government
 contracts under FAR:
  
                    RESTRICTED RIGHTS LEGEND
  
 Use, reproduction and disclosure by the US Government is
 subject to restrictions as set forth in subparagraphs (a)
 and (c) of the Commercial Computer Software - Restricted
 Rights clause in FAR 52.227-19.
  
 Gaussian, Inc.
 340 Quinnipiac St., Bldg. 40, Wallingford CT 06492
  
  
 ---------------------------------------------------------------
 Warning -- This program may not be used in any manner that
 competes with the business of Gaussian, Inc. or will provide
 assistance to any competitor of Gaussian, Inc.  The licensee
 of this program is prohibited from giving any competitor of
 Gaussian, Inc. access to this program.  By using this program,
 the user acknowledges that Gaussian, Inc. is engaged in the
 business of creating and licensing software in the field of
 computational chemistry and represents and warrants to the
 licensee that it is not a competitor of Gaussian, Inc. and that
 it will not use this program in any manner prohibited above.
 ---------------------------------------------------------------
  

 Cite this work as:
 Gaussian 16, Revision B.01,
 M. J. Frisch, G. W. Trucks, H. B. Schlegel, G. E. Scuseria, 
 M. A. Robb, J. R. Cheeseman, G. Scalmani, V. Barone, 
 G. A. Petersson, H. Nakatsuji, X. Li, M. Caricato, A. V. Marenich, 
 J. Bloino, B. G. Janesko, R. Gomperts, B. Mennucci, H. P. Hratchian, 
 J. V. Ortiz, A. F. Izmaylov, J. L. Sonnenberg, D. Williams-Young, 
 F. Ding, F. Lipparini, F. Egidi, J. Goings, B. Peng, A. Petrone, 
 T. Henderson, D. Ranasinghe, V. G. Zakrzewski, J. Gao, N. Rega, 
 G. Zheng, W. Liang, M. Hada, M. Ehara, K. Toyota, R. Fukuda, 
 J. Hasegawa, M. Ishida, T. Nakajima, Y. Honda, O. Kitao, H. Nakai, 
 T. Vreven, K. Throssell, J. A. Montgomery, Jr., J. E. Peralta, 
 F. Ogliaro, M. J. Bearpark, J. J. Heyd, E. N. Brothers, K. N. Kudin, 
 V. N. Staroverov, T. A. Keith, R. Kobayashi, J. Normand, 
 K. Raghavachari, A. P. Rendell, J. C. Burant, S. S. Iyengar, 
 J. Tomasi, M. Cossi, J. M. Millam, M. Klene, C. Adamo, R. Cammi, 
 J. W. Ochterski, R. L. Martin, K. Morokuma, O. Farkas, 
 J. B. Foresman, and D. J. Fox, Gaussian, Inc., Wallingford CT, 2016.
 
 ******************************************
 Gaussian 16:  EM64L-G16RevB.01 20-Dec-2017
                17-Jun-2025 
 ******************************************
 %chk=NH3_BF3_adduct_sp.chk
 -------------------------------------
 # hf/3-21g pop=full geom=connectivity
 -------------------------------------
 1/38=1,57=2,172=1/1;
 2/12=2,17=6,18=5,40=1/2;
 3/5=5,11=9,25=1,30=1/1,2,3;
 4//1;
 5/5=2,38=5/2;
 6/7=3,28=1/1;
 99/5=1,9=1/99;
 -------------------
 Title Card Required
 -------------------
 Symbolic Z-matrix:
 Charge =  0 Multiplicity = 1
 B                     0.20757   0.00001   0.00002 
 F                     0.54666   0.39956   1.27318 
 F                     0.54719   0.9028   -0.98243 
 F                     0.54712  -1.3023   -0.29044 
 N                    -1.48321  -0.00005  -0.00028 
 H                    -1.80796   0.55211  -0.78316 
 H                    -1.8082    0.40176   0.86931 
 H                    -1.80786  -0.95414  -0.08707 
 
                          Input orientation:                          
 ---------------------------------------------------------------------
 Center     Atomic      Atomic             Coordinates (Angstroms)
 Number     Number       Type             X           Y           Z
 ---------------------------------------------------------------------
      1          5           0        0.207565    0.000007    0.000016
      2          9           0        0.546657    0.399557    1.273183
      3          9           0        0.547186    0.902801   -0.982433
      4          9           0        0.547117   -1.302296   -0.290441
      5          7           0       -1.483208   -0.000046   -0.000278
      6          1           0       -1.807957    0.552113   -0.783159
      7          1           0       -1.808195    0.401757    0.869306
      8          1           0       -1.807860   -0.954144   -0.087070
 ---------------------------------------------------------------------
                    Distance matrix (angstroms):
                    1          2          3          4          5
     1  B    0.000000
     2  F    1.376800   0.000000
     3  F    1.376803   2.311073   0.000000
     4  F    1.376827   2.311109   2.311127   0.000000
     5  N    1.690773   2.429349   2.429457   2.429459   0.000000
     6  H    2.231706   3.129860   2.389433   3.037759   1.011555
     7  H    2.231671   2.389236   3.037730   3.129905   1.011553
     8  H    2.231575   3.037523   3.129882   2.389244   1.011551
                    6          7          8
     6  H    0.000000
     7  H    1.659291   0.000000
     8  H    1.659322   1.659254   0.000000
 Stoichiometry    BF3H3N
 Framework group  C1[X(BF3H3N)]
 Deg. of freedom    18
 Full point group                 C1      NOp   1
 Largest Abelian subgroup         C1      NOp   1
 Largest concise Abelian subgroup C1      NOp   1
                         Standard orientation:                         
 ---------------------------------------------------------------------
 Center     Atomic      Atomic             Coordinates (Angstroms)
 Number     Number       Type             X           Y           Z
 ---------------------------------------------------------------------
      1          5           0       -0.207565   -0.000007    0.000016
      2          9           0       -0.546657   -0.404818    1.271520
      3          9           0       -0.547187   -0.898731   -0.986157
      4          9           0       -0.547117    1.303486   -0.285053
      5          7           0        1.483208    0.000046   -0.000278
      6          1           0        1.807956   -0.548871   -0.785436
      7          1           0        1.808195   -0.405349    0.867637
      8          1           0        1.807860    0.954495   -0.083125
 ---------------------------------------------------------------------
 Rotational constants (GHZ):           4.8478078           4.6058686           4.6057522
 Standard basis: 3-21G (6D, 7F)
 There are    51 symmetry adapted cartesian basis functions of A   symmetry.
 There are    51 symmetry adapted basis functions of A   symmetry.
    51 basis functions,    84 primitive gaussians,    51 cartesian basis functions
    21 alpha electrons       21 beta electrons
       nuclear repulsion energy       190.3975174371 Hartrees.
 NAtoms=    8 NActive=    8 NUniq=    8 SFac= 1.00D+00 NAtFMM=   60 NAOKFM=F Big=F
 Integral buffers will be    131072 words long.
 Raffenetti 1 integral format.
 Two-electron integral symmetry is turned on.
 One-electron integrals computed using PRISM.
 NBasis=    51 RedAO= T EigKep=  4.10D-02  NBF=    51
 NBsUse=    51 1.00D-06 EigRej= -1.00D+00 NBFU=    51
 ExpMin= 1.24D-01 ExpMax= 4.14D+02 ExpMxC= 4.14D+02 IAcc=3 IRadAn=         5 AccDes= 0.00D+00
 Harris functional with IExCor=  205 and IRadAn=       5 diagonalized for initial guess.
 HarFok:  IExCor=  205 AccDes= 0.00D+00 IRadAn=         5 IDoV= 1 UseB2=F ITyADJ=14
 ICtDFT=  3500011 ScaDFX=  1.000000  1.000000  1.000000  1.000000
 FoFCou: FMM=F IPFlag=           0 FMFlag=      100000 FMFlg1=           0
         NFxFlg=           0 DoJE=T BraDBF=F KetDBF=T FulRan=T
         wScrn=  0.000000 ICntrl=       500 IOpCl=  0 I1Cent=   200000004 NGrid=           0
         NMat0=    1 NMatS0=      1 NMatT0=    0 NMatD0=    1 NMtDS0=    0 NMtDT0=    0
 Petite list used in FoFCou.
 Keep R1 ints in memory in canonical form, NReq=1693774.
 Requested convergence on RMS density matrix=1.00D-08 within 128 cycles.
 Requested convergence on MAX density matrix=1.00D-06.
 Requested convergence on             energy=1.00D-06.
 No special actions if energy rises.
 SCF Done:  E(RHF) =  -377.405118498     A.U. after   10 cycles
            NFock= 10  Conv=0.68D-08     -V/T= 2.0041

 **********************************************************************

            Population analysis using the SCF Density.

 **********************************************************************

 Orbital symmetries:
       Occupied  (A) (A) (A) (A) (A) (A) (A) (A) (A) (A) (A) (A)
                 (A) (A) (A) (A) (A) (A) (A) (A) (A)
       Virtual   (A) (A) (A) (A) (A) (A) (A) (A) (A) (A) (A) (A)
                 (A) (A) (A) (A) (A) (A) (A) (A) (A) (A) (A) (A)
                 (A) (A) (A) (A) (A) (A)
 The electronic state is 1-A.
 Alpha  occ. eigenvalues --  -26.11205 -26.11125 -26.11125 -15.59229  -7.68731
 Alpha  occ. eigenvalues --   -1.57562  -1.52619  -1.52619  -1.27793  -0.76987
 Alpha  occ. eigenvalues --   -0.76348  -0.76346  -0.70004  -0.68032  -0.68032
 Alpha  occ. eigenvalues --   -0.59053  -0.59053  -0.57092  -0.57091  -0.55467
 Alpha  occ. eigenvalues --   -0.54309
 Alpha virt. eigenvalues --    0.20012   0.27581   0.27582   0.42663   0.45529
 Alpha virt. eigenvalues --    0.45530   0.48527   0.69713   0.80688   0.80688
 Alpha virt. eigenvalues --    0.96919   1.15478   1.15482   1.20745   1.47724
 Alpha virt. eigenvalues --    1.47726   1.55153   2.27487   2.27490   2.37662
 Alpha virt. eigenvalues --    2.39262   2.39263   2.45444   2.55542   2.55907
 Alpha virt. eigenvalues --    2.55909   2.77031   4.03767   4.03771   4.47230
     Molecular Orbital Coefficients:
                           1         2         3         4         5
                           O         O         O         O         O
     Eigenvalues --   -26.11205 -26.11125 -26.11125 -15.59229  -7.68731
   1 1   B  1S         -0.00104   0.00000  -0.00000  -0.00052   0.98717
   2        2S          0.00145  -0.00000   0.00000   0.00078   0.09228
   3        2PX        -0.00184   0.00000  -0.00000   0.00287  -0.00107
   4        2PY         0.00000  -0.00368  -0.00156   0.00000  -0.00000
   5        2PZ        -0.00001  -0.00156   0.00368  -0.00000   0.00000
   6        3S          0.02409  -0.00002   0.00007   0.01089  -0.01913
   7        3PX         0.00254  -0.00000   0.00001   0.00691  -0.00061
   8        3PY         0.00000  -0.01019  -0.00421  -0.00000  -0.00000
   9        3PZ        -0.00003  -0.00421   0.01019  -0.00000   0.00000
  10 2   F  1S          0.56491  -0.07071   0.80025   0.00009   0.00006
  11        2S          0.05713  -0.00697   0.07892   0.00088   0.00243
  12        2PX         0.00045  -0.00006   0.00066   0.00029   0.00021
  13        2PY         0.00053  -0.00088   0.00045  -0.00000   0.00041
  14        2PZ        -0.00167  -0.00012  -0.00166  -0.00002  -0.00129
  15        3S         -0.02403   0.00254  -0.02884  -0.00281  -0.00580
  16        3PX        -0.00125   0.00016  -0.00162  -0.00162  -0.00172
  17        3PY        -0.00154   0.00329  -0.00083  -0.00014  -0.00263
  18        3PZ         0.00483   0.00071   0.00355   0.00050   0.00829
  19 3   F  1S          0.56859   0.72642  -0.33698   0.00009   0.00006
  20        2S          0.05749   0.07163  -0.03323   0.00088   0.00243
  21        2PX         0.00046   0.00060  -0.00028   0.00029   0.00021
  22        2PY         0.00119   0.00078  -0.00107   0.00002   0.00091
  23        2PZ         0.00130   0.00141  -0.00000   0.00001   0.00100
  24        3S         -0.02416  -0.02617   0.01214  -0.00281  -0.00580
  25        3PX        -0.00126  -0.00148   0.00067  -0.00162  -0.00173
  26        3PY        -0.00342  -0.00116   0.00327  -0.00037  -0.00586
  27        3PZ        -0.00376  -0.00340  -0.00093  -0.00037  -0.00642
  28 4   F  1S          0.56785  -0.65703  -0.45869   0.00009   0.00006
  29        2S          0.05742  -0.06479  -0.04523   0.00088   0.00243
  30        2PX         0.00046  -0.00054  -0.00038   0.00029   0.00021
  31        2PY        -0.00172   0.00127   0.00112  -0.00001  -0.00132
  32        2PZ         0.00037  -0.00079   0.00049   0.00001   0.00029
  33        3S         -0.02413   0.02368   0.01651  -0.00281  -0.00580
  34        3PX        -0.00125   0.00133   0.00094  -0.00162  -0.00173
  35        3PY         0.00497  -0.00250  -0.00261   0.00050   0.00849
  36        3PZ        -0.00107   0.00251  -0.00225  -0.00013  -0.00186
  37 5   N  1S          0.00037  -0.00000   0.00000   0.98579   0.00050
  38        2S          0.00237  -0.00000   0.00001   0.10075   0.00431
  39        2PX        -0.00091   0.00000  -0.00000   0.00025  -0.00099
  40        2PY         0.00000  -0.00057  -0.00029   0.00000   0.00000
  41        2PZ        -0.00000  -0.00029   0.00057   0.00000   0.00000
  42        3S         -0.00698   0.00001  -0.00002  -0.05588  -0.00888
  43        3PX         0.00607  -0.00000   0.00002   0.00208   0.00470
  44        3PY        -0.00000   0.00306   0.00148  -0.00000  -0.00000
  45        3PZ         0.00001   0.00148  -0.00306  -0.00000  -0.00000
  46 6   H  1S          0.00062   0.00075  -0.00053   0.00214   0.00077
  47        2S         -0.00191  -0.00016   0.00045   0.00629   0.00212
  48 7   H  1S          0.00062   0.00009   0.00092   0.00214   0.00077
  49        2S         -0.00191  -0.00031  -0.00037   0.00629   0.00212
  50 8   H  1S          0.00062  -0.00084  -0.00038   0.00214   0.00077
  51        2S         -0.00191   0.00048  -0.00009   0.00629   0.00212
                           6         7         8         9        10
                           O         O         O         O         O
     Eigenvalues --    -1.57562  -1.52619  -1.52619  -1.27793  -0.76987
   1 1   B  1S         -0.08546   0.00000  -0.00000  -0.01694   0.14049
   2        2S          0.08566  -0.00000   0.00000   0.02353  -0.22345
   3        2PX        -0.02260  -0.00002  -0.00002   0.04301  -0.02966
   4        2PY        -0.00001  -0.04492   0.07346   0.00000  -0.00006
   5        2PZ         0.00001  -0.07347  -0.04492  -0.00001  -0.00001
   6        3S          0.01976   0.00000   0.00000  -0.01369  -0.07858
   7        3PX        -0.00651   0.00000   0.00000  -0.01297  -0.03649
   8        3PY         0.00000   0.00266  -0.00446   0.00000  -0.00001
   9        3PZ        -0.00000   0.00446   0.00266   0.00000   0.00001
  10 2   F  1S         -0.13784   0.13374   0.15452   0.01576  -0.04348
  11        2S          0.12917  -0.12758  -0.14742  -0.01622   0.04669
  12        2PX         0.00962  -0.00979  -0.01132   0.00941  -0.08090
  13        2PY         0.01107  -0.01282  -0.00450   0.00050  -0.05846
  14        2PZ        -0.03487   0.02273   0.02954  -0.00156   0.18321
  15        3S          0.43684  -0.42425  -0.49013  -0.04944   0.15976
  16        3PX         0.01566  -0.01336  -0.01542   0.01137  -0.08355
  17        3PY         0.01545  -0.01570  -0.00635   0.00031  -0.06543
  18        3PZ        -0.04869   0.02929   0.03760  -0.00113   0.20513
  19 3   F  1S         -0.13784  -0.20069   0.03854   0.01576  -0.04347
  20        2S          0.12916   0.19146  -0.03676  -0.01621   0.04668
  21        2PX         0.00963   0.01471  -0.00282   0.00940  -0.08094
  22        2PY         0.02466   0.02685   0.00017   0.00110  -0.12945
  23        2PZ         0.02702   0.02739  -0.01012   0.00121  -0.14213
  24        3S          0.43683   0.63661  -0.12229  -0.04943   0.15972
  25        3PX         0.01568   0.02005  -0.00387   0.01137  -0.08360
  26        3PY         0.03444   0.03421  -0.00047   0.00082  -0.14495
  27        3PZ         0.03772   0.03515  -0.01230   0.00083  -0.15913
  28 4   F  1S         -0.13781   0.06696  -0.19309   0.01576  -0.04350
  29        2S          0.12914  -0.06389   0.18421  -0.01621   0.04670
  30        2PX         0.00963  -0.00491   0.01415   0.00940  -0.08103
  31        2PY        -0.03572   0.01106  -0.03651  -0.00160   0.18790
  32        2PZ         0.00785  -0.00929   0.00566   0.00035  -0.04101
  33        3S          0.43676  -0.21238   0.61252  -0.04943   0.15982
  34        3PX         0.01567  -0.00668   0.01930   0.01137  -0.08369
  35        3PY        -0.04988   0.01434  -0.04663  -0.00113   0.21036
  36        3PZ         0.01096  -0.01099   0.00756   0.00029  -0.04594
  37 5   N  1S         -0.01635   0.00000   0.00000  -0.22219  -0.00147
  38        2S          0.01002  -0.00000   0.00000   0.19848   0.01168
  39        2PX        -0.00736   0.00000  -0.00000   0.03686   0.20522
  40        2PY        -0.00000  -0.00218   0.00377   0.00001  -0.00034
  41        2PZ         0.00000  -0.00377  -0.00218  -0.00000  -0.00004
  42        3S          0.05309  -0.00001  -0.00000   0.70261  -0.02800
  43        3PX        -0.02092   0.00000  -0.00000   0.02071   0.24122
  44        3PY        -0.00000  -0.00407   0.00544   0.00001  -0.00034
  45        3PZ         0.00000  -0.00545  -0.00407   0.00000  -0.00005
  46 6   H  1S          0.00404   0.00012  -0.00019   0.10959   0.04308
  47        2S          0.00395   0.00734  -0.00129   0.01112   0.03094
  48 7   H  1S          0.00404  -0.00023  -0.00001   0.10959   0.04303
  49        2S          0.00395  -0.00479  -0.00572   0.01111   0.03092
  50 8   H  1S          0.00404   0.00010   0.00020   0.10959   0.04271
  51        2S          0.00395  -0.00256   0.00701   0.01111   0.03073
                          11        12        13        14        15
                           O         O         O         O         O
     Eigenvalues --    -0.76348  -0.76346  -0.70004  -0.68032  -0.68032
   1 1   B  1S          0.00011  -0.00007  -0.02301   0.00000  -0.00000
   2        2S         -0.00018   0.00012   0.07425  -0.00000   0.00000
   3        2PX         0.00000   0.00002  -0.20077  -0.00002  -0.00004
   4        2PY         0.05940  -0.04409   0.00002  -0.23684   0.05339
   5        2PZ         0.04408   0.05940   0.00003  -0.05339  -0.23684
   6        3S         -0.00006   0.00004  -0.04629  -0.00002   0.00001
   7        3PX        -0.00002   0.00002  -0.15101  -0.00001   0.00001
   8        3PY         0.00461  -0.00402  -0.00000  -0.05315   0.01243
   9        3PZ         0.00402   0.00461   0.00003  -0.01243  -0.05315
  10 2   F  1S          0.00588   0.01801   0.01439   0.00312  -0.03707
  11        2S         -0.00561  -0.01733  -0.01456  -0.00283   0.03342
  12        2PX         0.02184   0.06929  -0.17434   0.00553  -0.07618
  13        2PY         0.04749   0.00126   0.04825  -0.21428  -0.10539
  14        2PZ        -0.00457  -0.05688  -0.15154  -0.09398   0.26299
  15        3S         -0.02425  -0.07360  -0.06005  -0.01443   0.17241
  16        3PX         0.02340   0.07449  -0.17788   0.00539  -0.07623
  17        3PY         0.05185  -0.00093   0.05301  -0.24005  -0.11300
  18        3PZ        -0.00242  -0.05559  -0.16629  -0.10374   0.27860
  19 3   F  1S         -0.01857  -0.00384   0.01439   0.03054   0.02124
  20        2S          0.01785   0.00373  -0.01456  -0.02753  -0.01917
  21        2PX        -0.07097  -0.01561  -0.17428   0.06333   0.04298
  22        2PY        -0.03231  -0.04125   0.10718   0.05733   0.25080
  23        2PZ        -0.04737   0.02306   0.11762   0.26218  -0.00866
  24        3S          0.07597   0.01555  -0.06007  -0.14209  -0.09871
  25        3PX        -0.07626  -0.01685  -0.17781   0.06345   0.04288
  26        3PY        -0.03028  -0.04470   0.11758   0.05508   0.27414
  27        3PZ        -0.04653   0.02670   0.12911   0.28337  -0.01656
  28 4   F  1S          0.01258  -0.01410   0.01440  -0.03367   0.01583
  29        2S         -0.01212   0.01352  -0.01456   0.03036  -0.01425
  30        2PX         0.04898  -0.05355  -0.17425  -0.06890   0.03330
  31        2PY        -0.02901   0.04891  -0.15546   0.22998  -0.16250
  32        2PZ         0.04302   0.01998   0.03406  -0.15109  -0.18130
  33        3S         -0.05134   0.05779  -0.06009   0.15653  -0.07370
  34        3PX         0.05269  -0.05750  -0.17778  -0.06888   0.03344
  35        3PY        -0.02689   0.04808  -0.17061   0.24277  -0.17500
  36        3PZ         0.04650   0.02356   0.03732  -0.16574  -0.20425
  37 5   N  1S          0.00000   0.00000   0.00204   0.00000   0.00000
  38        2S          0.00000  -0.00001  -0.00956  -0.00000  -0.00000
  39        2PX         0.00015  -0.00003   0.20729   0.00001   0.00001
  40        2PY         0.30997  -0.22491   0.00004   0.10579  -0.02234
  41        2PZ         0.22491   0.30997  -0.00001   0.02233   0.10579
  42        3S         -0.00004   0.00001   0.02741   0.00000  -0.00001
  43        3PX         0.00017  -0.00004   0.21020   0.00001   0.00000
  44        3PY         0.30739  -0.22367   0.00005   0.09189  -0.01608
  45        3PZ         0.22367   0.30740  -0.00001   0.01607   0.09189
  46 6   H  1S         -0.22357  -0.07731   0.03545  -0.05327  -0.05009
  47        2S         -0.13562  -0.04795   0.02806  -0.05291  -0.04254
  48 7   H  1S          0.04489   0.23226   0.03548  -0.01674   0.07118
  49        2S          0.02633   0.14142   0.02807  -0.01038   0.06711
  50 8   H  1S          0.17877  -0.15501   0.03548   0.07003  -0.02110
  51        2S          0.10935  -0.09352   0.02807   0.06331  -0.02457
                          16        17        18        19        20
                           O         O         O         O         O
     Eigenvalues --    -0.59053  -0.59053  -0.57092  -0.57091  -0.55467
   1 1   B  1S         -0.00000  -0.00000   0.00000   0.00000  -0.00005
   2        2S         -0.00000   0.00000  -0.00000  -0.00000   0.00062
   3        2PX        -0.00002  -0.00001   0.00001  -0.00001  -0.00121
   4        2PY        -0.04965   0.06362   0.05627   0.02732   0.00000
   5        2PZ        -0.06362  -0.04965   0.02732  -0.05627   0.00000
   6        3S          0.00001   0.00002   0.00000  -0.00001  -0.00085
   7        3PX         0.00003   0.00004  -0.00002   0.00001   0.00132
   8        3PY         0.06145  -0.07916  -0.11409  -0.05553  -0.00001
   9        3PZ         0.07916   0.06146  -0.05554   0.11409  -0.00001
  10 2   F  1S         -0.00401  -0.00590   0.00016  -0.00109   0.00005
  11        2S          0.00949   0.01389  -0.00159   0.01089  -0.00015
  12        2PX        -0.17548  -0.25875  -0.04166   0.27599   0.00372
  13        2PY         0.19531  -0.17165  -0.19198  -0.10776  -0.30266
  14        2PZ         0.12704   0.04076  -0.10086   0.23380  -0.09737
  15        3S         -0.00418  -0.00594   0.00538  -0.03657   0.00016
  16        3PX        -0.20723  -0.30560  -0.04739   0.31393   0.00418
  17        3PY         0.22192  -0.19458  -0.20322  -0.12229  -0.34131
  18        3PZ         0.14376   0.04557  -0.11084   0.27249  -0.11000
  19 3   F  1S          0.00712  -0.00053  -0.00103   0.00041   0.00005
  20        2S         -0.01678   0.00127   0.01023  -0.00406  -0.00015
  21        2PX         0.31190  -0.02253   0.25975  -0.10190   0.00368
  22        2PY         0.06003  -0.20512  -0.22043  -0.08446   0.23560
  23        2PZ         0.09344   0.17601  -0.12422   0.20546  -0.21344
  24        3S          0.00723  -0.00065  -0.03436   0.01363   0.00015
  25        3PX         0.36836  -0.02660   0.29545  -0.11590   0.00415
  26        3PY         0.06759  -0.23284  -0.25029  -0.08369   0.26586
  27        3PZ         0.10536   0.19987  -0.14950   0.22554  -0.24060
  28 4   F  1S         -0.00310   0.00643   0.00087   0.00068   0.00005
  29        2S          0.00729  -0.01517  -0.00863  -0.00682  -0.00015
  30        2PX        -0.13632   0.28145  -0.21819  -0.17400   0.00380
  31        2PY         0.09866  -0.07121  -0.22640  -0.12073   0.06699
  32        2PZ         0.22749   0.13727  -0.08789   0.19953   0.31076
  33        3S         -0.00305   0.00658   0.02898   0.02294   0.00016
  34        3PX        -0.16102   0.33239  -0.24817  -0.19792   0.00428
  35        3PY         0.11161  -0.08003  -0.26021  -0.14374   0.07538
  36        3PZ         0.25832   0.15573  -0.08938   0.21567   0.35054
  37 5   N  1S          0.00000   0.00000  -0.00000  -0.00000   0.00112
  38        2S          0.00000   0.00000   0.00000   0.00000  -0.00030
  39        2PX         0.00001   0.00002  -0.00001  -0.00004   0.00531
  40        2PY         0.03455  -0.04762   0.04415   0.02252   0.00000
  41        2PZ         0.04761   0.03456   0.02251  -0.04415   0.00000
  42        3S         -0.00001  -0.00003   0.00002   0.00002  -0.00820
  43        3PX         0.00002   0.00003  -0.00001  -0.00005   0.00557
  44        3PY         0.00942  -0.02596   0.04739   0.02632  -0.00000
  45        3PZ         0.02594   0.00943   0.02631  -0.04739   0.00000
  46 6   H  1S         -0.04709  -0.00191  -0.02991   0.01625   0.00089
  47        2S          0.01111  -0.00745  -0.00425   0.00531   0.00249
  48 7   H  1S          0.02190   0.04175   0.00087  -0.03404   0.00089
  49        2S         -0.01200  -0.00590  -0.00248  -0.00633   0.00250
  50 8   H  1S          0.02519  -0.03983   0.02903   0.01777   0.00089
  51        2S          0.00088   0.01336   0.00672   0.00102   0.00250
                          21        22        23        24        25
                           O         V         V         V         V
     Eigenvalues --    -0.54309   0.20012   0.27581   0.27582   0.42663
   1 1   B  1S         -0.00514   0.01682  -0.00000   0.00001   0.06571
   2        2S          0.02000   0.01888   0.00000  -0.00001   0.10396
   3        2PX        -0.07931  -0.02140  -0.00001  -0.00003   0.30546
   4        2PY        -0.00000  -0.00001  -0.00165  -0.05869  -0.00001
   5        2PZ         0.00002   0.00001  -0.05870   0.00165  -0.00009
   6        3S          0.02998  -0.07050   0.00002  -0.00002  -0.63439
   7        3PX         0.15374   0.09892  -0.00003  -0.00003   1.16776
   8        3PY         0.00000  -0.00000  -0.01265  -0.11421   0.00001
   9        3PZ        -0.00003  -0.00000  -0.11423   0.01269  -0.00041
  10 2   F  1S          0.00113  -0.01211  -0.00360   0.00093  -0.04657
  11        2S         -0.00529   0.01154  -0.00150   0.00171   0.03134
  12        2PX         0.22323   0.03522  -0.00489   0.00604  -0.11689
  13        2PY         0.02114   0.00126   0.02262   0.01703   0.03260
  14        2PZ        -0.04886  -0.00827  -0.02655   0.01769  -0.10280
  15        3S          0.00735   0.06884   0.04546  -0.01788   0.37014
  16        3PX         0.24205   0.03710  -0.01281   0.00870  -0.19868
  17        3PY         0.02697   0.00516   0.03178   0.02550   0.06445
  18        3PZ        -0.06486  -0.02185  -0.03946   0.02628  -0.20281
  19 3   F  1S          0.00113  -0.01211   0.00261   0.00265  -0.04656
  20        2S         -0.00529   0.01154   0.00223   0.00044   0.03134
  21        2PX         0.22320   0.03522   0.00766   0.00121  -0.11686
  22        2PY         0.03170   0.00653  -0.02649   0.00180   0.07275
  23        2PZ         0.04266   0.00521  -0.01132  -0.03141   0.07966
  24        3S          0.00735   0.06884  -0.03823  -0.03043   0.37001
  25        3PX         0.24202   0.03710   0.01391   0.00673  -0.19863
  26        3PY         0.04264   0.01635  -0.03990   0.00192   0.14343
  27        3PZ         0.05570   0.01537  -0.01588  -0.04539   0.15726
  28 4   F  1S          0.00113  -0.01212   0.00099  -0.00358  -0.04657
  29        2S         -0.00530   0.01154  -0.00073  -0.00216   0.03134
  30        2PX         0.22315   0.03523  -0.00278  -0.00725  -0.11686
  31        2PY        -0.05285  -0.00779   0.01126  -0.03312  -0.10536
  32        2PZ         0.00605   0.00304   0.02359   0.00632   0.02324
  33        3S          0.00735   0.06886  -0.00727   0.04830   0.37008
  34        3PX         0.24196   0.03711  -0.00112  -0.01543  -0.19861
  35        3PY        -0.06962  -0.02150   0.01637  -0.04836  -0.20790
  36        3PZ         0.00900   0.00645   0.03440   0.01085   0.04570
  37 5   N  1S          0.05039  -0.14460   0.00000   0.00000   0.03288
  38        2S         -0.03267   0.05175  -0.00000   0.00000  -0.00825
  39        2PX         0.32914   0.13007  -0.00005   0.00002   0.04753
  40        2PY         0.00005   0.00001   0.01155  -0.28413  -0.00000
  41        2PZ        -0.00007  -0.00003  -0.28413  -0.01156   0.00000
  42        3S         -0.30333   1.50878  -0.00005  -0.00004  -0.37165
  43        3PX         0.44351   0.37937  -0.00016   0.00008   0.29718
  44        3PY         0.00005   0.00002   0.03547  -0.97252   0.00000
  45        3PZ        -0.00008  -0.00008  -0.97251  -0.03549  -0.00003
  46 6   H  1S          0.04174  -0.04412  -0.08683  -0.06272   0.00175
  47        2S          0.03644  -0.79619  -1.15903  -0.87177  -0.08921
  48 7   H  1S          0.04171  -0.04411   0.09775  -0.04384   0.00178
  49        2S          0.03643  -0.79609   1.33457  -0.56783  -0.08919
  50 8   H  1S          0.04174  -0.04411  -0.01093   0.10657   0.00177
  51        2S          0.03645  -0.79608  -0.17545   1.43973  -0.08915
                          26        27        28        29        30
                           V         V         V         V         V
     Eigenvalues --     0.45529   0.45530   0.48527   0.69713   0.80688
   1 1   B  1S          0.00012  -0.00006  -0.18505  -0.08408   0.00001
   2        2S          0.00000   0.00003   0.04600  -0.23351   0.00013
   3        2PX        -0.00022   0.00018   0.53275  -1.05956  -0.00008
   4        2PY         0.01056   0.17699  -0.00001   0.00005   1.25521
   5        2PZ         0.17698  -0.01056  -0.00003   0.00024  -0.37493
   6        3S         -0.00110   0.00052   1.63486   1.22202  -0.00030
   7        3PX         0.00015   0.00013   0.46586   1.58042  -0.00007
   8        3PY         0.05919   1.39158  -0.00047   0.00002  -0.81820
   9        3PZ         1.39155  -0.05918   0.00087  -0.00023   0.24065
  10 2   F  1S          0.07293  -0.02676   0.04818   0.02660  -0.01275
  11        2S         -0.02751   0.01005  -0.03496  -0.02614   0.02325
  12        2PX        -0.06127   0.02213  -0.08827  -0.05127   0.04332
  13        2PY        -0.07185  -0.14593  -0.02314  -0.02177   0.01591
  14        2PZ         0.03207  -0.06746   0.07116   0.06646  -0.12917
  15        3S         -0.69697   0.25563  -0.38179  -0.18591  -0.00926
  16        3PX        -0.10829   0.03958  -0.15022  -0.16821   0.05091
  17        3PY        -0.14455  -0.24129  -0.04727  -0.03964   0.07864
  18        3PZ         0.12416  -0.14056   0.14707   0.12295  -0.18600
  19 3   F  1S         -0.05971  -0.04979   0.04810   0.02659  -0.00931
  20        2S          0.02251   0.01881  -0.03494  -0.02614   0.01711
  21        2PX         0.04989   0.04202  -0.08825  -0.05131   0.03179
  22        2PY         0.10978  -0.07274  -0.04991  -0.04667   0.04741
  23        2PZ        -0.04104   0.11409  -0.05564  -0.05206   0.09035
  24        3S          0.57037   0.47587  -0.38103  -0.18580  -0.01034
  25        3PX         0.08861   0.07405  -0.15018  -0.16826   0.03838
  26        3PY         0.22767  -0.09063  -0.10343  -0.08662   0.11873
  27        3PZ        -0.02635   0.23152  -0.11444  -0.09572   0.10079
  28 4   F  1S         -0.01333   0.07660   0.04809   0.02660   0.02204
  29        2S          0.00508  -0.02889  -0.03493  -0.02614  -0.04035
  30        2PX         0.01146  -0.06424  -0.08823  -0.05130  -0.07512
  31        2PY        -0.04451   0.04797   0.07311   0.06845   0.22176
  32        2PZ        -0.16174  -0.04005  -0.01558  -0.01439  -0.04665
  33        3S          0.12743  -0.73182  -0.38087  -0.18583   0.01976
  34        3PX         0.01987  -0.11380  -0.15014  -0.16826  -0.08929
  35        3PY        -0.08909   0.15641   0.15075   0.12627   0.34698
  36        3PZ        -0.27335  -0.08497  -0.03265  -0.02713  -0.07728
  37 5   N  1S         -0.00002   0.00002   0.05124   0.00336  -0.00000
  38        2S          0.00004  -0.00002  -0.07035   0.05591  -0.00000
  39        2PX        -0.00020   0.00011   0.30066   0.00080  -0.00001
  40        2PY         0.00248  -0.09984   0.00005   0.00001  -0.06319
  41        2PZ        -0.09984  -0.00246  -0.00010   0.00000   0.01775
  42        3S          0.00009  -0.00005  -0.26821  -0.36414   0.00004
  43        3PX        -0.00045   0.00027   0.75577   0.32213  -0.00006
  44        3PY         0.00846  -0.15847   0.00010   0.00002   0.01412
  45        3PZ        -0.15851  -0.00842  -0.00021  -0.00007  -0.00468
  46 6   H  1S          0.10663   0.06412  -0.06292   0.05078   0.00008
  47        2S         -0.01547  -0.03783  -0.27708  -0.37137  -0.06634
  48 7   H  1S         -0.10879   0.06023  -0.06305   0.05080   0.00158
  49        2S          0.04071   0.00523  -0.27709  -0.37140  -0.13406
  50 8   H  1S          0.00227  -0.12439  -0.06295   0.05084  -0.00168
  51        2S         -0.02475   0.03221  -0.27704  -0.37150   0.20057
                          31        32        33        34        35
                           V         V         V         V         V
     Eigenvalues --     0.80688   0.96919   1.15478   1.15482   1.20745
   1 1   B  1S          0.00000  -0.06995   0.00001  -0.00000  -0.01820
   2        2S         -0.00002   1.73476  -0.00002  -0.00016  -0.09661
   3        2PX         0.00030  -0.15083  -0.00004  -0.00004   0.07225
   4        2PY         0.37493  -0.00010  -0.02622  -0.02559   0.00002
   5        2PZ         1.25522   0.00008   0.02556  -0.02620   0.00002
   6        3S          0.00002  -1.71138   0.00001   0.00016   0.07529
   7        3PX        -0.00019  -0.30421   0.00011   0.00000  -0.05347
   8        3PY        -0.24066  -0.00003  -0.36334  -0.37767   0.00002
   9        3PZ        -0.81817  -0.00003   0.37767  -0.36336   0.00020
  10 2   F  1S          0.01810   0.00236   0.01607  -0.00866   0.00080
  11        2S         -0.03318  -0.01775  -0.01080   0.00704  -0.00364
  12        2PX        -0.06165  -0.00866   0.07084  -0.03179  -0.00342
  13        2PY        -0.07218  -0.05427   0.03091   0.07426  -0.00198
  14        2PZ         0.17416   0.17181   0.01793   0.02132   0.00655
  15        3S          0.01734   0.16405  -0.18860   0.09534  -0.00645
  16        3PX        -0.07361   0.00374  -0.02516   0.01442   0.00601
  17        3PY        -0.07765  -0.04123   0.00922   0.04436   0.00256
  18        3PZ         0.28430   0.12994   0.03717  -0.00391  -0.00974
  19 3   F  1S         -0.02008   0.00236  -0.00054   0.01825   0.00079
  20        2S          0.03672  -0.01775  -0.00070  -0.01289  -0.00363
  21        2PX         0.06841  -0.00871  -0.00790   0.07721  -0.00348
  22        2PY         0.14735  -0.12164   0.06365   0.00095  -0.00466
  23        2PZ         0.14263  -0.13291  -0.05535  -0.01142  -0.00498
  24        3S         -0.01674   0.16399   0.01171  -0.21104  -0.00632
  25        3PX         0.08101   0.00369   0.00008  -0.02904   0.00604
  26        3PY         0.20913  -0.09191   0.03468  -0.02246   0.00718
  27        3PZ         0.24417  -0.10068  -0.02967  -0.02935   0.00711
  28 4   F  1S          0.00198   0.00235  -0.01554  -0.00959   0.00080
  29        2S         -0.00354  -0.01774   0.01150   0.00584  -0.00363
  30        2PX        -0.00670  -0.00871  -0.06294  -0.04543  -0.00345
  31        2PY         0.01030   0.17590  -0.01622   0.00924   0.00665
  32        2PZ        -0.03171  -0.03887  -0.04704   0.06846  -0.00160
  33        3S         -0.00061   0.16406   0.17687   0.11565  -0.00637
  34        3PX        -0.00727   0.00371   0.02508   0.01460   0.00603
  35        3PY         0.03102   0.13309  -0.03592  -0.01111  -0.00973
  36        3PZ         0.01590  -0.02923  -0.01830   0.04124   0.00264
  37 5   N  1S          0.00000   0.00609  -0.00002   0.00003   0.10302
  38        2S         -0.00000  -0.06399   0.00004  -0.00004  -0.16632
  39        2PX        -0.00000  -0.02049  -0.00009   0.00002   0.21107
  40        2PY        -0.01777  -0.00002   0.02944   0.02492   0.00002
  41        2PZ        -0.06318  -0.00000  -0.02487   0.02951  -0.00008
  42        3S          0.00000   0.17555   0.00003  -0.00008  -0.19766
  43        3PX         0.00002  -0.21824   0.00001  -0.00010  -0.51849
  44        3PY         0.00469   0.00003   0.43652   0.46395  -0.00012
  45        3PZ         0.01411   0.00006  -0.46394   0.43648  -0.00016
  46 6   H  1S          0.00186   0.00624  -0.22265   1.09196   0.76947
  47        2S         -0.19316   0.19797   0.15644  -0.76822  -0.31310
  48 7   H  1S         -0.00101   0.00618   1.05652  -0.35292   0.77023
  49        2S          0.15408   0.19803  -0.74333   0.24851  -0.31361
  50 8   H  1S         -0.00090   0.00612  -0.83435  -0.73830   0.76991
  51        2S          0.03913   0.19811   0.58710   0.51933  -0.31340
                          36        37        38        39        40
                           V         V         V         V         V
     Eigenvalues --     1.47724   1.47726   1.55153   2.27487   2.27490
   1 1   B  1S         -0.00001  -0.00000  -0.04405   0.00000  -0.00000
   2        2S         -0.00005  -0.00006  -0.05897   0.00002   0.00002
   3        2PX         0.00003  -0.00004   0.19765  -0.00002  -0.00000
   4        2PY        -0.10053  -0.08732   0.00001  -0.07777   0.01271
   5        2PZ         0.08730  -0.10054  -0.00003  -0.01272  -0.07777
   6        3S          0.00016   0.00011   1.12726  -0.00004  -0.00004
   7        3PX         0.00012   0.00003   0.64668  -0.00003  -0.00008
   8        3PY        -0.16706  -0.15421   0.00007  -0.20483   0.04669
   9        3PZ         0.15420  -0.16710  -0.00010  -0.04669  -0.20482
  10 2   F  1S          0.01313  -0.00660   0.01381   0.00170  -0.01749
  11        2S         -0.02186   0.00850  -0.01707  -0.00730   0.07715
  12        2PX         0.04538  -0.03881   0.00545  -0.06227   0.65893
  13        2PY         0.03192   0.03736   0.00246  -0.36088  -0.12207
  14        2PZ         0.00210   0.01501  -0.01509  -0.14291   0.25768
  15        3S         -0.10631   0.06134  -0.14797  -0.00488   0.04916
  16        3PX        -0.04425   0.03098  -0.07362   0.05862  -0.62336
  17        3PY        -0.01070   0.01746  -0.01484   0.37633   0.13028
  18        3PZ         0.04226  -0.02067   0.04939   0.15094  -0.27769
  19 3   F  1S         -0.00084   0.01468   0.01381   0.01430   0.01022
  20        2S          0.00356  -0.02319  -0.01708  -0.06316  -0.04491
  21        2PX         0.01089   0.05868   0.00541  -0.53937  -0.38339
  22        2PY         0.03633   0.00042   0.01182  -0.01164   0.34452
  23        2PZ        -0.03483   0.01058   0.00969   0.32391  -0.09134
  24        3S          0.00000  -0.12274  -0.14794  -0.04013  -0.02880
  25        3PX        -0.00471  -0.05383  -0.07363   0.51038   0.36244
  26        3PY         0.00768  -0.03164  -0.03534   0.00753  -0.36385
  27        3PZ        -0.00685  -0.03903  -0.03751  -0.34340   0.09091
  28 4   F  1S         -0.01229  -0.00807   0.01382  -0.01600   0.00727
  29        2S          0.01830   0.01468  -0.01708   0.07047  -0.03225
  30        2PX        -0.05626  -0.01989   0.00544   0.60165  -0.27559
  31        2PY         0.00213   0.01508  -0.01430   0.21792  -0.19125
  32        2PZ        -0.02016   0.04481   0.00540  -0.21221  -0.32088
  33        3S          0.10624   0.06137  -0.14797   0.04501  -0.02034
  34        3PX         0.04895   0.02284  -0.07364  -0.56900   0.26097
  35        3PY        -0.04401  -0.02301   0.05017  -0.23608   0.20263
  36        3PZ         0.00177   0.01266  -0.01183   0.22340   0.33451
  37 5   N  1S          0.00001  -0.00000   0.03644  -0.00000  -0.00000
  38        2S         -0.00003   0.00000  -0.24668  -0.00001   0.00016
  39        2PX         0.00008  -0.00012  -1.07632   0.00002   0.00000
  40        2PY        -0.84602  -0.71756   0.00002  -0.09693   0.00528
  41        2PZ         0.71755  -0.84602   0.00013  -0.00530  -0.09697
  42        3S          0.00001   0.00002   0.28753   0.00001  -0.00021
  43        3PX        -0.00012   0.00017   1.64636  -0.00005  -0.00002
  44        3PY         1.18170   1.00676  -0.00009   0.23984  -0.01917
  45        3PZ        -1.00670   1.18177  -0.00020   0.01922   0.23992
  46 6   H  1S         -0.00150  -0.05112   0.15501   0.12582   0.10796
  47        2S         -0.07112   0.83830  -0.55407  -0.11549  -0.05762
  48 7   H  1S         -0.04354   0.02688   0.15502   0.03055  -0.16294
  49        2S          0.76151  -0.35767  -0.55411   0.00777   0.12895
  50 8   H  1S          0.04515   0.02421   0.15511  -0.15639   0.05501
  51        2S         -0.69060  -0.48074  -0.55399   0.10777  -0.07117
                          41        42        43        44        45
                           V         V         V         V         V
     Eigenvalues --     2.37662   2.39262   2.39263   2.45444   2.55542
   1 1   B  1S          0.00064   0.00000   0.00000   0.01692   0.01918
   2        2S         -0.00457   0.00008  -0.00006   0.73399   0.11707
   3        2PX        -0.00159  -0.00000  -0.00007  -0.14746  -0.16684
   4        2PY         0.00005  -0.28345   0.01132   0.00001   0.00070
   5        2PZ         0.00006  -0.01132  -0.28347   0.00003  -0.00101
   6        3S         -0.01267  -0.00001  -0.00001  -0.03393   0.01551
   7        3PX        -0.00364  -0.00001  -0.00006  -0.12325   0.45498
   8        3PY         0.00008  -0.29355   0.01191   0.00003  -0.00068
   9        3PZ         0.00010  -0.01191  -0.29354   0.00000   0.00093
  10 2   F  1S         -0.00055   0.01059  -0.03870   0.03165  -0.00048
  11        2S          0.00248  -0.05002   0.18314  -0.14408   0.00657
  12        2PX         0.00527   0.12553  -0.46060  -0.04030   0.47917
  13        2PY        -0.55971  -0.54193  -0.22296   0.16019   0.03891
  14        2PZ        -0.17312  -0.23751   0.16443  -0.52615  -0.09828
  15        3S          0.00117  -0.01681   0.06063  -0.01079   0.01287
  16        3PX        -0.00463  -0.13615   0.49933   0.03174  -0.55593
  17        3PY         0.55936   0.58941   0.26667  -0.20525  -0.04536
  18        3PZ         0.17135   0.27974  -0.24909   0.66850   0.11664
  19 3   F  1S         -0.00058   0.02822   0.02851   0.03166  -0.00047
  20        2S          0.00259  -0.13359  -0.13486  -0.14410   0.00650
  21        2PX         0.00487   0.33629   0.33904  -0.04001   0.47948
  22        2PY         0.42987  -0.21131   0.42823   0.37568   0.06636
  23        2PZ        -0.39835   0.41333  -0.16626   0.40173   0.08560
  24        3S          0.00120  -0.04411  -0.04486  -0.01079   0.01312
  25        3PX        -0.00421  -0.36455  -0.36762   0.03139  -0.55633
  26        3PY        -0.42815   0.19690  -0.50616  -0.47644  -0.07922
  27        3PZ         0.39897  -0.49277   0.14353  -0.51192  -0.10080
  28 4   F  1S         -0.00056  -0.03880   0.01018   0.03166  -0.00046
  29        2S          0.00249   0.18358  -0.04824  -0.14413   0.00646
  30        2PX         0.00540  -0.46182   0.12148  -0.04000   0.47961
  31        2PY         0.13002   0.18698  -0.18333  -0.53581  -0.10810
  32        2PZ         0.57170  -0.19776  -0.56440   0.12438   0.01657
  33        3S          0.00117   0.06090  -0.01575  -0.01078   0.01322
  34        3PX        -0.00476   0.50070  -0.13163   0.03138  -0.55649
  35        3PY        -0.13138  -0.27577   0.21979   0.68162   0.12784
  36        3PZ        -0.57055   0.23273   0.61606  -0.15653  -0.02034
  37 5   N  1S          0.00038   0.00000   0.00000  -0.00323   0.01872
  38        2S         -0.02142   0.00003  -0.00013   0.36763  -0.97655
  39        2PX         0.00603   0.00001  -0.00001   0.01228   0.10336
  40        2PY         0.00000   0.01866  -0.00112   0.00000  -0.00011
  41        2PZ        -0.00000   0.00112   0.01866  -0.00000   0.00013
  42        3S          0.02644  -0.00004   0.00020  -0.50275   1.22478
  43        3PX        -0.01049  -0.00001   0.00003  -0.06037   0.05990
  44        3PY        -0.00002   0.02080  -0.00101  -0.00002   0.00033
  45        3PZ        -0.00001   0.00100   0.02080   0.00000  -0.00041
  46 6   H  1S         -0.00435   0.00507   0.00409   0.06416  -0.14938
  47        2S          0.00197  -0.01583  -0.01888   0.08924  -0.22346
  48 7   H  1S         -0.00434   0.00103  -0.00646   0.06419  -0.14914
  49        2S          0.00197  -0.00838   0.02311   0.08921  -0.22360
  50 8   H  1S         -0.00435  -0.00607   0.00232   0.06419  -0.14949
  51        2S          0.00198   0.02424  -0.00433   0.08922  -0.22340
                          46        47        48        49        50
                           V         V         V         V         V
     Eigenvalues --     2.55907   2.55909   2.77031   4.03767   4.03771
   1 1   B  1S         -0.00004   0.00005   0.04744  -0.00000  -0.00000
   2        2S         -0.00022   0.00030   0.05434   0.00003  -0.00001
   3        2PX         0.00026  -0.00030  -0.26128  -0.00009   0.00002
   4        2PY         0.41501   0.00118  -0.00003   0.13825   0.30978
   5        2PZ        -0.00117   0.41500   0.00008  -0.30978   0.13826
   6        3S         -0.00005   0.00006  -0.75915   0.00003   0.00004
   7        3PX        -0.00081   0.00110  -0.90738  -0.00021   0.00006
   8        3PY        -0.41690  -0.00209   0.00000   0.28039   0.64431
   9        3PZ         0.00209  -0.41694   0.00013  -0.64426   0.28040
  10 2   F  1S         -0.00116   0.00362  -0.01266   0.08101  -0.00865
  11        2S          0.00712  -0.02202   0.07857  -1.28247   0.13689
  12        2PX        -0.03071   0.09181  -0.34745  -0.05515   0.00637
  13        2PY        -0.40468   0.10490   0.03035  -0.01747   0.15555
  14        2PZ         0.11092  -0.70720  -0.08697   0.10874   0.03746
  15        3S         -0.02246   0.06871  -0.00337   1.52496  -0.16234
  16        3PX         0.03867  -0.11614   0.50994   0.13557  -0.01545
  17        3PY         0.45991  -0.12931  -0.03542   0.05454  -0.32373
  18        3PZ        -0.13618   0.83248   0.10158  -0.28341  -0.07088
  19 3   F  1S         -0.00256  -0.00281  -0.01266  -0.03302   0.07448
  20        2S          0.01551   0.01721   0.07857   0.52281  -1.17913
  21        2PX        -0.06451  -0.07016  -0.34752   0.02204  -0.05099
  22        2PY        -0.53812  -0.18758   0.06018   0.13818  -0.01888
  23        2PZ        -0.18199  -0.57333   0.06981  -0.06568  -0.11816
  24        3S         -0.04827  -0.05374  -0.00340  -0.62202   1.40189
  25        3PX         0.08166   0.08883   0.51002  -0.05439   0.12525
  26        3PY         0.62438   0.23068  -0.07032  -0.30244   0.07731
  27        3PZ         0.22433   0.66751  -0.08155   0.11762   0.28604
  28 4   F  1S          0.00371  -0.00081  -0.01266  -0.04800  -0.06584
  29        2S         -0.02266   0.00486   0.07856   0.75987   1.04230
  30        2PX         0.09274  -0.01834  -0.34752   0.03307   0.04463
  31        2PY        -0.72452   0.07381  -0.09050  -0.09071  -0.06645
  32        2PZ         0.07995  -0.38679   0.01727  -0.11327   0.11069
  33        3S          0.07067  -0.01487  -0.00340  -0.90317  -1.23960
  34        3PX        -0.11745   0.02344   0.51001  -0.08114  -0.10981
  35        3PY         0.85369  -0.09125   0.10572   0.22338   0.18593
  36        3PZ        -0.09826   0.43802  -0.02022   0.22626  -0.23968
  37 5   N  1S         -0.00003   0.00005  -0.00899  -0.00000   0.00000
  38        2S          0.00165  -0.00234  -1.51170   0.00000  -0.00000
  39        2PX        -0.00017   0.00025   0.12280  -0.00002  -0.00000
  40        2PY        -0.07181  -0.00323   0.00000   0.02939   0.05400
  41        2PZ         0.00323  -0.07184  -0.00003  -0.05399   0.02939
  42        3S         -0.00205   0.00291   2.51188   0.00002  -0.00000
  43        3PX        -0.00014   0.00019  -0.38687   0.00005   0.00002
  44        3PY         0.19126   0.00819   0.00002  -0.11948  -0.23655
  45        3PZ        -0.00819   0.19132   0.00010   0.23652  -0.11950
  46 6   H  1S          0.04359   0.06235  -0.23451   0.04472  -0.06626
  47        2S         -0.02973  -0.03203  -0.12083  -0.02696   0.00592
  48 7   H  1S          0.03288  -0.06925  -0.23454  -0.07971  -0.00560
  49        2S         -0.01183   0.04127  -0.12083   0.01860   0.02039
  50 8   H  1S         -0.07570   0.00582  -0.23454   0.03499   0.07186
  51        2S          0.04273  -0.01087  -0.12084   0.00838  -0.02634
                          51
                           V
     Eigenvalues --     4.47230
   1 1   B  1S         -0.08363
   2        2S          0.21331
   3        2PX        -0.12044
   4        2PY        -0.00005
   5        2PZ         0.00007
   6        3S          1.49886
   7        3PX         0.24142
   8        3PY        -0.00003
   9        3PZ         0.00005
  10 2   F  1S         -0.04494
  11        2S          0.95515
  12        2PX         0.03385
  13        2PY         0.04253
  14        2PZ        -0.13259
  15        3S         -1.25967
  16        3PX        -0.10609
  17        3PY        -0.11874
  18        3PZ         0.37121
  19 3   F  1S         -0.04493
  20        2S          0.95503
  21        2PX         0.03392
  22        2PY         0.09354
  23        2PZ         0.10312
  24        3S         -1.25948
  25        3PX        -0.10626
  26        3PY        -0.26206
  27        3PZ        -0.28839
  28 4   F  1S         -0.04493
  29        2S          0.95496
  30        2PX         0.03390
  31        2PY        -0.13607
  32        2PZ         0.02946
  33        3S         -1.25939
  34        3PX        -0.10622
  35        3PY         0.38076
  36        3PZ        -0.08276
  37 5   N  1S          0.02109
  38        2S          0.32901
  39        2PX        -0.08418
  40        2PY        -0.00001
  41        2PZ         0.00001
  42        3S         -0.71540
  43        3PX         0.42537
  44        3PY         0.00003
  45        3PZ        -0.00008
  46 6   H  1S          0.07443
  47        2S         -0.10400
  48 7   H  1S          0.07443
  49        2S         -0.10401
  50 8   H  1S          0.07444
  51        2S         -0.10402
     Density Matrix:
                           1         2         3         4         5
   1 1   B  1S          2.00479
   2        2S          0.10034   0.14451
   3        2PX         0.00202  -0.02178   0.09971
   4        2PY         0.00000  -0.00000  -0.00000   0.16454
   5        2PZ         0.00000   0.00001   0.00002   0.00000   0.16454
   6        3S         -0.06099   0.02874   0.01644   0.00001  -0.00001
   7        3PX        -0.00455  -0.00179   0.03762   0.00000  -0.00001
   8        3PY        -0.00000   0.00000   0.00000  -0.00545  -0.00022
   9        3PZ         0.00000  -0.00000  -0.00001   0.00021  -0.00545
  10 2   F  1S          0.00907   0.00040   0.00212   0.00200  -0.00632
  11        2S         -0.00300  -0.00126  -0.00352  -0.00339   0.01061
  12        2PX        -0.01856   0.02134   0.03978  -0.02016   0.06280
  13        2PY        -0.01993   0.03574  -0.01898   0.02755   0.07327
  14        2PZ         0.06244  -0.11276   0.05938   0.07334  -0.17975
  15        3S         -0.03680  -0.00866  -0.01043  -0.00674   0.02067
  16        3PX        -0.02424   0.02351   0.03827  -0.02202   0.06858
  17        3PY        -0.02890   0.03992  -0.02150   0.03200   0.08023
  18        3PZ         0.09069  -0.12596   0.06719   0.08029  -0.19492
  19 3   F  1S          0.00907   0.00040   0.00212   0.00447   0.00489
  20        2S         -0.00300  -0.00126  -0.00353  -0.00749  -0.00824
  21        2PX        -0.01858   0.02138   0.03973  -0.04438  -0.04893
  22        2PY        -0.04411   0.07978  -0.04200  -0.06443  -0.12643
  23        2PZ        -0.04846   0.08732  -0.04619  -0.12635  -0.08772
  24        3S         -0.03680  -0.00866  -0.01043  -0.01453  -0.01617
  25        3PX        -0.02428   0.02356   0.03822  -0.04845  -0.05344
  26        3PY        -0.06409   0.08913  -0.04751  -0.06868  -0.13839
  27        3PZ        -0.07036   0.09754  -0.05229  -0.13833  -0.09419
  28 4   F  1S          0.00907   0.00040   0.00212  -0.00647   0.00143
  29        2S         -0.00300  -0.00126  -0.00353   0.01088  -0.00237
  30        2PX        -0.01858   0.02137   0.03974   0.06455  -0.01396
  31        2PY         0.06403  -0.11552   0.06099  -0.19137   0.05305
  32        2PZ        -0.01396   0.02542  -0.01327   0.05312   0.03921
  33        3S         -0.03680  -0.00866  -0.01043   0.02127  -0.00449
  34        3PX        -0.02427   0.02356   0.03822   0.07049  -0.01523
  35        3PY         0.09298  -0.12904   0.06902  -0.20766   0.05807
  36        3PZ        -0.02031   0.02840  -0.01499   0.05813   0.04478
  37 5   N  1S          0.00925  -0.00866  -0.02144  -0.00000   0.00001
  38        2S          0.00402   0.00407   0.02551   0.00000  -0.00001
  39        2PX         0.04279  -0.04747  -0.14412  -0.00001   0.00003
  40        2PY         0.00000  -0.00001  -0.00001   0.00162   0.00008
  41        2PZ        -0.00001   0.00001   0.00002  -0.00008   0.00162
  42        3S         -0.05635   0.04486   0.09654   0.00000  -0.00002
  43        3PX         0.06569  -0.06056  -0.16637  -0.00001   0.00004
  44        3PY         0.00000  -0.00001  -0.00002   0.01466  -0.00055
  45        3PZ        -0.00001   0.00001   0.00003   0.00055   0.01466
  46 6   H  1S          0.00712  -0.00626  -0.01416   0.00206   0.00324
  47        2S          0.01013  -0.00657  -0.01807   0.00555   0.00569
  48 7   H  1S          0.00712  -0.00626  -0.01416   0.00177  -0.00339
  49        2S          0.01013  -0.00657  -0.01807   0.00215  -0.00765
  50 8   H  1S          0.00712  -0.00626  -0.01416  -0.00383   0.00017
  51        2S          0.01013  -0.00657  -0.01807  -0.00770   0.00197
                           6         7         8         9        10
   6        3S          0.02172
   7        3PX         0.02933   0.09608
   8        3PY         0.00000   0.00000   0.05862
   9        3PZ        -0.00001  -0.00001   0.00000   0.05862
  10 2   F  1S          0.02702   0.00345  -0.00678   0.02133   2.05887
  11        2S          0.00193  -0.00160  -0.00055   0.00192   0.06810
  12        2PX         0.04236   0.12682  -0.00454   0.01663   0.00791
  13        2PY         0.00694  -0.00476   0.12753   0.02336   0.00780
  14        2PZ        -0.01888   0.01763   0.02303   0.06382  -0.02441
  15        3S         -0.00150   0.00417   0.01176  -0.03618  -0.49183
  16        3PX         0.04436   0.13370  -0.00391   0.01510  -0.00042
  17        3PY         0.00820  -0.00405   0.14115   0.02406   0.00147
  18        3PZ        -0.02250   0.01573   0.02364   0.07581  -0.00457
  19 3   F  1S          0.02701   0.00344  -0.01508  -0.01654  -0.00053
  20        2S          0.00193  -0.00160  -0.00139  -0.00143   0.00262
  21        2PX         0.04239   0.12683  -0.01215  -0.01227  -0.00290
  22        2PY         0.01289  -0.01291   0.09984  -0.03901  -0.00363
  23        2PZ         0.01543  -0.01295  -0.03935   0.09153   0.01312
  24        3S         -0.00149   0.00419   0.02545   0.02827  -0.00148
  25        3PX         0.04440   0.13371  -0.01114  -0.01096  -0.00382
  26        3PY         0.01539  -0.01161   0.11280  -0.04000  -0.00246
  27        3PZ         0.01833  -0.01139  -0.04042   0.10417   0.00731
  28 4   F  1S          0.02701   0.00344   0.02186  -0.00479  -0.00053
  29        2S          0.00193  -0.00160   0.00194  -0.00049   0.00261
  30        2PX         0.04239   0.12682   0.01670  -0.00438  -0.00295
  31        2PY        -0.01982   0.01767   0.05967   0.01616  -0.00465
  32        2PZ         0.00344  -0.00469   0.01582   0.13170   0.01284
  33        3S         -0.00150   0.00419  -0.03721   0.00790  -0.00146
  34        3PX         0.04439   0.13371   0.01506  -0.00416  -0.00381
  35        3PY        -0.02359   0.01567   0.07149   0.01658  -0.00225
  36        3PZ         0.00415  -0.00435   0.01615   0.14547   0.00743
  37 5   N  1S          0.02997   0.03458  -0.00000  -0.00000  -0.00161
  38        2S         -0.00580  -0.01189  -0.00000   0.00000   0.00484
  39        2PX        -0.03302   0.02278   0.00000  -0.00000  -0.00898
  40        2PY        -0.00001  -0.00000  -0.00796   0.00002  -0.00166
  41        2PZ         0.00000  -0.00001  -0.00002  -0.00796   0.00470
  42        3S         -0.03466  -0.11924  -0.00000   0.00002   0.00212
  43        3PX        -0.03203   0.05509   0.00000  -0.00001  -0.00063
  44        3PY        -0.00001   0.00000  -0.01415  -0.00112   0.00008
  45        3PZ         0.00000  -0.00001   0.00112  -0.01415  -0.00103
  46 6   H  1S         -0.01032  -0.00387   0.00250   0.00346  -0.00225
  47        2S         -0.00545   0.00022   0.00668   0.00690  -0.00290
  48 7   H  1S         -0.01033  -0.00388   0.00175  -0.00390   0.00472
  49        2S         -0.00545   0.00021   0.00264  -0.00923  -0.00775
  50 8   H  1S         -0.01033  -0.00388  -0.00425   0.00044  -0.00119
  51        2S         -0.00545   0.00022  -0.00932   0.00233  -0.00344
                          11        12        13        14        15
  11        2S          0.13757
  12        2PX        -0.00882   0.54791
  13        2PY        -0.00861  -0.00687   0.54691
  14        2PZ         0.02723   0.02142   0.02744   0.46981
  15        3S          0.38981  -0.02859  -0.02583   0.07988   1.36298
  16        3PX        -0.00737   0.61589  -0.00820   0.02519  -0.01923
  17        3PY        -0.00830  -0.00871   0.61078   0.03129  -0.02101
  18        3PZ         0.02620   0.02685   0.03137   0.52263   0.06435
  19 3   F  1S          0.00261  -0.00295  -0.00879  -0.01044  -0.00146
  20        2S         -0.00080   0.00047  -0.00132   0.00591  -0.00260
  21        2PX         0.00051  -0.01312   0.00854  -0.00907   0.02274
  22        2PY        -0.00369   0.01156   0.00016   0.00023   0.04300
  23        2PZ        -0.00481   0.00491   0.02347   0.05162  -0.07977
  24        3S         -0.00252   0.02328   0.07243   0.05486  -0.01231
  25        3PX         0.00122  -0.03179   0.02126  -0.01077   0.02562
  26        3PY        -0.00341   0.02623   0.00516   0.00320   0.04837
  27        3PZ        -0.00550   0.00800   0.03813   0.05634  -0.08714
  28 4   F  1S          0.00262  -0.00290   0.01317  -0.00341  -0.00148
  29        2S         -0.00080   0.00051  -0.00232   0.00560  -0.00252
  30        2PX         0.00047  -0.01312  -0.00155  -0.01245   0.02324
  31        2PY         0.00578  -0.01214   0.02849  -0.01658   0.01130
  32        2PZ        -0.00181  -0.00283  -0.03983   0.02329  -0.09017
  33        3S         -0.00260   0.02277  -0.09058   0.00264  -0.01231
  34        3PX         0.00116  -0.03180  -0.01111  -0.02126   0.02616
  35        3PY         0.00595  -0.02585   0.04170  -0.01352   0.01119
  36        3PZ        -0.00254  -0.00888  -0.04855   0.01973  -0.09935
  37 5   N  1S          0.00404   0.01811   0.00124  -0.00450   0.00215
  38        2S         -0.00166  -0.00915  -0.00306   0.00909  -0.00720
  39        2PX         0.00643   0.04202   0.00660  -0.02043   0.03549
  40        2PY         0.00128   0.00824  -0.00365  -0.00238   0.00447
  41        2PZ        -0.00380  -0.02383  -0.00200   0.00355  -0.01275
  42        3S         -0.01021  -0.12629  -0.00009   0.00682  -0.03903
  43        3PX         0.00635   0.08568   0.00706  -0.01840   0.03767
  44        3PY         0.00218   0.00663  -0.01854  -0.00008   0.00656
  45        3PZ        -0.00539  -0.00362   0.00294  -0.01230  -0.01267
  46 6   H  1S          0.00169   0.01699   0.00201  -0.00383   0.00827
  47        2S          0.00150  -0.00176   0.02507  -0.00145   0.00449
  48 7   H  1S         -0.00256  -0.02359  -0.00193   0.00675  -0.00663
  49        2S          0.00383   0.01639  -0.00779   0.01284   0.02107
  50 8   H  1S          0.00117   0.01097  -0.00058  -0.00261   0.00650
  51        2S          0.00110  -0.00924  -0.01960  -0.01606   0.00267
                          16        17        18        19        20
  16        3PX         0.69420
  17        3PY        -0.01024   0.68261
  18        3PZ         0.03118   0.03533   0.58309
  19 3   F  1S         -0.00382  -0.00531  -0.00566   2.05887
  20        2S          0.00116  -0.00077   0.00643   0.06810   0.13757
  21        2PX        -0.03180   0.02063  -0.01791   0.00792  -0.00883
  22        2PY         0.02396  -0.00166  -0.01151   0.01724  -0.01927
  23        2PZ         0.00105   0.02351   0.06309   0.01896  -0.02107
  24        3S          0.02620   0.08044   0.05936  -0.49183   0.38981
  25        3PX        -0.05436   0.03631  -0.02038  -0.00041  -0.00739
  26        3PY         0.04167   0.00364  -0.00956   0.00322  -0.01854
  27        3PZ         0.00361   0.03940   0.06859   0.00356  -0.02028
  28 4   F  1S         -0.00382   0.00756  -0.00152  -0.00053   0.00261
  29        2S          0.00122  -0.00305   0.00570   0.00261  -0.00080
  30        2PX        -0.03180  -0.00622  -0.02669  -0.00291   0.00051
  31        2PY        -0.01997   0.02564  -0.01503  -0.00955   0.00601
  32        2PZ        -0.01299  -0.04997   0.03586  -0.00970  -0.00079
  33        3S          0.02565  -0.09964   0.00167  -0.00147  -0.00252
  34        3PX        -0.05436  -0.01776  -0.03786  -0.00382   0.00122
  35        3PY        -0.03583   0.03942  -0.01110  -0.00510   0.00646
  36        3PZ        -0.02121  -0.06007   0.03281  -0.00578  -0.00021
  37 5   N  1S          0.01516   0.00144  -0.00496  -0.00161   0.00404
  38        2S         -0.00989  -0.00372   0.01105   0.00484  -0.00166
  39        2PX         0.05192   0.00907  -0.02801  -0.00898   0.00643
  40        2PY         0.01030  -0.00270  -0.00283  -0.00324   0.00265
  41        2PZ        -0.02975  -0.00241   0.00616  -0.00378   0.00300
  42        3S         -0.13408  -0.00203   0.01352   0.00212  -0.01021
  43        3PX         0.09939   0.01019  -0.02759  -0.00063   0.00635
  44        3PY         0.00851  -0.01948  -0.00044   0.00085   0.00358
  45        3PZ        -0.00608   0.00312  -0.01138   0.00059   0.00458
  46 6   H  1S          0.02182   0.00184  -0.00576   0.00472  -0.00256
  47        2S         -0.00118   0.02840  -0.00235  -0.00775   0.00382
  48 7   H  1S         -0.02738  -0.00242   0.00807  -0.00119   0.00117
  49        2S          0.01996  -0.00865   0.01378  -0.00344   0.00110
  50 8   H  1S          0.01461   0.00050  -0.00354  -0.00225   0.00169
  51        2S         -0.01016  -0.02179  -0.01844  -0.00290   0.00150
                          21        22        23        24        25
  21        2PX         0.54789
  22        2PY        -0.01514   0.51285
  23        2PZ        -0.01669  -0.04710   0.50389
  24        3S         -0.02863  -0.05626  -0.06230   1.36297
  25        3PX         0.61586  -0.01775  -0.01972  -0.01926   0.69416
  26        3PY        -0.01893   0.57180  -0.05386  -0.04523  -0.02192
  27        3PZ        -0.02100  -0.05379   0.56163  -0.05036  -0.02450
  28 4   F  1S         -0.00295   0.01344  -0.00239  -0.00146  -0.00382
  29        2S          0.00047  -0.00446  -0.00410  -0.00260   0.00116
  30        2PX        -0.01311   0.00361   0.01194   0.02278  -0.03178
  31        2PY        -0.01002   0.04902   0.00473   0.04758  -0.01288
  32        2PZ         0.00756   0.02797   0.00275   0.07711   0.02025
  33        3S          0.02327  -0.08373   0.03529  -0.01231   0.02620
  34        3PX        -0.03178  -0.00128   0.02380   0.02566  -0.05434
  35        3PY        -0.02003   0.06145  -0.00564   0.05127  -0.02394
  36        3PZ         0.01873   0.02930   0.00004   0.08545   0.03431
  37 5   N  1S          0.01811   0.00327   0.00331   0.00215   0.01516
  38        2S         -0.00915  -0.00634  -0.00719  -0.00720  -0.00989
  39        2PX         0.04203   0.01439   0.01592   0.03549   0.05193
  40        2PY         0.01652  -0.00015   0.00402   0.00880   0.02061
  41        2PZ         0.01903   0.00439   0.00004   0.01023   0.02377
  42        3S         -0.12629  -0.00584  -0.00344  -0.03903  -0.13408
  43        3PX         0.08570   0.01239   0.01527   0.03767   0.09941
  44        3PY        -0.00018  -0.01261   0.00048   0.00769   0.00101
  45        3PZ         0.00751   0.00350  -0.01823   0.01200   0.01036
  46 6   H  1S         -0.02359  -0.00488  -0.00504  -0.00662  -0.02737
  47        2S          0.01637  -0.00722  -0.01316   0.02107   0.01994
  48 7   H  1S          0.01098   0.00255   0.00080   0.00650   0.01461
  49        2S         -0.00924   0.02370  -0.00894   0.00267  -0.01016
  50 8   H  1S          0.01699   0.00231   0.00364   0.00827   0.02181
  51        2S         -0.00177  -0.01129   0.02243   0.00449  -0.00119
                          26        27        28        29        30
  26        3PY         0.63856
  27        3PZ        -0.06074   0.62716
  28 4   F  1S          0.00756  -0.00176   2.05887
  29        2S         -0.00518  -0.00388   0.06810   0.13757
  30        2PX         0.00523   0.02684   0.00792  -0.00883   0.54789
  31        2PY         0.05210   0.00753  -0.02504   0.02789   0.02202
  32        2PZ         0.04254   0.00931   0.00545  -0.00615  -0.00476
  33        3S         -0.09163   0.03997  -0.49183   0.38981  -0.02863
  34        3PX        -0.00047   0.04165  -0.00041  -0.00738   0.61587
  35        3PY         0.06528  -0.00382  -0.00469   0.02684   0.02764
  36        3PZ         0.04514   0.00692   0.00101  -0.00591  -0.00589
  37 5   N  1S          0.00357   0.00372  -0.00161   0.00404   0.01811
  38        2S         -0.00771  -0.00874   0.00484  -0.00166  -0.00915
  39        2PX         0.01972   0.02184  -0.00898   0.00643   0.04203
  40        2PY         0.00168   0.00493   0.00489  -0.00393  -0.02475
  41        2PZ         0.00534   0.00176  -0.00091   0.00079   0.00477
  42        3S         -0.01067  -0.00847   0.00212  -0.01021  -0.12630
  43        3PX         0.01878   0.02257  -0.00063   0.00635   0.08569
  44        3PY        -0.01225   0.00106  -0.00094  -0.00576  -0.00644
  45        3PZ         0.00462  -0.01863   0.00045   0.00081  -0.00394
  46 6   H  1S         -0.00578  -0.00612  -0.00119   0.00117   0.01098
  47        2S         -0.00760  -0.01438  -0.00344   0.00110  -0.00924
  48 7   H  1S          0.00281   0.00220  -0.00225   0.00169   0.01699
  49        2S          0.02686  -0.00964  -0.00290   0.00150  -0.00177
  50 8   H  1S          0.00407   0.00446   0.00472  -0.00256  -0.02359
  51        2S         -0.01217   0.02577  -0.00775   0.00383   0.01639
                          31        32        33        34        35
  31        2PY         0.46533
  32        2PZ         0.01966   0.55141
  33        3S          0.08209  -0.01756   1.36297
  34        3PX         0.02595  -0.00550  -0.01926   0.69417
  35        3PY         0.51755   0.02246   0.06623   0.03217   0.57740
  36        3PZ         0.02253   0.61588  -0.01398  -0.00673   0.02542
  37 5   N  1S         -0.00451   0.00117   0.00215   0.01516  -0.00501
  38        2S          0.00940  -0.00189  -0.00720  -0.00988   0.01143
  39        2PX        -0.02099   0.00448   0.03549   0.05192  -0.02878
  40        2PY         0.00363  -0.00220  -0.01327  -0.03090   0.00620
  41        2PZ        -0.00183  -0.00375   0.00250   0.00595  -0.00231
  42        3S          0.00592  -0.00330  -0.03903  -0.13409   0.01269
  43        3PX        -0.01943   0.00306   0.03767   0.09940  -0.02895
  44        3PY        -0.01510  -0.00493  -0.01424  -0.00950  -0.01458
  45        3PZ        -0.00191  -0.01574   0.00064  -0.00434  -0.00239
  46 6   H  1S         -0.00197   0.00181   0.00650   0.01462  -0.00332
  47        2S         -0.00411   0.02499   0.00267  -0.01015  -0.00508
  48 7   H  1S         -0.00431   0.00017   0.00827   0.02181  -0.00590
  49        2S         -0.01379  -0.02099   0.00449  -0.00120  -0.01623
  50 8   H  1S          0.00681  -0.00169  -0.00662  -0.02737   0.00820
  51        2S          0.01501   0.00033   0.02107   0.01996   0.01626
                          36        37        38        39        40
  36        3PZ         0.68833
  37 5   N  1S          0.00123   2.04791
  38        2S         -0.00230   0.10675   0.10193
  39        2PX         0.00613   0.01779  -0.00616   0.38972
  40        2PY        -0.00273   0.00000  -0.00000   0.00001   0.32859
  41        2PZ        -0.00275  -0.00000   0.00000  -0.00001  -0.00000
  42        3S         -0.00496  -0.45454   0.28725  -0.14888  -0.00002
  43        3PX         0.00494   0.04044  -0.01908   0.47998   0.00002
  44        3PY        -0.00596   0.00000  -0.00000   0.00002   0.31989
  45        3PZ        -0.01630  -0.00001   0.00000  -0.00003   0.00076
  46 6   H  1S          0.00133  -0.04039   0.04162   0.06781  -0.11786
  47        2S          0.02808   0.01104   0.00357   0.04907  -0.07052
  48 7   H  1S          0.00129  -0.04039   0.04162   0.06786  -0.08731
  49        2S         -0.02342   0.01104   0.00357   0.04910  -0.05329
  50 8   H  1S         -0.00194  -0.04039   0.04162   0.06780   0.20519
  51        2S          0.00060   0.01104   0.00357   0.04907   0.12383
                          41        42        43        44        45
  41        2PZ         0.32859
  42        3S          0.00003   1.18669
  43        3PX        -0.00003  -0.24466   0.60007
  44        3PY        -0.00077  -0.00002   0.00003   0.31396
  45        3PZ         0.31989   0.00004  -0.00005  -0.00000   0.31397
  46 6   H  1S         -0.16888   0.12838   0.07704  -0.11383  -0.16406
  47        2S         -0.10227  -0.00700   0.05934  -0.06990  -0.10004
  48 7   H  1S          0.18651   0.12838   0.07708  -0.08515   0.18060
  49        2S          0.11220  -0.00701   0.05937  -0.05167   0.11055
  50 8   H  1S         -0.01765   0.12837   0.07702   0.19900  -0.01657
  51        2S         -0.00996  -0.00702   0.05935   0.12159  -0.01054
                          46        47        48        49        50
  46 6   H  1S          0.16315
  47        2S          0.08756   0.05769
  48 7   H  1S         -0.03095  -0.02905   0.16315
  49        2S         -0.02797  -0.01907   0.08756   0.05770
  50 8   H  1S         -0.03095  -0.02796  -0.03095  -0.02905   0.16315
  51        2S         -0.02904  -0.01906  -0.02797  -0.01907   0.08756
                          51
  51        2S          0.05770
    Full Mulliken population analysis:
                           1         2         3         4         5
   1 1   B  1S          2.00479
   2        2S          0.01835   0.14451
   3        2PX         0.00000   0.00000   0.09971
   4        2PY         0.00000   0.00000  -0.00000   0.16454
   5        2PZ         0.00000   0.00000   0.00000  -0.00000   0.16454
   6        3S         -0.01060   0.02228   0.00000   0.00000   0.00000
   7        3PX         0.00000   0.00000   0.02074   0.00000  -0.00000
   8        3PY         0.00000   0.00000   0.00000  -0.00300   0.00000
   9        3PZ         0.00000   0.00000  -0.00000  -0.00000  -0.00300
  10 2   F  1S          0.00000   0.00000  -0.00001  -0.00001  -0.00015
  11        2S         -0.00000  -0.00009   0.00012   0.00014   0.00141
  12        2PX        -0.00000   0.00039   0.00084   0.00023   0.00230
  13        2PY        -0.00000   0.00078   0.00022   0.00047   0.00320
  14        2PZ        -0.00002   0.00776   0.00217   0.00320   0.01911
  15        3S         -0.00084  -0.00195   0.00085   0.00065   0.00629
  16        3PX        -0.00044   0.00220   0.00558   0.00096   0.00938
  17        3PY        -0.00063   0.00445   0.00094   0.00417   0.01310
  18        3PZ        -0.00618   0.04410   0.00919   0.01311   0.06445
  19 3   F  1S          0.00000   0.00000  -0.00001  -0.00007  -0.00009
  20        2S         -0.00000  -0.00009   0.00013   0.00070   0.00085
  21        2PX        -0.00000   0.00039   0.00083   0.00115   0.00139
  22        2PY        -0.00001   0.00388   0.00109   0.00243   0.00950
  23        2PZ        -0.00001   0.00466   0.00131   0.00950   0.00453
  24        3S         -0.00084  -0.00195   0.00085   0.00312   0.00381
  25        3PX        -0.00044   0.00220   0.00556   0.00469   0.00568
  26        3PY        -0.00309   0.02206   0.00460   0.00508   0.03891
  27        3PZ        -0.00372   0.02649   0.00556   0.03889   0.01190
  28 4   F  1S          0.00000   0.00000  -0.00001  -0.00015  -0.00001
  29        2S         -0.00000  -0.00009   0.00013   0.00148   0.00007
  30        2PX        -0.00000   0.00039   0.00083   0.00242   0.00011
  31        2PY        -0.00002   0.00815   0.00229   0.02168   0.00167
  32        2PZ        -0.00000   0.00039   0.00011   0.00167   0.00094
  33        3S         -0.00084  -0.00195   0.00085   0.00663   0.00031
  34        3PX        -0.00044   0.00220   0.00557   0.00990   0.00047
  35        3PY        -0.00650   0.04631   0.00969   0.07409   0.00684
  36        3PZ        -0.00031   0.00223   0.00046   0.00685   0.00700
  37 5   N  1S          0.00000  -0.00003  -0.00022  -0.00000  -0.00000
  38        2S          0.00000   0.00016   0.00229   0.00000   0.00000
  39        2PX        -0.00001   0.00289   0.01719   0.00000   0.00000
  40        2PY        -0.00000   0.00000   0.00000   0.00003   0.00000
  41        2PZ        -0.00000   0.00000   0.00000  -0.00000   0.00003
  42        3S         -0.00115   0.00789   0.02276   0.00000   0.00000
  43        3PX        -0.00426   0.02176   0.06125   0.00000   0.00000
  44        3PY        -0.00000   0.00000   0.00000   0.00203  -0.00000
  45        3PZ        -0.00000   0.00000   0.00000   0.00000   0.00203
  46 6   H  1S          0.00000  -0.00003  -0.00018  -0.00001  -0.00002
  47        2S          0.00010  -0.00060  -0.00196  -0.00016  -0.00024
  48 7   H  1S          0.00000  -0.00003  -0.00018  -0.00000  -0.00002
  49        2S          0.00010  -0.00060  -0.00196  -0.00005  -0.00036
  50 8   H  1S          0.00000  -0.00003  -0.00018  -0.00002  -0.00000
  51        2S          0.00010  -0.00061  -0.00196  -0.00040  -0.00001
                           6         7         8         9        10
   6        3S          0.02172
   7        3PX         0.00000   0.09608
   8        3PY         0.00000   0.00000   0.05862
   9        3PZ         0.00000  -0.00000  -0.00000   0.05862
  10 2   F  1S          0.00081  -0.00005   0.00011   0.00107   2.05887
  11        2S          0.00030   0.00010   0.00004   0.00047   0.01462
  12        2PX         0.00056   0.00665   0.00003   0.00035   0.00000
  13        2PY         0.00011   0.00003   0.00638   0.00059   0.00000
  14        2PZ         0.00093   0.00037   0.00058  -0.00132   0.00000
  15        3S         -0.00056  -0.00056  -0.00187  -0.01811  -0.09029
  16        3PX         0.00301   0.03684   0.00011   0.00138   0.00000
  17        3PY         0.00066   0.00012   0.03743   0.00262   0.00000
  18        3PZ         0.00572   0.00144   0.00258  -0.00321   0.00000
  19 3   F  1S          0.00081  -0.00005   0.00053   0.00064   0.00000
  20        2S          0.00030   0.00010   0.00024   0.00027   0.00000
  21        2PX         0.00056   0.00665   0.00018   0.00020  -0.00000
  22        2PY         0.00045   0.00019   0.00186   0.00168  -0.00000
  23        2PZ         0.00059   0.00021   0.00170   0.00097   0.00000
  24        3S         -0.00056  -0.00056  -0.00900  -0.01097  -0.00000
  25        3PX         0.00301   0.03683   0.00072   0.00078  -0.00000
  26        3PY         0.00276   0.00075   0.01454   0.00751  -0.00000
  27        3PZ         0.00361   0.00081   0.00759   0.00979   0.00000
  28 4   F  1S          0.00081  -0.00005   0.00112   0.00005   0.00000
  29        2S          0.00030   0.00010   0.00049   0.00003   0.00000
  30        2PX         0.00056   0.00665   0.00036   0.00002  -0.00000
  31        2PY         0.00100   0.00038  -0.00148   0.00029   0.00000
  32        2PZ         0.00004   0.00002   0.00029   0.00712   0.00000
  33        3S         -0.00056  -0.00056  -0.01909  -0.00089  -0.00000
  34        3PX         0.00301   0.03683   0.00141   0.00009  -0.00000
  35        3PY         0.00614   0.00147  -0.00428   0.00130   0.00000
  36        3PZ         0.00024   0.00009   0.00127   0.04112   0.00000
  37 5   N  1S          0.00087   0.00224  -0.00000   0.00000   0.00000
  38        2S         -0.00092  -0.00380  -0.00000  -0.00000   0.00000
  39        2PX         0.00288  -0.00229  -0.00000  -0.00000   0.00000
  40        2PY         0.00000   0.00000  -0.00062   0.00000   0.00000
  41        2PZ         0.00000  -0.00000  -0.00000  -0.00062   0.00000
  42        3S         -0.01268  -0.06830  -0.00000  -0.00000   0.00000
  43        3PX         0.01215  -0.01418  -0.00000  -0.00000   0.00000
  44        3PY         0.00000  -0.00000  -0.00477  -0.00000  -0.00000
  45        3PZ         0.00000  -0.00000   0.00000  -0.00477  -0.00000
  46 6   H  1S         -0.00079  -0.00069  -0.00012  -0.00024  -0.00000
  47        2S         -0.00142   0.00009  -0.00076  -0.00112  -0.00000
  48 7   H  1S         -0.00079  -0.00069  -0.00006  -0.00030   0.00000
  49        2S         -0.00142   0.00009  -0.00022  -0.00166  -0.00002
  50 8   H  1S         -0.00079  -0.00069  -0.00036  -0.00000  -0.00000
  51        2S         -0.00142   0.00009  -0.00184  -0.00004  -0.00000
                          11        12        13        14        15
  11        2S          0.13757
  12        2PX         0.00000   0.54791
  13        2PY         0.00000  -0.00000   0.54691
  14        2PZ         0.00000   0.00000  -0.00000   0.46981
  15        3S          0.28541   0.00000   0.00000   0.00000   1.36298
  16        3PX         0.00000   0.30078  -0.00000   0.00000   0.00000
  17        3PY         0.00000  -0.00000   0.29829  -0.00000   0.00000
  18        3PZ         0.00000   0.00000  -0.00000   0.25524   0.00000
  19 3   F  1S          0.00000   0.00000   0.00000   0.00000  -0.00000
  20        2S         -0.00000  -0.00000   0.00000  -0.00000  -0.00000
  21        2PX         0.00000  -0.00000  -0.00000   0.00000   0.00000
  22        2PY        -0.00000  -0.00000  -0.00000  -0.00000   0.00001
  23        2PZ        -0.00000  -0.00000  -0.00000  -0.00000  -0.00006
  24        3S         -0.00000  -0.00000  -0.00001  -0.00004  -0.00012
  25        3PX         0.00000  -0.00001  -0.00000   0.00000   0.00000
  26        3PY        -0.00000  -0.00000   0.00000  -0.00000   0.00032
  27        3PZ        -0.00001  -0.00000  -0.00003  -0.00020  -0.00259
  28 4   F  1S          0.00000   0.00000   0.00000   0.00000  -0.00000
[...]
  42        3S         -0.00003  -0.00040  -0.00000  -0.00001  -0.00086
  43        3PX        -0.00007  -0.00085  -0.00002  -0.00013  -0.00214
  44        3PY        -0.00000  -0.00002  -0.00002  -0.00000  -0.00007
  45        3PZ        -0.00004  -0.00003   0.00000   0.00004  -0.00045
  46 6   H  1S          0.00000   0.00000  -0.00000   0.00000   0.00000
  47        2S          0.00000  -0.00000  -0.00000   0.00000   0.00004
  48 7   H  1S         -0.00000  -0.00000   0.00000  -0.00000  -0.00001
  49        2S          0.00006   0.00020   0.00000  -0.00003   0.00119
  50 8   H  1S          0.00000   0.00000  -0.00000   0.00000   0.00000
  51        2S          0.00000  -0.00001  -0.00002   0.00001   0.00003
                          16        17        18        19        20
  16        3PX         0.69420
  17        3PY        -0.00000   0.68261
  18        3PZ         0.00000  -0.00000   0.58309
  19 3   F  1S          0.00000   0.00000   0.00000   2.05887
  20        2S         -0.00000   0.00000  -0.00001   0.01462   0.13757
  21        2PX        -0.00001  -0.00000   0.00000   0.00000   0.00000
  22        2PY        -0.00000  -0.00000   0.00001   0.00000   0.00000
  23        2PZ        -0.00000  -0.00002  -0.00022   0.00000   0.00000
  24        3S         -0.00000  -0.00052  -0.00177  -0.09029   0.28541
  25        3PX        -0.00055  -0.00000   0.00000   0.00000   0.00000
  26        3PY        -0.00000   0.00002   0.00018   0.00000   0.00000
  27        3PZ        -0.00000  -0.00076  -0.00536   0.00000   0.00000
  28 4   F  1S          0.00000   0.00000   0.00000   0.00000   0.00000
  29        2S         -0.00000  -0.00001  -0.00001   0.00000  -0.00000
  30        2PX        -0.00001  -0.00000   0.00000   0.00000  -0.00000
  31        2PY        -0.00000  -0.00005  -0.00003   0.00000  -0.00000
  32        2PZ         0.00000  -0.00010  -0.00006   0.00000   0.00000
  33        3S         -0.00000  -0.00224  -0.00003  -0.00000  -0.00000
  34        3PX        -0.00055  -0.00000   0.00000   0.00000  -0.00000
  35        3PY        -0.00000  -0.00159  -0.00051   0.00000  -0.00001
  36        3PZ         0.00000  -0.00276  -0.00105   0.00000   0.00000
  37 5   N  1S          0.00000   0.00000   0.00000   0.00000   0.00000
  38        2S         -0.00003  -0.00000  -0.00002   0.00000  -0.00000
  39        2PX        -0.00025  -0.00001  -0.00009   0.00000  -0.00000
  40        2PY        -0.00001  -0.00000  -0.00000   0.00000  -0.00000
  41        2PZ        -0.00010  -0.00000  -0.00001   0.00000  -0.00000
  42        3S         -0.00583  -0.00002  -0.00037   0.00000  -0.00003
  43        3PX        -0.00901  -0.00023  -0.00193   0.00000  -0.00007
  44        3PY        -0.00019  -0.00033  -0.00001  -0.00000  -0.00002
  45        3PZ        -0.00043   0.00004   0.00026  -0.00000  -0.00002
  46 6   H  1S          0.00000  -0.00000   0.00000   0.00000  -0.00000
  47        2S         -0.00002  -0.00002   0.00003  -0.00002   0.00006
  48 7   H  1S         -0.00019   0.00000  -0.00001  -0.00000   0.00000
  49        2S          0.00191   0.00000  -0.00023  -0.00000   0.00000
  50 8   H  1S          0.00000   0.00000   0.00000  -0.00000   0.00000
  51        2S         -0.00018  -0.00023   0.00019  -0.00000   0.00000
                          21        22        23        24        25
  21        2PX         0.54789
  22        2PY        -0.00000   0.51285
  23        2PZ        -0.00000   0.00000   0.50389
  24        3S          0.00000   0.00000   0.00000   1.36297
  25        3PX         0.30077  -0.00000  -0.00000   0.00000   0.69416
  26        3PY        -0.00000   0.27925   0.00000   0.00000  -0.00000
  27        3PZ        -0.00000   0.00000   0.27428   0.00000  -0.00000
  28 4   F  1S         -0.00000   0.00000  -0.00000  -0.00000  -0.00000
  29        2S          0.00000  -0.00000  -0.00000  -0.00000   0.00000
  30        2PX        -0.00000  -0.00000  -0.00000  -0.00000  -0.00001
  31        2PY         0.00000  -0.00000  -0.00000  -0.00004   0.00000
  32        2PZ        -0.00000  -0.00000  -0.00000  -0.00002  -0.00000
  33        3S          0.00000  -0.00006   0.00001  -0.00012   0.00000
  34        3PX        -0.00001   0.00000  -0.00000  -0.00000  -0.00055
  35        3PY         0.00000  -0.00021   0.00001  -0.00149   0.00000
  36        3PZ        -0.00000  -0.00003  -0.00000  -0.00079  -0.00000
  37 5   N  1S          0.00000   0.00000   0.00000   0.00000   0.00000
  38        2S         -0.00000  -0.00000  -0.00000  -0.00001  -0.00003
  39        2PX        -0.00000  -0.00000  -0.00000  -0.00005  -0.00025
  40        2PY        -0.00000   0.00000  -0.00000  -0.00001  -0.00005
  41        2PZ        -0.00000  -0.00000  -0.00000  -0.00001  -0.00006
  42        3S         -0.00040  -0.00001  -0.00001  -0.00086  -0.00583
  43        3PX        -0.00085  -0.00006  -0.00008  -0.00214  -0.00901
  44        3PY         0.00000   0.00001  -0.00000  -0.00019  -0.00005
  45        3PZ        -0.00004  -0.00001   0.00002  -0.00033  -0.00056
  46 6   H  1S         -0.00000  -0.00000  -0.00000  -0.00001  -0.00019
  47        2S          0.00020  -0.00001  -0.00001   0.00119   0.00191
  48 7   H  1S          0.00000   0.00000   0.00000   0.00000   0.00000
  49        2S         -0.00001   0.00001  -0.00001   0.00003  -0.00018
  50 8   H  1S          0.00000   0.00000   0.00000   0.00000   0.00000
  51        2S         -0.00000  -0.00001   0.00001   0.00004  -0.00002
                          26        27        28        29        30
  26        3PY         0.63856
  27        3PZ         0.00000   0.62716
  28 4   F  1S          0.00000  -0.00000   2.05887
  29        2S         -0.00001  -0.00000   0.01462   0.13757
  30        2PX        -0.00000  -0.00000   0.00000   0.00000   0.54789
  31        2PY        -0.00017  -0.00001   0.00000   0.00000   0.00000
  32        2PZ        -0.00005  -0.00000   0.00000   0.00000  -0.00000
  33        3S         -0.00266   0.00037  -0.09029   0.28541   0.00000
  34        3PX         0.00000  -0.00000   0.00000   0.00000   0.30077
  35        3PY        -0.00482   0.00010   0.00000   0.00000   0.00000
  36        3PZ        -0.00121   0.00001   0.00000   0.00000  -0.00000
  37 5   N  1S          0.00000   0.00000   0.00000   0.00000   0.00000
  38        2S         -0.00001  -0.00001   0.00000  -0.00000  -0.00000
  39        2PX        -0.00005  -0.00006   0.00000  -0.00000  -0.00000
  40        2PY        -0.00000  -0.00001   0.00000  -0.00000  -0.00000
  41        2PZ        -0.00001  -0.00000   0.00000  -0.00000  -0.00000
  42        3S         -0.00021  -0.00018   0.00000  -0.00003  -0.00040
  43        3PX        -0.00093  -0.00123   0.00000  -0.00007  -0.00085
  44        3PY         0.00001  -0.00003  -0.00000  -0.00004  -0.00005
  45        3PZ        -0.00011   0.00009  -0.00000  -0.00000   0.00001
  46 6   H  1S         -0.00001  -0.00000  -0.00000   0.00000   0.00000
  47        2S         -0.00011  -0.00012  -0.00000   0.00000  -0.00001
  48 7   H  1S          0.00000   0.00000  -0.00000   0.00000   0.00000
  49        2S          0.00010  -0.00014  -0.00000   0.00000  -0.00000
  50 8   H  1S          0.00000   0.00000   0.00000  -0.00000  -0.00000
  51        2S         -0.00013   0.00014  -0.00002   0.00006   0.00020
                          31        32        33        34        35
  31        2PY         0.46533
  32        2PZ        -0.00000   0.55141
  33        3S          0.00000   0.00000   1.36297
  34        3PX         0.00000  -0.00000   0.00000   0.69417
  35        3PY         0.25276  -0.00000   0.00000   0.00000   0.57740
  36        3PZ        -0.00000   0.30078   0.00000  -0.00000  -0.00000
  37 5   N  1S          0.00000   0.00000   0.00000   0.00000   0.00000
  38        2S         -0.00000  -0.00000  -0.00001  -0.00003  -0.00002
  39        2PX        -0.00000  -0.00000  -0.00005  -0.00025  -0.00010
  40        2PY        -0.00000  -0.00000  -0.00001  -0.00011  -0.00001
  41        2PZ        -0.00000  -0.00000  -0.00000  -0.00000  -0.00000
  42        3S         -0.00001  -0.00000  -0.00086  -0.00583  -0.00035
  43        3PX        -0.00014  -0.00000  -0.00214  -0.00901  -0.00208
  44        3PY         0.00005  -0.00001  -0.00052  -0.00068   0.00036
  45        3PZ        -0.00000  -0.00002  -0.00001   0.00007  -0.00002
  46 6   H  1S          0.00000  -0.00000   0.00000   0.00000   0.00000
  47        2S          0.00000  -0.00001   0.00003  -0.00018   0.00007
  48 7   H  1S          0.00000   0.00000   0.00000   0.00000   0.00000
  49        2S          0.00001  -0.00001   0.00004  -0.00002   0.00016
  50 8   H  1S         -0.00000  -0.00000  -0.00001  -0.00019  -0.00001
  51        2S         -0.00003   0.00000   0.00119   0.00191  -0.00023
                          36        37        38        39        40
  36        3PZ         0.68833
  37 5   N  1S          0.00000   2.04791
  38        2S         -0.00000   0.02081   0.10193
  39        2PX        -0.00000   0.00000   0.00000   0.38972
  40        2PY        -0.00000   0.00000   0.00000   0.00000   0.32859
  41        2PZ        -0.00000   0.00000   0.00000  -0.00000   0.00000
  42        3S         -0.00003  -0.08374   0.21607   0.00000   0.00000
  43        3PX        -0.00008   0.00000   0.00000   0.24767   0.00000
  44        3PY        -0.00006   0.00000   0.00000   0.00000   0.16506
  45        3PZ        -0.00031   0.00000   0.00000  -0.00000  -0.00000
  46 6   H  1S         -0.00000  -0.00087   0.00735   0.00534   0.01568
  47        2S         -0.00011   0.00077   0.00124   0.00257   0.00624
  48 7   H  1S          0.00000  -0.00087   0.00735   0.00535   0.00858
  49        2S         -0.00016   0.00077   0.00124   0.00257   0.00348
  50 8   H  1S         -0.00000  -0.00087   0.00735   0.00534   0.04748
  51        2S          0.00000   0.00077   0.00124   0.00257   0.01904
                          41        42        43        44        45
  41        2PZ         0.32859
  42        3S          0.00000   1.18669
  43        3PX        -0.00000   0.00000   0.60007
  44        3PY         0.00000   0.00000   0.00000   0.31396
  45        3PZ         0.16506   0.00000  -0.00000   0.00000   0.31397
  46 6   H  1S          0.03214   0.04595   0.01358   0.03391   0.06992
  47        2S          0.01294  -0.00450   0.00979   0.01949   0.03989
  48 7   H  1S          0.03924   0.04595   0.01360   0.01874   0.08508
  49        2S          0.01569  -0.00451   0.00980   0.01064   0.04873
  50 8   H  1S          0.00035   0.04595   0.01357   0.10310   0.00075
  51        2S          0.00013  -0.00451   0.00979   0.05894   0.00044
                          46        47        48        49        50
  46 6   H  1S          0.16315
  47        2S          0.05655   0.05769
  48 7   H  1S         -0.00044  -0.00425   0.16315
  49        2S         -0.00409  -0.00775   0.05655   0.05770
  50 8   H  1S         -0.00044  -0.00409  -0.00044  -0.00425   0.16315
  51        2S         -0.00425  -0.00775  -0.00409  -0.00775   0.05656
                          51
  51        2S          0.05770
     Gross orbital populations:
                           1
   1 1   B  1S          1.98308
   2        2S          0.38886
   3        2PX         0.27701
   4        2PY         0.37595
   5        2PZ         0.37595
   6        3S          0.06367
   7        3PX         0.16350
   8        3PY         0.09071
   9        3PZ         0.09072
  10 2   F  1S          1.98495
  11        2S          0.43999
  12        2PX         0.85891
  13        2PY         0.85665
  14        2PZ         0.75740
  15        3S          1.53471
  16        3PX         1.03857
  17        3PY         1.03492
  18        3PZ         0.95846
  19 3   F  1S          1.98495
  20        2S          0.43999
  21        2PX         0.85888
  22        2PY         0.81281
  23        2PZ         0.80127
  24        3S          1.53471
  25        3PX         1.03854
  26        3PY         1.00108
  27        3PZ         0.99232
  28 4   F  1S          1.98495
  29        2S          0.43999
  30        2PX         0.85888
  31        2PY         0.75163
  32        2PZ         0.86244
  33        3S          1.53471
  34        3PX         1.03855
  35        3PY         0.95410
  36        3PZ         1.03931
  37 5   N  1S          1.98755
  38        2S          0.36211
  39        2PX         0.68056
  40        2PY         0.59336
  41        2PZ         0.59336
  42        3S          1.36930
  43        3PX         0.95148
  44        3PY         0.71925
  45        3PZ         0.71926
  46 6   H  1S          0.43120
  47        2S          0.17566
  48 7   H  1S          0.43121
  49        2S          0.17566
  50 8   H  1S          0.43121
  51        2S          0.17566
          Condensed to atoms (all electrons):
               1          2          3          4          5          6
     1  B    2.902637   0.297134   0.297144   0.297133   0.039866  -0.008154
     2  F    0.297134   9.212047  -0.011780  -0.011779  -0.023740   0.000026
     3  F    0.297144  -0.011780   9.212018  -0.011778  -0.023733   0.002872
     4  F    0.297133  -0.011779  -0.011778   9.212034  -0.023733  -0.000203
     5  N    0.039866  -0.023740  -0.023733  -0.023733   7.073317   0.311423
     6  H   -0.008154   0.000026   0.002872  -0.000203   0.311423   0.333950
     7  H   -0.008157   0.002875  -0.000203   0.000026   0.311422  -0.016525
     8  H   -0.008160  -0.000203   0.000026   0.002876   0.311416  -0.016523
               7          8
     1  B   -0.008157  -0.008160
     2  F    0.002875  -0.000203
     3  F   -0.000203   0.000026
     4  F    0.000026   0.002876
     5  N    0.311422   0.311416
     6  H   -0.016525  -0.016523
     7  H    0.333955  -0.016527
     8  H   -0.016527   0.333962
 Mulliken charges:
               1
     1  B    1.190558
     2  F   -0.464580
     3  F   -0.464565
     4  F   -0.464576
     5  N   -0.976237
     6  H    0.393134
     7  H    0.393134
     8  H    0.393132
 Sum of Mulliken charges =  -0.00000
 Mulliken charges with hydrogens summed into heavy atoms:
               1
     1  B    1.190558
     2  F   -0.464580
     3  F   -0.464565
     4  F   -0.464576
     5  N    0.203163
 Electronic spatial extent (au):  <R**2>=            357.7785
 Charge=             -0.0000 electrons
 Dipole moment (field-independent basis, Debye):
    X=              6.8360    Y=              0.0004    Z=             -0.0013  Tot=              6.8360
 Quadrupole moment (field-independent basis, Debye-Ang):
   XX=            -18.1705   YY=            -29.0152   ZZ=            -29.0149
   XY=              0.0004   XZ=             -0.0021   YZ=              0.0002
 Traceless Quadrupole moment (field-independent basis, Debye-Ang):
   XX=              7.2297   YY=             -3.6150   ZZ=             -3.6147
   XY=              0.0004   XZ=             -0.0021   YZ=              0.0002
 Octapole moment (field-independent basis, Debye-Ang**2):
  XXX=             10.9471  YYY=             -1.9791  ZZZ=             -2.0904  XYY=              5.3909
  XXY=             -0.0007  XXZ=              0.0006  XZZ=              5.3897  YZZ=              1.9799
  YYZ=              2.0866  XYZ=              0.0008
 Hexadecapole moment (field-independent basis, Debye-Ang**3):
 XXXX=           -115.3611 YYYY=           -102.5117 ZZZZ=           -102.5089 XXXY=             -0.0021
 XXXZ=             -0.0002 YYYX=              3.8397 YYYZ=             -0.0007 ZZZX=              1.7954
 ZZZY=              0.0023 XXYY=            -34.3742 XXZZ=            -34.3704 YYZZ=            -34.1697
 XXYZ=             -0.0006 YYXZ=             -1.7987 ZZXY=             -3.8387
 N-N= 1.903975174371D+02 E-N=-1.280869175413D+03  KE= 3.758603528875D+02
 Orbital energies and kinetic energies (alpha):
                                 1                 2
   1         O               -26.112045         36.898653
   2         O               -26.111255         36.899782
   3         O               -26.111251         36.899781
   4         O               -15.592286         21.914696
   5         O                -7.687314         10.784103
   6         O                -1.575623          3.563135
   7         O                -1.526195          3.855557
   8         O                -1.526193          3.855551
   9         O                -1.277934          1.894708
  10         O                -0.769869          2.472388
  11         O                -0.763476          1.424704
  12         O                -0.763463          1.424745
  13         O                -0.700040          2.260623
  14         O                -0.680317          2.701207
  15         O                -0.680316          2.701208
  16         O                -0.590529          3.080284
  17         O                -0.590528          3.080277
  18         O                -0.570916          3.168193
  19         O                -0.570914          3.168200
  20         O                -0.554671          3.299464
  21         O                -0.543090          2.582916
  22         V                 0.200121          1.211539
  23         V                 0.275813          1.041095
  24         V                 0.275818          1.041098
  25         V                 0.426628          1.858655
  26         V                 0.455290          1.694606
  27         V                 0.455303          1.694658
  28         V                 0.485272          2.703641
  29         V                 0.697133          1.917675
  30         V                 0.806875          2.882686
  31         V                 0.806884          2.882720
  32         V                 0.969192          2.704047
  33         V                 1.154775          2.370276
  34         V                 1.154824          2.370402
  35         V                 1.207452          2.783669
  36         V                 1.477245          4.148703
  37         V                 1.477257          4.148696
  38         V                 1.551535          4.148092
  39         V                 2.274875          6.527372
  40         V                 2.274899          6.527366
  41         V                 2.376616          6.593400
  42         V                 2.392618          6.627521
  43         V                 2.392625          6.627521
  44         V                 2.454436          6.442511
  45         V                 2.555417          6.124761
  46         V                 2.559066          6.734720
  47         V                 2.559086          6.734723
  48         V                 2.770306          5.561957
  49         V                 4.037674          8.681607
  50         V                 4.037708          8.681613
  51         V                 4.472299          8.884821
 Total kinetic energy from orbitals= 3.758603528875D+02
 1\1\GINC-IISERK51\SP\RHF\3-21G\B1F3H3N1\GAUSSIAN\17-Jun-2025\0\\# hf/3
 -21g pop=full geom=connectivity\\Title Card Required\\0,1\B,0,0.207565
 ,0.000007,0.000016\F,0,0.546657,0.399557,1.273183\F,0,0.547186,0.90280
 1,-0.982433\F,0,0.547117,-1.302296,-0.290441\N,0,-1.483208,-0.000046,-
 0.000278\H,0,-1.807957,0.552113,-0.783159\H,0,-1.808195,0.401757,0.869
 306\H,0,-1.80786,-0.954144,-0.08707\\Version=EM64L-G16RevB.01\State=1-
 A\HF=-377.4051185\RMSD=6.797e-09\Dipole=-2.6894746,-0.0001499,-0.00050
 75\Quadrupole=5.3751215,-2.6876493,-2.6874722,0.0002973,0.0015637,-0.0
 001572\PG=C01 [X(B1F3H3N1)]\\@


 ONE OF THE BENEFITS OF A COLLEGE EDUCATION
 IS TO SHOW THE BOY ITS LITTLE AVAIL 
                                    EMERSON IN 'CULTURE'
 Job cpu time:       0 days  0 hours  0 minutes  0.6 seconds.
 Elapsed time:       0 days  0 hours  0 minutes  0.5 seconds.
 File lengths (MBytes):  RWF=      6 Int=      0 D2E=      0 Chk=      1 Scr=      1
 Normal termination of Gaussian 16 at Tue Jun 17 14:10:26 2025.
