 Entering Gaussian System, Link 0=g16
 Input=/home/gaussian/Documents/Summer_Internship/Acid_Base_adduct/Acid/BF3/neutral/BF3_sp.com
 Output=/home/gaussian/Documents/Summer_Internship/Acid_Base_adduct/Acid/BF3/neutral/BF3_sp.log
 Initial command:
 /usr/local/g16/l1.exe "/home/gaussian/tmp/Gau-75658.inp" -scrdir="/home/gaussian/tmp/"
 Entering Link 1 = /usr/local/g16/l1.exe PID=     75661.
  
 Copyright (c) 1988-2017, Gaussian, Inc.  All Rights Reserved.
  
 This is part of the Gaussian(R) 16 program.  It is based on
 the Gaussian(R) 09 system (copyright 2009, Gaussian, Inc.),
 the Gaussian(R) 03 system (copyright 2003, Gaussian, Inc.),
 the Gaussian(R) 98 system (copyright 1998, Gaussian, Inc.),
 the Gaussian(R) 94 system (copyright 1995, Gaussian, Inc.),
 the Gaussian 92(TM) system (copyright 1992, Gaussian, Inc.),
 the Gaussian 90(TM) system (copyright 1990, Gaussian, Inc.),
 the Gaussian 88(TM) system (copyright 1988, Gaussian, Inc.),
 the Gaussian 86(TM) system (copyright 1986, Carnegie Mellon
 University), and the Gaussian 82(TM) system (copyright 1983,
 Carnegie Mellon University). Gaussian is a federally registered
 trademark of Gaussian, Inc.
  
 This software contains proprietary and confidential information,
 including trade secrets, belonging to Gaussian, Inc.
  
 This software is provided under written license and may be
 used, copied, transmitted, or stored only in accord with that
 written license.
  
 The following legend is applicable only to US Government
 contracts under FAR:
  
                    RESTRICTED RIGHTS LEGEND
  
 Use, reproduction and disclosure by the US Government is
 subject to restrictions as set forth in subparagraphs (a)
 and (c) of the Commercial Computer Software - Restricted
 Rights clause in FAR 52.227-19.
  
 Gaussian, Inc.
 340 Quinnipiac St., Bldg. 40, Wallingford CT 06492
  
  
 ---------------------------------------------------------------
 Warning -- This program may not be used in any manner that
 competes with the business of Gaussian, Inc. or will provide
 assistance to any competitor of Gaussian, Inc.  The licensee
 of this program is prohibited from giving any competitor of
 Gaussian, Inc. access to this program.  By using this program,
 the user acknowledges that Gaussian, Inc. is engaged in the
 business of creating and licensing software in the field of
 computational chemistry and represents and warrants to the
 licensee that it is not a competitor of Gaussian, Inc. and that
 it will not use this program in any manner prohibited above.
 ---------------------------------------------------------------
  

 Cite this work as:
 Gaussian 16, Revision B.01,
 M. J. Frisch, G. W. Trucks, H. B. Schlegel, G. E. Scuseria, 
 M. A. Robb, J. R. Cheeseman, G. Scalmani, V. Barone, 
 G. A. Petersson, H. Nakatsuji, X. Li, M. Caricato, A. V. Marenich, 
 J. Bloino, B. G. Janesko, R. Gomperts, B. Mennucci, H. P. Hratchian, 
 J. V. Ortiz, A. F. Izmaylov, J. L. Sonnenberg, D. Williams-Young, 
 F. Ding, F. Lipparini, F. Egidi, J. Goings, B. Peng, A. Petrone, 
 T. Henderson, D. Ranasinghe, V. G. Zakrzewski, J. Gao, N. Rega, 
 G. Zheng, W. Liang, M. Hada, M. Ehara, K. Toyota, R. Fukuda, 
 J. Hasegawa, M. Ishida, T. Nakajima, Y. Honda, O. Kitao, H. Nakai, 
 T. Vreven, K. Throssell, J. A. Montgomery, Jr., J. E. Peralta, 
 F. Ogliaro, M. J. Bearpark, J. J. Heyd, E. N. Brothers, K. N. Kudin, 
 V. N. Staroverov, T. A. Keith, R. Kobayashi, J. Normand, 
 K. Raghavachari, A. P. Rendell, J. C. Burant, S. S. Iyengar, 
 J. Tomasi, M. Cossi, J. M. Millam, M. Klene, C. Adamo, R. Cammi, 
 J. W. Ochterski, R. L. Martin, K. Morokuma, O. Farkas, 
 J. B. Foresman, and D. J. Fox, Gaussian, Inc., Wallingford CT, 2016.
 
 ******************************************
 Gaussian 16:  EM64L-G16RevB.01 20-Dec-2017
                16-Jun-2025 
 ******************************************
 %chk=BF3_sp.chk
 -------------------------------------
 # hf/3-21g pop=full geom=connectivity
 -------------------------------------
 1/38=1,57=2,172=1/1;
 2/12=2,17=6,18=5,40=1/2;
 3/5=5,11=9,25=1,30=1/1,2,3;
 4//1;
 5/5=2,38=5/2;
 6/7=3,28=1/1;
 99/5=1,9=1/99;
 ------
 BF3 sp
 ------
 Symbolic Z-matrix:
 Charge =  0 Multiplicity = 1
 B                     0.        0.        0. 
 F                     0.        1.32848   0. 
 F                    -1.15049  -0.66424   0. 
 F                     1.15049  -0.66424   0. 
 
                          Input orientation:                          
 ---------------------------------------------------------------------
 Center     Atomic      Atomic             Coordinates (Angstroms)
 Number     Number       Type             X           Y           Z
 ---------------------------------------------------------------------
      1          5           0        0.000000    0.000000    0.000000
      2          9           0        0.000000    1.328476    0.000000
      3          9           0       -1.150494   -0.664238    0.000000
      4          9           0        1.150494   -0.664238    0.000000
 ---------------------------------------------------------------------
                    Distance matrix (angstroms):
                    1          2          3          4
     1  B    0.000000
     2  F    1.328476   0.000000
     3  F    1.328476   2.300988   0.000000
     4  F    1.328476   2.300988   2.300988   0.000000
 Stoichiometry    BF3
 Framework group  D3H[O(B),3C2(F)]
 Deg. of freedom     1
 Full point group                 D3H     NOp  12
 Largest Abelian subgroup         C2V     NOp   4
 Largest concise Abelian subgroup C2      NOp   2
                         Standard orientation:                         
 ---------------------------------------------------------------------
 Center     Atomic      Atomic             Coordinates (Angstroms)
 Number     Number       Type             X           Y           Z
 ---------------------------------------------------------------------
      1          5           0        0.000000    0.000000    0.000000
      2          9           0        0.000000    1.328476    0.000000
      3          9           0        1.150494   -0.664238    0.000000
      4          9           0       -1.150494   -0.664238    0.000000
 ---------------------------------------------------------------------
 Rotational constants (GHZ):          10.0485041          10.0485041           5.0242520
 Standard basis: 3-21G (6D, 7F)
 There are    17 symmetry adapted cartesian basis functions of A1  symmetry.
 There are     2 symmetry adapted cartesian basis functions of A2  symmetry.
 There are    11 symmetry adapted cartesian basis functions of B1  symmetry.
 There are     6 symmetry adapted cartesian basis functions of B2  symmetry.
 There are    17 symmetry adapted basis functions of A1  symmetry.
 There are     2 symmetry adapted basis functions of A2  symmetry.
 There are    11 symmetry adapted basis functions of B1  symmetry.
 There are     6 symmetry adapted basis functions of B2  symmetry.
    36 basis functions,    60 primitive gaussians,    36 cartesian basis functions
    16 alpha electrons       16 beta electrons
       nuclear repulsion energy       109.6598135995 Hartrees.
 NAtoms=    4 NActive=    4 NUniq=    2 SFac= 4.00D+00 NAtFMM=   60 NAOKFM=F Big=F
 Integral buffers will be    131072 words long.
 Raffenetti 1 integral format.
 Two-electron integral symmetry is turned on.
 One-electron integrals computed using PRISM.
 NBasis=    36 RedAO= T EigKep=  1.05D-01  NBF=    17     2    11     6
 NBsUse=    36 1.00D-06 EigRej= -1.00D+00 NBFU=    17     2    11     6
 ExpMin= 1.24D-01 ExpMax= 4.14D+02 ExpMxC= 4.14D+02 IAcc=3 IRadAn=         5 AccDes= 0.00D+00
 Harris functional with IExCor=  205 and IRadAn=       5 diagonalized for initial guess.
 HarFok:  IExCor=  205 AccDes= 0.00D+00 IRadAn=         5 IDoV= 1 UseB2=F ITyADJ=14
 ICtDFT=  3500011 ScaDFX=  1.000000  1.000000  1.000000  1.000000
 FoFCou: FMM=F IPFlag=           0 FMFlag=      100000 FMFlg1=           0
         NFxFlg=           0 DoJE=T BraDBF=F KetDBF=T FulRan=T
         wScrn=  0.000000 ICntrl=       500 IOpCl=  0 I1Cent=   200000004 NGrid=           0
         NMat0=    1 NMatS0=      1 NMatT0=    0 NMatD0=    1 NMtDS0=    0 NMtDT0=    0
 Petite list used in FoFCou.
 Initial guess orbital symmetries:
       Occupied  (A1') (E') (E') (A1') (A1') (E') (E') (A1') (E')
                 (E') (A2") (E') (E') (E") (E") (A2')
       Virtual   (A2") (A1') (E') (E') (A2") (E') (E') (A1') (E")
                 (E") (E') (E') (A2') (A1') (A2") (E') (E') (E')
                 (E') (A1')
 The electronic state of the initial guess is 1-A1'.
 Keep R1 ints in memory in symmetry-blocked form, NReq=1030783.
 Requested convergence on RMS density matrix=1.00D-08 within 128 cycles.
 Requested convergence on MAX density matrix=1.00D-06.
 Requested convergence on             energy=1.00D-06.
 No special actions if energy rises.
 SCF Done:  E(RHF) =  -321.465844851     A.U. after    9 cycles
            NFock=  9  Conv=0.67D-08     -V/T= 2.0046

 **********************************************************************

            Population analysis using the SCF Density.

 **********************************************************************

 Orbital symmetries:
       Occupied  (A1') (E') (E') (A1') (A1') (E') (E') (A1') (E')
                 (E') (A2") (E') (E') (E") (E") (A2')
       Virtual   (A2") (A1') (E') (E') (A2") (E') (E') (A1') (E")
                 (E") (E') (E') (A2') (A1') (A2") (E') (E') (E')
                 (E') (A1')
 The electronic state is 1-A1'.
 Alpha  occ. eigenvalues --  -26.21544 -26.21529 -26.21529  -7.78042  -1.67617
 Alpha  occ. eigenvalues --   -1.62966  -1.62966  -0.83221  -0.78740  -0.78740
 Alpha  occ. eigenvalues --   -0.75061  -0.67358  -0.67358  -0.66563  -0.66563
 Alpha  occ. eigenvalues --   -0.64726
 Alpha virt. eigenvalues --    0.17822   0.25826   0.41500   0.41500   0.55263
 Alpha virt. eigenvalues --    0.77883   0.77883   0.89706   2.17103   2.17103
 Alpha virt. eigenvalues --    2.28091   2.28091   2.29368   2.37982   2.42509
 Alpha virt. eigenvalues --    2.45291   2.45291   4.00736   4.00736   4.04075
     Molecular Orbital Coefficients:
                           1         2         3         4         5
                       (A1')--O   (E')--O   (E')--O  (A1')--O  (A1')--O
     Eigenvalues --   -26.21544 -26.21529 -26.21529  -7.78042  -1.67617
   1 1   B  1S         -0.00014  -0.00000   0.00000   0.98752  -0.09818
   2        2S          0.00425   0.00000   0.00000   0.09308   0.09099
   3        2PX         0.00000   0.00000   0.00526   0.00000   0.00000
   4        2PY        -0.00000   0.00526   0.00000   0.00000  -0.00000
   5        2PZ         0.00000   0.00000   0.00000   0.00000   0.00000
   6        3S          0.01313   0.00000   0.00000  -0.02292   0.02666
   7        3PX         0.00000   0.00000   0.01005   0.00000   0.00000
   8        3PY        -0.00000   0.01005   0.00000   0.00000   0.00000
   9        3PZ         0.00000   0.00000   0.00000   0.00000   0.00000
  10 2   F  1S          0.56702   0.80185   0.00000  -0.00010  -0.13799
  11        2S          0.05637   0.07930   0.00000   0.00182   0.13084
  12        2PX         0.00000   0.00000   0.00092   0.00000   0.00000
  13        2PY        -0.00178  -0.00209   0.00000  -0.00109  -0.04274
  14        2PZ         0.00000   0.00000   0.00000   0.00000   0.00000
  15        3S         -0.02121  -0.02957   0.00000  -0.00470   0.43400
  16        3PX         0.00000   0.00000  -0.00355   0.00000   0.00000
  17        3PY         0.00441   0.00457   0.00000   0.00854  -0.05979
  18        3PZ         0.00000   0.00000   0.00000   0.00000   0.00000
  19 3   F  1S          0.56702  -0.40092   0.69442  -0.00010  -0.13799
  20        2S          0.05637  -0.03965   0.06868   0.00182   0.13084
  21        2PX        -0.00154   0.00130  -0.00134  -0.00095  -0.03702
  22        2PY         0.00089   0.00016   0.00130   0.00055   0.02137
  23        2PZ         0.00000   0.00000   0.00000   0.00000   0.00000
  24        3S         -0.02121   0.01478  -0.02561  -0.00470   0.43400
  25        3PX         0.00382  -0.00352   0.00254   0.00740  -0.05178
  26        3PY        -0.00220  -0.00152  -0.00352  -0.00427   0.02990
  27        3PZ         0.00000   0.00000   0.00000   0.00000   0.00000
  28 4   F  1S          0.56702  -0.40092  -0.69442  -0.00010  -0.13799
  29        2S          0.05637  -0.03965  -0.06868   0.00182   0.13084
  30        2PX         0.00154  -0.00130  -0.00134   0.00095   0.03702
  31        2PY         0.00089   0.00016  -0.00130   0.00055   0.02137
  32        2PZ         0.00000   0.00000   0.00000   0.00000   0.00000
  33        3S         -0.02121   0.01478   0.02561  -0.00470   0.43400
  34        3PX        -0.00382   0.00352   0.00254  -0.00740   0.05178
  35        3PY        -0.00220  -0.00152   0.00352  -0.00427   0.02990
  36        3PZ         0.00000   0.00000   0.00000   0.00000   0.00000
                           6         7         8         9        10
                        (E')--O   (E')--O  (A1')--O   (E')--O   (E')--O
     Eigenvalues --    -1.62966  -1.62966  -0.83221  -0.78740  -0.78740
   1 1   B  1S          0.00000  -0.00000   0.14751   0.00000   0.00000
   2        2S          0.00000  -0.00000  -0.24616   0.00000   0.00000
   3        2PX         0.10076   0.00000   0.00000   0.27752   0.00000
   4        2PY         0.00000   0.10076  -0.00000   0.00000  -0.27752
   5        2PZ         0.00000   0.00000   0.00000   0.00000   0.00000
   6        3S          0.00000   0.00000  -0.07977   0.00000  -0.00000
   7        3PX        -0.00963   0.00000   0.00000   0.03523   0.00000
   8        3PY         0.00000  -0.00963  -0.00000   0.00000  -0.03523
   9        3PZ         0.00000   0.00000   0.00000   0.00000   0.00000
  10 2   F  1S          0.00000  -0.20347  -0.04872   0.00000  -0.04611
  11        2S          0.00000   0.19613   0.05247   0.00000   0.04295
  12        2PX         0.00830   0.00000   0.00000   0.23805   0.00000
  13        2PY         0.00000  -0.05014   0.25360   0.00000   0.30541
  14        2PZ         0.00000   0.00000   0.00000   0.00000   0.00000
  15        3S          0.00000   0.63918   0.18413   0.00000   0.21068
  16        3PX         0.00788   0.00000   0.00000   0.25867   0.00000
  17        3PY         0.00000  -0.06130   0.27455   0.00000   0.30348
  18        3PZ         0.00000   0.00000   0.00000   0.00000   0.00000
  19 3   F  1S         -0.17621   0.10173  -0.04872   0.03993   0.02306
  20        2S          0.16986  -0.09807   0.05247  -0.03720  -0.02148
  21        2PX        -0.03553   0.02531   0.21962  -0.16954  -0.23532
  22        2PY         0.02531  -0.00631  -0.12680   0.23532  -0.10219
  23        2PZ         0.00000   0.00000   0.00000   0.00000   0.00000
  24        3S          0.55354  -0.31959   0.18413  -0.18245  -0.10534
  25        3PX        -0.04401   0.02996   0.23776  -0.16294  -0.24342
  26        3PY         0.02996  -0.00942  -0.13727   0.24342  -0.11813
  27        3PZ         0.00000   0.00000   0.00000   0.00000   0.00000
  28 4   F  1S          0.17621   0.10173  -0.04872  -0.03993   0.02306
  29        2S         -0.16986  -0.09807   0.05247   0.03720  -0.02148
  30        2PX        -0.03553  -0.02531  -0.21962  -0.16954   0.23532
  31        2PY        -0.02531  -0.00631  -0.12680  -0.23532  -0.10219
  32        2PZ         0.00000   0.00000   0.00000   0.00000   0.00000
  33        3S         -0.55354  -0.31959   0.18413   0.18245  -0.10534
  34        3PX        -0.04401  -0.02996  -0.23776  -0.16294   0.24342
  35        3PY        -0.02996  -0.00942  -0.13727  -0.24342  -0.11813
  36        3PZ         0.00000   0.00000   0.00000   0.00000   0.00000
                          11        12        13        14        15
                       (A2")--O   (E')--O   (E')--O   (E")--O   (E")--O
     Eigenvalues --    -0.75061  -0.67358  -0.67358  -0.66563  -0.66563
   1 1   B  1S          0.00000   0.00000   0.00000   0.00000   0.00000
   2        2S          0.00000  -0.00000   0.00000   0.00000   0.00000
   3        2PX         0.00000   0.00000  -0.09713   0.00000   0.00000
   4        2PY         0.00000  -0.09713   0.00000   0.00000   0.00000
   5        2PZ         0.19173   0.00000   0.00000   0.00000   0.00000
   6        3S          0.00000  -0.00000   0.00000   0.00000   0.00000
   7        3PX         0.00000   0.00000   0.13959   0.00000   0.00000
   8        3PY         0.00000   0.13959   0.00000   0.00000   0.00000
   9        3PZ         0.15527   0.00000   0.00000   0.00000   0.00000
  10 2   F  1S          0.00000  -0.00908   0.00000   0.00000   0.00000
  11        2S          0.00000   0.02320   0.00000   0.00000   0.00000
  12        2PX         0.00000   0.00000   0.35231   0.00000   0.00000
  13        2PY         0.00000   0.25804   0.00000   0.00000   0.00000
  14        2PZ         0.27845   0.00000   0.00000   0.43928   0.00000
  15        3S          0.00000  -0.01494   0.00000   0.00000   0.00000
  16        3PX         0.00000   0.00000   0.38485   0.00000   0.00000
  17        3PY         0.00000   0.28968   0.00000   0.00000   0.00000
  18        3PZ         0.28954   0.00000   0.00000   0.50834   0.00000
  19 3   F  1S          0.00000   0.00454  -0.00786   0.00000   0.00000
  20        2S          0.00000  -0.01160   0.02010   0.00000   0.00000
  21        2PX         0.00000   0.04082   0.28161   0.00000   0.00000
  22        2PY         0.00000   0.32874   0.04082   0.00000   0.00000
  23        2PZ         0.27845   0.00000   0.00000  -0.21964   0.38043
  24        3S          0.00000   0.00747  -0.01294   0.00000   0.00000
  25        3PX         0.00000   0.04121   0.31347   0.00000   0.00000
  26        3PY         0.00000   0.36105   0.04121   0.00000   0.00000
  27        3PZ         0.28954   0.00000   0.00000  -0.25417   0.44024
  28 4   F  1S          0.00000   0.00454   0.00786   0.00000   0.00000
  29        2S          0.00000  -0.01160  -0.02010   0.00000   0.00000
  30        2PX         0.00000  -0.04082   0.28161   0.00000   0.00000
  31        2PY         0.00000   0.32874  -0.04082   0.00000   0.00000
  32        2PZ         0.27845   0.00000   0.00000  -0.21964  -0.38043
  33        3S          0.00000   0.00747   0.01294   0.00000   0.00000
  34        3PX         0.00000  -0.04121   0.31347   0.00000   0.00000
  35        3PY         0.00000   0.36105  -0.04121   0.00000   0.00000
  36        3PZ         0.28954   0.00000   0.00000  -0.25417  -0.44024
                          16        17        18        19        20
                       (A2')--O  (A2")--V  (A1')--V   (E')--V   (E')--V
     Eigenvalues --    -0.64726   0.17822   0.25826   0.41500   0.41500
   1 1   B  1S          0.00000   0.00000  -0.16054   0.00000  -0.00000
   2        2S          0.00000   0.00000  -0.11551   0.00000   0.00000
   3        2PX        -0.00000   0.00000   0.00000   0.10141   0.00000
   4        2PY         0.00000   0.00000  -0.00000   0.00000   0.10141
   5        2PZ         0.00000   0.46079   0.00000   0.00000   0.00000
   6        3S          0.00000   0.00000   1.58366   0.00000  -0.00000
   7        3PX         0.00000   0.00000   0.00000   1.43511   0.00000
   8        3PY         0.00000   0.00000  -0.00000   0.00000   1.43511
   9        3PZ         0.00000   0.73895   0.00000   0.00000   0.00000
  10 2   F  1S          0.00000   0.00000   0.06491   0.00000   0.07876
  11        2S          0.00000   0.00000  -0.04034   0.00000  -0.03209
  12        2PX         0.32162   0.00000   0.00000  -0.17693   0.00000
  13        2PY         0.00000   0.00000   0.13378   0.00000   0.05103
  14        2PZ         0.00000  -0.17917   0.00000   0.00000   0.00000
  15        3S          0.00000   0.00000  -0.50968   0.00000  -0.77216
  16        3PX         0.35523   0.00000   0.00000  -0.29342   0.00000
  17        3PY         0.00000   0.00000   0.25726   0.00000   0.15167
  18        3PZ         0.00000  -0.27024   0.00000   0.00000   0.00000
  19 3   F  1S         -0.00000   0.00000   0.06491   0.06821  -0.03938
  20        2S         -0.00000   0.00000  -0.04034  -0.02779   0.01604
  21        2PX        -0.16081   0.00000   0.11585  -0.00596  -0.09871
  22        2PY        -0.27853   0.00000  -0.06689  -0.09871  -0.11994
  23        2PZ         0.00000  -0.17917   0.00000   0.00000   0.00000
  24        3S          0.00000   0.00000  -0.50968  -0.66871   0.38608
  25        3PX        -0.17762   0.00000   0.22280   0.04040  -0.19273
  26        3PY        -0.30764   0.00000  -0.12863  -0.19273  -0.18215
  27        3PZ         0.00000  -0.27024   0.00000   0.00000   0.00000
  28 4   F  1S          0.00000   0.00000   0.06491  -0.06821  -0.03938
  29        2S          0.00000   0.00000  -0.04034   0.02779   0.01604
  30        2PX        -0.16081   0.00000  -0.11585  -0.00596   0.09871
  31        2PY         0.27853   0.00000  -0.06689   0.09871  -0.11994
  32        2PZ         0.00000  -0.17917   0.00000   0.00000   0.00000
  33        3S         -0.00000   0.00000  -0.50968   0.66871   0.38608
  34        3PX        -0.17762   0.00000  -0.22280   0.04040   0.19273
  35        3PY         0.30764   0.00000  -0.12863   0.19273  -0.18215
  36        3PZ         0.00000  -0.27024   0.00000   0.00000   0.00000
                          21        22        23        24        25
                       (A2")--V   (E')--V   (E')--V  (A1')--V   (E")--V
     Eigenvalues --     0.55263   0.77883   0.77883   0.89706   2.17103
   1 1   B  1S          0.00000   0.00000   0.00000  -0.10535   0.00000
   2        2S          0.00000  -0.00000   0.00000   1.68694   0.00000
   3        2PX         0.00000   0.00000   1.37195   0.00000   0.00000
   4        2PY         0.00000   1.37195   0.00000   0.00000   0.00000
   5        2PZ         1.08880   0.00000   0.00000   0.00000  -0.00000
   6        3S          0.00000   0.00000   0.00000  -1.16032   0.00000
   7        3PX         0.00000   0.00000  -0.63365   0.00000   0.00000
   8        3PY         0.00000  -0.63365   0.00000  -0.00000   0.00000
   9        3PZ        -1.05002   0.00000   0.00000   0.00000  -0.00000
  10 2   F  1S          0.00000   0.03618   0.00000   0.01551   0.00000
  11        2S          0.00000  -0.04877   0.00000  -0.02981   0.00000
  12        2PX         0.00000   0.00000  -0.07410   0.00000   0.00000
  13        2PY         0.00000   0.25899   0.00000   0.19942   0.00000
  14        2PZ        -0.00523   0.00000   0.00000   0.00000   0.82770
  15        3S          0.00000  -0.13545   0.00000   0.05366   0.00000
  16        3PX         0.00000   0.00000  -0.02431   0.00000   0.00000
  17        3PY         0.00000   0.44506   0.00000   0.19987   0.00000
  18        3PZ         0.05932   0.00000   0.00000   0.00000  -0.79305
  19 3   F  1S          0.00000  -0.01809   0.03133   0.01551   0.00000
  20        2S          0.00000   0.02438  -0.04223  -0.02981   0.00000
  21        2PX         0.00000  -0.14424   0.17572   0.17271   0.00000
  22        2PY         0.00000   0.00917  -0.14424  -0.09971   0.00000
  23        2PZ        -0.00523   0.00000   0.00000   0.00000  -0.41385
  24        3S          0.00000   0.06772  -0.11730   0.05366   0.00000
  25        3PX         0.00000  -0.20324   0.32771   0.17309   0.00000
  26        3PY         0.00000   0.09303  -0.20324  -0.09993   0.00000
  27        3PZ         0.05932   0.00000   0.00000   0.00000   0.39652
  28 4   F  1S          0.00000  -0.01809  -0.03133   0.01551   0.00000
  29        2S          0.00000   0.02438   0.04223  -0.02981   0.00000
  30        2PX         0.00000   0.14424   0.17572  -0.17271   0.00000
  31        2PY         0.00000   0.00917   0.14424  -0.09971   0.00000
  32        2PZ        -0.00523   0.00000   0.00000   0.00000  -0.41385
  33        3S          0.00000   0.06772   0.11730   0.05366   0.00000
  34        3PX         0.00000   0.20324   0.32771  -0.17309   0.00000
  35        3PY         0.00000   0.09303   0.20324  -0.09993   0.00000
  36        3PZ         0.05932   0.00000   0.00000   0.00000   0.39652
                          26        27        28        29        30
                        (E")--V   (E')--V   (E')--V  (A2')--V  (A1')--V
     Eigenvalues --     2.17103   2.28091   2.28091   2.29368   2.37982
   1 1   B  1S          0.00000   0.00000   0.00000   0.00000   0.04883
   2        2S          0.00000  -0.00000   0.00000   0.00000   0.81987
   3        2PX         0.00000   0.00000  -0.30386  -0.00000   0.00000
   4        2PY         0.00000  -0.30386   0.00000   0.00000  -0.00000
   5        2PZ         0.00000   0.00000   0.00000   0.00000   0.00000
   6        3S          0.00000  -0.00000   0.00000   0.00000  -0.06135
   7        3PX         0.00000   0.00000  -0.32310  -0.00000   0.00000
   8        3PY         0.00000  -0.32310   0.00000   0.00000   0.00000
   9        3PZ         0.00000   0.00000   0.00000   0.00000   0.00000
  10 2   F  1S          0.00000  -0.04478   0.00000   0.00000   0.02975
  11        2S          0.00000   0.20807   0.00000   0.00000  -0.12566
  12        2PX         0.00000   0.00000  -0.76349  -0.58434   0.00000
  13        2PY         0.00000   0.24042   0.00000   0.00000  -0.56607
  14        2PZ         0.00000   0.00000   0.00000   0.00000   0.00000
  15        3S          0.00000   0.08639   0.00000   0.00000  -0.02187
  16        3PX         0.00000   0.00000   0.83510   0.58837   0.00000
  17        3PY         0.00000  -0.36183   0.00000   0.00000   0.73645
  18        3PZ         0.00000   0.00000   0.00000   0.00000   0.00000
  19 3   F  1S          0.00000   0.02239  -0.03878  -0.00000   0.02975
  20        2S          0.00000  -0.10403   0.18019   0.00000  -0.12566
  21        2PX         0.00000  -0.43471  -0.01056   0.29217  -0.49023
  22        2PY         0.00000  -0.51252  -0.43471   0.50606   0.28304
  23        2PZ         0.71681   0.00000   0.00000   0.00000   0.00000
  24        3S          0.00000  -0.04320   0.07482   0.00000  -0.02187
  25        3PX         0.00000   0.51829  -0.06260  -0.29418   0.63779
  26        3PY         0.00000   0.53587   0.51829  -0.50954  -0.36823
  27        3PZ        -0.68680   0.00000   0.00000   0.00000   0.00000
  28 4   F  1S          0.00000   0.02239   0.03878   0.00000   0.02975
  29        2S          0.00000  -0.10403  -0.18019  -0.00000  -0.12566
  30        2PX         0.00000   0.43471  -0.01056   0.29217   0.49023
  31        2PY         0.00000  -0.51252   0.43471  -0.50606   0.28304
  32        2PZ        -0.71681   0.00000   0.00000   0.00000   0.00000
  33        3S          0.00000  -0.04320  -0.07482  -0.00000  -0.02187
  34        3PX         0.00000  -0.51829  -0.06260  -0.29418  -0.63779
  35        3PY         0.00000   0.53587  -0.51829   0.50954  -0.36823
  36        3PZ         0.68680   0.00000   0.00000   0.00000   0.00000
                          31        32        33        34        35
                       (A2")--V   (E')--V   (E')--V   (E')--V   (E')--V
     Eigenvalues --     2.42509   2.45291   2.45291   4.00736   4.00736
   1 1   B  1S          0.00000   0.00000   0.00000   0.00000  -0.00000
   2        2S          0.00000   0.00000   0.00000   0.00000   0.00000
   3        2PX         0.00000   0.47750   0.00000  -0.44785   0.00000
   4        2PY         0.00000   0.00000   0.47750   0.00000  -0.44785
   5        2PZ        -0.11097   0.00000   0.00000   0.00000   0.00000
   6        3S          0.00000   0.00000  -0.00000   0.00000   0.00000
   7        3PX         0.00000  -0.29185   0.00000  -0.62361   0.00000
   8        3PY         0.00000   0.00000  -0.29185   0.00000  -0.62361
   9        3PZ        -0.40741   0.00000   0.00000   0.00000   0.00000
  10 2   F  1S          0.00000   0.00000   0.01440   0.00000   0.07778
  11        2S          0.00000   0.00000  -0.06532   0.00000  -1.29629
  12        2PX         0.00000  -0.27484   0.00000  -0.16449   0.00000
  13        2PY         0.00000   0.00000  -0.78331   0.00000   0.13237
  14        2PZ        -0.58836   0.00000   0.00000   0.00000   0.00000
  15        3S          0.00000   0.00000   0.02407   0.00000   1.57584
  16        3PX         0.00000   0.29217   0.00000   0.34780   0.00000
  17        3PY         0.00000   0.00000   0.96747   0.00000  -0.37302
  18        3PZ         0.68176   0.00000   0.00000   0.00000   0.00000
  19 3   F  1S          0.00000   0.01247  -0.00720   0.06736  -0.03889
  20        2S          0.00000  -0.05657   0.03266  -1.12262   0.64815
  21        2PX         0.00000  -0.65620   0.22017   0.05815  -0.12854
  22        2PY         0.00000   0.22017  -0.40196  -0.12854  -0.09027
  23        2PZ        -0.58836   0.00000   0.00000   0.00000   0.00000
  24        3S          0.00000   0.02085  -0.01204   1.36472  -0.78792
  25        3PX         0.00000   0.79864  -0.29242  -0.19282   0.31212
  26        3PY         0.00000  -0.29242   0.46099   0.31212   0.16759
  27        3PZ         0.68176   0.00000   0.00000   0.00000   0.00000
  28 4   F  1S          0.00000  -0.01247  -0.00720  -0.06736  -0.03889
  29        2S          0.00000   0.05657   0.03266   1.12262   0.64815
  30        2PX         0.00000  -0.65620  -0.22017   0.05815   0.12854
  31        2PY         0.00000  -0.22017  -0.40196   0.12854  -0.09027
  32        2PZ        -0.58836   0.00000   0.00000   0.00000   0.00000
  33        3S          0.00000  -0.02085  -0.01204  -1.36472  -0.78792
  34        3PX         0.00000   0.79864   0.29242  -0.19282  -0.31212
  35        3PY         0.00000   0.29242   0.46099  -0.31212   0.16759
  36        3PZ         0.68176   0.00000   0.00000   0.00000   0.00000
                          36
                       (A1')--V
     Eigenvalues --     4.04075
   1 1   B  1S          0.02167
   2        2S         -0.41623
   3        2PX         0.00000
   4        2PY        -0.00000
   5        2PZ         0.00000
   6        3S         -0.72742
   7        3PX         0.00000
   8        3PY        -0.00000
   9        3PZ         0.00000
  10 2   F  1S          0.05427
  11        2S         -0.92890
  12        2PX         0.00000
  13        2PY         0.13487
  14        2PZ         0.00000
  15        3S          1.10104
  16        3PX         0.00000
  17        3PY        -0.35438
  18        3PZ         0.00000
  19 3   F  1S          0.05427
  20        2S         -0.92890
  21        2PX         0.11680
  22        2PY        -0.06744
  23        2PZ         0.00000
  24        3S          1.10104
  25        3PX        -0.30690
  26        3PY         0.17719
  27        3PZ         0.00000
  28 4   F  1S          0.05427
  29        2S         -0.92890
  30        2PX        -0.11680
  31        2PY        -0.06744
  32        2PZ         0.00000
  33        3S          1.10104
  34        3PX         0.30690
  35        3PY         0.17719
  36        3PZ         0.00000
     Density Matrix:
                           1         2         3         4         5
   1 1   B  1S          2.01320
   2        2S          0.09335   0.15511
   3        2PX         0.00000   0.00000   0.19326
   4        2PY        -0.00000  -0.00000   0.00000   0.19326
   5        2PZ        -0.00000  -0.00000   0.00000  -0.00000   0.07352
   6        3S         -0.07403   0.03997  -0.00000   0.00000   0.00000
   7        3PX        -0.00000  -0.00000  -0.00940   0.00000  -0.00000
   8        3PY         0.00000   0.00000   0.00000  -0.00940   0.00000
   9        3PZ         0.00000   0.00000  -0.00000   0.00000   0.05954
  10 2   F  1S          0.01237   0.00368  -0.00000  -0.00521  -0.00000
  11        2S         -0.00664  -0.00121   0.00000   0.01201   0.00000
  12        2PX         0.00000  -0.00000   0.06537  -0.00000   0.00000
  13        2PY         0.08105  -0.13285  -0.00000  -0.22977  -0.00000
  14        2PZ         0.00000   0.00000   0.00000   0.00000   0.10677
  15        3S         -0.04017  -0.01273   0.00000   0.01446   0.00000
  16        3PX         0.00000  -0.00000   0.07037  -0.00000   0.00000
  17        3PY         0.10961  -0.14442  -0.00000  -0.23702   0.00000
  18        3PZ         0.00000   0.00000   0.00000   0.00000   0.11103
  19 3   F  1S          0.01237   0.00368  -0.00451   0.00261  -0.00000
  20        2S         -0.00664  -0.00121   0.01040  -0.00601  -0.00000
  21        2PX         0.07019  -0.11505  -0.15598   0.12780  -0.00000
  22        2PY        -0.04053   0.06642   0.12780  -0.00841   0.00000
  23        2PZ        -0.00000   0.00000  -0.00000   0.00000   0.10677
  24        3S         -0.04017  -0.01273   0.01253  -0.00723   0.00000
  25        3PX         0.09493  -0.12507  -0.16017   0.13310  -0.00000
  26        3PY        -0.05481   0.07221   0.13310  -0.00648   0.00000
  27        3PZ         0.00000   0.00000  -0.00000   0.00000   0.11103
  28 4   F  1S          0.01237   0.00368   0.00451   0.00261   0.00000
  29        2S         -0.00664  -0.00121  -0.01040  -0.00601   0.00000
  30        2PX        -0.07019   0.11505  -0.15598  -0.12780  -0.00000
  31        2PY        -0.04053   0.06642  -0.12780  -0.00841  -0.00000
  32        2PZ         0.00000  -0.00000  -0.00000  -0.00000   0.10677
  33        3S         -0.04017  -0.01273  -0.01253  -0.00723  -0.00000
  34        3PX        -0.09493   0.12507  -0.16017  -0.13310  -0.00000
  35        3PY        -0.05481   0.07221  -0.13310  -0.00648  -0.00000
  36        3PZ        -0.00000  -0.00000  -0.00000  -0.00000   0.11103
                           6         7         8         9        10
   6        3S          0.01554
   7        3PX         0.00000   0.04184
   8        3PY        -0.00000   0.00000   0.04184
   9        3PZ        -0.00000  -0.00000  -0.00000   0.04822
  10 2   F  1S          0.01531   0.00000   0.02075   0.00000   2.05900
  11        2S          0.00000   0.00000   0.00127   0.00000   0.06569
  12        2PX        -0.00000   0.11499  -0.00000  -0.00000  -0.00000
  13        2PY        -0.04274  -0.00000   0.05145  -0.00000  -0.03073
  14        2PZ         0.00000   0.00000  -0.00000   0.08647  -0.00000
  15        3S         -0.00658  -0.00000  -0.03192  -0.00000  -0.48845
  16        3PX        -0.00000   0.12544  -0.00000  -0.00000  -0.00000
  17        3PY        -0.04727  -0.00000   0.06076  -0.00000  -0.00622
  18        3PZ         0.00000   0.00000  -0.00000   0.08991  -0.00000
  19 3   F  1S          0.01531   0.01797  -0.01038  -0.00000  -0.00070
  20        2S          0.00000   0.00110  -0.00063   0.00000   0.00121
  21        2PX        -0.03701   0.06733   0.02751   0.00000  -0.00018
  22        2PY         0.02137   0.02751   0.09910  -0.00000   0.01375
  23        2PZ        -0.00000  -0.00000   0.00000   0.08647   0.00000
  24        3S         -0.00658  -0.02765   0.01596   0.00000   0.00157
  25        3PX        -0.04093   0.07693   0.02801   0.00000  -0.00068
  26        3PY         0.02363   0.02801   0.10927  -0.00000   0.00836
  27        3PZ        -0.00000  -0.00000   0.00000   0.08991  -0.00000
  28 4   F  1S          0.01531  -0.01797  -0.01038   0.00000  -0.00070
  29        2S          0.00000  -0.00110  -0.00063  -0.00000   0.00121
  30        2PX         0.03701   0.06733  -0.02751   0.00000   0.00018
  31        2PY         0.02137  -0.02751   0.09910   0.00000   0.01375
  32        2PZ         0.00000  -0.00000  -0.00000   0.08647  -0.00000
  33        3S         -0.00658   0.02765   0.01596  -0.00000   0.00157
  34        3PX         0.04093   0.07693  -0.02801   0.00000   0.00068
  35        3PY         0.02363  -0.02801   0.10927   0.00000   0.00836
  36        3PZ         0.00000  -0.00000  -0.00000   0.08991   0.00000
                          11        12        13        14        15
  11        2S          0.14038
  12        2PX         0.00000   0.56860
  13        2PY         0.03343  -0.00000   0.45704
  14        2PZ        -0.00000   0.00000  -0.00000   0.54101
  15        3S          0.39392   0.00000   0.11337   0.00000   1.35351
  16        3PX         0.00000   0.62295  -0.00000   0.00000   0.00000
  17        3PY         0.02988  -0.00000   0.48532   0.00000   0.08951
  18        3PZ        -0.00000  -0.00000  -0.00000   0.60786  -0.00000
  19 3   F  1S          0.00121   0.01182  -0.00703  -0.00000   0.00157
  20        2S         -0.00104  -0.00060   0.00612  -0.00000  -0.00124
  21        2PX         0.00500   0.01368  -0.01065  -0.00000  -0.01928
  22        2PY        -0.00358  -0.03793   0.04173  -0.00000  -0.08914
  23        2PZ         0.00000  -0.00000  -0.00000  -0.03791  -0.00000
  24        3S         -0.00124  -0.08684   0.02787  -0.00000  -0.00858
  25        3PX         0.00405   0.02833  -0.00542   0.00000  -0.02292
  26        3PY        -0.00417  -0.05247   0.04296  -0.00000  -0.09698
  27        3PZ         0.00000   0.00000  -0.00000  -0.06207  -0.00000
  28 4   F  1S          0.00121  -0.01182  -0.00703   0.00000   0.00157
  29        2S         -0.00104   0.00060   0.00612   0.00000  -0.00124
  30        2PX        -0.00500   0.01368   0.01065  -0.00000   0.01928
  31        2PY        -0.00358   0.03793   0.04173   0.00000  -0.08914
  32        2PZ        -0.00000  -0.00000   0.00000  -0.03791   0.00000
  33        3S         -0.00124   0.08684   0.02787   0.00000  -0.00858
  34        3PX        -0.00405   0.02833   0.00542   0.00000   0.02292
  35        3PY        -0.00417   0.05247   0.04296   0.00000  -0.09698
  36        3PZ        -0.00000   0.00000   0.00000  -0.06207   0.00000
                          16        17        18        19        20
  16        3PX         0.68256
  17        3PY        -0.00000   0.51767
  18        3PZ        -0.00000  -0.00000   0.68449
  19 3   F  1S          0.00690  -0.00477   0.00000   2.05900
  20        2S         -0.00159   0.00560   0.00000   0.06569   0.14038
  21        2PX         0.01424   0.00272   0.00000  -0.02661   0.02895
  22        2PY        -0.04433   0.05705   0.00000   0.01536  -0.01672
  23        2PZ         0.00000   0.00000  -0.06207  -0.00000   0.00000
  24        3S         -0.09545   0.02865   0.00000  -0.48845   0.39392
  25        3PX         0.03008   0.00933   0.00000  -0.00539   0.02588
  26        3PY        -0.06042   0.05958   0.00000   0.00311  -0.01494
  27        3PZ         0.00000   0.00000  -0.09075   0.00000  -0.00000
  28 4   F  1S         -0.00690  -0.00477  -0.00000  -0.00070   0.00121
  29        2S          0.00159   0.00560  -0.00000   0.00121  -0.00104
  30        2PX         0.01424  -0.00272   0.00000   0.01200  -0.00560
  31        2PY         0.04433   0.05705  -0.00000  -0.00672  -0.00254
  32        2PZ         0.00000  -0.00000  -0.06207  -0.00000  -0.00000
  33        3S          0.09545   0.02865  -0.00000   0.00157  -0.00124
  34        3PX         0.03008  -0.00933   0.00000   0.00758  -0.00564
  35        3PY         0.06042   0.05958  -0.00000  -0.00359  -0.00143
  36        3PZ         0.00000  -0.00000  -0.09075   0.00000  -0.00000
                          21        22        23        24        25
  21        2PX         0.48493
  22        2PY         0.04830   0.54071
  23        2PZ         0.00000   0.00000   0.54101
  24        3S          0.09818  -0.05668   0.00000   1.35351
  25        3PX         0.51973   0.05959  -0.00000   0.07752   0.55890
  26        3PY         0.05959   0.58854   0.00000  -0.04476   0.07140
  27        3PZ        -0.00000  -0.00000   0.60786   0.00000  -0.00000
  28 4   F  1S         -0.01200  -0.00672   0.00000   0.00157  -0.00758
  29        2S          0.00560  -0.00254   0.00000  -0.00124   0.00564
  30        2PX         0.05576   0.01364   0.00000  -0.06756   0.06437
  31        2PY        -0.01364  -0.00035  -0.00000   0.06127  -0.03166
  32        2PZ         0.00000   0.00000  -0.03791   0.00000   0.00000
  33        3S          0.06756   0.06127  -0.00000  -0.00858   0.07253
  34        3PX         0.06437   0.03166   0.00000  -0.07253   0.07432
  35        3PY        -0.01539   0.00692  -0.00000   0.06834  -0.03488
  36        3PZ        -0.00000  -0.00000  -0.06207   0.00000  -0.00000
                          26        27        28        29        30
  26        3PY         0.64134
  27        3PZ        -0.00000   0.68449
  28 4   F  1S         -0.00359  -0.00000   2.05900
  29        2S         -0.00143   0.00000   0.06569   0.14038
  30        2PX         0.01539  -0.00000   0.02661  -0.02895   0.48493
  31        2PY         0.00692   0.00000   0.01536  -0.01672  -0.04830
  32        2PZ         0.00000  -0.06207   0.00000  -0.00000   0.00000
  33        3S          0.06834  -0.00000  -0.48845   0.39392  -0.09818
  34        3PX         0.03488  -0.00000   0.00539  -0.02588   0.51973
  35        3PY         0.01533  -0.00000   0.00311  -0.01494  -0.05959
  36        3PZ         0.00000  -0.09075  -0.00000   0.00000  -0.00000
                          31        32        33        34        35
  31        2PY         0.54071
  32        2PZ        -0.00000   0.54101
  33        3S         -0.05668  -0.00000   1.35351
  34        3PX        -0.05959  -0.00000  -0.07752   0.55890
  35        3PY         0.58854  -0.00000  -0.04476  -0.07140   0.64134
  36        3PZ         0.00000   0.60786  -0.00000  -0.00000   0.00000
                          36
  36        3PZ         0.68449
    Full Mulliken population analysis:
                           1         2         3         4         5
   1 1   B  1S          2.01320
   2        2S          0.01707   0.15511
   3        2PX         0.00000   0.00000   0.19326
   4        2PY         0.00000   0.00000   0.00000   0.19326
   5        2PZ         0.00000   0.00000   0.00000   0.00000   0.07352
   6        3S         -0.01287   0.03099   0.00000   0.00000   0.00000
   7        3PX         0.00000   0.00000  -0.00518   0.00000  -0.00000
   8        3PY         0.00000   0.00000   0.00000  -0.00518   0.00000
   9        3PZ         0.00000   0.00000  -0.00000  -0.00000   0.03282
  10 2   F  1S          0.00000   0.00005  -0.00000  -0.00016  -0.00000
  11        2S         -0.00000  -0.00010   0.00000   0.00199   0.00000
  12        2PX        -0.00000   0.00000   0.00241   0.00000  -0.00000
  13        2PY        -0.00005   0.01138   0.00000   0.03284   0.00000
  14        2PZ        -0.00000  -0.00000  -0.00000  -0.00000   0.00394
  15        3S         -0.00112  -0.00318   0.00000   0.00515   0.00000
  16        3PX        -0.00000   0.00000   0.01437   0.00000  -0.00000
  17        3PY        -0.00956   0.05841   0.00000   0.10063  -0.00000
  18        3PZ        -0.00000  -0.00000  -0.00000  -0.00000   0.02267
  19 3   F  1S          0.00000   0.00005  -0.00012  -0.00004   0.00000
  20        2S         -0.00000  -0.00010   0.00149   0.00050   0.00000
  21        2PX        -0.00004   0.00853   0.01528   0.00995  -0.00000
  22        2PY        -0.00001   0.00284   0.00995   0.00007  -0.00000
  23        2PZ        -0.00000   0.00000  -0.00000  -0.00000   0.00394
  24        3S         -0.00112  -0.00318   0.00386   0.00129  -0.00000
  25        3PX        -0.00717   0.04381   0.04282   0.03624  -0.00000
  26        3PY        -0.00239   0.01460   0.03624  -0.00030  -0.00000
  27        3PZ         0.00000   0.00000  -0.00000  -0.00000   0.02267
  28 4   F  1S          0.00000   0.00005  -0.00012  -0.00004  -0.00000
  29        2S         -0.00000  -0.00010   0.00149   0.00050  -0.00000
  30        2PX        -0.00004   0.00853   0.01528   0.00995  -0.00000
  31        2PY        -0.00001   0.00284   0.00995   0.00007  -0.00000
  32        2PZ        -0.00000  -0.00000   0.00000   0.00000   0.00394
  33        3S         -0.00112  -0.00318   0.00386   0.00129  -0.00000
  34        3PX        -0.00717   0.04381   0.04282   0.03624  -0.00000
  35        3PY        -0.00239   0.01460   0.03624  -0.00030  -0.00000
  36        3PZ         0.00000  -0.00000   0.00000   0.00000   0.02267
                           6         7         8         9        10
   6        3S          0.01554
   7        3PX         0.00000   0.04184
   8        3PY         0.00000   0.00000   0.04184
   9        3PZ         0.00000  -0.00000   0.00000   0.04822
  10 2   F  1S          0.00048   0.00000   0.00115   0.00000   2.05900
  11        2S          0.00000   0.00000   0.00034   0.00000   0.01410
  12        2PX         0.00000   0.00705   0.00000  -0.00000   0.00000
  13        2PY         0.00232   0.00000  -0.00152   0.00000   0.00000
  14        2PZ        -0.00000  -0.00000   0.00000   0.00530   0.00000
  15        3S         -0.00256  -0.00000  -0.01748  -0.00000  -0.08967
  16        3PX         0.00000   0.03940   0.00000  -0.00000   0.00000
  17        3PY         0.01314   0.00000  -0.00469   0.00000   0.00000
  18        3PZ        -0.00000   0.00000   0.00000   0.02824   0.00000
  19 3   F  1S          0.00048   0.00086   0.00029   0.00000   0.00000
  20        2S          0.00000   0.00026   0.00009  -0.00000   0.00000
  21        2PX         0.00174  -0.00046   0.00108   0.00000   0.00000
  22        2PY         0.00058   0.00108   0.00382   0.00000   0.00000
  23        2PZ        -0.00000  -0.00000  -0.00000   0.00530   0.00000
  24        3S         -0.00256  -0.01311  -0.00437  -0.00000   0.00000
  25        3PX         0.00985   0.00158   0.00475   0.00000   0.00000
  26        3PY         0.00328   0.00475   0.02363   0.00000   0.00000
  27        3PZ        -0.00000  -0.00000  -0.00000   0.02824   0.00000
  28 4   F  1S          0.00048   0.00086   0.00029   0.00000   0.00000
  29        2S          0.00000   0.00026   0.00009   0.00000   0.00000
  30        2PX         0.00174  -0.00046   0.00108   0.00000   0.00000
  31        2PY         0.00058   0.00108   0.00382   0.00000   0.00000
  32        2PZ         0.00000  -0.00000   0.00000   0.00530   0.00000
  33        3S         -0.00256  -0.01311  -0.00437   0.00000   0.00000
  34        3PX         0.00985   0.00158   0.00475   0.00000   0.00000
  35        3PY         0.00328   0.00475   0.02363  -0.00000   0.00000
  36        3PZ         0.00000  -0.00000   0.00000   0.02824  -0.00000
                          11        12        13        14        15
  11        2S          0.14038
  12        2PX         0.00000   0.56860
  13        2PY         0.00000  -0.00000   0.45704
  14        2PZ         0.00000   0.00000   0.00000   0.54101
  15        3S          0.28843   0.00000   0.00000   0.00000   1.35351
  16        3PX         0.00000   0.30423   0.00000   0.00000   0.00000
  17        3PY         0.00000  -0.00000   0.23702   0.00000   0.00000
  18        3PZ         0.00000  -0.00000   0.00000   0.29686   0.00000
  19 3   F  1S          0.00000   0.00000   0.00000   0.00000   0.00000
  20        2S         -0.00000  -0.00000  -0.00000   0.00000  -0.00000
  21        2PX        -0.00000  -0.00000  -0.00000  -0.00000   0.00001
  22        2PY        -0.00000  -0.00000  -0.00000   0.00000  -0.00007
  23        2PZ         0.00000  -0.00000   0.00000  -0.00000   0.00000
  24        3S         -0.00000  -0.00004  -0.00002   0.00000  -0.00009
  25        3PX        -0.00000  -0.00002  -0.00001   0.00000   0.00036
  26        3PY        -0.00001  -0.00010  -0.00012   0.00000  -0.00265
  27        3PZ         0.00000   0.00000   0.00000  -0.00002  -0.00000
  28 4   F  1S          0.00000   0.00000   0.00000   0.00000   0.00000
  29        2S         -0.00000  -0.00000  -0.00000   0.00000  -0.00000
  30        2PX        -0.00000  -0.00000  -0.00000  -0.00000   0.00001
  31        2PY        -0.00000  -0.00000  -0.00000   0.00000  -0.00007
  32        2PZ         0.00000  -0.00000   0.00000  -0.00000  -0.00000
  33        3S         -0.00000  -0.00004  -0.00002  -0.00000  -0.00009
  34        3PX        -0.00000  -0.00002  -0.00001   0.00000   0.00036
  35        3PY        -0.00001  -0.00010  -0.00012  -0.00000  -0.00265
  36        3PZ         0.00000   0.00000   0.00000  -0.00002  -0.00000
                          16        17        18        19        20
  16        3PX         0.68256
  17        3PY        -0.00000   0.51767
  18        3PZ        -0.00000   0.00000   0.68449
  19 3   F  1S          0.00000   0.00000  -0.00000   2.05900
  20        2S         -0.00000  -0.00001   0.00000   0.01410   0.14038
  21        2PX        -0.00001   0.00000   0.00000   0.00000   0.00000
  22        2PY        -0.00008  -0.00016   0.00000   0.00000   0.00000
  23        2PZ        -0.00000   0.00000  -0.00002   0.00000   0.00000
  24        3S         -0.00151  -0.00078  -0.00000  -0.08967   0.28843
  25        3PX        -0.00040   0.00039   0.00000   0.00000   0.00000
  26        3PY        -0.00250  -0.00364  -0.00000   0.00000   0.00000
  27        3PZ         0.00000  -0.00000  -0.00095   0.00000   0.00000
  28 4   F  1S          0.00000   0.00000   0.00000   0.00000   0.00000
  29        2S         -0.00000  -0.00001  -0.00000   0.00000  -0.00000
  30        2PX        -0.00001   0.00000   0.00000   0.00000  -0.00000
  31        2PY        -0.00008  -0.00016  -0.00000   0.00000   0.00000
  32        2PZ         0.00000  -0.00000  -0.00002   0.00000   0.00000
  33        3S         -0.00151  -0.00078  -0.00000   0.00000  -0.00000
  34        3PX        -0.00040   0.00039   0.00000   0.00000  -0.00001
  35        3PY        -0.00250  -0.00364  -0.00000   0.00000  -0.00000
  36        3PZ         0.00000  -0.00000  -0.00095   0.00000   0.00000
                          21        22        23        24        25
  21        2PX         0.48493
  22        2PY         0.00000   0.54071
  23        2PZ         0.00000  -0.00000   0.54101
  24        3S          0.00000   0.00000   0.00000   1.35351
  25        3PX         0.25382   0.00000  -0.00000   0.00000   0.55890
  26        3PY        -0.00000   0.28743   0.00000   0.00000   0.00000
  27        3PZ        -0.00000   0.00000   0.29686   0.00000  -0.00000
  28 4   F  1S          0.00000   0.00000   0.00000   0.00000   0.00000
  29        2S         -0.00000  -0.00000   0.00000  -0.00000  -0.00001
  30        2PX        -0.00000   0.00000   0.00000  -0.00006  -0.00025
  31        2PY        -0.00000  -0.00000  -0.00000  -0.00000  -0.00000
  32        2PZ         0.00000   0.00000  -0.00000   0.00000   0.00000
  33        3S         -0.00006  -0.00000  -0.00000  -0.00009  -0.00229
  34        3PX        -0.00025  -0.00000   0.00000  -0.00229  -0.00631
  35        3PY         0.00000   0.00000  -0.00000  -0.00000  -0.00000
  36        3PZ        -0.00000  -0.00000  -0.00002  -0.00000  -0.00000
                          26        27        28        29        30
  26        3PY         0.64134
  27        3PZ         0.00000   0.68449
  28 4   F  1S          0.00000  -0.00000   2.05900
  29        2S         -0.00000   0.00000   0.01410   0.14038
  30        2PX         0.00000  -0.00000   0.00000   0.00000   0.48493
  31        2PY         0.00000   0.00000   0.00000   0.00000   0.00000
  32        2PZ         0.00000  -0.00002   0.00000   0.00000   0.00000
  33        3S          0.00000  -0.00000  -0.08967   0.28843   0.00000
  34        3PX         0.00000  -0.00000   0.00000   0.00000   0.25382
  35        3PY         0.00016  -0.00000   0.00000   0.00000   0.00000
  36        3PZ         0.00000  -0.00095   0.00000   0.00000  -0.00000
                          31        32        33        34        35
  31        2PY         0.54071
  32        2PZ         0.00000   0.54101
  33        3S          0.00000   0.00000   1.35351
  34        3PX         0.00000  -0.00000   0.00000   0.55890
  35        3PY         0.28743  -0.00000   0.00000  -0.00000   0.64134
  36        3PZ         0.00000   0.29686   0.00000  -0.00000   0.00000
                          36
  36        3PZ         0.68449
     Gross orbital populations:
                           1
   1 1   B  1S          1.98522
   2        2S          0.40284
   3        2PX         0.42392
   4        2PY         0.42392
   5        2PZ         0.18616
   6        3S          0.07382
   7        3PX         0.07303
   8        3PY         0.07303
   9        3PZ         0.18166
  10 2   F  1S          1.98497
  11        2S          0.44512
  12        2PX         0.88197
  13        2PY         0.73872
  14        2PZ         0.84707
  15        3S          1.52820
  16        3PX         1.03156
  17        3PY         0.90420
  18        3PZ         1.03032
  19 3   F  1S          1.98497
  20        2S          0.44512
  21        2PX         0.77454
  22        2PY         0.84616
  23        2PZ         0.84707
  24        3S          1.52820
  25        3PX         0.93604
  26        3PY         0.99972
  27        3PZ         1.03032
  28 4   F  1S          1.98497
  29        2S          0.44512
  30        2PX         0.77454
  31        2PY         0.84616
  32        2PZ         0.84707
  33        3S          1.52820
  34        3PX         0.93604
  35        3PY         0.99972
  36        3PZ         1.03032
          Condensed to atoms (all electrons):
               1          2          3          4
     1  B    2.891096   0.310835   0.310835   0.310835
     2  F    0.310835   9.106203  -0.012453  -0.012453
     3  F    0.310835  -0.012453   9.106203  -0.012453
     4  F    0.310835  -0.012453  -0.012453   9.106203
 Mulliken charges:
               1
     1  B    1.176399
     2  F   -0.392133
     3  F   -0.392133
     4  F   -0.392133
 Sum of Mulliken charges =   0.00000
 Mulliken charges with hydrogens summed into heavy atoms:
               1
     1  B    1.176399
     2  F   -0.392133
     3  F   -0.392133
     4  F   -0.392133
 Electronic spatial extent (au):  <R**2>=            216.4399
 Charge=              0.0000 electrons
 Dipole moment (field-independent basis, Debye):
    X=              0.0000    Y=              0.0000    Z=             -0.0000  Tot=              0.0000
 Quadrupole moment (field-independent basis, Debye-Ang):
   XX=            -22.6718   YY=            -22.6718   ZZ=            -16.8985
   XY=             -0.0000   XZ=              0.0000   YZ=              0.0000
 Traceless Quadrupole moment (field-independent basis, Debye-Ang):
   XX=             -1.9244   YY=             -1.9244   ZZ=              3.8489
   XY=             -0.0000   XZ=              0.0000   YZ=              0.0000
 Octapole moment (field-independent basis, Debye-Ang**2):
  XXX=              0.0000  YYY=             -3.1780  ZZZ=             -0.0000  XYY=             -0.0000
  XXY=              3.1780  XXZ=             -0.0000  XZZ=              0.0000  YZZ=             -0.0000
  YYZ=             -0.0000  XYZ=              0.0000
 Hexadecapole moment (field-independent basis, Debye-Ang**3):
 XXXX=            -91.1878 YYYY=            -91.1878 ZZZZ=             -9.5914 XXXY=              0.0000
 XXXZ=              0.0000 YYYX=              0.0000 YYYZ=             -0.0000 ZZZX=             -0.0000
 ZZZY=             -0.0000 XXYY=            -30.3959 XXZZ=            -15.8874 YYZZ=            -15.8874
 XXYZ=              0.0000 YYXZ=              0.0000 ZZXY=              0.0000
 N-N= 1.096598135995D+02 E-N=-9.865704809634D+02  KE= 3.200096444379D+02
 Symmetry A1   KE= 2.020339050488D+02
 Symmetry A2   KE= 6.352327174181D+00
 Symmetry B1   KE= 1.001369349825D+02
 Symmetry B2   KE= 1.148647723246D+01
 Orbital energies and kinetic energies (alpha):
                                 1                 2
   1         (A1')--O        -26.215442         36.900263
   2         (E')--O         -26.215293         36.900301
   3         (E')--O         -26.215293         36.900301
   4         (A1')--O         -7.780421         10.788987
   5         (A1')--O         -1.676167          3.618193
   6         (E')--O          -1.629662          3.854106
   7         (E')--O          -1.629662          3.854106
   8         (A1')--O         -0.832206          2.983140
   9         (E')--O          -0.787397          2.826628
  10         (E')--O          -0.787397          2.826628
  11         (A2")--O         -0.750614          2.567075
  12         (E')--O          -0.673580          3.145334
  13         (E')--O          -0.673580          3.145334
  14         (E")--O          -0.665632          3.176164
  15         (E")--O          -0.665632          3.176164
  16         (A2')--O         -0.647264          3.342098
  17         (A2")--V          0.178219          1.680960
  18         (A1')--V          0.258257          1.953667
  19         (E')--V           0.415003          1.527881
  20         (E')--V           0.415003          1.527881
  21         (A2")--V          0.552627          1.566691
  22         (E')--V           0.778832          3.237895
  23         (E')--V           0.778832          3.237895
  24         (A1')--V          0.897061          3.063867
  25         (E")--V           2.171034          6.543119
  26         (E")--V           2.171034          6.543119
  27         (E')--V           2.280914          6.583628
  28         (E')--V           2.280914          6.583628
  29         (A2')--V          2.293677          6.557006
  30         (A1')--V          2.379821          6.460663
  31         (A2")--V          2.425093          6.605788
  32         (E')--V           2.452907          6.676715
  33         (E')--V           2.452907          6.676715
  34         (E')--V           4.007357          8.677157
  35         (E')--V           4.007357          8.677157
  36         (A1')--V          4.040751          8.701296
 Total kinetic energy from orbitals= 3.200096444379D+02
 1\1\GINC-IISERK51\SP\RHF\3-21G\B1F3\GAUSSIAN\16-Jun-2025\0\\# hf/3-21g
  pop=full geom=connectivity\\BF3 sp\\0,1\B,0,0.,0.,0.\F,0,0.,1.328476,
 0.\F,0,-1.150494,-0.664238,0.\F,0,1.150494,-0.664238,0.\\Version=EM64L
 -G16RevB.01\State=1-A1'\HF=-321.4658449\RMSD=6.695e-09\Dipole=0.,0.,0.
 \Quadrupole=-1.4307667,-1.4307667,2.8615333,0.,0.,0.\PG=D03H [O(B1),3C
 2(F1)]\\@


 TO DETECT ERRORS, THE PROGRAMMER MUST HAVE A CONNIVING MIND,
 ONE THAT DELIGHTS IN UNCOVERING FLAWS WHERE BEAUTY AND
 PERFECTION WERE ONCE THOUGHT TO LIE.

             -- THE PSYCHOLOGY OF COMPUTER PROGRAMMING
                GERALD M. WEINBERG
 Job cpu time:       0 days  0 hours  0 minutes  0.4 seconds.
 Elapsed time:       0 days  0 hours  0 minutes  0.4 seconds.
 File lengths (MBytes):  RWF=      6 Int=      0 D2E=      0 Chk=      1 Scr=      1
 Normal termination of Gaussian 16 at Mon Jun 16 18:21:46 2025.
