 Entering Gaussian System, Link 0=g16
 Input=/home/gaussian/Documents/Summer_Internship/Acid_Base_adduct/Acid/BF3/neutral/BF3_opt.com
 Output=/home/gaussian/Documents/Summer_Internship/Acid_Base_adduct/Acid/BF3/neutral/BF3_opt.log
 Initial command:
 /usr/local/g16/l1.exe "/home/gaussian/tmp/Gau-75645.inp" -scrdir="/home/gaussian/tmp/"
 Entering Link 1 = /usr/local/g16/l1.exe PID=     75648.
  
 Copyright (c) 1988-2017, Gaussian, Inc.  All Rights Reserved.
  
 This is part of the Gaussian(R) 16 program.  It is based on
 the Gaussian(R) 09 system (copyright 2009, Gaussian, Inc.),
 the Gaussian(R) 03 system (copyright 2003, Gaussian, Inc.),
 the Gaussian(R) 98 system (copyright 1998, Gaussian, Inc.),
 the Gaussian(R) 94 system (copyright 1995, Gaussian, Inc.),
 the Gaussian 92(TM) system (copyright 1992, Gaussian, Inc.),
 the Gaussian 90(TM) system (copyright 1990, Gaussian, Inc.),
 the Gaussian 88(TM) system (copyright 1988, Gaussian, Inc.),
 the Gaussian 86(TM) system (copyright 1986, Carnegie Mellon
 University), and the Gaussian 82(TM) system (copyright 1983,
 Carnegie Mellon University). Gaussian is a federally registered
 trademark of Gaussian, Inc.
  
 This software contains proprietary and confidential information,
 including trade secrets, belonging to Gaussian, Inc.
  
 This software is provided under written license and may be
 used, copied, transmitted, or stored only in accord with that
 written license.
  
 The following legend is applicable only to US Government
 contracts under FAR:
  
                    RESTRICTED RIGHTS LEGEND
  
 Use, reproduction and disclosure by the US Government is
 subject to restrictions as set forth in subparagraphs (a)
 and (c) of the Commercial Computer Software - Restricted
 Rights clause in FAR 52.227-19.
  
 Gaussian, Inc.
 340 Quinnipiac St., Bldg. 40, Wallingford CT 06492
  
  
 ---------------------------------------------------------------
 Warning -- This program may not be used in any manner that
 competes with the business of Gaussian, Inc. or will provide
 assistance to any competitor of Gaussian, Inc.  The licensee
 of this program is prohibited from giving any competitor of
 Gaussian, Inc. access to this program.  By using this program,
 the user acknowledges that Gaussian, Inc. is engaged in the
 business of creating and licensing software in the field of
 computational chemistry and represents and warrants to the
 licensee that it is not a competitor of Gaussian, Inc. and that
 it will not use this program in any manner prohibited above.
 ---------------------------------------------------------------
  

 Cite this work as:
 Gaussian 16, Revision B.01,
 M. J. Frisch, G. W. Trucks, H. B. Schlegel, G. E. Scuseria, 
 M. A. Robb, J. R. Cheeseman, G. Scalmani, V. Barone, 
 G. A. Petersson, H. Nakatsuji, X. Li, M. Caricato, A. V. Marenich, 
 J. Bloino, B. G. Janesko, R. Gomperts, B. Mennucci, H. P. Hratchian, 
 J. V. Ortiz, A. F. Izmaylov, J. L. Sonnenberg, D. Williams-Young, 
 F. Ding, F. Lipparini, F. Egidi, J. Goings, B. Peng, A. Petrone, 
 T. Henderson, D. Ranasinghe, V. G. Zakrzewski, J. Gao, N. Rega, 
 G. Zheng, W. Liang, M. Hada, M. Ehara, K. Toyota, R. Fukuda, 
 J. Hasegawa, M. Ishida, T. Nakajima, Y. Honda, O. Kitao, H. Nakai, 
 T. Vreven, K. Throssell, J. A. Montgomery, Jr., J. E. Peralta, 
 F. Ogliaro, M. J. Bearpark, J. J. Heyd, E. N. Brothers, K. N. Kudin, 
 V. N. Staroverov, T. A. Keith, R. Kobayashi, J. Normand, 
 K. Raghavachari, A. P. Rendell, J. C. Burant, S. S. Iyengar, 
 J. Tomasi, M. Cossi, J. M. Millam, M. Klene, C. Adamo, R. Cammi, 
 J. W. Ochterski, R. L. Martin, K. Morokuma, O. Farkas, 
 J. B. Foresman, and D. J. Fox, Gaussian, Inc., Wallingford CT, 2016.
 
 ******************************************
 Gaussian 16:  EM64L-G16RevB.01 20-Dec-2017
                16-Jun-2025 
 ******************************************
 %chk=BF3_opt.chk
 ----------------------------------------------
 # opt freq hf/3-21g pop=full geom=connectivity
 ----------------------------------------------
 1/18=20,19=15,38=1,57=2/1,3;
 2/9=110,12=2,17=6,18=5,40=1/2;
 3/5=5,11=9,25=1,30=1,71=1/1,2,3;
 4//1;
 5/5=2,38=5/2;
 6/7=3,28=1/1;
 7//1,2,3,16;
 1/18=20,19=15/3(2);
 2/9=110/2;
 99//99;
 2/9=110/2;
 3/5=5,11=9,25=1,30=1,71=1/1,2,3;
 4/5=5,16=3,69=1/1;
 5/5=2,38=5/2;
 7//1,2,3,16;
 1/18=20,19=15/3(-5);
 2/9=110/2;
 6/7=3,19=2,28=1/1;
 99/9=1/99;
 -------
 BF3 opt
 -------
 Symbolic Z-matrix:
 Charge =  0 Multiplicity = 1
 B                     0.81404  -0.61207   0. 
 F                     0.08404  -1.87647   0. 
 F                     0.08404   0.65232   0. 
 F                     2.27404  -0.61207   0. 
 

 GradGradGradGradGradGradGradGradGradGradGradGradGradGradGradGradGradGrad
 Berny optimization.
 Initialization pass.
                           ----------------------------
                           !    Initial Parameters    !
                           ! (Angstroms and Degrees)  !
 --------------------------                            --------------------------
 ! Name  Definition              Value          Derivative Info.                !
 --------------------------------------------------------------------------------
 ! R1    R(1,2)                  1.46           estimate D2E/DX2                !
 ! R2    R(1,3)                  1.46           estimate D2E/DX2                !
 ! R3    R(1,4)                  1.46           estimate D2E/DX2                !
 ! A1    A(2,1,3)              120.0            estimate D2E/DX2                !
 ! A2    A(2,1,4)              120.0            estimate D2E/DX2                !
 ! A3    A(3,1,4)              120.0            estimate D2E/DX2                !
 ! D1    D(2,1,4,3)            180.0            estimate D2E/DX2                !
 --------------------------------------------------------------------------------
 Trust Radius=3.00D-01 FncErr=1.00D-07 GrdErr=1.00D-07 EigMax=2.50D+02 EigMin=1.00D-04
 Number of steps in this run=     20 maximum allowed number of steps=    100.
 GradGradGradGradGradGradGradGradGradGradGradGradGradGradGradGradGradGrad

                          Input orientation:                          
 ---------------------------------------------------------------------
 Center     Atomic      Atomic             Coordinates (Angstroms)
 Number     Number       Type             X           Y           Z
 ---------------------------------------------------------------------
      1          5           0        0.814044   -0.612074    0.000000
      2          9           0        0.084044   -1.876471    0.000000
      3          9           0        0.084044    0.652323    0.000000
      4          9           0        2.274044   -0.612074    0.000000
 ---------------------------------------------------------------------
                    Distance matrix (angstroms):
                    1          2          3          4
     1  B    0.000000
     2  F    1.460000   0.000000
     3  F    1.460000   2.528794   0.000000
     4  F    1.460000   2.528794   2.528794   0.000000
 Stoichiometry    BF3
 Framework group  D3H[O(B),3C2(F)]
 Deg. of freedom     1
 Full point group                 D3H     NOp  12
 Largest Abelian subgroup         C2V     NOp   4
 Largest concise Abelian subgroup C2      NOp   2
                         Standard orientation:                         
 ---------------------------------------------------------------------
 Center     Atomic      Atomic             Coordinates (Angstroms)
 Number     Number       Type             X           Y           Z
 ---------------------------------------------------------------------
      1          5           0        0.000000    0.000000    0.000000
      2          9           0       -0.000000    1.460000    0.000000
      3          9           0       -1.264397   -0.730000   -0.000000
      4          9           0        1.264397   -0.730000   -0.000000
 ---------------------------------------------------------------------
 Rotational constants (GHZ):           8.3196131           8.3196131           4.1598066
 Standard basis: 3-21G (6D, 7F)
 There are    17 symmetry adapted cartesian basis functions of A1  symmetry.
 There are     2 symmetry adapted cartesian basis functions of A2  symmetry.
 There are    11 symmetry adapted cartesian basis functions of B1  symmetry.
 There are     6 symmetry adapted cartesian basis functions of B2  symmetry.
 There are    17 symmetry adapted basis functions of A1  symmetry.
 There are     2 symmetry adapted basis functions of A2  symmetry.
 There are    11 symmetry adapted basis functions of B1  symmetry.
 There are     6 symmetry adapted basis functions of B2  symmetry.
    36 basis functions,    60 primitive gaussians,    36 cartesian basis functions
    16 alpha electrons       16 beta electrons
       nuclear repulsion energy        99.7811171996 Hartrees.
 NAtoms=    4 NActive=    4 NUniq=    2 SFac= 4.00D+00 NAtFMM=   60 NAOKFM=F Big=F
 Integral buffers will be    131072 words long.
 Raffenetti 1 integral format.
 Two-electron integral symmetry is turned on.
 One-electron integrals computed using PRISM.
 NBasis=    36 RedAO= T EigKep=  1.17D-01  NBF=    17     2    11     6
 NBsUse=    36 1.00D-06 EigRej= -1.00D+00 NBFU=    17     2    11     6
 ExpMin= 1.24D-01 ExpMax= 4.14D+02 ExpMxC= 4.14D+02 IAcc=3 IRadAn=         5 AccDes= 0.00D+00
 Harris functional with IExCor=  205 and IRadAn=       5 diagonalized for initial guess.
 HarFok:  IExCor=  205 AccDes= 0.00D+00 IRadAn=         5 IDoV= 1 UseB2=F ITyADJ=14
 ICtDFT=  3500011 ScaDFX=  1.000000  1.000000  1.000000  1.000000
 FoFCou: FMM=F IPFlag=           0 FMFlag=      100000 FMFlg1=           0
         NFxFlg=           0 DoJE=T BraDBF=F KetDBF=T FulRan=T
         wScrn=  0.000000 ICntrl=       500 IOpCl=  0 I1Cent=   200000004 NGrid=           0
         NMat0=    1 NMatS0=      1 NMatT0=    0 NMatD0=    1 NMtDS0=    0 NMtDT0=    0
 Petite list used in FoFCou.
 Initial guess orbital symmetries:
       Occupied  (A1') (E') (E') (A1') (A1') (E') (E') (A1') (E')
                 (E') (A2") (E') (E') (E") (E") (A2')
       Virtual   (A2") (A1') (E') (E') (A2") (E') (E') (A1') (E")
                 (E") (A2') (E') (E') (E') (E') (A2") (A1') (E')
                 (E') (A1')
 The electronic state of the initial guess is 1-A1'.
 Keep R1 ints in memory in symmetry-blocked form, NReq=1030480.
 Requested convergence on RMS density matrix=1.00D-08 within 128 cycles.
 Requested convergence on MAX density matrix=1.00D-06.
 Requested convergence on             energy=1.00D-06.
 No special actions if energy rises.
 SCF Done:  E(RHF) =  -321.418697741     A.U. after   10 cycles
            NFock= 10  Conv=0.16D-08     -V/T= 2.0069

 **********************************************************************

            Population analysis using the SCF Density.

 **********************************************************************

 Orbital symmetries:
       Occupied  (A1') (E') (E') (A1') (A1') (E') (E') (A1') (E')
                 (E') (A2") (E') (E') (E") (E") (A2')
       Virtual   (A2") (A1') (E') (E') (A2") (E') (E') (A1') (E")
                 (E") (A2') (E') (E') (A2") (E') (E') (A1') (E')
                 (E') (A1')
 The electronic state is 1-A1'.
 Alpha  occ. eigenvalues --  -26.20953 -26.20945 -26.20945  -7.82764  -1.62215
 Alpha  occ. eigenvalues --   -1.59326  -1.59326  -0.80159  -0.74049  -0.74049
 Alpha  occ. eigenvalues --   -0.71013  -0.65322  -0.65322  -0.65126  -0.65126
 Alpha  occ. eigenvalues --   -0.64217
 Alpha virt. eigenvalues --    0.11486   0.19296   0.36396   0.36396   0.55427
 Alpha virt. eigenvalues --    0.65745   0.65745   0.77483   2.17138   2.17138
 Alpha virt. eigenvalues --    2.24150   2.28978   2.28978   2.38586   2.41111
 Alpha virt. eigenvalues --    2.41111   2.42351   3.86431   3.86431   3.88151
     Molecular Orbital Coefficients:
                           1         2         3         4         5
                       (A1')--O   (E')--O   (E')--O  (A1')--O  (A1')--O
     Eigenvalues --   -26.20953 -26.20945 -26.20945  -7.82764  -1.62215
   1 1   B  1S         -0.00072   0.00000  -0.00000   0.98758  -0.06994
   2        2S          0.00097   0.00000   0.00000   0.08643   0.08386
   3        2PX         0.00000  -0.00320   0.00000   0.00000   0.00000
   4        2PY        -0.00000   0.00000   0.00320   0.00000  -0.00000
   5        2PZ         0.00000   0.00000   0.00000   0.00000   0.00000
   6        3S          0.01155   0.00000   0.00000  -0.02349   0.04575
   7        3PX         0.00000  -0.00926   0.00000   0.00000   0.00000
   8        3PY        -0.00000   0.00000   0.00926   0.00000   0.00000
   9        3PZ         0.00000   0.00000   0.00000   0.00000   0.00000
  10 2   F  1S          0.56696   0.00000   0.80180   0.00002  -0.14017
  11        2S          0.05552   0.00000   0.07839   0.00170   0.13503
  12        2PX         0.00000  -0.00085   0.00000   0.00000   0.00000
  13        2PY        -0.00157   0.00000  -0.00185  -0.00150  -0.03111
  14        2PZ         0.00000   0.00000   0.00000   0.00000   0.00000
  15        3S         -0.01900   0.00000  -0.02720  -0.00236   0.43994
  16        3PX         0.00000   0.00295   0.00000   0.00000   0.00000
  17        3PY         0.00335   0.00000   0.00356   0.00696  -0.04721
  18        3PZ         0.00000   0.00000   0.00000   0.00000   0.00000
  19 3   F  1S          0.56696   0.69438  -0.40090   0.00002  -0.14017
  20        2S          0.05552   0.06789  -0.03920   0.00170   0.13503
  21        2PX         0.00136   0.00117  -0.00117   0.00130   0.02695
  22        2PY         0.00079   0.00117   0.00017   0.00075   0.01556
  23        2PZ         0.00000   0.00000   0.00000   0.00000   0.00000
  24        3S         -0.01900  -0.02356   0.01360  -0.00236   0.43994
  25        3PX        -0.00290  -0.00193   0.00282  -0.00603   0.04088
  26        3PY        -0.00167  -0.00282  -0.00132  -0.00348   0.02360
  27        3PZ         0.00000   0.00000   0.00000   0.00000   0.00000
  28 4   F  1S          0.56696  -0.69438  -0.40090   0.00002  -0.14017
  29        2S          0.05552  -0.06789  -0.03920   0.00170   0.13503
  30        2PX        -0.00136   0.00117   0.00117  -0.00130  -0.02695
  31        2PY         0.00079  -0.00117   0.00017   0.00075   0.01556
  32        2PZ         0.00000   0.00000   0.00000   0.00000   0.00000
  33        3S         -0.01900   0.02356   0.01360  -0.00236   0.43994
  34        3PX         0.00290  -0.00193  -0.00282   0.00603  -0.04088
  35        3PY        -0.00167   0.00282  -0.00132  -0.00348   0.02360
  36        3PZ         0.00000   0.00000   0.00000   0.00000   0.00000
                           6         7         8         9        10
                        (E')--O   (E')--O  (A1')--O   (E')--O   (E')--O
     Eigenvalues --    -1.59326  -1.59326  -0.80159  -0.74049  -0.74049
   1 1   B  1S          0.00000  -0.00000   0.14291   0.00000   0.00000
   2        2S          0.00000   0.00000  -0.25578   0.00000  -0.00000
   3        2PX        -0.08045   0.00000   0.00000   0.26092   0.00000
   4        2PY         0.00000   0.08045   0.00000   0.00000  -0.26092
   5        2PZ         0.00000   0.00000   0.00000   0.00000   0.00000
   6        3S          0.00000   0.00000  -0.16732   0.00000  -0.00000
   7        3PX         0.00004   0.00000   0.00000   0.07574   0.00000
   8        3PY         0.00000  -0.00004   0.00000   0.00000  -0.07574
   9        3PZ         0.00000   0.00000   0.00000   0.00000   0.00000
  10 2   F  1S          0.00000  -0.20454  -0.04451   0.00000  -0.03964
  11        2S          0.00000   0.19807   0.04839   0.00000   0.03695
  12        2PX        -0.00452   0.00000   0.00000   0.24696   0.00000
  13        2PY         0.00000  -0.03637   0.24123   0.00000   0.29610
  14        2PZ         0.00000   0.00000   0.00000   0.00000   0.00000
  15        3S          0.00000   0.64758   0.17385   0.00000   0.18060
  16        3PX        -0.00441   0.00000   0.00000   0.27030   0.00000
  17        3PY         0.00000  -0.05246   0.27092   0.00000   0.31237
  18        3PZ         0.00000   0.00000   0.00000   0.00000   0.00000
  19 3   F  1S         -0.17714   0.10227  -0.04451  -0.03433   0.01982
  20        2S          0.17153  -0.09903   0.04839   0.03200  -0.01848
  21        2PX         0.02615  -0.01771  -0.20891  -0.16033   0.23515
  22        2PY         0.01771  -0.00570  -0.12062  -0.23515  -0.11120
  23        2PZ         0.00000   0.00000   0.00000   0.00000   0.00000
  24        3S          0.56082  -0.32379   0.17385   0.15641  -0.09030
  25        3PX         0.03824  -0.02463  -0.23462  -0.16670   0.25230
  26        3PY         0.02463  -0.00981  -0.13546  -0.25230  -0.12463
  27        3PZ         0.00000   0.00000   0.00000   0.00000   0.00000
  28 4   F  1S          0.17714   0.10227  -0.04451   0.03433   0.01982
  29        2S         -0.17153  -0.09903   0.04839  -0.03200  -0.01848
  30        2PX         0.02615   0.01771   0.20891  -0.16033  -0.23515
  31        2PY        -0.01771  -0.00570  -0.12062   0.23515  -0.11120
  32        2PZ         0.00000   0.00000   0.00000   0.00000   0.00000
  33        3S         -0.56082  -0.32379   0.17385  -0.15641  -0.09030
  34        3PX         0.03824   0.02463   0.23462  -0.16670  -0.25230
  35        3PY        -0.02463  -0.00981  -0.13546   0.25230  -0.12463
  36        3PZ         0.00000   0.00000   0.00000   0.00000   0.00000
                          11        12        13        14        15
                       (A2")--O   (E')--O   (E')--O   (E")--O   (E")--O
     Eigenvalues --    -0.71013  -0.65322  -0.65322  -0.65126  -0.65126
   1 1   B  1S          0.00000   0.00000   0.00000   0.00000   0.00000
   2        2S          0.00000   0.00000   0.00000   0.00000   0.00000
   3        2PX         0.00000  -0.11376   0.00000   0.00000   0.00000
   4        2PY         0.00000   0.00000  -0.11376   0.00000   0.00000
   5        2PZ         0.15615   0.00000   0.00000   0.00000   0.00000
   6        3S          0.00000   0.00000  -0.00000   0.00000   0.00000
   7        3PX         0.00000   0.11751   0.00000   0.00000   0.00000
   8        3PY         0.00000   0.00000   0.11751   0.00000   0.00000
   9        3PZ         0.16706   0.00000   0.00000   0.00000   0.00000
  10 2   F  1S          0.00000   0.00000  -0.01144   0.00000   0.00000
  11        2S          0.00000   0.00000   0.02637   0.00000   0.00000
  12        2PX         0.00000   0.34999   0.00000   0.00000   0.00000
  13        2PY         0.00000   0.00000   0.25360   0.00000   0.00000
  14        2PZ         0.28544   0.00000   0.00000   0.43978   0.00000
  15        3S          0.00000   0.00000  -0.00352   0.00000   0.00000
  16        3PX         0.00000   0.38424   0.00000   0.00000   0.00000
  17        3PY         0.00000   0.00000   0.29903   0.00000   0.00000
  18        3PZ         0.30185   0.00000   0.00000   0.50665   0.00000
  19 3   F  1S          0.00000   0.00991   0.00572   0.00000   0.00000
  20        2S          0.00000  -0.02284  -0.01318   0.00000   0.00000
  21        2PX         0.00000   0.27770  -0.04174   0.00000   0.00000
  22        2PY         0.00000  -0.04174   0.32590   0.00000   0.00000
  23        2PZ         0.28544   0.00000   0.00000  -0.21989   0.38086
  24        3S          0.00000   0.00305   0.00176   0.00000   0.00000
  25        3PX         0.00000   0.32033  -0.03690   0.00000   0.00000
  26        3PY         0.00000  -0.03690   0.36293   0.00000   0.00000
  27        3PZ         0.30185   0.00000   0.00000  -0.25332   0.43877
  28 4   F  1S          0.00000  -0.00991   0.00572   0.00000   0.00000
  29        2S          0.00000   0.02284  -0.01318   0.00000   0.00000
  30        2PX         0.00000   0.27770   0.04174   0.00000   0.00000
  31        2PY         0.00000   0.04174   0.32590   0.00000   0.00000
  32        2PZ         0.28544   0.00000   0.00000  -0.21989  -0.38086
  33        3S          0.00000  -0.00305   0.00176   0.00000   0.00000
  34        3PX         0.00000   0.32033   0.03690   0.00000   0.00000
  35        3PY         0.00000   0.03690   0.36293   0.00000   0.00000
  36        3PZ         0.30185   0.00000   0.00000  -0.25332  -0.43877
                          16        17        18        19        20
                       (A2')--O  (A2")--V  (A1')--V   (E')--V   (E')--V
     Eigenvalues --    -0.64217   0.11486   0.19296   0.36396   0.36396
   1 1   B  1S          0.00000   0.00000  -0.18985   0.00000  -0.00000
   2        2S          0.00000   0.00000   0.02601   0.00000   0.00000
   3        2PX        -0.00000   0.00000   0.00000   0.30201   0.00000
   4        2PY         0.00000   0.00000  -0.00000   0.00000   0.30201
   5        2PZ         0.00000   0.48713   0.00000   0.00000   0.00000
   6        3S          0.00000   0.00000   1.31062   0.00000   0.00000
   7        3PX         0.00000   0.00000   0.00000   1.22337   0.00000
   8        3PY         0.00000   0.00000  -0.00000   0.00000   1.22337
   9        3PZ         0.00000   0.67610   0.00000   0.00000   0.00000
  10 2   F  1S          0.00000   0.00000   0.05706   0.00000   0.07797
  11        2S          0.00000   0.00000  -0.03989   0.00000  -0.03665
  12        2PX         0.31800   0.00000   0.00000  -0.17284   0.00000
  13        2PY         0.00000   0.00000   0.17936   0.00000   0.12553
  14        2PZ         0.00000  -0.15986   0.00000   0.00000   0.00000
  15        3S          0.00000   0.00000  -0.40209   0.00000  -0.68716
  16        3PX         0.35438   0.00000   0.00000  -0.24989   0.00000
  17        3PY         0.00000   0.00000   0.29375   0.00000   0.27168
  18        3PZ         0.00000  -0.22918   0.00000   0.00000   0.00000
  19 3   F  1S          0.00000   0.00000   0.05706  -0.06752  -0.03898
  20        2S         -0.00000   0.00000  -0.03989   0.03174   0.01833
  21        2PX        -0.15900   0.00000  -0.15533   0.05094   0.12920
  22        2PY         0.27540   0.00000  -0.08968   0.12920  -0.09824
  23        2PZ         0.00000  -0.15986   0.00000   0.00000   0.00000
  24        3S          0.00000   0.00000  -0.40209   0.59510   0.34358
  25        3PX        -0.17719   0.00000  -0.25439   0.14129   0.22585
  26        3PY         0.30690   0.00000  -0.14687   0.22585  -0.11950
  27        3PZ         0.00000  -0.22918   0.00000   0.00000   0.00000
  28 4   F  1S         -0.00000   0.00000   0.05706   0.06752  -0.03898
  29        2S          0.00000   0.00000  -0.03989  -0.03174   0.01833
  30        2PX        -0.15900   0.00000   0.15533   0.05094  -0.12920
  31        2PY        -0.27540   0.00000  -0.08968  -0.12920  -0.09824
  32        2PZ         0.00000  -0.15986   0.00000   0.00000   0.00000
  33        3S         -0.00000   0.00000  -0.40209  -0.59510   0.34358
  34        3PX        -0.17719   0.00000   0.25439   0.14129  -0.22585
  35        3PY        -0.30690   0.00000  -0.14687  -0.22585  -0.11950
  36        3PZ         0.00000  -0.22918   0.00000   0.00000   0.00000
                          21        22        23        24        25
                       (A2")--V   (E')--V   (E')--V  (A1')--V   (E")--V
     Eigenvalues --     0.55427   0.65745   0.65745   0.77483   2.17138
   1 1   B  1S          0.00000   0.00000   0.00000  -0.08547   0.00000
   2        2S          0.00000  -0.00000   0.00000   1.61829   0.00000
   3        2PX         0.00000   0.00000   1.22963   0.00000   0.00000
   4        2PY         0.00000   1.22963   0.00000   0.00000   0.00000
   5        2PZ         1.08332   0.00000   0.00000   0.00000  -0.00000
   6        3S          0.00000   0.00000   0.00000  -1.44526   0.00000
   7        3PX         0.00000   0.00000  -0.95656   0.00000   0.00000
   8        3PY         0.00000  -0.95656   0.00000  -0.00000   0.00000
   9        3PZ        -1.07544   0.00000   0.00000   0.00000   0.00000
  10 2   F  1S          0.00000   0.00838   0.00000  -0.00337   0.00000
  11        2S          0.00000  -0.03172   0.00000  -0.01702   0.00000
  12        2PX         0.00000   0.00000  -0.00609   0.00000   0.00000
  13        2PY         0.00000   0.22072   0.00000   0.15081   0.00000
  14        2PZ         0.01739   0.00000   0.00000   0.00000   0.82650
  15        3S          0.00000   0.15244   0.00000   0.19001   0.00000
  16        3PX         0.00000   0.00000   0.05851   0.00000   0.00000
  17        3PY         0.00000   0.28066   0.00000   0.07526   0.00000
  18        3PZ         0.08508   0.00000   0.00000   0.00000  -0.78955
  19 3   F  1S          0.00000  -0.00419  -0.00726  -0.00337   0.00000
  20        2S          0.00000   0.01586   0.02747  -0.01702   0.00000
  21        2PX         0.00000   0.09821   0.16402  -0.13060   0.00000
  22        2PY         0.00000   0.05061   0.09821  -0.07540   0.00000
  23        2PZ         0.01739   0.00000   0.00000   0.00000  -0.41325
  24        3S          0.00000  -0.07622  -0.13202   0.19001   0.00000
  25        3PX         0.00000   0.09619   0.22512  -0.06517   0.00000
  26        3PY         0.00000   0.11405   0.09619  -0.03763   0.00000
  27        3PZ         0.08508   0.00000   0.00000   0.00000   0.39478
  28 4   F  1S          0.00000  -0.00419   0.00726  -0.00337   0.00000
  29        2S          0.00000   0.01586  -0.02747  -0.01702   0.00000
  30        2PX         0.00000  -0.09821   0.16402   0.13060   0.00000
  31        2PY         0.00000   0.05061  -0.09821  -0.07540   0.00000
  32        2PZ         0.01739   0.00000   0.00000   0.00000  -0.41325
  33        3S          0.00000  -0.07622   0.13202   0.19001   0.00000
  34        3PX         0.00000  -0.09619   0.22512   0.06517   0.00000
  35        3PY         0.00000   0.11405  -0.09619  -0.03763   0.00000
  36        3PZ         0.08508   0.00000   0.00000   0.00000   0.39478
                          26        27        28        29        30
                        (E")--V  (A2')--V   (E')--V   (E')--V  (A2")--V
     Eigenvalues --     2.17138   2.24150   2.28978   2.28978   2.38586
   1 1   B  1S          0.00000   0.00000   0.00000   0.00000   0.00000
   2        2S          0.00000   0.00000   0.00000   0.00000   0.00000
   3        2PX         0.00000  -0.00000   0.00000  -0.02030   0.00000
   4        2PY         0.00000   0.00000  -0.02030   0.00000   0.00000
   5        2PZ         0.00000   0.00000   0.00000   0.00000  -0.03993
   6        3S          0.00000   0.00000  -0.00000   0.00000   0.00000
   7        3PX         0.00000  -0.00000   0.00000  -0.36580   0.00000
   8        3PY         0.00000   0.00000  -0.36580   0.00000   0.00000
   9        3PZ         0.00000   0.00000   0.00000   0.00000  -0.36857
  10 2   F  1S          0.00000   0.00000  -0.03483   0.00000   0.00000
  11        2S          0.00000   0.00000   0.18390   0.00000   0.00000
  12        2PX         0.00000   0.58310   0.00000  -0.80981   0.00000
  13        2PY         0.00000   0.00000  -0.05268   0.00000   0.00000
  14        2PZ         0.00000   0.00000   0.00000   0.00000  -0.58698
  15        3S          0.00000   0.00000   0.02842   0.00000   0.00000
  16        3PX         0.00000  -0.57228   0.00000   0.85578   0.00000
  17        3PY         0.00000   0.00000   0.01012   0.00000   0.00000
  18        3PZ         0.00000   0.00000   0.00000   0.00000   0.65100
  19 3   F  1S          0.00000   0.00000   0.01741   0.03016   0.00000
  20        2S          0.00000  -0.00000  -0.09195  -0.15926   0.00000
  21        2PX         0.00000  -0.29155   0.32784  -0.24197   0.00000
  22        2PY         0.00000   0.50498  -0.62053   0.32784   0.00000
  23        2PZ         0.71577   0.00000   0.00000   0.00000  -0.58698
  24        3S          0.00000  -0.00000  -0.01421  -0.02461   0.00000
  25        3PX         0.00000   0.28614  -0.36618   0.22154   0.00000
  26        3PY         0.00000  -0.49561   0.64437  -0.36618   0.00000
  27        3PZ        -0.68377   0.00000   0.00000   0.00000   0.65100
  28 4   F  1S          0.00000  -0.00000   0.01741  -0.03016   0.00000
  29        2S          0.00000   0.00000  -0.09195   0.15926   0.00000
  30        2PX         0.00000  -0.29155  -0.32784  -0.24197   0.00000
  31        2PY         0.00000  -0.50498  -0.62053  -0.32784   0.00000
  32        2PZ        -0.71577   0.00000   0.00000   0.00000  -0.58698
  33        3S          0.00000   0.00000  -0.01421   0.02461   0.00000
  34        3PX         0.00000   0.28614   0.36618   0.22154   0.00000
  35        3PY         0.00000   0.49561   0.64437   0.36618   0.00000
  36        3PZ         0.68377   0.00000   0.00000   0.00000   0.65100
                          31        32        33        34        35
                        (E')--V   (E')--V  (A1')--V   (E')--V   (E')--V
     Eigenvalues --     2.41111   2.41111   2.42351   3.86431   3.86431
   1 1   B  1S          0.00000   0.00000  -0.00487  -0.00000   0.00000
   2        2S          0.00000  -0.00000   0.59719   0.00000   0.00000
   3        2PX         0.47369   0.00000   0.00000   0.00000   0.27487
   4        2PY         0.00000   0.47369   0.00000  -0.27487   0.00000
   5        2PZ         0.00000   0.00000   0.00000   0.00000   0.00000
   6        3S          0.00000   0.00000  -0.02174   0.00000   0.00000
   7        3PX        -0.09432   0.00000   0.00000   0.00000   0.59028
   8        3PY         0.00000  -0.09432  -0.00000  -0.59028   0.00000
   9        3PZ         0.00000   0.00000   0.00000   0.00000   0.00000
  10 2   F  1S          0.00000   0.02501   0.02571   0.08545   0.00000
  11        2S          0.00000  -0.12951  -0.14118  -1.26774   0.00000
  12        2PX         0.02598   0.00000   0.00000   0.00000   0.17067
  13        2PY         0.00000  -0.82247  -0.57302   0.12522   0.00000
  14        2PZ         0.00000   0.00000   0.00000   0.00000   0.00000
  15        3S          0.00000   0.02823   0.04257   1.43555   0.00000
  16        3PX        -0.04204   0.00000   0.00000   0.00000  -0.31593
  17        3PY         0.00000   0.95478   0.67196  -0.29312   0.00000
  18        3PZ         0.00000   0.00000   0.00000   0.00000   0.00000
  19 3   F  1S         -0.02166  -0.01250   0.02571  -0.04272   0.07400
  20        2S          0.11216   0.06475  -0.14118   0.63387  -1.09789
  21        2PX        -0.61036  -0.36739   0.49625   0.12812  -0.05125
  22        2PY        -0.36739  -0.18613   0.28651  -0.09670  -0.12812
  23        2PZ         0.00000   0.00000   0.00000   0.00000   0.00000
  24        3S         -0.02445  -0.01412   0.04257  -0.71778   1.24322
  25        3PX         0.70558   0.43164  -0.58193  -0.26373   0.14086
  26        3PY         0.43164   0.20717  -0.33598   0.16367   0.26373
  27        3PZ         0.00000   0.00000   0.00000   0.00000   0.00000
  28 4   F  1S          0.02166  -0.01250   0.02571  -0.04272  -0.07400
  29        2S         -0.11216   0.06475  -0.14118   0.63387   1.09789
  30        2PX        -0.61036   0.36739  -0.49625  -0.12812  -0.05125
  31        2PY         0.36739  -0.18613   0.28651  -0.09670   0.12812
  32        2PZ         0.00000   0.00000   0.00000   0.00000   0.00000
  33        3S          0.02445  -0.01412   0.04257  -0.71778  -1.24322
  34        3PX         0.70558  -0.43164   0.58193   0.26373   0.14086
  35        3PY        -0.43164   0.20717  -0.33598   0.16367  -0.26373
  36        3PZ         0.00000   0.00000   0.00000   0.00000   0.00000
                          36
                       (A1')--V
     Eigenvalues --     3.88151
   1 1   B  1S          0.05690
   2        2S         -0.16677
   3        2PX         0.00000
   4        2PY        -0.00000
   5        2PZ         0.00000
   6        3S         -0.66891
   7        3PX         0.00000
   8        3PY        -0.00000
   9        3PZ         0.00000
  10 2   F  1S          0.06138
  11        2S         -0.89968
  12        2PX         0.00000
  13        2PY         0.13935
  14        2PZ         0.00000
  15        3S          0.98148
  16        3PX         0.00000
  17        3PY        -0.28925
  18        3PZ         0.00000
  19 3   F  1S          0.06138
  20        2S         -0.89968
  21        2PX        -0.12068
  22        2PY        -0.06967
  23        2PZ         0.00000
  24        3S          0.98148
  25        3PX         0.25050
  26        3PY         0.14463
  27        3PZ         0.00000
  28 4   F  1S          0.06138
  29        2S         -0.89968
  30        2PX         0.12068
  31        2PY        -0.06967
  32        2PZ         0.00000
  33        3S          0.98148
  34        3PX        -0.25050
  35        3PY         0.14463
  36        3PZ         0.00000
     Density Matrix:
                           1         2         3         4         5
   1 1   B  1S          2.00126
   2        2S          0.08588   0.15985
   3        2PX         0.00000   0.00000   0.17500
   4        2PY        -0.00000  -0.00000  -0.00000   0.17500
   5        2PZ        -0.00000  -0.00000   0.00000  -0.00000   0.04877
   6        3S         -0.10063   0.08923  -0.00000  -0.00000   0.00000
   7        3PX         0.00000  -0.00000   0.01284   0.00000  -0.00000
   8        3PY        -0.00000   0.00000  -0.00000   0.01284   0.00000
   9        3PZ        -0.00000   0.00000  -0.00000   0.00000   0.05217
  10 2   F  1S          0.00612   0.00037  -0.00000  -0.00449   0.00000
  11        2S         -0.00179  -0.00171   0.00000   0.00709   0.00000
  12        2PX         0.00000  -0.00000   0.04998  -0.00000   0.00000
  13        2PY         0.07034  -0.12888  -0.00000  -0.21808  -0.00000
  14        2PZ         0.00000  -0.00000  -0.00000  -0.00000   0.08914
  15        3S         -0.01649  -0.01560   0.00000   0.01058   0.00000
  16        3PX         0.00000  -0.00000   0.05432  -0.00000   0.00000
  17        3PY         0.09777  -0.14530  -0.00000  -0.23946  -0.00000
  18        3PZ         0.00000  -0.00000   0.00000  -0.00000   0.09427
  19 3   F  1S          0.00612   0.00037   0.00388   0.00224   0.00000
  20        2S         -0.00179  -0.00171  -0.00614  -0.00354   0.00000
  21        2PX        -0.06091   0.11162  -0.15106  -0.11607  -0.00000
  22        2PY        -0.03517   0.06444  -0.11607  -0.01704  -0.00000
  23        2PZ        -0.00000  -0.00000  -0.00000  -0.00000   0.08914
  24        3S         -0.01649  -0.01560  -0.00916  -0.00529   0.00000
  25        3PX        -0.08468   0.12583  -0.16601  -0.12721  -0.00000
  26        3PY        -0.04889   0.07265  -0.12721  -0.01912  -0.00000
  27        3PZ        -0.00000  -0.00000  -0.00000  -0.00000   0.09427
  28 4   F  1S          0.00612   0.00037  -0.00388   0.00224  -0.00000
  29        2S         -0.00179  -0.00171   0.00614  -0.00354  -0.00000
  30        2PX         0.06091  -0.11162  -0.15106   0.11607  -0.00000
  31        2PY        -0.03517   0.06444   0.11607  -0.01704   0.00000
  32        2PZ         0.00000   0.00000  -0.00000   0.00000   0.08914
  33        3S         -0.01649  -0.01560   0.00916  -0.00529  -0.00000
  34        3PX         0.08468  -0.12583  -0.16601   0.12721  -0.00000
  35        3PY        -0.04889   0.07265   0.12721  -0.01912   0.00000
  36        3PZ         0.00000   0.00000  -0.00000   0.00000   0.09427
                           6         7         8         9        10
   6        3S          0.06155
   7        3PX         0.00000   0.03926
   8        3PY        -0.00000  -0.00000   0.03926
   9        3PZ        -0.00000  -0.00000  -0.00000   0.05582
  10 2   F  1S          0.01516   0.00000   0.01818   0.00000   2.05898
  11        2S         -0.00264   0.00000   0.00204   0.00000   0.06194
  12        2PX        -0.00000   0.11968  -0.00000  -0.00000  -0.00000
  13        2PY        -0.08354  -0.00000   0.01472  -0.00000  -0.03189
  14        2PZ        -0.00000  -0.00000  -0.00000   0.09537  -0.00000
  15        3S         -0.01825  -0.00000  -0.02873  -0.00000  -0.48312
  16        3PX        -0.00000   0.13119  -0.00000  -0.00000  -0.00000
  17        3PY        -0.09523  -0.00000   0.02303  -0.00000  -0.01153
  18        3PZ        -0.00000  -0.00000  -0.00000   0.10085  -0.00000
  19 3   F  1S          0.01516  -0.01574  -0.00909   0.00000  -0.00027
  20        2S         -0.00264  -0.00176  -0.00102  -0.00000   0.00022
  21        2PX         0.07235   0.04096  -0.04545  -0.00000   0.00028
  22        2PY         0.04177  -0.04545   0.09344   0.00000   0.01124
  23        2PZ         0.00000  -0.00000   0.00000   0.09537   0.00000
  24        3S         -0.01825   0.02488   0.01437  -0.00000   0.00103
  25        3PX         0.08247   0.05007  -0.04683  -0.00000   0.00158
  26        3PY         0.04761  -0.04683   0.10415   0.00000   0.00701
  27        3PZ         0.00000  -0.00000   0.00000   0.10085   0.00000
  28 4   F  1S          0.01516   0.01574  -0.00909  -0.00000  -0.00027
  29        2S         -0.00264   0.00176  -0.00102   0.00000   0.00022
  30        2PX        -0.07235   0.04096   0.04545  -0.00000  -0.00028
  31        2PY         0.04177   0.04545   0.09344  -0.00000   0.01124
  32        2PZ        -0.00000  -0.00000  -0.00000   0.09537  -0.00000
  33        3S         -0.01825  -0.02488   0.01437   0.00000   0.00103
  34        3PX        -0.08247   0.05007   0.04683  -0.00000  -0.00158
  35        3PY         0.04761   0.04683   0.10415  -0.00000   0.00701
  36        3PZ        -0.00000  -0.00000  -0.00000   0.10085  -0.00000
                          11        12        13        14        15
  11        2S          0.14219
  12        2PX         0.00000   0.56927
  13        2PY         0.03533  -0.00000   0.42496
  14        2PZ         0.00000  -0.00000  -0.00000   0.54977
  15        3S          0.39894   0.00000   0.11473   0.00000   1.35373
  16        3PX         0.00000   0.62789  -0.00000   0.00000   0.00000
  17        3PY         0.03250  -0.00000   0.47407  -0.00000   0.09509
  18        3PZ         0.00000   0.00000  -0.00000   0.61795   0.00000
  19 3   F  1S          0.00022  -0.00960  -0.00586   0.00000   0.00103
  20        2S         -0.00012  -0.00184   0.00448   0.00000   0.00080
  21        2PX        -0.00480   0.01383   0.01690  -0.00000   0.01338
  22        2PY        -0.00065   0.02963   0.04070   0.00000  -0.07814
  23        2PZ         0.00000   0.00000   0.00000  -0.03046  -0.00000
  24        3S          0.00080   0.07436   0.02749  -0.00000  -0.00446
  25        3PX        -0.00462   0.02885   0.01676  -0.00000   0.01388
  26        3PY        -0.00110   0.04453   0.04419  -0.00000  -0.08646
  27        3PZ         0.00000  -0.00000  -0.00000  -0.05050  -0.00000
  28 4   F  1S          0.00022   0.00960  -0.00586  -0.00000   0.00103
  29        2S         -0.00012   0.00184   0.00448  -0.00000   0.00080
  30        2PX         0.00480   0.01383  -0.01690  -0.00000  -0.01338
  31        2PY        -0.00065  -0.02963   0.04070  -0.00000  -0.07814
  32        2PZ        -0.00000   0.00000  -0.00000  -0.03046   0.00000
  33        3S          0.00080  -0.07436   0.02749   0.00000  -0.00446
  34        3PX         0.00462   0.02885  -0.01676  -0.00000  -0.01388
  35        3PY        -0.00110  -0.04453   0.04419   0.00000  -0.08646
  36        3PZ        -0.00000  -0.00000   0.00000  -0.05050   0.00000
                          16        17        18        19        20
  16        3PX         0.69262
  17        3PY        -0.00000   0.53088
  18        3PZ         0.00000  -0.00000   0.69561
  19 3   F  1S         -0.00528  -0.00487  -0.00000   2.05898
  20        2S         -0.00136   0.00455   0.00000   0.06194   0.14219
  21        2PX         0.01381   0.00808  -0.00000   0.02762  -0.03059
  22        2PY         0.03585   0.05923   0.00000   0.01595  -0.01766
  23        2PZ         0.00000   0.00000  -0.05050   0.00000  -0.00000
  24        3S          0.08181   0.03121  -0.00000  -0.48312   0.39894
  25        3PX         0.03012   0.00707  -0.00000   0.00998  -0.02815
  26        3PY         0.05254   0.06453  -0.00000   0.00576  -0.01625
  27        3PZ         0.00000  -0.00000  -0.07447   0.00000   0.00000
  28 4   F  1S          0.00528  -0.00487   0.00000  -0.00027   0.00022
  29        2S          0.00136   0.00455  -0.00000   0.00022  -0.00012
  30        2PX         0.01381  -0.00808  -0.00000  -0.00987   0.00296
  31        2PY        -0.03585   0.05923  -0.00000  -0.00538  -0.00384
  32        2PZ         0.00000  -0.00000  -0.05050   0.00000   0.00000
  33        3S         -0.08181   0.03121   0.00000   0.00103   0.00080
  34        3PX         0.03012  -0.00707  -0.00000  -0.00686   0.00326
  35        3PY        -0.05254   0.06453   0.00000  -0.00214  -0.00345
  36        3PZ         0.00000   0.00000  -0.07447  -0.00000   0.00000
                          21        22        23        24        25
  21        2PX         0.46104
  22        2PY        -0.06249   0.53319
  23        2PZ         0.00000   0.00000   0.54977
  24        3S         -0.09936  -0.05736  -0.00000   1.35373
  25        3PX         0.51252  -0.06661  -0.00000  -0.08235   0.57132
  26        3PY        -0.06661   0.58944  -0.00000  -0.04754  -0.07003
  27        3PZ        -0.00000  -0.00000   0.61795  -0.00000  -0.00000
  28 4   F  1S          0.00987  -0.00538  -0.00000   0.00103   0.00686
  29        2S         -0.00296  -0.00384  -0.00000   0.00080  -0.00326
  30        2PX         0.05413  -0.00636   0.00000   0.06098   0.06690
  31        2PY         0.00636   0.00040   0.00000   0.05065   0.02257
  32        2PZ         0.00000  -0.00000  -0.03046  -0.00000  -0.00000
  33        3S         -0.06098   0.05065   0.00000  -0.00446  -0.06793
  34        3PX         0.06690  -0.02257  -0.00000   0.06793   0.08173
  35        3PY         0.00520   0.00615   0.00000   0.05524   0.02274
  36        3PZ         0.00000  -0.00000  -0.05050   0.00000  -0.00000
                          26        27        28        29        30
  26        3PY         0.65219
  27        3PZ        -0.00000   0.69561
  28 4   F  1S         -0.00214   0.00000   2.05898
  29        2S         -0.00345  -0.00000   0.06194   0.14219
  30        2PX        -0.00520   0.00000  -0.02762   0.03059   0.46104
  31        2PY         0.00615   0.00000   0.01595  -0.01766   0.06249
  32        2PZ        -0.00000  -0.05050  -0.00000   0.00000   0.00000
  33        3S          0.05524  -0.00000  -0.48312   0.39894   0.09936
  34        3PX        -0.02274  -0.00000  -0.00998   0.02815   0.51252
  35        3PY         0.01291   0.00000   0.00576  -0.01625   0.06661
  36        3PZ        -0.00000  -0.07447  -0.00000  -0.00000  -0.00000
                          31        32        33        34        35
  31        2PY         0.53319
  32        2PZ        -0.00000   0.54977
  33        3S         -0.05736   0.00000   1.35373
  34        3PX         0.06661  -0.00000   0.08235   0.57132
  35        3PY         0.58944   0.00000  -0.04754   0.07003   0.65219
  36        3PZ         0.00000   0.61795   0.00000  -0.00000   0.00000
                          36
  36        3PZ         0.69561
    Full Mulliken population analysis:
                           1         2         3         4         5
   1 1   B  1S          2.00126
   2        2S          0.01570   0.15985
   3        2PX         0.00000   0.00000   0.17500
   4        2PY         0.00000   0.00000   0.00000   0.17500
   5        2PZ         0.00000   0.00000   0.00000   0.00000   0.04877
   6        3S         -0.01749   0.06918   0.00000   0.00000   0.00000
   7        3PX         0.00000   0.00000   0.00708  -0.00000  -0.00000
   8        3PY         0.00000   0.00000  -0.00000   0.00708  -0.00000
   9        3PZ         0.00000   0.00000  -0.00000  -0.00000   0.02876
  10 2   F  1S          0.00000   0.00000   0.00000  -0.00008   0.00000
  11        2S         -0.00000  -0.00009  -0.00000   0.00079  -0.00000
  12        2PX         0.00000  -0.00000   0.00111  -0.00000  -0.00000
  13        2PY        -0.00001   0.00741  -0.00000   0.02355  -0.00000
  14        2PZ         0.00000  -0.00000   0.00000  -0.00000   0.00198
  15        3S         -0.00026  -0.00290  -0.00000   0.00301  -0.00000
  16        3PX         0.00000  -0.00000   0.00806  -0.00000  -0.00000
  17        3PY        -0.00532   0.04863  -0.00000   0.09590  -0.00000
  18        3PZ         0.00000  -0.00000   0.00000  -0.00000   0.01399
  19 3   F  1S          0.00000   0.00000  -0.00006  -0.00002   0.00000
  20        2S         -0.00000  -0.00009   0.00059   0.00020   0.00000
  21        2PX        -0.00001   0.00556   0.01139   0.00655  -0.00000
  22        2PY        -0.00000   0.00185   0.00655   0.00018  -0.00000
  23        2PZ         0.00000   0.00000  -0.00000  -0.00000   0.00198
  24        3S         -0.00026  -0.00290   0.00226   0.00075   0.00000
  25        3PX        -0.00399   0.03647   0.04370   0.03023  -0.00000
  26        3PY        -0.00133   0.01216   0.03023  -0.00021  -0.00000
  27        3PZ         0.00000   0.00000  -0.00000  -0.00000   0.01399
  28 4   F  1S          0.00000   0.00000  -0.00006  -0.00002  -0.00000
  29        2S         -0.00000  -0.00009   0.00059   0.00020  -0.00000
  30        2PX        -0.00001   0.00556   0.01139   0.00655   0.00000
  31        2PY        -0.00000   0.00185   0.00655   0.00018   0.00000
  32        2PZ        -0.00000  -0.00000   0.00000   0.00000   0.00198
  33        3S         -0.00026  -0.00290   0.00226   0.00075  -0.00000
  34        3PX        -0.00399   0.03647   0.04370   0.03023  -0.00000
  35        3PY        -0.00133   0.01216   0.03023  -0.00021   0.00000
  36        3PZ        -0.00000  -0.00000   0.00000   0.00000   0.01399
                           6         7         8         9        10
   6        3S          0.06155
   7        3PX         0.00000   0.03926
   8        3PY         0.00000   0.00000   0.03926
   9        3PZ         0.00000  -0.00000   0.00000   0.05582
  10 2   F  1S          0.00041  -0.00000   0.00094  -0.00000   2.05898
  11        2S         -0.00037  -0.00000   0.00052  -0.00000   0.01330
  12        2PX        -0.00000   0.00629  -0.00000   0.00000   0.00000
  13        2PY         0.00427  -0.00000  -0.00061  -0.00000   0.00000
  14        2PZ        -0.00000   0.00000  -0.00000   0.00501   0.00000
  15        3S         -0.00624   0.00000  -0.01519   0.00000  -0.08869
  16        3PX        -0.00000   0.03620  -0.00000  -0.00000   0.00000
  17        3PY         0.02556  -0.00000  -0.00321  -0.00000   0.00000
  18        3PZ        -0.00000   0.00000  -0.00000   0.02783   0.00000
  19 3   F  1S          0.00041   0.00071   0.00024   0.00000   0.00000
  20        2S         -0.00037   0.00039   0.00013  -0.00000   0.00000
  21        2PX         0.00320  -0.00074   0.00185  -0.00000   0.00000
  22        2PY         0.00107   0.00185   0.00271   0.00000   0.00000
  23        2PZ        -0.00000  -0.00000   0.00000   0.00501   0.00000
  24        3S         -0.00624  -0.01139  -0.00380  -0.00000   0.00000
  25        3PX         0.01917  -0.00178   0.00842  -0.00000   0.00000
  26        3PY         0.00639   0.00842   0.01793   0.00000   0.00000
  27        3PZ        -0.00000  -0.00000   0.00000   0.02783   0.00000
  28 4   F  1S          0.00041   0.00071   0.00024  -0.00000   0.00000
  29        2S         -0.00037   0.00039   0.00013   0.00000   0.00000
  30        2PX         0.00320  -0.00074   0.00185  -0.00000   0.00000
  31        2PY         0.00107   0.00185   0.00271  -0.00000   0.00000
  32        2PZ         0.00000  -0.00000   0.00000   0.00501  -0.00000
  33        3S         -0.00624  -0.01139  -0.00380   0.00000   0.00000
  34        3PX         0.01917  -0.00178   0.00842  -0.00000   0.00000
  35        3PY         0.00639   0.00842   0.01793  -0.00000   0.00000
  36        3PZ         0.00000  -0.00000   0.00000   0.02783  -0.00000
                          11        12        13        14        15
  11        2S          0.14219
  12        2PX         0.00000   0.56927
  13        2PY         0.00000   0.00000   0.42496
  14        2PZ         0.00000  -0.00000   0.00000   0.54977
  15        3S          0.29210   0.00000   0.00000   0.00000   1.35373
  16        3PX         0.00000   0.30664   0.00000  -0.00000   0.00000
  17        3PY         0.00000   0.00000   0.23152   0.00000   0.00000
  18        3PZ         0.00000  -0.00000   0.00000   0.30179   0.00000
  19 3   F  1S          0.00000   0.00000   0.00000   0.00000   0.00000
  20        2S         -0.00000   0.00000  -0.00000   0.00000   0.00000
  21        2PX        -0.00000  -0.00000  -0.00000  -0.00000   0.00000
  22        2PY        -0.00000  -0.00000  -0.00000   0.00000  -0.00001
  23        2PZ        -0.00000   0.00000   0.00000  -0.00000  -0.00000
  24        3S          0.00000  -0.00001  -0.00000  -0.00000  -0.00002
  25        3PX        -0.00000  -0.00001  -0.00001  -0.00000   0.00009
  26        3PY        -0.00000  -0.00002  -0.00003  -0.00000  -0.00101
  27        3PZ        -0.00000  -0.00000  -0.00000  -0.00000   0.00000
  28 4   F  1S          0.00000   0.00000   0.00000   0.00000   0.00000
  29        2S         -0.00000   0.00000  -0.00000   0.00000   0.00000
  30        2PX        -0.00000  -0.00000  -0.00000  -0.00000   0.00000
  31        2PY        -0.00000  -0.00000  -0.00000   0.00000  -0.00001
  32        2PZ        -0.00000   0.00000   0.00000  -0.00000   0.00000
  33        3S          0.00000  -0.00001  -0.00000  -0.00000  -0.00002
  34        3PX        -0.00000  -0.00001  -0.00001  -0.00000   0.00009
  35        3PY        -0.00000  -0.00002  -0.00003   0.00000  -0.00101
  36        3PZ         0.00000   0.00000  -0.00000  -0.00000   0.00000
                          16        17        18        19        20
  16        3PX         0.69262
  17        3PY         0.00000   0.53088
  18        3PZ         0.00000   0.00000   0.69561
  19 3   F  1S          0.00000   0.00000  -0.00000   2.05898
  20        2S          0.00000  -0.00000   0.00000   0.01330   0.14219
  21        2PX        -0.00000  -0.00000   0.00000   0.00000   0.00000
  22        2PY        -0.00002  -0.00004  -0.00000   0.00000   0.00000
  23        2PZ        -0.00000  -0.00000  -0.00000   0.00000   0.00000
  24        3S         -0.00055  -0.00036  -0.00000  -0.08869   0.29210
  25        3PX        -0.00021  -0.00014  -0.00000   0.00000   0.00000
  26        3PY        -0.00102  -0.00190  -0.00000   0.00000   0.00000
  27        3PZ         0.00000  -0.00000  -0.00030   0.00000   0.00000
  28 4   F  1S          0.00000   0.00000   0.00000   0.00000   0.00000
  29        2S          0.00000  -0.00000   0.00000   0.00000  -0.00000
  30        2PX        -0.00000  -0.00000  -0.00000   0.00000  -0.00000
  31        2PY        -0.00002  -0.00004   0.00000  -0.00000   0.00000
  32        2PZ         0.00000   0.00000  -0.00000   0.00000   0.00000
  33        3S         -0.00055  -0.00036  -0.00000   0.00000   0.00000
  34        3PX        -0.00021  -0.00014  -0.00000   0.00000  -0.00000
  35        3PY        -0.00102  -0.00190  -0.00000  -0.00000   0.00000
  36        3PZ         0.00000  -0.00000  -0.00030   0.00000   0.00000
                          21        22        23        24        25
  21        2PX         0.46104
  22        2PY         0.00000   0.53319
  23        2PZ         0.00000   0.00000   0.54977
  24        3S          0.00000   0.00000   0.00000   1.35373
  25        3PX         0.25030   0.00000   0.00000   0.00000   0.57132
  26        3PY        -0.00000   0.28786   0.00000   0.00000   0.00000
  27        3PZ        -0.00000  -0.00000   0.30179   0.00000  -0.00000
  28 4   F  1S          0.00000  -0.00000   0.00000   0.00000   0.00000
  29        2S         -0.00000  -0.00000   0.00000   0.00000  -0.00000
  30        2PX        -0.00000   0.00000   0.00000  -0.00001  -0.00007
  31        2PY        -0.00000   0.00000   0.00000   0.00000   0.00000
  32        2PZ         0.00000  -0.00000  -0.00000   0.00000   0.00000
  33        3S         -0.00001   0.00000  -0.00000  -0.00002  -0.00091
  34        3PX        -0.00007   0.00000  -0.00000  -0.00091  -0.00332
  35        3PY        -0.00000   0.00000   0.00000  -0.00000  -0.00000
  36        3PZ         0.00000  -0.00000  -0.00000   0.00000  -0.00000
                          26        27        28        29        30
  26        3PY         0.65219
  27        3PZ        -0.00000   0.69561
  28 4   F  1S         -0.00000  -0.00000   2.05898
  29        2S          0.00000   0.00000   0.01330   0.14219
  30        2PX        -0.00000   0.00000   0.00000   0.00000   0.46104
  31        2PY         0.00000   0.00000   0.00000   0.00000   0.00000
  32        2PZ         0.00000  -0.00000   0.00000   0.00000   0.00000
  33        3S          0.00000   0.00000  -0.08869   0.29210   0.00000
  34        3PX         0.00000  -0.00000   0.00000   0.00000   0.25030
  35        3PY         0.00005   0.00000   0.00000   0.00000   0.00000
  36        3PZ        -0.00000  -0.00030   0.00000   0.00000  -0.00000
                          31        32        33        34        35
  31        2PY         0.53319
  32        2PZ         0.00000   0.54977
  33        3S          0.00000   0.00000   1.35373
  34        3PX         0.00000  -0.00000   0.00000   0.57132
  35        3PY         0.28786  -0.00000   0.00000   0.00000   0.65219
  36        3PZ        -0.00000   0.30179   0.00000  -0.00000  -0.00000
                          36
  36        3PZ         0.69561
     Gross orbital populations:
                           1
   1 1   B  1S          1.98270
   2        2S          0.40392
   3        2PX         0.38058
   4        2PY         0.38058
   5        2PZ         0.12546
   6        3S          0.18414
   7        3PX         0.08374
   8        3PY         0.08374
   9        3PZ         0.18310
  10 2   F  1S          1.98486
  11        2S          0.44844
  12        2PX         0.88325
  13        2PY         0.69100
  14        2PZ         0.85855
  15        3S          1.53367
  16        3PX         1.03992
  17        3PY         0.91907
  18        3PZ         1.03860
  19 3   F  1S          1.98486
  20        2S          0.44844
  21        2PX         0.73906
  22        2PY         0.83518
  23        2PZ         0.85855
  24        3S          1.53367
  25        3PX         0.94928
  26        3PY         1.00971
  27        3PZ         1.03860
  28 4   F  1S          1.98486
  29        2S          0.44844
  30        2PX         0.73906
  31        2PY         0.83518
  32        2PZ         0.85855
  33        3S          1.53367
  34        3PX         0.94928
  35        3PY         1.00971
  36        3PZ         1.03860
          Condensed to atoms (all electrons):
               1          2          3          4
     1  B    2.976372   0.277194   0.277194   0.277194
     2  F    0.277194   9.131327  -0.005586  -0.005586
     3  F    0.277194  -0.005586   9.131327  -0.005586
     4  F    0.277194  -0.005586  -0.005586   9.131327
 Mulliken charges:
               1
     1  B    1.192047
     2  F   -0.397349
     3  F   -0.397349
     4  F   -0.397349
 Sum of Mulliken charges =  -0.00000
 Mulliken charges with hydrogens summed into heavy atoms:
               1
     1  B    1.192047
     2  F   -0.397349
     3  F   -0.397349
     4  F   -0.397349
 Electronic spatial extent (au):  <R**2>=            253.5001
 Charge=             -0.0000 electrons
 Dipole moment (field-independent basis, Debye):
    X=             -0.0000    Y=             -0.0000    Z=              0.0000  Tot=              0.0000
 Quadrupole moment (field-independent basis, Debye-Ang):
   XX=            -23.6994   YY=            -23.6994   ZZ=            -17.1278
   XY=              0.0000   XZ=             -0.0000   YZ=              0.0000
 Traceless Quadrupole moment (field-independent basis, Debye-Ang):
   XX=             -2.1905   YY=             -2.1905   ZZ=              4.3811
   XY=              0.0000   XZ=             -0.0000   YZ=              0.0000
 Octapole moment (field-independent basis, Debye-Ang**2):
  XXX=              0.0000  YYY=             -3.9423  ZZZ=              0.0000  XYY=             -0.0000
  XXY=              3.9423  XXZ=              0.0000  XZZ=              0.0000  YZZ=              0.0000
  YYZ=              0.0000  XYZ=             -0.0000
 Hexadecapole moment (field-independent basis, Debye-Ang**3):
 XXXX=           -109.1857 YYYY=           -109.1857 ZZZZ=             -9.9921 XXXY=             -0.0000
 XXXZ=              0.0000 YYYX=              0.0000 YYYZ=              0.0000 ZZZX=              0.0000
 ZZZY=              0.0000 XXYY=            -36.3952 XXZZ=            -18.6538 YYZZ=            -18.6538
 XXYZ=              0.0000 YYXZ=              0.0000 ZZXY=              0.0000
 N-N= 9.978111719964D+01 E-N=-9.666144483754D+02  KE= 3.192319128050D+02
 Symmetry A1   KE= 2.014153697019D+02
 Symmetry A2   KE= 6.348021798915D+00
 Symmetry B1   KE= 9.978398809689D+01
 Symmetry B2   KE= 1.168453320730D+01
 Orbital energies and kinetic energies (alpha):
                                 1                 2
   1         (A1')--O        -26.209526         36.904005
   2         (E')--O         -26.209450         36.904635
   3         (E')--O         -26.209450         36.904635
   4         (A1')--O         -7.827640         10.801093
   5         (A1')--O         -1.622146          3.656228
   6         (E')--O          -1.593262          3.856176
   7         (E')--O          -1.593262          3.856176
   8         (A1')--O         -0.801586          2.729767
   9         (E')--O          -0.740487          2.745273
  10         (E')--O          -0.740487          2.745273
  11         (A2")--O         -0.710127          2.668256
  12         (E')--O          -0.653218          3.110509
  13         (E')--O          -0.653218          3.110509
  14         (E")--O          -0.651260          3.174011
  15         (E")--O          -0.651260          3.174011
  16         (A2')--O         -0.642169          3.275401
  17         (A2")--V          0.114861          1.508669
  18         (A1')--V          0.192960          2.381620
  19         (E')--V           0.363960          1.820465
  20         (E')--V           0.363960          1.820465
  21         (A2")--V          0.554272          1.558798
  22         (E')--V           0.657453          2.531674
  23         (E')--V           0.657453          2.531674
  24         (A1')--V          0.774826          2.331600
  25         (E")--V           2.171380          6.520453
  26         (E")--V           2.171380          6.520453
  27         (A2')--V          2.241499          6.518417
  28         (E')--V           2.289777          6.608789
  29         (E')--V           2.289777          6.608789
  30         (A2")--V          2.385857          6.580708
  31         (E')--V           2.411107          6.687245
  32         (E')--V           2.411107          6.687245
  33         (A1')--V          2.423508          6.644127
  34         (E')--V           3.864308          8.615634
  35         (E')--V           3.864308          8.615634
  36         (A1')--V          3.881515          8.693126
 Total kinetic energy from orbitals= 3.192319128050D+02
 Calling FoFJK, ICntrl=      2127 FMM=F ISym2X=1 I1Cent= 0 IOpClX= 0 NMat=1 NMatS=1 NMatT=0.
 ***** Axes restored to original set *****
 -------------------------------------------------------------------
 Center     Atomic                   Forces (Hartrees/Bohr)
 Number     Number              X              Y              Z
 -------------------------------------------------------------------
      1        5          -0.000000000    0.000000000    0.000000000
      2        9           0.055754954    0.096570413   -0.000000000
      3        9           0.055754954   -0.096570413    0.000000000
      4        9          -0.111509908   -0.000000000   -0.000000000
 -------------------------------------------------------------------
 Cartesian Forces:  Max     0.111509908 RMS     0.055754954

 GradGradGradGradGradGradGradGradGradGradGradGradGradGradGradGradGradGrad
 Berny optimization.
 FormGI is forming the generalized inverse of G from B-inverse, IUseBI=4.
 Internal  Forces:  Max     0.111509908 RMS     0.073000370
 Search for a local minimum.
 Step number   1 out of a maximum of   20
 All quantities printed in internal units (Hartrees-Bohrs-Radians)
 Mixed Optimization -- RFO/linear search
 Second derivative matrix not updated -- first step.
 The second derivative matrix:
                          R1        R2        R3        A1        A2
           R1           0.36964
           R2           0.00000   0.36964
           R3           0.00000   0.00000   0.36964
           A1           0.00000   0.00000   0.00000   0.25000
           A2           0.00000   0.00000   0.00000   0.00000   0.25000
           A3           0.00000   0.00000   0.00000   0.00000   0.00000
           D1           0.00000   0.00000   0.00000   0.00000   0.00000
                          A3        D1
           A3           0.25000
           D1           0.00000   0.01163
 ITU=  0
     Eigenvalues ---    0.01163   0.25000   0.25000   0.36964   0.36964
     Eigenvalues ---    0.36964
 RFO step:  Lambda=-8.25029343D-02 EMin= 1.16274578D-02
 Linear search not attempted -- first point.
 Maximum step size (   0.300) exceeded in Quadratic search.
    -- Step size scaled by   0.702
 Iteration  1 RMS(Cart)=  0.11338934 RMS(Int)=  0.00000000
 Iteration  2 RMS(Cart)=  0.00000000 RMS(Int)=  0.00000000
 ClnCor:  largest displacement from symmetrization is 2.27D-13 for atom     1.
 Variable       Old X    -DE/DX   Delta X   Delta X   Delta X     New X
                                 (Linear)    (Quad)   (Total)
    R1        2.75900  -0.11151   0.00000  -0.17321  -0.17321   2.58580
    R2        2.75900  -0.11151   0.00000  -0.17321  -0.17321   2.58580
    R3        2.75900  -0.11151   0.00000  -0.17321  -0.17321   2.58580
    A1        2.09440   0.00000   0.00000   0.00000  -0.00000   2.09440
    A2        2.09440  -0.00000   0.00000  -0.00000   0.00000   2.09440
    A3        2.09440  -0.00000   0.00000  -0.00000  -0.00000   2.09440
    D1        3.14159  -0.00000   0.00000  -0.00000   0.00000   3.14159
         Item               Value     Threshold  Converged?
 Maximum Force            0.111510     0.000450     NO 
 RMS     Force            0.073000     0.000300     NO 
 Maximum Displacement     0.173205     0.001800     NO 
 RMS     Displacement     0.113389     0.001200     NO 
 Predicted change in Energy=-4.130831D-02
 GradGradGradGradGradGradGradGradGradGradGradGradGradGradGradGradGradGrad

                          Input orientation:                          
 ---------------------------------------------------------------------
 Center     Atomic      Atomic             Coordinates (Angstroms)
 Number     Number       Type             X           Y           Z
 ---------------------------------------------------------------------
      1          5           0        0.814044   -0.612074   -0.000000
      2          9           0        0.129872   -1.797094    0.000000
      3          9           0        0.129872    0.572947    0.000000
      4          9           0        2.182388   -0.612074   -0.000000
 ---------------------------------------------------------------------
                    Distance matrix (angstroms):
                    1          2          3          4
     1  B    0.000000
     2  F    1.368344   0.000000
     3  F    1.368344   2.370041   0.000000
     4  F    1.368344   2.370041   2.370041   0.000000
 Stoichiometry    BF3
 Framework group  D3H[O(B),3C2(F)]
 Deg. of freedom     1
 Full point group                 D3H     NOp  12
 Largest Abelian subgroup         C2V     NOp   4
 Largest concise Abelian subgroup C2      NOp   2
                         Standard orientation:                         
 ---------------------------------------------------------------------
 Center     Atomic      Atomic             Coordinates (Angstroms)
 Number     Number       Type             X           Y           Z
 ---------------------------------------------------------------------
      1          5           0        0.000000    0.000000    0.000000
      2          9           0       -0.000000    1.368344    0.000000
      3          9           0       -1.185021   -0.684172    0.000000
      4          9           0        1.185021   -0.684172    0.000000
 ---------------------------------------------------------------------
 Rotational constants (GHZ):           9.4714915           9.4714915           4.7357457
 Standard basis: 3-21G (6D, 7F)
 There are    17 symmetry adapted cartesian basis functions of A1  symmetry.
 There are     2 symmetry adapted cartesian basis functions of A2  symmetry.
 There are    11 symmetry adapted cartesian basis functions of B1  symmetry.
 There are     6 symmetry adapted cartesian basis functions of B2  symmetry.
 There are    17 symmetry adapted basis functions of A1  symmetry.
 There are     2 symmetry adapted basis functions of A2  symmetry.
 There are    11 symmetry adapted basis functions of B1  symmetry.
 There are     6 symmetry adapted basis functions of B2  symmetry.
    36 basis functions,    60 primitive gaussians,    36 cartesian basis functions
    16 alpha electrons       16 beta electrons
       nuclear repulsion energy       106.4647855212 Hartrees.
 NAtoms=    4 NActive=    4 NUniq=    2 SFac= 4.00D+00 NAtFMM=   60 NAOKFM=F Big=F
 Integral buffers will be    131072 words long.
 Raffenetti 1 integral format.
 Two-electron integral symmetry is turned on.
 One-electron integrals computed using PRISM.
 NBasis=    36 RedAO= T EigKep=  1.10D-01  NBF=    17     2    11     6
 NBsUse=    36 1.00D-06 EigRej= -1.00D+00 NBFU=    17     2    11     6
 Initial guess from the checkpoint file:  "BF3_opt.chk"
 B after Tr=     0.000000    0.000000    0.000000
         Rot=    1.000000   -0.000000    0.000000   -0.000000 Ang=   0.00 deg.
 Initial guess orbital symmetries:
       Occupied  (A1') (?A) (?A) (?B) (?B) (?A) (?A) (?B) (?A)
                 (?A) (A2") (?A) (?A) (E") (E") (?B)
       Virtual   (A2") (?B) (?A) (?A) (A2") (?A) (?A) (?B) (E")
                 (E") (?B) (?A) (?A) (A2") (?A) (?A) (?B) (?A)
                 (?A) (?B)
 ExpMin= 1.24D-01 ExpMax= 4.14D+02 ExpMxC= 4.14D+02 IAcc=3 IRadAn=         5 AccDes= 0.00D+00
 Harris functional with IExCor=  205 and IRadAn=       5 diagonalized for initial guess.
 HarFok:  IExCor=  205 AccDes= 0.00D+00 IRadAn=         5 IDoV= 1 UseB2=F ITyADJ=14
 ICtDFT=  3500011 ScaDFX=  1.000000  1.000000  1.000000  1.000000
 FoFCou: FMM=F IPFlag=           0 FMFlag=      100000 FMFlg1=           0
         NFxFlg=           0 DoJE=T BraDBF=F KetDBF=T FulRan=T
         wScrn=  0.000000 ICntrl=       500 IOpCl=  0 I1Cent=   200000004 NGrid=           0
         NMat0=    1 NMatS0=      1 NMatT0=    0 NMatD0=    1 NMtDS0=    0 NMtDT0=    0
 Petite list used in FoFCou.
 Keep R1 ints in memory in symmetry-blocked form, NReq=1030648.
 Requested convergence on RMS density matrix=1.00D-08 within 128 cycles.
 Requested convergence on MAX density matrix=1.00D-06.
 Requested convergence on             energy=1.00D-06.
 No special actions if energy rises.
 SCF Done:  E(RHF) =  -321.460715675     A.U. after   10 cycles
            NFock= 10  Conv=0.23D-08     -V/T= 2.0054
 Calling FoFJK, ICntrl=      2127 FMM=F ISym2X=1 I1Cent= 0 IOpClX= 0 NMat=1 NMatS=1 NMatT=0.
 ***** Axes restored to original set *****
 -------------------------------------------------------------------
 Center     Atomic                   Forces (Hartrees/Bohr)
 Number     Number              X              Y              Z
 -------------------------------------------------------------------
      1        5          -0.000000000   -0.000000000   -0.000000000
      2        9           0.021839283    0.037826747   -0.000000000
      3        9           0.021839283   -0.037826747    0.000000000
      4        9          -0.043678566   -0.000000000   -0.000000000
 -------------------------------------------------------------------
 Cartesian Forces:  Max     0.043678566 RMS     0.021839283

 GradGradGradGradGradGradGradGradGradGradGradGradGradGradGradGradGradGrad
 Berny optimization.
 Using GEDIIS/GDIIS optimizer.
 FormGI is forming the generalized inverse of G from B-inverse, IUseBI=4.
 Internal  Forces:  Max     0.043678566 RMS     0.028594333
 Search for a local minimum.
 Step number   2 out of a maximum of   20
 All quantities printed in internal units (Hartrees-Bohrs-Radians)
 Mixed Optimization -- RFO/linear search
 Update second derivatives using D2CorX and points    1    2
 DE= -4.20D-02 DEPred=-4.13D-02 R= 1.02D+00
 TightC=F SS=  1.41D+00  RLast= 3.00D-01 DXNew= 5.0454D-01 9.0000D-01
 Trust test= 1.02D+00 RLast= 3.00D-01 DXMaxT set to 5.05D-01
 The second derivative matrix:
                          R1        R2        R3        A1        A2
           R1           0.37697
           R2           0.00733   0.37697
           R3           0.00733   0.00733   0.37697
           A1          -0.00000  -0.00000  -0.00000   0.25000
           A2           0.00000   0.00000   0.00000  -0.00000   0.25000
           A3           0.00000   0.00000   0.00000  -0.00000   0.00000
           D1           0.00000   0.00000   0.00000  -0.00000   0.00000
                          A3        D1
           A3           0.25000
           D1           0.00000   0.01163
 ITU=  1  0
 Use linear search instead of GDIIS.
     Eigenvalues ---    0.01163   0.25000   0.25000   0.36964   0.36964
     Eigenvalues ---    0.39162
 RFO step:  Lambda= 0.00000000D+00 EMin= 1.16274578D-02
 Quartic linear search produced a step of  0.44247.
 Iteration  1 RMS(Cart)=  0.05017131 RMS(Int)=  0.00000000
 Iteration  2 RMS(Cart)=  0.00000000 RMS(Int)=  0.00000000
 ClnCor:  largest displacement from symmetrization is 4.71D-13 for atom     4.
 Variable       Old X    -DE/DX   Delta X   Delta X   Delta X     New X
                                 (Linear)    (Quad)   (Total)
    R1        2.58580  -0.04368  -0.07664  -0.00000  -0.07664   2.50916
    R2        2.58580  -0.04368  -0.07664  -0.00000  -0.07664   2.50916
    R3        2.58580  -0.04368  -0.07664   0.00000  -0.07664   2.50916
    A1        2.09440  -0.00000   0.00000  -0.00000   0.00000   2.09440
    A2        2.09440   0.00000  -0.00000   0.00000   0.00000   2.09440
    A3        2.09440   0.00000   0.00000   0.00000  -0.00000   2.09440
    D1        3.14159  -0.00000   0.00000   0.00000   0.00000   3.14159
         Item               Value     Threshold  Converged?
 Maximum Force            0.043679     0.000450     NO 
 RMS     Force            0.028594     0.000300     NO 
 Maximum Displacement     0.076638     0.001800     NO 
 RMS     Displacement     0.050171     0.001200     NO 
 Predicted change in Energy=-6.592071D-03
 GradGradGradGradGradGradGradGradGradGradGradGradGradGradGradGradGradGrad

                          Input orientation:                          
 ---------------------------------------------------------------------
 Center     Atomic      Atomic             Coordinates (Angstroms)
 Number     Number       Type             X           Y           Z
 ---------------------------------------------------------------------
      1          5           0        0.814044   -0.612074    0.000000
      2          9           0        0.150149   -1.761973   -0.000000
      3          9           0        0.150149    0.537825   -0.000000
      4          9           0        2.141832   -0.612074   -0.000000
 ---------------------------------------------------------------------
                    Distance matrix (angstroms):
                    1          2          3          4
     1  B    0.000000
     2  F    1.327789   0.000000
     3  F    1.327789   2.299798   0.000000
     4  F    1.327789   2.299798   2.299798   0.000000
 Stoichiometry    BF3
 Framework group  D3H[O(B),3C2(F)]
 Deg. of freedom     1
 Full point group                 D3H     NOp  12
 Largest Abelian subgroup         C2V     NOp   4
 Largest concise Abelian subgroup C2      NOp   2
                         Standard orientation:                         
 ---------------------------------------------------------------------
 Center     Atomic      Atomic             Coordinates (Angstroms)
 Number     Number       Type             X           Y           Z
 ---------------------------------------------------------------------
      1          5           0        0.000000    0.000000    0.000000
      2          9           0       -0.000000    1.327789    0.000000
      3          9           0       -1.149899   -0.663894    0.000000
      4          9           0        1.149899   -0.663894    0.000000
 ---------------------------------------------------------------------
 Rotational constants (GHZ):          10.0589086          10.0589086           5.0294543
 Standard basis: 3-21G (6D, 7F)
 There are    17 symmetry adapted cartesian basis functions of A1  symmetry.
 There are     2 symmetry adapted cartesian basis functions of A2  symmetry.
 There are    11 symmetry adapted cartesian basis functions of B1  symmetry.
 There are     6 symmetry adapted cartesian basis functions of B2  symmetry.
 There are    17 symmetry adapted basis functions of A1  symmetry.
 There are     2 symmetry adapted basis functions of A2  symmetry.
 There are    11 symmetry adapted basis functions of B1  symmetry.
 There are     6 symmetry adapted basis functions of B2  symmetry.
    36 basis functions,    60 primitive gaussians,    36 cartesian basis functions
    16 alpha electrons       16 beta electrons
       nuclear repulsion energy       109.7165716512 Hartrees.
 NAtoms=    4 NActive=    4 NUniq=    2 SFac= 4.00D+00 NAtFMM=   60 NAOKFM=F Big=F
 Integral buffers will be    131072 words long.
 Raffenetti 1 integral format.
 Two-electron integral symmetry is turned on.
 One-electron integrals computed using PRISM.
 NBasis=    36 RedAO= T EigKep=  1.05D-01  NBF=    17     2    11     6
 NBsUse=    36 1.00D-06 EigRej= -1.00D+00 NBFU=    17     2    11     6
 Initial guess from the checkpoint file:  "BF3_opt.chk"
 B after Tr=    -0.000000    0.000000    0.000000
         Rot=    1.000000   -0.000000    0.000000    0.000000 Ang=   0.00 deg.
 Initial guess orbital symmetries:
       Occupied  (A1') (?A) (?A) (?B) (?B) (?A) (?A) (?B) (?A)
                 (?A) (A2") (?A) (?A) (E") (E") (?B)
       Virtual   (A2") (?B) (?A) (?A) (A2") (?A) (?A) (?B) (E")
                 (E") (?B) (?A) (?A) (?B) (A2") (?A) (?A) (?A)
                 (?A) (?B)
 ExpMin= 1.24D-01 ExpMax= 4.14D+02 ExpMxC= 4.14D+02 IAcc=3 IRadAn=         5 AccDes= 0.00D+00
 Harris functional with IExCor=  205 and IRadAn=       5 diagonalized for initial guess.
 HarFok:  IExCor=  205 AccDes= 0.00D+00 IRadAn=         5 IDoV= 1 UseB2=F ITyADJ=14
 ICtDFT=  3500011 ScaDFX=  1.000000  1.000000  1.000000  1.000000
 FoFCou: FMM=F IPFlag=           0 FMFlag=      100000 FMFlg1=           0
         NFxFlg=           0 DoJE=T BraDBF=F KetDBF=T FulRan=T
         wScrn=  0.000000 ICntrl=       500 IOpCl=  0 I1Cent=   200000004 NGrid=           0
         NMat0=    1 NMatS0=      1 NMatT0=    0 NMatD0=    1 NMtDS0=    0 NMtDT0=    0
 Petite list used in FoFCou.
 Keep R1 ints in memory in symmetry-blocked form, NReq=1030783.
 Requested convergence on RMS density matrix=1.00D-08 within 128 cycles.
 Requested convergence on MAX density matrix=1.00D-06.
 Requested convergence on             energy=1.00D-06.
 No special actions if energy rises.
 SCF Done:  E(RHF) =  -321.465843210     A.U. after    9 cycles
            NFock=  9  Conv=0.22D-08     -V/T= 2.0045
 Calling FoFJK, ICntrl=      2127 FMM=F ISym2X=1 I1Cent= 0 IOpClX= 0 NMat=1 NMatS=1 NMatT=0.
 ***** Axes restored to original set *****
 -------------------------------------------------------------------
 Center     Atomic                   Forces (Hartrees/Bohr)
 Number     Number              X              Y              Z
 -------------------------------------------------------------------
      1        5          -0.000000000   -0.000000000   -0.000000000
      2        9          -0.000422134   -0.000731158   -0.000000000
      3        9          -0.000422134    0.000731158    0.000000000
      4        9           0.000844268   -0.000000000   -0.000000000
 -------------------------------------------------------------------
 Cartesian Forces:  Max     0.000844268 RMS     0.000422134

 GradGradGradGradGradGradGradGradGradGradGradGradGradGradGradGradGradGrad
 Berny optimization.
 Using GEDIIS/GDIIS optimizer.
 FormGI is forming the generalized inverse of G from B-inverse, IUseBI=4.
 Internal  Forces:  Max     0.000844268 RMS     0.000552703
 Search for a local minimum.
 Step number   3 out of a maximum of   20
 All quantities printed in internal units (Hartrees-Bohrs-Radians)
 Mixed Optimization -- En-DIIS/RFO-DIIS
 Update second derivatives using D2CorX and points    1    2    3
 DE= -5.13D-03 DEPred=-6.59D-03 R= 7.78D-01
 TightC=F SS=  1.41D+00  RLast= 1.33D-01 DXNew= 8.4853D-01 3.9822D-01
 Trust test= 7.78D-01 RLast= 1.33D-01 DXMaxT set to 5.05D-01
 The second derivative matrix:
                          R1        R2        R3        A1        A2
           R1           0.44008
           R2           0.07044   0.44008
           R3           0.07044   0.07044   0.44008
           A1           0.00000   0.00000   0.00000   0.25000
           A2          -0.00000  -0.00000  -0.00000  -0.00000   0.25000
           A3          -0.00000  -0.00000  -0.00000  -0.00000   0.00000
           D1           0.00000   0.00000   0.00000   0.00000   0.00000
                          A3        D1
           A3           0.25000
           D1          -0.00000   0.01163
 ITU=  1  1  0
 Use linear search instead of GDIIS.
     Eigenvalues ---    0.01163   0.25000   0.25000   0.36964   0.36964
     Eigenvalues ---    0.58095
 RFO step:  Lambda= 0.00000000D+00 EMin= 1.16274578D-02
 Quartic linear search produced a step of -0.01694.
 Iteration  1 RMS(Cart)=  0.00084984 RMS(Int)=  0.00000000
 Iteration  2 RMS(Cart)=  0.00000000 RMS(Int)=  0.00000000
 ClnCor:  largest displacement from symmetrization is 2.31D-13 for atom     4.
 Variable       Old X    -DE/DX   Delta X   Delta X   Delta X     New X
                                 (Linear)    (Quad)   (Total)
    R1        2.50916   0.00084   0.00130  -0.00000   0.00130   2.51046
    R2        2.50916   0.00084   0.00130   0.00000   0.00130   2.51046
    R3        2.50916   0.00084   0.00130   0.00000   0.00130   2.51046
    A1        2.09440  -0.00000  -0.00000  -0.00000  -0.00000   2.09440
    A2        2.09440   0.00000   0.00000   0.00000   0.00000   2.09440
    A3        2.09440   0.00000   0.00000   0.00000   0.00000   2.09440
    D1        3.14159   0.00000   0.00000   0.00000   0.00000   3.14159
         Item               Value     Threshold  Converged?
 Maximum Force            0.000844     0.000450     NO 
 RMS     Force            0.000553     0.000300     NO 
 Maximum Displacement     0.001298     0.001800     YES
 RMS     Displacement     0.000850     0.001200     YES
 Predicted change in Energy=-1.819442D-06
 GradGradGradGradGradGradGradGradGradGradGradGradGradGradGradGradGradGrad

                          Input orientation:                          
 ---------------------------------------------------------------------
 Center     Atomic      Atomic             Coordinates (Angstroms)
 Number     Number       Type             X           Y           Z
 ---------------------------------------------------------------------
[...]
 Mulliken charges:
               1
     1  B    1.176399
     2  F   -0.392133
     3  F   -0.392133
     4  F   -0.392133
 Sum of Mulliken charges =   0.00000
 Mulliken charges with hydrogens summed into heavy atoms:
               1
     1  B    1.176399
     2  F   -0.392133
     3  F   -0.392133
     4  F   -0.392133
 APT charges:
               1
     1  B    1.790517
     2  F   -0.596839
     3  F   -0.596839
     4  F   -0.596839
 Sum of APT charges =  -0.00000
 APT charges with hydrogens summed into heavy atoms:
               1
     1  B    1.790517
     2  F   -0.596839
     3  F   -0.596839
     4  F   -0.596839
 Electronic spatial extent (au):  <R**2>=            216.4398
 Charge=              0.0000 electrons
 Dipole moment (field-independent basis, Debye):
    X=             -0.0000    Y=              0.0000    Z=              0.0000  Tot=              0.0000
 Quadrupole moment (field-independent basis, Debye-Ang):
   XX=            -22.6718   YY=            -22.6718   ZZ=            -16.8985
   XY=              0.0000   XZ=             -0.0000   YZ=             -0.0000
 Traceless Quadrupole moment (field-independent basis, Debye-Ang):
   XX=             -1.9244   YY=             -1.9244   ZZ=              3.8489
   XY=              0.0000   XZ=             -0.0000   YZ=             -0.0000
 Octapole moment (field-independent basis, Debye-Ang**2):
  XXX=             -0.0000  YYY=             -3.1780  ZZZ=              0.0000  XYY=              0.0000
  XXY=              3.1780  XXZ=              0.0000  XZZ=             -0.0000  YZZ=              0.0000
  YYZ=             -0.0000  XYZ=              0.0000
 Hexadecapole moment (field-independent basis, Debye-Ang**3):
 XXXX=            -91.1878 YYYY=            -91.1878 ZZZZ=             -9.5914 XXXY=             -0.0000
 XXXZ=             -0.0000 YYYX=             -0.0000 YYYZ=             -0.0000 ZZZX=             -0.0000
 ZZZY=             -0.0000 XXYY=            -30.3959 XXZZ=            -15.8874 YYZZ=            -15.8874
 XXYZ=             -0.0000 YYXZ=             -0.0000 ZZXY=             -0.0000
 N-N= 1.096598372719D+02 E-N=-9.865705290073D+02  KE= 3.200096466795D+02
 Symmetry A1   KE= 2.020339066368D+02
 Symmetry A2   KE= 6.352327216280D+00
 Symmetry B1   KE= 1.001369359668D+02
 Symmetry B2   KE= 1.148647685970D+01
 Orbital energies and kinetic energies (alpha):
                                 1                 2
   1         (A1')--O        -26.215442         36.900263
   2         O               -26.215293         36.900301
   3         O               -26.215293         36.900301
   4         O                -7.780421         10.788987
   5         O                -1.676167          3.618193
   6         O                -1.629662          3.854106
   7         O                -1.629662          3.854106
   8         O                -0.832206          2.983141
   9         O                -0.787397          2.826628
  10         O                -0.787397          2.826628
  11         (A2")--O         -0.750614          2.567075
  12         O                -0.673580          3.145334
  13         O                -0.673580          3.145334
  14         (E")--O          -0.665632          3.176164
  15         (E")--O          -0.665632          3.176164
  16         O                -0.647264          3.342098
  17         (A2")--V          0.178220          1.680960
  18         V                 0.258257          1.953666
  19         V                 0.415003          1.527880
  20         V                 0.415003          1.527880
  21         (A2")--V          0.552627          1.566691
  22         V                 0.778833          3.237896
  23         V                 0.778833          3.237896
  24         V                 0.897061          3.063869
  25         (E")--V           2.171034          6.543119
  26         (E")--V           2.171034          6.543119
  27         V                 2.280914          6.583628
  28         V                 2.280914          6.583628
  29         V                 2.293677          6.557006
  30         V                 2.379821          6.460663
  31         (A2")--V          2.425094          6.605788
  32         V                 2.452908          6.676715
  33         V                 2.452908          6.676715
  34         V                 4.007357          8.677158
  35         V                 4.007357          8.677158
  36         V                 4.040751          8.701296
 Total kinetic energy from orbitals= 3.200096466795D+02
  Exact polarizability:   8.545   0.000   8.545   0.000   0.000   4.383
 Approx polarizability:   7.635   0.000   7.635  -0.000  -0.000   3.307
 Calling FoFJK, ICntrl=    100127 FMM=F ISym2X=1 I1Cent= 0 IOpClX= 0 NMat=1 NMatS=1 NMatT=0.
 Full mass-weighted force constant matrix:
 Low frequencies ---   -0.0017   -0.0011    0.0004    0.8044    0.8079    0.8079
 Low frequencies ---  495.4385  495.4385  691.3105
 Diagonal vibrational polarizability:
        6.7347848       6.7347853      10.7722169
 Diagonal vibrational hyperpolarizability:
       -0.0000000      10.9230537       0.0000000
 Harmonic frequencies (cm**-1), IR intensities (KM/Mole), Raman scattering
 activities (A**4/AMU), depolarization ratios for plane and unpolarized
 incident light, reduced masses (AMU), force constants (mDyne/A),
 and normal coordinates:
                      1                      2                      3
                     ?A                     ?A                     A2"
 Frequencies --    495.4385               495.4385               691.3105
 Red. masses --     17.8411                17.8411                11.8135
 Frc consts  --      2.5802                 2.5802                 3.3264
 IR Inten    --     25.0451                25.0451               191.3015
 Raman Activ --      0.7589                 0.7589                 0.0000
 Depolar (P) --      0.7500                 0.7500                 0.0000
 Depolar (U) --      0.8571                 0.8571                 0.0000
  Atom  AN      X      Y      Z        X      Y      Z        X      Y      Z
     1   5     0.00   0.38  -0.00    -0.38   0.00   0.00     0.00   0.00   0.95
     2   9    -0.00   0.46   0.00     0.60   0.00  -0.00    -0.00   0.00  -0.18
     3   9     0.46  -0.34   0.00    -0.19  -0.46  -0.00     0.00   0.00  -0.18
     4   9    -0.46  -0.34   0.00    -0.19   0.46  -0.00     0.00  -0.00  -0.18
                      4                      5                      6
                     ?B                     ?A                     ?A
 Frequencies --    950.8053              1656.0678              1656.0678
 Red. masses --     18.9984                12.3101                12.3101
 Frc consts  --     10.1193                19.8915                19.8915
 IR Inten    --      0.0000               406.5182               406.5182
 Raman Activ --      2.0447                 0.0216                 0.0216
 Depolar (P) --      0.0670                 0.7500                 0.7500
 Depolar (U) --      0.1255                 0.8571                 0.8571
  Atom  AN      X      Y      Z        X      Y      Z        X      Y      Z
     1   5    -0.00  -0.00  -0.00    -0.00   0.91  -0.00     0.91   0.00   0.00
     2   9     0.00   0.58   0.00     0.00  -0.33   0.00    -0.02  -0.00  -0.00
     3   9    -0.50  -0.29   0.00    -0.13  -0.10   0.00    -0.25  -0.13  -0.00
     4   9     0.50  -0.29   0.00     0.13  -0.10   0.00    -0.25   0.13  -0.00

 -------------------
 - Thermochemistry -
 -------------------
 Temperature   298.150 Kelvin.  Pressure   1.00000 Atm.
 Atom     1 has atomic number  5 and mass  11.00931
 Atom     2 has atomic number  9 and mass  18.99840
 Atom     3 has atomic number  9 and mass  18.99840
 Atom     4 has atomic number  9 and mass  18.99840
 Molecular mass:    68.00452 amu.
 Principal axes and moments of inertia in atomic units:
                           1         2         3
     Eigenvalues --   179.60290 179.60290 359.20579
           X            0.47186   0.88167   0.00000
           Y            0.88167  -0.47186   0.00000
           Z            0.00000  -0.00000   1.00000
 This molecule is an oblate symmetric top.
 Rotational symmetry number  6.
 Rotational temperatures (Kelvin)      0.48225     0.48225     0.24113
 Rotational constants (GHZ):          10.04851    10.04851     5.02425
 Zero-point vibrational energy      35559.8 (Joules/Mol)
                                    8.49899 (Kcal/Mol)
 Warning -- explicit consideration of   2 degrees of freedom as
           vibrations may cause significant error
 Vibrational temperatures:    712.83   712.83   994.64  1368.00  2382.71
          (Kelvin)           2382.71
 
 Zero-point correction=                           0.013544 (Hartree/Particle)
 Thermal correction to Energy=                    0.016997
 Thermal correction to Enthalpy=                  0.017942
 Thermal correction to Gibbs Free Energy=        -0.010925
 Sum of electronic and zero-point Energies=           -321.452301
 Sum of electronic and thermal Energies=              -321.448847
 Sum of electronic and thermal Enthalpies=            -321.447903
 Sum of electronic and thermal Free Energies=         -321.476770
 
                     E (Thermal)             CV                S
                      KCal/Mol        Cal/Mol-Kelvin    Cal/Mol-Kelvin
 Total                   10.666              9.848             60.754
 Electronic               0.000              0.000              0.000
 Translational            0.889              2.981             38.569
 Rotational               0.889              2.981             20.404
 Vibrational              8.889              3.886              1.782
 Vibration     1          0.851              1.260              0.670
 Vibration     2          0.851              1.260              0.670
                       Q            Log10(Q)             Ln(Q)
 Total Bot       0.105927D+06          5.025006         11.570503
 Total V=0       0.179807D+12         11.254807         25.915152
 Vib (Bot)       0.748283D-06         -6.125934        -14.105485
 Vib (Bot)    1  0.333073D+00         -0.477461         -1.099395
 Vib (Bot)    2  0.333073D+00         -0.477461         -1.099395
 Vib (V=0)       0.127019D+01          0.103868          0.239164
 Vib (V=0)    1  0.110078D+01          0.041701          0.096020
 Vib (V=0)    2  0.110078D+01          0.041701          0.096020
 Electronic      0.100000D+01          0.000000          0.000000
 Translational   0.220425D+08          7.343261         16.908482
 Rotational      0.642213D+04          3.807679          8.767506
 ***** Axes restored to original set *****
 -------------------------------------------------------------------
 Center     Atomic                   Forces (Hartrees/Bohr)
 Number     Number              X              Y              Z
 -------------------------------------------------------------------
      1        5           0.000000000    0.000000000    0.000000000
      2        9           0.000000583    0.000001009    0.000000000
      3        9           0.000000583   -0.000001009   -0.000000000
      4        9          -0.000001166   -0.000000000    0.000000000
 -------------------------------------------------------------------
 Cartesian Forces:  Max     0.000001166 RMS     0.000000583
 FormGI is forming the generalized inverse of G from B-inverse, IUseBI=4.

 GradGradGradGradGradGradGradGradGradGradGradGradGradGradGradGradGradGrad
 Berny optimization.
 Internal  Forces:  Max     0.000001166 RMS     0.000000763
 Search for a local minimum.
 Step number   1 out of a maximum of    2
 All quantities printed in internal units (Hartrees-Bohrs-Radians)
 Second derivative matrix not updated -- analytic derivatives used.
 The second derivative matrix:
                          R1        R2        R3        A1        A2
           R1           0.58403
           R2           0.03297   0.58403
           R3           0.03297   0.03297   0.58403
           A1           0.01926   0.01926  -0.03853   0.14721
           A2           0.01926  -0.03853   0.01926  -0.07361   0.14721
           A3          -0.03853   0.01926   0.01926  -0.07361  -0.07361
           D1           0.00000  -0.00000  -0.00000   0.00000   0.00000
                          A3        D1
           A3           0.14721
           D1          -0.00000   0.08764
 ITU=  0
     Eigenvalues ---    0.08764   0.21100   0.21100   0.56089   0.56089
     Eigenvalues ---    0.64997
 Angle between quadratic step and forces=   0.00 degrees.
 Linear search not attempted -- first point.
 Iteration  1 RMS(Cart)=  0.00000117 RMS(Int)=  0.00000000
 Iteration  2 RMS(Cart)=  0.00000000 RMS(Int)=  0.00000000
 ClnCor:  largest displacement from symmetrization is 2.62D-13 for atom     3.
 Variable       Old X    -DE/DX   Delta X   Delta X   Delta X     New X
                                 (Linear)    (Quad)   (Total)
    R1        2.51046  -0.00000   0.00000  -0.00000  -0.00000   2.51045
    R2        2.51046  -0.00000   0.00000  -0.00000  -0.00000   2.51045
    R3        2.51046  -0.00000   0.00000  -0.00000  -0.00000   2.51045
    A1        2.09440  -0.00000   0.00000  -0.00000   0.00000   2.09440
    A2        2.09440  -0.00000   0.00000  -0.00000   0.00000   2.09440
    A3        2.09440   0.00000   0.00000   0.00000   0.00000   2.09440
    D1        3.14159   0.00000   0.00000  -0.00000   0.00000   3.14159
         Item               Value     Threshold  Converged?
 Maximum Force            0.000001     0.000450     YES
 RMS     Force            0.000001     0.000300     YES
 Maximum Displacement     0.000002     0.001800     YES
 RMS     Displacement     0.000001     0.001200     YES
 Predicted change in Energy=-3.135662D-12
 Optimization completed.
    -- Stationary point found.
                           ----------------------------
                           !   Optimized Parameters   !
                           ! (Angstroms and Degrees)  !
 --------------------------                            --------------------------
 ! Name  Definition              Value          Derivative Info.                !
 --------------------------------------------------------------------------------
 ! R1    R(1,2)                  1.3285         -DE/DX =    0.0                 !
 ! R2    R(1,3)                  1.3285         -DE/DX =    0.0                 !
 ! R3    R(1,4)                  1.3285         -DE/DX =    0.0                 !
 ! A1    A(2,1,3)              120.0            -DE/DX =    0.0                 !
 ! A2    A(2,1,4)              120.0            -DE/DX =    0.0                 !
 ! A3    A(3,1,4)              120.0            -DE/DX =    0.0                 !
 ! D1    D(2,1,4,3)            180.0            -DE/DX =    0.0                 !
 --------------------------------------------------------------------------------
 GradGradGradGradGradGradGradGradGradGradGradGradGradGradGradGradGradGrad

 Dipole is zero, so no output in dipole orientation.

 ----------------------------------------------------------------------

 Electric dipole moment (input orientation):
 (Debye = 10**-18 statcoulomb cm , SI units = C m)
                  (au)            (Debye)         (10**-30 SI)
   Tot        0.000000D+00      0.000000D+00      0.000000D+00
   x          0.000000D+00      0.000000D+00      0.000000D+00
   y          0.000000D+00      0.000000D+00      0.000000D+00
   z          0.000000D+00      0.000000D+00      0.000000D+00

 Dipole polarizability, Alpha (input orientation).
 (esu units = cm**3 , SI units = C**2 m**2 J**-1)
 Alpha(0;0):
               (au)            (10**-24 esu)      (10**-40 SI)
   iso        0.715790D+01      0.106069D+01      0.118018D+01
   aniso      0.416209D+01      0.616758D+00      0.686236D+00
   xx         0.854526D+01      0.126628D+01      0.140892D+01
   yx         0.000000D+00      0.000000D+00      0.000000D+00
   yy         0.854526D+01      0.126628D+01      0.140892D+01
   zx         0.000000D+00      0.000000D+00      0.000000D+00
   zy         0.000000D+00      0.000000D+00      0.000000D+00
   zz         0.438317D+01      0.649519D+00      0.722688D+00

 First dipole hyperpolarizability, Beta (input orientation).
 ||, _|_  parallel and perpendicular components, (z) with respect to z axis,
 vector components x,y,z.  Values do not include the 1/n! factor of 1/2.
 (esu units = statvolt**-1 cm**4 , SI units = C**3 m**3 J**-2)
 Beta(0;0,0):
               (au)            (10**-30 esu)      (10**-50 SI)
   || (z)     0.000000D+00      0.000000D+00      0.000000D+00
   _|_(z)     0.000000D+00      0.000000D+00      0.000000D+00
   x          0.000000D+00      0.000000D+00      0.000000D+00
   y          0.000000D+00      0.000000D+00      0.000000D+00
   z          0.000000D+00      0.000000D+00      0.000000D+00
   ||         0.000000D+00      0.000000D+00      0.000000D+00
   xxx       -0.612096D+01     -0.528804D-01     -0.196260D-01
   xxy        0.000000D+00      0.000000D+00      0.000000D+00
   yxy        0.612096D+01      0.528804D-01      0.196260D-01
   yyy        0.000000D+00      0.000000D+00      0.000000D+00
   xxz        0.000000D+00      0.000000D+00      0.000000D+00
   yxz        0.000000D+00      0.000000D+00      0.000000D+00
   yyz        0.000000D+00      0.000000D+00      0.000000D+00
   zxz        0.000000D+00      0.000000D+00      0.000000D+00
   zyz        0.000000D+00      0.000000D+00      0.000000D+00
   zzz        0.000000D+00      0.000000D+00      0.000000D+00

 ----------------------------------------------------------------------
 1\1\GINC-IISERK51\Freq\RHF\3-21G\B1F3\GAUSSIAN\16-Jun-2025\0\\#N Geom=
 AllCheck Guess=TCheck SCRF=Check GenChk RHF/3-21G Freq\\BF3 opt\\0,1\B
 ,0.81404371,-0.6120739372,0.\F,0.1498058534,-1.7625676531,0.\F,0.14980
 58534,0.5384197788,0.\F,2.1425194232,-0.6120739372,0.\\Version=EM64L-G
 16RevB.01\HF=-321.4658449\RMSD=2.306e-10\RMSF=5.828e-07\ZeroPoint=0.01
 3544\Thermal=0.0169974\Dipole=0.,0.,0.\DipoleDeriv=2.0129793,0.,0.,0.,
 2.0129793,0.,0.,0.,1.3455932,-0.5962547,-0.1294507,0.,-0.1294507,-0.74
 57315,0.,0.,0.,-0.4485311,-0.5962547,0.1294507,0.,0.1294507,-0.7457315
 ,0.,0.,0.,-0.4485311,-0.8204699,0.,0.,0.,-0.5215163,0.,0.,0.,-0.448531
 1\Polar=8.545264,0.,8.545264,0.,0.,4.3831733\PolarDeriv=0.3448328,-0.0
 000002,-0.344833,0.,0.,0.,0.,-0.3448331,-0.0000004,0.,0.,0.,0.,0.,0.,0
 .,0.,0.,-2.1640056,-1.4798726,-0.2253071,0.,0.,-0.2653315,-0.5893329,-
 0.7394604,-3.5490781,0.,0.,-0.4595676,0.,0.,0.,-0.552634,-0.9571901,0.
 ,-2.1640056,1.4798726,-0.2253071,0.,0.,-0.2653315,0.5893329,-0.7394604
 ,3.5490781,0.,0.,0.4595676,0.,0.,0.,-0.552634,0.9571901,0.,3.983178,0.
 ,0.7954474,0.,0.,0.530663,0.,1.8237541,0.,0.,0.,0.,0.,0.,0.,1.105268,0
 .,0.\HyperPolar=-6.1209637,0.,6.1209637,0.,0.,0.,0.,0.,0.,0.\Quadrupol
 e=-1.4307663,-1.4307663,2.8615325,0.,0.,0.\PG=D03H [O(B1),3C2(F1)]\NIm
 ag=0\\0.86465345,0.,0.86465345,0.,0.,0.16687770,-0.17672903,-0.1931042
 4,0.,0.19856527,-0.19310424,-0.39970660,0.,0.22255085,0.45554486,0.,0.
 ,-0.05562590,0.,0.,0.01854228,-0.17672903,0.19310425,0.,0.01458339,-0.
 01240703,0.,0.19856527,0.19310424,-0.39970660,0.,0.01240703,-0.0534206
 4,0.,-0.22255085,0.45554486,0.,0.,-0.05562590,0.,0.,0.01854181,0.,0.,0
 .01854228,-0.51119539,0.,0.,-0.03641963,-0.01703958,0.,-0.03641963,0.0
 1703958,0.,0.58403465,0.,-0.06524024,0.,-0.04185363,-0.00241761,0.,0.0
 4185363,-0.00241761,0.,0.,0.07007547,0.,0.,-0.05562590,0.,0.,0.0185418
 1,0.,0.,0.01854181,0.,0.,0.01854228\\0.,0.,0.,-0.00000058,-0.00000101,
 0.,-0.00000058,0.00000101,0.,0.00000117,0.,0.\\\@


 DESK:  A WASTEBASKET WITH DRAWERS.
 Job cpu time:       0 days  0 hours  0 minutes  0.8 seconds.
 Elapsed time:       0 days  0 hours  0 minutes  0.8 seconds.
 File lengths (MBytes):  RWF=      6 Int=      0 D2E=      0 Chk=      1 Scr=      1
 Normal termination of Gaussian 16 at Mon Jun 16 18:21:13 2025.
