 Entering Gaussian System, Link 0=g16
 Input=/home/gaussian/Documents/Summer_Internship/Acid_Base_adduct/Base/2,6-dimeth-pyridine/26DMP_sp.com
 Output=/home/gaussian/Documents/Summer_Internship/Acid_Base_adduct/Base/2,6-dimeth-pyridine/26DMP_sp.log
 Initial command:
 /usr/local/g16/l1.exe "/home/gaussian/tmp/Gau-73909.inp" -scrdir="/home/gaussian/tmp/"
 Entering Link 1 = /usr/local/g16/l1.exe PID=     73912.
  
 Copyright (c) 1988-2017, Gaussian, Inc.  All Rights Reserved.
  
 This is part of the Gaussian(R) 16 program.  It is based on
 the Gaussian(R) 09 system (copyright 2009, Gaussian, Inc.),
 the Gaussian(R) 03 system (copyright 2003, Gaussian, Inc.),
 the Gaussian(R) 98 system (copyright 1998, Gaussian, Inc.),
 the Gaussian(R) 94 system (copyright 1995, Gaussian, Inc.),
 the Gaussian 92(TM) system (copyright 1992, Gaussian, Inc.),
 the Gaussian 90(TM) system (copyright 1990, Gaussian, Inc.),
 the Gaussian 88(TM) system (copyright 1988, Gaussian, Inc.),
 the Gaussian 86(TM) system (copyright 1986, Carnegie Mellon
 University), and the Gaussian 82(TM) system (copyright 1983,
 Carnegie Mellon University). Gaussian is a federally registered
 trademark of Gaussian, Inc.
  
 This software contains proprietary and confidential information,
 including trade secrets, belonging to Gaussian, Inc.
  
 This software is provided under written license and may be
 used, copied, transmitted, or stored only in accord with that
 written license.
  
 The following legend is applicable only to US Government
 contracts under FAR:
  
                    RESTRICTED RIGHTS LEGEND
  
 Use, reproduction and disclosure by the US Government is
 subject to restrictions as set forth in subparagraphs (a)
 and (c) of the Commercial Computer Software - Restricted
 Rights clause in FAR 52.227-19.
  
 Gaussian, Inc.
 340 Quinnipiac St., Bldg. 40, Wallingford CT 06492
  
  
 ---------------------------------------------------------------
 Warning -- This program may not be used in any manner that
 competes with the business of Gaussian, Inc. or will provide
 assistance to any competitor of Gaussian, Inc.  The licensee
 of this program is prohibited from giving any competitor of
 Gaussian, Inc. access to this program.  By using this program,
 the user acknowledges that Gaussian, Inc. is engaged in the
 business of creating and licensing software in the field of
 computational chemistry and represents and warrants to the
 licensee that it is not a competitor of Gaussian, Inc. and that
 it will not use this program in any manner prohibited above.
 ---------------------------------------------------------------
  

 Cite this work as:
 Gaussian 16, Revision B.01,
 M. J. Frisch, G. W. Trucks, H. B. Schlegel, G. E. Scuseria, 
 M. A. Robb, J. R. Cheeseman, G. Scalmani, V. Barone, 
 G. A. Petersson, H. Nakatsuji, X. Li, M. Caricato, A. V. Marenich, 
 J. Bloino, B. G. Janesko, R. Gomperts, B. Mennucci, H. P. Hratchian, 
 J. V. Ortiz, A. F. Izmaylov, J. L. Sonnenberg, D. Williams-Young, 
 F. Ding, F. Lipparini, F. Egidi, J. Goings, B. Peng, A. Petrone, 
 T. Henderson, D. Ranasinghe, V. G. Zakrzewski, J. Gao, N. Rega, 
 G. Zheng, W. Liang, M. Hada, M. Ehara, K. Toyota, R. Fukuda, 
 J. Hasegawa, M. Ishida, T. Nakajima, Y. Honda, O. Kitao, H. Nakai, 
 T. Vreven, K. Throssell, J. A. Montgomery, Jr., J. E. Peralta, 
 F. Ogliaro, M. J. Bearpark, J. J. Heyd, E. N. Brothers, K. N. Kudin, 
 V. N. Staroverov, T. A. Keith, R. Kobayashi, J. Normand, 
 K. Raghavachari, A. P. Rendell, J. C. Burant, S. S. Iyengar, 
 J. Tomasi, M. Cossi, J. M. Millam, M. Klene, C. Adamo, R. Cammi, 
 J. W. Ochterski, R. L. Martin, K. Morokuma, O. Farkas, 
 J. B. Foresman, and D. J. Fox, Gaussian, Inc., Wallingford CT, 2016.
 
 ******************************************
 Gaussian 16:  EM64L-G16RevB.01 20-Dec-2017
                16-Jun-2025 
 ******************************************
 %chk=26DMP_sp.chk
 -------------------------------------
 # hf/3-21g pop=full geom=connectivity
 -------------------------------------
 1/38=1,57=2,172=1/1;
 2/12=2,17=6,18=5,40=1/2;
 3/5=5,11=9,25=1,30=1/1,2,3;
 4//1;
 5/5=2,38=5/2;
 6/7=3,28=1/1;
 99/5=1,9=1/99;
 ----------
 2,6 DMP sp
 ----------
 Symbolic Z-matrix:
 Charge =  0 Multiplicity = 1
 C                     0.00002  -1.15593   0.26029 
 C                     0.00001  -1.19356  -1.1243 
 C                     0.        0.       -1.82162 
 C                    -0.00001   1.19356  -1.1243 
 C                    -0.00002   1.15593   0.26029 
 N                     0.        0.        0.92076 
 H                     0.        0.       -2.89373 
 H                     0.00007  -2.13241  -1.63817 
 H                    -0.00007   2.13241  -1.63817 
 C                     0.        2.41348   1.09453 
 H                     0.87496   2.42775   1.73363 
 H                    -0.00023   3.3016    0.4765 
 H                    -0.87467   2.42756   1.73402 
 C                     0.       -2.41348   1.09453 
 H                     0.87467  -2.42756   1.73402 
 H                    -0.87496  -2.42775   1.73363 
 H                     0.00023  -3.3016    0.4765 
 
                          Input orientation:                          
 ---------------------------------------------------------------------
 Center     Atomic      Atomic             Coordinates (Angstroms)
 Number     Number       Type             X           Y           Z
 ---------------------------------------------------------------------
      1          6           0        0.000019   -1.155928    0.260285
      2          6           0        0.000011   -1.193565   -1.124299
      3          6           0        0.000000    0.000000   -1.821622
      4          6           0       -0.000011    1.193565   -1.124299
      5          6           0       -0.000019    1.155928    0.260285
      6          7           0        0.000000    0.000000    0.920758
      7          1           0        0.000000    0.000000   -2.893728
      8          1           0        0.000069   -2.132407   -1.638166
      9          1           0       -0.000069    2.132407   -1.638166
     10          6           0        0.000000    2.413476    1.094531
     11          1           0        0.874964    2.427749    1.733628
     12          1           0       -0.000226    3.301603    0.476497
     13          1           0       -0.874672    2.427555    1.734024
     14          6           0        0.000000   -2.413476    1.094531
     15          1           0        0.874672   -2.427555    1.734024
     16          1           0       -0.874964   -2.427749    1.733628
     17          1           0        0.000226   -3.301603    0.476497
 ---------------------------------------------------------------------
                    Distance matrix (angstroms):
                    1          2          3          4          5
     1  C    0.000000
     2  C    1.385095   0.000000
     3  C    2.381282   1.382337   0.000000
     4  C    2.727121   2.387130   1.382337   0.000000
     5  C    2.311856   2.727121   2.381282   1.385095   0.000000
     6  N    1.331313   2.367880   2.742380   2.367880   1.331313
     7  H    3.359162   2.134356   1.072106   2.134356   3.359162
     8  H    2.134860   1.070273   2.140284   3.365434   3.797007
     9  H    3.797007   3.365434   2.140284   1.070273   2.134860
    10  C    3.665598   4.234850   3.785342   2.532072   1.509103
    11  H    3.972280   4.695445   4.393100   3.233657   2.133978
    12  H    4.462772   4.771696   4.022677   2.646955   2.156541
    13  H    3.972196   4.695486   4.393255   3.233848   2.134001
    14  C    1.509103   2.532072   3.785342   4.234850   3.665598
    15  H    2.134001   3.233848   4.393255   4.695486   3.972196
    16  H    2.133978   3.233657   4.393100   4.695445   3.972280
    17  H    2.156541   2.646955   4.022677   4.771696   4.462772
                    6          7          8          9         10
     6  N    0.000000
     7  H    3.814486   0.000000
     8  H    3.330954   2.474590   0.000000
     9  H    3.330954   2.474590   4.264814   0.000000
    10  C    2.419724   4.661660   5.304025   2.747114   0.000000
    11  H    2.705602   5.298297   5.738420   3.495984   1.083610
    12  H    3.331359   4.717944   5.830975   2.416365   1.082005
    13  H    2.705453   5.298506   5.738475   3.496242   1.083605
    14  C    2.419724   4.661660   2.747114   5.304025   4.826952
    15  H    2.705453   5.298506   3.496242   5.738475   4.960805
    16  H    2.705602   5.298297   3.495984   5.738420   4.960995
    17  H    3.331359   4.717944   2.416365   5.830975   5.748399
                   11         12         13         14         15
    11  H    0.000000
    12  H    1.763507   0.000000
    13  H    1.749636   1.763516   0.000000
    14  C    4.960995   5.748399   4.960805   0.000000
    15  H    4.855304   5.930436   5.160649   1.083605   0.000000
    16  H    5.161212   5.930516   4.855304   1.083610   1.749636
    17  H    5.930516   6.603206   5.930436   1.082005   1.763516
                   16         17
    16  H    0.000000
    17  H    1.763507   0.000000
 Stoichiometry    C7H9N
 Framework group  C2[C2(HCN),X(C6H8)]
 Deg. of freedom    22
 Full point group                 C2      NOp   2
 Largest Abelian subgroup         C2      NOp   2
 Largest concise Abelian subgroup C2      NOp   2
                         Standard orientation:                         
 ---------------------------------------------------------------------
 Center     Atomic      Atomic             Coordinates (Angstroms)
 Number     Number       Type             X           Y           Z
 ---------------------------------------------------------------------
      1          6           0        0.000019   -1.155928    0.260285
      2          6           0        0.000011   -1.193565   -1.124299
      3          6           0        0.000000    0.000000   -1.821622
      4          6           0       -0.000011    1.193565   -1.124299
      5          6           0       -0.000019    1.155928    0.260285
      6          7           0       -0.000000   -0.000000    0.920758
      7          1           0        0.000000    0.000000   -2.893728
      8          1           0        0.000069   -2.132407   -1.638166
      9          1           0       -0.000069    2.132407   -1.638166
     10          6           0       -0.000000    2.413476    1.094531
     11          1           0        0.874964    2.427749    1.733628
     12          1           0       -0.000226    3.301603    0.476497
     13          1           0       -0.874672    2.427555    1.734024
     14          6           0       -0.000000   -2.413476    1.094531
     15          1           0        0.874672   -2.427555    1.734024
     16          1           0       -0.874964   -2.427749    1.733628
     17          1           0        0.000226   -3.301603    0.476497
 ---------------------------------------------------------------------
 Rotational constants (GHZ):           3.5617829           1.9140529           1.2642217
 Standard basis: 3-21G (6D, 7F)
 There are    47 symmetry adapted cartesian basis functions of A   symmetry.
 There are    43 symmetry adapted cartesian basis functions of B   symmetry.
 There are    47 symmetry adapted basis functions of A   symmetry.
 There are    43 symmetry adapted basis functions of B   symmetry.
    90 basis functions,   147 primitive gaussians,    90 cartesian basis functions
    29 alpha electrons       29 beta electrons
       nuclear repulsion energy       347.6596125753 Hartrees.
 NAtoms=   17 NActive=   17 NUniq=   10 SFac= 2.89D+00 NAtFMM=   60 NAOKFM=F Big=F
 Integral buffers will be    131072 words long.
 Raffenetti 1 integral format.
 Two-electron integral symmetry is turned on.
 One-electron integrals computed using PRISM.
 NBasis=    90 RedAO= T EigKep=  2.67D-03  NBF=    47    43
 NBsUse=    90 1.00D-06 EigRej= -1.00D+00 NBFU=    47    43
 ExpMin= 1.83D-01 ExpMax= 2.43D+02 ExpMxC= 2.43D+02 IAcc=3 IRadAn=         5 AccDes= 0.00D+00
 Harris functional with IExCor=  205 and IRadAn=       5 diagonalized for initial guess.
 HarFok:  IExCor=  205 AccDes= 0.00D+00 IRadAn=         5 IDoV= 1 UseB2=F ITyADJ=14
 ICtDFT=  3500011 ScaDFX=  1.000000  1.000000  1.000000  1.000000
 FoFCou: FMM=F IPFlag=           0 FMFlag=      100000 FMFlg1=           0
         NFxFlg=           0 DoJE=T BraDBF=F KetDBF=T FulRan=T
         wScrn=  0.000000 ICntrl=       500 IOpCl=  0 I1Cent=   200000004 NGrid=           0
         NMat0=    1 NMatS0=      1 NMatT0=    0 NMatD0=    1 NMtDS0=    0 NMtDT0=    0
 Petite list used in FoFCou.
 Initial guess orbital symmetries:
       Occupied  (A) (B) (A) (A) (B) (A) (B) (A) (A) (A) (B) (A)
                 (B) (A) (B) (B) (A) (A) (B) (B) (A) (A) (B) (A)
                 (B) (B) (B) (A) (A)
       Virtual   (B) (A) (B) (A) (B) (A) (B) (A) (A) (B) (B) (A)
                 (B) (A) (A) (B) (B) (A) (A) (B) (B) (A) (B) (B)
                 (A) (A) (B) (B) (A) (A) (A) (B) (B) (B) (A) (A)
                 (B) (A) (A) (B) (B) (A) (A) (B) (B) (A) (A) (B)
                 (B) (A) (B) (A) (A) (B) (A) (B) (A) (B) (B) (A)
                 (A)
 The electronic state of the initial guess is 1-A.
 Keep R1 ints in memory in symmetry-blocked form, NReq=12591722.
 Requested convergence on RMS density matrix=1.00D-08 within 128 cycles.
 Requested convergence on MAX density matrix=1.00D-06.
 Requested convergence on             energy=1.00D-06.
 No special actions if energy rises.
 SCF Done:  E(RHF) =  -322.961849000     A.U. after   13 cycles
            NFock= 13  Conv=0.64D-08     -V/T= 2.0016

 **********************************************************************

            Population analysis using the SCF Density.

 **********************************************************************

 Orbital symmetries:
       Occupied  (A) (B) (A) (A) (B) (A) (B) (A) (A) (A) (B) (A)
                 (B) (A) (B) (A) (B) (A) (B) (A) (B) (A) (B) (A)
                 (B) (B) (A) (B) (A)
       Virtual   (B) (A) (A) (B) (A) (B) (B) (A) (A) (B) (A) (B)
                 (A) (B) (A) (B) (B) (A) (A) (B) (B) (B) (A) (A)
                 (A) (B) (B) (B) (A) (B) (A) (A) (B) (A) (B) (A)
                 (A) (B) (A) (B) (A) (B) (A) (B) (B) (A) (A) (B)
                 (B) (A) (A) (B) (A) (B) (A) (B) (A) (B) (B) (A)
                 (A)
 The electronic state is 1-A.
 Alpha  occ. eigenvalues --  -15.47445 -11.22180 -11.22157 -11.19396 -11.17412
 Alpha  occ. eigenvalues --  -11.17405 -11.15864 -11.15859  -1.27178  -1.08627
 Alpha  occ. eigenvalues --   -1.07399  -0.98001  -0.93804  -0.83607  -0.81521
 Alpha  occ. eigenvalues --   -0.69543  -0.67649  -0.61545  -0.59700  -0.57918
 Alpha  occ. eigenvalues --   -0.57689  -0.56947  -0.53478  -0.53382  -0.50229
 Alpha  occ. eigenvalues --   -0.49884  -0.38789  -0.37382  -0.33358
 Alpha virt. eigenvalues --    0.13304   0.15242   0.26509   0.30168   0.30954
 Alpha virt. eigenvalues --    0.32923   0.32960   0.34310   0.36392   0.36678
 Alpha virt. eigenvalues --    0.38301   0.41724   0.43651   0.45081   0.48680
 Alpha virt. eigenvalues --    0.54860   0.57812   0.58670   0.76965   0.82549
 Alpha virt. eigenvalues --    0.88344   0.93741   0.93776   0.95255   0.97487
 Alpha virt. eigenvalues --    0.99020   0.99113   1.02839   1.07586   1.08762
 Alpha virt. eigenvalues --    1.09202   1.09770   1.13709   1.17162   1.17698
 Alpha virt. eigenvalues --    1.18078   1.21778   1.22222   1.29651   1.35691
 Alpha virt. eigenvalues --    1.35825   1.35826   1.37882   1.38113   1.42932
 Alpha virt. eigenvalues --    1.43237   1.45373   1.56738   1.59452   1.66643
 Alpha virt. eigenvalues --    1.71485   1.73303   1.74642   1.84758   1.91098
 Alpha virt. eigenvalues --    2.01839   2.19295   2.27683   2.33810   2.40684
 Alpha virt. eigenvalues --    3.33313
     Molecular Orbital Coefficients:
                           1         2         3         4         5
                           O         O         O         O         O
     Eigenvalues --   -15.47445 -11.22180 -11.22157 -11.19396 -11.17412
   1 1   C  1S         -0.00008   0.69812   0.69783   0.00310   0.00159
   2        2S         -0.00009   0.07060   0.06867   0.00010  -0.00230
   3        2PX        -0.00000  -0.00000  -0.00000  -0.00000   0.00000
   4        2PY         0.00056   0.00124  -0.00078  -0.00052  -0.00011
   5        2PZ         0.00058  -0.00091   0.00019   0.00103   0.00107
   6        3S          0.03023  -0.05421  -0.04420  -0.01009   0.01915
   7        3PX        -0.00000   0.00000  -0.00000   0.00000  -0.00000
   8        3PY         0.03486   0.00226   0.01990  -0.00025   0.00565
   9        3PZ        -0.00079   0.02008   0.00110   0.00262  -0.01249
  10 2   C  1S          0.00047  -0.00202  -0.00132  -0.00950   0.69803
  11        2S          0.00222  -0.00286  -0.00156  -0.00520   0.07066
  12        2PX        -0.00000  -0.00000  -0.00000   0.00000   0.00000
  13        2PY         0.00075   0.00018   0.00033  -0.00151   0.00167
  14        2PZ        -0.00044  -0.00089  -0.00130   0.00024   0.00014
  15        3S         -0.02140   0.02364   0.00737   0.03640  -0.05842
  16        3PX         0.00000   0.00000   0.00000  -0.00000  -0.00000
  17        3PY        -0.02575  -0.00273  -0.01309   0.02066  -0.01213
  18        3PZ        -0.00519   0.01957   0.00773   0.00065  -0.00574
  19 3   C  1S         -0.00032   0.00000  -0.00454   0.98719   0.00000
  20        2S         -0.00133   0.00000  -0.00195   0.09971   0.00000
  21        2PX         0.00000  -0.00000   0.00000   0.00000  -0.00000
  22        2PY         0.00000   0.00116   0.00000   0.00000   0.00138
  23        2PZ         0.00055   0.00000  -0.00031   0.00148   0.00000
  24        3S          0.03411   0.00000   0.01748  -0.09135   0.00000
  25        3PX         0.00000   0.00000   0.00000   0.00000   0.00000
  26        3PY         0.00000  -0.00902   0.00000   0.00000  -0.01535
  27        3PZ         0.01605   0.00000   0.00707  -0.02446   0.00000
  28 4   C  1S          0.00047   0.00202  -0.00132  -0.00950  -0.69803
  29        2S          0.00222   0.00286  -0.00156  -0.00520  -0.07066
  30        2PX         0.00000  -0.00000   0.00000  -0.00000   0.00000
  31        2PY        -0.00075   0.00018  -0.00033   0.00151   0.00167
  32        2PZ        -0.00044   0.00089  -0.00130   0.00024  -0.00014
  33        3S         -0.02140  -0.02364   0.00737   0.03640   0.05842
  34        3PX        -0.00000   0.00000  -0.00000   0.00000  -0.00000
  35        3PY         0.02575  -0.00273   0.01309  -0.02066  -0.01213
  36        3PZ        -0.00519  -0.01957   0.00773   0.00065   0.00574
  37 5   C  1S         -0.00008  -0.69812   0.69783   0.00310  -0.00159
  38        2S         -0.00009  -0.07060   0.06867   0.00010   0.00230
  39        2PX         0.00000  -0.00000   0.00000   0.00000   0.00000
  40        2PY        -0.00056   0.00124   0.00078   0.00052  -0.00011
  41        2PZ         0.00058   0.00091   0.00019   0.00103  -0.00107
  42        3S          0.03023   0.05421  -0.04420  -0.01009  -0.01915
  43        3PX         0.00000   0.00000   0.00000  -0.00000  -0.00000
  44        3PY        -0.03486   0.00226  -0.01990   0.00025   0.00565
  45        3PZ        -0.00079  -0.02008   0.00110   0.00262   0.01249
  46 6   N  1S          0.98686   0.00000   0.00043  -0.00003   0.00000
  47        2S          0.10716   0.00000   0.00250  -0.00027   0.00000
  48        2PX         0.00000   0.00000   0.00000   0.00000   0.00000
  49        2PY         0.00000   0.00002   0.00000   0.00000   0.00049
  50        2PZ        -0.00546   0.00000  -0.00012   0.00011   0.00000
  51        3S         -0.09795   0.00000  -0.00893   0.00211   0.00000
  52        3PX         0.00000  -0.00000   0.00000   0.00000  -0.00000
  53        3PY         0.00000   0.00557   0.00000   0.00000   0.00057
  54        3PZ         0.02671   0.00000   0.00676  -0.00076   0.00000
  55 7   H  1S          0.00007   0.00000  -0.00020  -0.00247   0.00000
  56        2S          0.00294   0.00000   0.00224   0.00589   0.00000
  57 8   H  1S         -0.00200  -0.00079  -0.00175  -0.00016  -0.00157
  58        2S         -0.00763   0.00071  -0.00364   0.00398   0.00444
  59 9   H  1S         -0.00200   0.00079  -0.00175  -0.00016   0.00157
  60        2S         -0.00763  -0.00071  -0.00364   0.00398  -0.00444
  61 10  C  1S         -0.00015   0.00103  -0.00180  -0.00185   0.00457
  62        2S         -0.00089   0.00069  -0.00198  -0.00099   0.00100
  63        2PX        -0.00000  -0.00000   0.00000  -0.00000   0.00000
  64        2PY        -0.00024  -0.00047  -0.00038   0.00001  -0.00011
  65        2PZ        -0.00035  -0.00037   0.00019   0.00018  -0.00017
  66        3S          0.01171  -0.00451   0.01909   0.00277  -0.00383
  67        3PX        -0.00000   0.00000  -0.00000   0.00000  -0.00000
  68        3PY        -0.00135   0.00098  -0.00653  -0.00090   0.00204
  69        3PZ        -0.00599   0.00608  -0.00976  -0.00217   0.00009
  70 11  H  1S         -0.00002   0.00043  -0.00093  -0.00010   0.00018
  71        2S         -0.00000  -0.00217   0.00207   0.00021   0.00010
  72 12  H  1S         -0.00093   0.00066  -0.00125  -0.00050   0.00002
  73        2S         -0.00145   0.00169  -0.00198   0.00008  -0.00013
  74 13  H  1S         -0.00002   0.00043  -0.00093  -0.00010   0.00018
  75        2S          0.00000  -0.00217   0.00207   0.00021   0.00010
  76 14  C  1S         -0.00015  -0.00103  -0.00180  -0.00185  -0.00457
  77        2S         -0.00089  -0.00069  -0.00198  -0.00099  -0.00100
  78        2PX         0.00000  -0.00000  -0.00000   0.00000   0.00000
  79        2PY         0.00024  -0.00047   0.00038  -0.00001  -0.00011
  80        2PZ        -0.00035   0.00037   0.00019   0.00018   0.00017
  81        3S          0.01171   0.00451   0.01909   0.00277   0.00383
  82        3PX         0.00000   0.00000   0.00000  -0.00000  -0.00000
  83        3PY         0.00135   0.00098   0.00653   0.00090   0.00204
  84        3PZ        -0.00599  -0.00608  -0.00976  -0.00217  -0.00009
  85 15  H  1S         -0.00002  -0.00043  -0.00093  -0.00010  -0.00018
  86        2S          0.00000   0.00217   0.00207   0.00021  -0.00010
  87 16  H  1S         -0.00002  -0.00043  -0.00093  -0.00010  -0.00018
  88        2S         -0.00000   0.00217   0.00207   0.00021  -0.00010
  89 17  H  1S         -0.00093  -0.00066  -0.00125  -0.00050  -0.00002
  90        2S         -0.00145  -0.00169  -0.00198   0.00008   0.00013
                           6         7         8         9        10
                           O         O         O         O         O
     Eigenvalues --   -11.17405 -11.15864 -11.15859  -1.27178  -1.08627
   1 1   C  1S          0.00113  -0.00092   0.00130  -0.10388   0.00581
   2        2S         -0.00235   0.00079  -0.00147   0.11653  -0.00315
   3        2PX        -0.00000   0.00000  -0.00000  -0.00000   0.00000
   4        2PY        -0.00004  -0.00077   0.00036   0.08526  -0.04326
   5        2PZ         0.00169   0.00051  -0.00015   0.01430  -0.09248
   6        3S          0.03072  -0.01083   0.01601   0.10613  -0.00471
   7        3PX        -0.00000  -0.00000  -0.00000   0.00000  -0.00000
   8        3PY         0.01190   0.01489  -0.00718  -0.09369   0.01666
   9        3PZ        -0.02128  -0.00834   0.00523   0.00310  -0.00828
  10 2   C  1S          0.69820  -0.00448   0.00574  -0.05080  -0.11023
  11        2S          0.07126   0.00002   0.00012   0.05105   0.12156
  12        2PX         0.00000  -0.00000   0.00000   0.00000   0.00000
  13        2PY         0.00035  -0.00049   0.00029   0.02426   0.06958
  14        2PZ         0.00092   0.00028  -0.00042   0.03344  -0.02660
  15        3S         -0.08000  -0.00222  -0.00262   0.13399   0.22288
  16        3PX         0.00000   0.00000  -0.00000  -0.00000   0.00000
  17        3PY        -0.02328  -0.00170  -0.00199   0.09173  -0.00550
  18        3PZ        -0.01456  -0.00229   0.00029   0.01637   0.00544
  19 3   C  1S          0.01226   0.00000   0.00238  -0.03815  -0.15456
  20        2S         -0.00494   0.00000  -0.00087   0.04876   0.16909
  21        2PX         0.00000   0.00000   0.00000   0.00000   0.00000
  22        2PY         0.00000  -0.00041   0.00000   0.00000   0.00000
  23        2PZ        -0.00159   0.00000  -0.00041   0.03078   0.06242
  24        3S          0.05549   0.00000   0.00541  -0.04687   0.35337
  25        3PX         0.00000  -0.00000   0.00000   0.00000   0.00000
  26        3PY         0.00000   0.00134   0.00000   0.00000   0.00000
  27        3PZ         0.03137   0.00000   0.00496  -0.04446   0.02894
  28 4   C  1S          0.69820   0.00448   0.00574  -0.05080  -0.11023
  29        2S          0.07126  -0.00002   0.00012   0.05105   0.12156
  30        2PX        -0.00000  -0.00000  -0.00000  -0.00000  -0.00000
  31        2PY        -0.00035  -0.00049  -0.00029  -0.02426  -0.06958
  32        2PZ         0.00092  -0.00028  -0.00042   0.03344  -0.02660
  33        3S         -0.08000   0.00222  -0.00262   0.13399   0.22288
  34        3PX        -0.00000   0.00000   0.00000   0.00000  -0.00000
  35        3PY         0.02328  -0.00170   0.00199  -0.09173   0.00550
  36        3PZ        -0.01456   0.00229   0.00029   0.01637   0.00544
  37 5   C  1S          0.00113   0.00092   0.00130  -0.10388   0.00581
  38        2S         -0.00235  -0.00079  -0.00147   0.11653  -0.00315
  39        2PX         0.00000   0.00000   0.00000   0.00000  -0.00000
  40        2PY         0.00004  -0.00077  -0.00036  -0.08526   0.04326
  41        2PZ         0.00169  -0.00051  -0.00015   0.01430  -0.09248
  42        3S          0.03072   0.01083   0.01601   0.10613  -0.00471
  43        3PX         0.00000  -0.00000   0.00000  -0.00000   0.00000
  44        3PY        -0.01190   0.01489   0.00718   0.09369  -0.01666
  45        3PZ        -0.02128   0.00834   0.00523   0.00310  -0.00828
  46 6   N  1S          0.00031   0.00000   0.00004  -0.17148   0.09491
  47        2S          0.00177   0.00000  -0.00040   0.14270  -0.08354
  48        2PX         0.00000  -0.00000   0.00000   0.00000   0.00000
  49        2PY         0.00000  -0.00108   0.00000   0.00000   0.00000
  50        2PZ        -0.00003   0.00000  -0.00028  -0.09457   0.02117
  51        3S         -0.01329   0.00000  -0.00145   0.59102  -0.32685
  52        3PX         0.00000   0.00000   0.00000   0.00000   0.00000
  53        3PY         0.00000   0.00314   0.00000   0.00000   0.00000
  54        3PZ         0.00859   0.00000   0.00027  -0.14108   0.04576
  55 7   H  1S          0.00006   0.00000   0.00015   0.01021   0.06799
  56        2S          0.00756   0.00000   0.00197  -0.01366   0.00619
  57 8   H  1S         -0.00225  -0.00023  -0.00010   0.01845   0.04610
  58        2S          0.00219  -0.00029  -0.00062   0.02465  -0.00355
  59 9   H  1S         -0.00225   0.00023  -0.00010   0.01845   0.04610
  60        2S          0.00219   0.00029  -0.00062   0.02465  -0.00355
  61 10  C  1S         -0.00588   0.69835   0.69824  -0.02250   0.00767
  62        2S         -0.00144   0.07270   0.07213   0.02497  -0.00659
  63        2PX        -0.00000   0.00000   0.00000  -0.00000   0.00000
  64        2PY        -0.00003   0.00001  -0.00004  -0.01832   0.00816
  65        2PZ         0.00008   0.00011  -0.00001  -0.00947  -0.00601
  66        3S          0.00801  -0.06351  -0.05895   0.00458  -0.01523
  67        3PX        -0.00000  -0.00000  -0.00000   0.00000  -0.00000
  68        3PY        -0.00385   0.00524   0.00352   0.00121   0.00783
  69        3PZ        -0.00033   0.00309   0.00184   0.02839  -0.00772
  70 11  H  1S         -0.00032   0.00035   0.00018   0.00835  -0.00456
  71        2S         -0.00037   0.01048   0.01036  -0.00613  -0.00087
  72 12  H  1S         -0.00002   0.00027   0.00005   0.01005  -0.00009
  73        2S          0.00016   0.01016   0.01021   0.00608  -0.00105
  74 13  H  1S         -0.00032   0.00035   0.00018   0.00835  -0.00456
  75        2S         -0.00037   0.01048   0.01036  -0.00613  -0.00087
  76 14  C  1S         -0.00588  -0.69835   0.69824  -0.02250   0.00767
  77        2S         -0.00144  -0.07270   0.07213   0.02497  -0.00659
  78        2PX         0.00000   0.00000  -0.00000   0.00000  -0.00000
  79        2PY         0.00003   0.00001   0.00004   0.01832  -0.00816
  80        2PZ         0.00008  -0.00011  -0.00001  -0.00947  -0.00601
  81        3S          0.00801   0.06351  -0.05895   0.00458  -0.01523
  82        3PX         0.00000  -0.00000   0.00000  -0.00000   0.00000
  83        3PY         0.00385   0.00524  -0.00352  -0.00121  -0.00783
  84        3PZ        -0.00033  -0.00309   0.00184   0.02839  -0.00772
  85 15  H  1S         -0.00032  -0.00035   0.00018   0.00835  -0.00456
  86        2S         -0.00037  -0.01048   0.01036  -0.00613  -0.00087
  87 16  H  1S         -0.00032  -0.00035   0.00018   0.00835  -0.00456
  88        2S         -0.00037  -0.01048   0.01036  -0.00613  -0.00087
  89 17  H  1S         -0.00002  -0.00027   0.00005   0.01005  -0.00009
  90        2S          0.00016  -0.01016   0.01021   0.00608  -0.00105
                          11        12        13        14        15
                           O         O         O         O         O
     Eigenvalues --    -1.07399  -0.98001  -0.93804  -0.83607  -0.81521
   1 1   C  1S         -0.11905  -0.03450  -0.01510   0.05682  -0.09172
   2        2S          0.13085   0.04023   0.01703  -0.06346   0.09772
   3        2PX        -0.00000  -0.00000   0.00000  -0.00000  -0.00000
   4        2PY        -0.01833  -0.12318   0.03802   0.03701   0.10710
   5        2PZ        -0.00976   0.00841  -0.11739   0.14895   0.08152
   6        3S          0.25304   0.07638   0.03045  -0.16955   0.29142
   7        3PX        -0.00000  -0.00000   0.00000   0.00000  -0.00000
   8        3PY        -0.01321  -0.02545  -0.01197   0.01884   0.02111
   9        3PZ        -0.05882  -0.00023  -0.02632   0.07420  -0.03966
  10 2   C  1S         -0.08105  -0.00745  -0.11223   0.05066   0.05633
  11        2S          0.08914   0.00882   0.11700  -0.05350  -0.05445
  12        2PX         0.00000   0.00000   0.00000  -0.00000  -0.00000
  13        2PY        -0.00580  -0.04060   0.00939   0.08223   0.01872
  14        2PZ         0.05412   0.02869   0.00553  -0.15246   0.08853
  15        3S          0.15363   0.02425   0.30502  -0.15581  -0.21810
  16        3PX         0.00000   0.00000   0.00000  -0.00000  -0.00000
  17        3PY         0.02307  -0.01141   0.02231   0.01292   0.02194
  18        3PZ        -0.02630   0.00314   0.00701  -0.05064  -0.01204
  19 3   C  1S          0.00000   0.02887   0.00000  -0.12477   0.00000
  20        2S          0.00000  -0.02850   0.00000   0.12913   0.00000
  21        2PX         0.00000   0.00000   0.00000   0.00000  -0.00000
  22        2PY        -0.06227   0.00000  -0.13765   0.00000   0.11719
  23        2PZ         0.00000  -0.00759   0.00000  -0.08270   0.00000
  24        3S          0.00000  -0.08405   0.00000   0.40921   0.00000
  25        3PX        -0.00000   0.00000   0.00000   0.00000  -0.00000
  26        3PY         0.02566   0.00000  -0.02945   0.00000   0.07369
  27        3PZ         0.00000  -0.01971   0.00000  -0.02300   0.00000
  28 4   C  1S          0.08105  -0.00745   0.11223   0.05066  -0.05633
  29        2S         -0.08914   0.00882  -0.11700  -0.05350   0.05445
  30        2PX         0.00000  -0.00000   0.00000   0.00000  -0.00000
  31        2PY        -0.00580   0.04060   0.00939  -0.08223   0.01872
  32        2PZ        -0.05412   0.02869  -0.00553  -0.15246  -0.08853
  33        3S         -0.15363   0.02425  -0.30502  -0.15581   0.21810
  34        3PX         0.00000  -0.00000   0.00000   0.00000  -0.00000
  35        3PY         0.02307   0.01141   0.02231  -0.01292   0.02194
  36        3PZ         0.02630   0.00314  -0.00701  -0.05064   0.01204
  37 5   C  1S          0.11905  -0.03450   0.01510   0.05682   0.09172
  38        2S         -0.13085   0.04023  -0.01703  -0.06346  -0.09772
  39        2PX        -0.00000   0.00000   0.00000   0.00000  -0.00000
  40        2PY        -0.01833   0.12318   0.03802  -0.03701   0.10710
  41        2PZ         0.00976   0.00841   0.11739   0.14895  -0.08152
  42        3S         -0.25304   0.07638  -0.03045  -0.16955  -0.29142
  43        3PX        -0.00000   0.00000   0.00000  -0.00000  -0.00000
  44        3PY        -0.01321   0.02545  -0.01197  -0.01884   0.02111
  45        3PZ         0.05882  -0.00023   0.02632   0.07420   0.03966
  46 6   N  1S          0.00000   0.06086   0.00000  -0.05899   0.00000
  47        2S          0.00000  -0.05305   0.00000   0.05643   0.00000
  48        2PX         0.00000   0.00000   0.00000   0.00000   0.00000
  49        2PY        -0.11539   0.00000   0.01792   0.00000  -0.25197
  50        2PZ         0.00000   0.04656   0.00000   0.03947   0.00000
  51        3S          0.00000  -0.21839   0.00000   0.21402   0.00000
  52        3PX         0.00000   0.00000   0.00000   0.00000   0.00000
  53        3PY        -0.08406   0.00000  -0.00234   0.00000  -0.20741
  54        3PZ         0.00000   0.04733   0.00000   0.01261   0.00000
  55 7   H  1S          0.00000  -0.01504   0.00000   0.13446   0.00000
  56        2S          0.00000  -0.01020   0.00000   0.06248   0.00000
  57 8   H  1S          0.04076   0.01418   0.07052  -0.03808  -0.07202
  58        2S          0.00849   0.00690   0.02334  -0.01679  -0.04005
  59 9   H  1S         -0.04076   0.01418  -0.07052  -0.03808   0.07202
  60        2S         -0.00849   0.00690  -0.02334  -0.01679   0.04005
  61 10  C  1S          0.08527  -0.13670  -0.10418  -0.04227  -0.06158
  62        2S         -0.08271   0.13123   0.09742   0.03918   0.05601
  63        2PX        -0.00000   0.00000   0.00000   0.00000   0.00000
  64        2PY         0.03403  -0.00941   0.00189   0.01602   0.08197
  65        2PZ         0.02560  -0.01481   0.01548   0.04755   0.01958
  66        3S         -0.23239   0.40036   0.32966   0.14347   0.20661
  67        3PX        -0.00000   0.00000   0.00000   0.00000   0.00000
  68        3PY         0.01643   0.00009  -0.00382   0.00485   0.04698
  69        3PZ         0.00000  -0.00996  -0.00038   0.02123  -0.00363
  70 11  H  1S         -0.03838   0.07402   0.06489   0.04119   0.04702
  71        2S          0.00696   0.00410   0.01078   0.01818   0.01917
  72 12  H  1S         -0.04100   0.07886   0.05744   0.01977   0.07051
  73        2S         -0.00262   0.00741   0.00528   0.00196   0.03021
  74 13  H  1S         -0.03838   0.07402   0.06489   0.04120   0.04702
  75        2S          0.00696   0.00410   0.01078   0.01818   0.01917
  76 14  C  1S         -0.08527  -0.13670   0.10418  -0.04227   0.06158
  77        2S          0.08271   0.13123  -0.09742   0.03918  -0.05601
  78        2PX        -0.00000  -0.00000   0.00000  -0.00000   0.00000
  79        2PY         0.03403   0.00941   0.00189  -0.01602   0.08197
  80        2PZ        -0.02560  -0.01481  -0.01548   0.04755  -0.01958
  81        3S          0.23239   0.40036  -0.32966   0.14347  -0.20661
  82        3PX        -0.00000  -0.00000   0.00000  -0.00000   0.00000
  83        3PY         0.01643  -0.00009  -0.00382  -0.00485   0.04698
  84        3PZ        -0.00000  -0.00996   0.00038   0.02123   0.00363
  85 15  H  1S          0.03838   0.07402  -0.06489   0.04120  -0.04702
  86        2S         -0.00696   0.00410  -0.01078   0.01818  -0.01917
  87 16  H  1S          0.03838   0.07402  -0.06489   0.04119  -0.04702
  88        2S         -0.00696   0.00410  -0.01078   0.01818  -0.01917
  89 17  H  1S          0.04100   0.07886  -0.05744   0.01977  -0.07051
  90        2S          0.00262   0.00741  -0.00528   0.00196  -0.03021
                          16        17        18        19        20
                           O         O         O         O         O
     Eigenvalues --    -0.69543  -0.67649  -0.61545  -0.59700  -0.57918
   1 1   C  1S          0.00994  -0.02323  -0.06931  -0.00000   0.00066
   2        2S         -0.00484   0.02386   0.07214   0.00000  -0.00570
   3        2PX        -0.00000  -0.00000  -0.00001   0.14624   0.00000
   4        2PY         0.06930  -0.12308  -0.12671  -0.00000  -0.09237
   5        2PZ        -0.06401  -0.18119   0.01332   0.00001   0.09492
   6        3S         -0.05273   0.08678   0.24658  -0.00000   0.03037
   7        3PX        -0.00000  -0.00000  -0.00000   0.12860  -0.00000
   8        3PY         0.05373  -0.06929  -0.12600   0.00000  -0.07369
   9        3PZ        -0.05940  -0.09032   0.02788   0.00000   0.10765
  10 2   C  1S          0.02401   0.01726   0.04808   0.00000  -0.02460
  11        2S         -0.01903  -0.01764  -0.04944  -0.00000   0.02480
  12        2PX        -0.00001  -0.00000  -0.00001   0.08467  -0.00000
  13        2PY         0.20292  -0.08615   0.07522  -0.00002   0.04695
  14        2PZ         0.07811   0.21432   0.10277  -0.00000  -0.06960
  15        3S         -0.12064  -0.06160  -0.15662  -0.00001   0.09665
  16        3PX        -0.00001  -0.00000  -0.00001   0.07202   0.00000
  17        3PY         0.13252  -0.04075   0.12134  -0.00002   0.01916
  18        3PZ         0.05413   0.11786   0.08204  -0.00000  -0.04587
  19 3   C  1S         -0.01481   0.00000  -0.04603   0.00000  -0.00056
  20        2S          0.02086   0.00000   0.04988   0.00000   0.00400
  21        2PX         0.00000  -0.00000   0.00000   0.06763   0.00000
  22        2PY         0.00000   0.24063   0.00000   0.00002   0.00000
  23        2PZ         0.20777   0.00000  -0.13270   0.00000   0.21293
  24        3S          0.02476   0.00000   0.11949   0.00000  -0.02792
  25        3PX         0.00000  -0.00000   0.00000   0.06039   0.00000
  26        3PY         0.00000   0.12813   0.00000   0.00001   0.00000
  27        3PZ         0.14208   0.00000  -0.16070   0.00000   0.19148
  28 4   C  1S          0.02401  -0.01726   0.04808  -0.00000  -0.02460
  29        2S         -0.01903   0.01764  -0.04944   0.00000   0.02480
  30        2PX         0.00001  -0.00000   0.00001   0.08467   0.00000
  31        2PY        -0.20292  -0.08615  -0.07522  -0.00002  -0.04695
  32        2PZ         0.07811  -0.21432   0.10277   0.00000  -0.06960
  33        3S         -0.12064   0.06160  -0.15662   0.00001   0.09665
  34        3PX         0.00001  -0.00000   0.00001   0.07202  -0.00000
  35        3PY        -0.13252  -0.04075  -0.12134  -0.00002  -0.01916
  36        3PZ         0.05413  -0.11786   0.08204   0.00000  -0.04587
  37 5   C  1S          0.00994   0.02323  -0.06931   0.00000   0.00066
  38        2S         -0.00484  -0.02386   0.07214  -0.00000  -0.00570
  39        2PX         0.00000  -0.00000   0.00001   0.14624  -0.00000
  40        2PY        -0.06930  -0.12308   0.12671  -0.00000   0.09237
  41        2PZ        -0.06401   0.18119   0.01332  -0.00001   0.09492
  42        3S         -0.05273  -0.08678   0.24658   0.00000   0.03037
  43        3PX         0.00000  -0.00000   0.00000   0.12860   0.00000
  44        3PY        -0.05373  -0.06929   0.12600   0.00000   0.07369
  45        3PZ        -0.05940   0.09032   0.02788  -0.00000   0.10765
  46 6   N  1S          0.03617   0.00000   0.04525   0.00000  -0.00335
  47        2S         -0.03289   0.00000  -0.04308   0.00000   0.00939
  48        2PX         0.00000  -0.00000   0.00000   0.15190   0.00000
  49        2PY         0.00000   0.18595   0.00000  -0.00000   0.00000
  50        2PZ        -0.08173   0.00000   0.02317   0.00000   0.15739
  51        3S         -0.13550   0.00000  -0.17220   0.00000  -0.00795
  52        3PX         0.00000  -0.00000   0.00000   0.15164   0.00000
  53        3PY         0.00000   0.14260   0.00000  -0.00001   0.00000
  54        3PZ        -0.06135   0.00000   0.00850   0.00000   0.14702
  55 7   H  1S         -0.10729   0.00000   0.13737   0.00000  -0.15034
  56        2S         -0.07035   0.00000   0.08031   0.00000  -0.11123
  57 8   H  1S         -0.14645  -0.03160  -0.12679   0.00001   0.01660
  58        2S         -0.09177  -0.01799  -0.07304   0.00001   0.00061
  59 9   H  1S         -0.14645   0.03160  -0.12679  -0.00001   0.01660
  60        2S         -0.09177   0.01799  -0.07304  -0.00001   0.00061
  61 10  C  1S         -0.02346  -0.00628   0.01029   0.00000   0.00356
  62        2S          0.01754   0.00572  -0.00459  -0.00000   0.00189
  63        2PX         0.00000  -0.00000   0.00001   0.20253  -0.00000
  64        2PY         0.06094  -0.02724  -0.14117  -0.00000  -0.18200
  65        2PZ         0.05124   0.09547  -0.10015  -0.00000   0.08373
  66        3S          0.11343   0.03425  -0.08287  -0.00000  -0.05024
  67        3PX         0.00000  -0.00000   0.00001   0.15848  -0.00000
  68        3PY         0.02993  -0.02016  -0.07482   0.00000  -0.12349
  69        3PZ         0.02715   0.05868  -0.05584  -0.00000   0.08117
  70 11  H  1S          0.03522   0.03874  -0.04636   0.11114   0.03181
  71        2S          0.01915   0.02834  -0.04257   0.09347   0.02679
  72 12  H  1S          0.02600  -0.04308  -0.05011  -0.00003  -0.14241
  73        2S          0.01046  -0.03505  -0.05025  -0.00003  -0.12629
  74 13  H  1S          0.03522   0.03876  -0.04638  -0.11111   0.03186
  75        2S          0.01915   0.02835  -0.04258  -0.09344   0.02683
  76 14  C  1S         -0.02346   0.00628   0.01029  -0.00000   0.00356
  77        2S          0.01754  -0.00572  -0.00459   0.00000   0.00189
  78        2PX        -0.00000  -0.00000  -0.00001   0.20253   0.00000
  79        2PY        -0.06094  -0.02724   0.14117  -0.00000   0.18200
  80        2PZ         0.05124  -0.09547  -0.10015   0.00000   0.08373
  81        3S          0.11343  -0.03425  -0.08287   0.00000  -0.05024
  82        3PX        -0.00000  -0.00000  -0.00001   0.15848   0.00000
  83        3PY        -0.02993  -0.02016   0.07482   0.00000   0.12349
  84        3PZ         0.02715  -0.05868  -0.05584   0.00000   0.08117
  85 15  H  1S          0.03522  -0.03876  -0.04638   0.11111   0.03186
  86        2S          0.01915  -0.02835  -0.04258   0.09344   0.02683
  87 16  H  1S          0.03522  -0.03874  -0.04636  -0.11114   0.03181
  88        2S          0.01915  -0.02834  -0.04257  -0.09347   0.02679
  89 17  H  1S          0.02600   0.04308  -0.05011   0.00003  -0.14241
  90        2S          0.01046   0.03505  -0.05025   0.00003  -0.12629
                          21        22        23        24        25
                           O         O         O         O         O
     Eigenvalues --    -0.57689  -0.56947  -0.53478  -0.53382  -0.50229
   1 1   C  1S         -0.00335   0.00000  -0.00244  -0.01374  -0.00000
   2        2S          0.00720  -0.00001   0.00471   0.01819   0.00000
   3        2PX         0.00001  -0.07903  -0.00000  -0.00000  -0.12041
   4        2PY         0.11003   0.00001   0.05713   0.07297  -0.00005
   5        2PZ        -0.15410   0.00000   0.07304  -0.09580   0.00001
   6        3S         -0.02688  -0.00001  -0.01513   0.04284   0.00001
   7        3PX         0.00001  -0.05897   0.00000  -0.00000  -0.14160
   8        3PY         0.08780   0.00001   0.03255   0.06072  -0.00006
   9        3PZ        -0.10380  -0.00000   0.03421  -0.11821   0.00003
  10 2   C  1S         -0.01871  -0.00000   0.01220  -0.00056  -0.00000
  11        2S          0.02234   0.00000  -0.01129   0.00111  -0.00000
  12        2PX        -0.00000  -0.03576  -0.00000   0.00000  -0.14540
  13        2PY         0.21605  -0.00001   0.06991  -0.06995   0.00003
  14        2PZ         0.11791  -0.00001  -0.07534   0.09068  -0.00001
  15        3S          0.03675   0.00001  -0.05822  -0.00692   0.00000
  16        3PX        -0.00000  -0.03500  -0.00000  -0.00000  -0.13858
  17        3PY         0.18437  -0.00001   0.04515  -0.02299   0.00004
  18        3PZ         0.10506  -0.00001  -0.03548   0.03844   0.00001
  19 3   C  1S          0.00000   0.00000   0.00000   0.02058   0.00000
  20        2S          0.00000  -0.00000   0.00000  -0.02201   0.00000
  21        2PX         0.00000   0.00000   0.00000   0.00000  -0.15183
  22        2PY        -0.13298   0.00000  -0.10284   0.00000  -0.00004
  23        2PZ         0.00000   0.00001   0.00000  -0.18514   0.00000
  24        3S          0.00000  -0.00002   0.00000  -0.08313   0.00000
  25        3PX         0.00000   0.00000  -0.00000   0.00000  -0.15337
  26        3PY        -0.07894   0.00000  -0.07875   0.00000  -0.00003
  27        3PZ         0.00000   0.00001   0.00000  -0.18293   0.00000
  28 4   C  1S          0.01871  -0.00000  -0.01220  -0.00056   0.00000
  29        2S         -0.02234   0.00000   0.01129   0.00111   0.00000
  30        2PX        -0.00000   0.03576  -0.00000  -0.00000  -0.14540
  31        2PY         0.21605   0.00001   0.06991   0.06995   0.00003
  32        2PZ        -0.11791  -0.00001   0.07534   0.09068   0.00001
  33        3S         -0.03675   0.00001   0.05822  -0.00692  -0.00000
  34        3PX        -0.00000   0.03500  -0.00000   0.00000  -0.13858
  35        3PY         0.18437   0.00001   0.04515   0.02299   0.00004
  36        3PZ        -0.10506  -0.00001   0.03548   0.03844  -0.00001
  37 5   C  1S          0.00335   0.00000   0.00244  -0.01374   0.00000
  38        2S         -0.00720  -0.00001  -0.00471   0.01819  -0.00000
  39        2PX         0.00001   0.07903  -0.00000   0.00000  -0.12041
  40        2PY         0.11003  -0.00001   0.05713  -0.07297  -0.00005
  41        2PZ         0.15410   0.00000  -0.07304  -0.09580  -0.00001
  42        3S          0.02688  -0.00001   0.01513   0.04284  -0.00001
  43        3PX         0.00001   0.05897   0.00000   0.00000  -0.14160
  44        3PY         0.08780  -0.00001   0.03255  -0.06072  -0.00006
  45        3PZ         0.10380  -0.00000  -0.03421  -0.11821  -0.00003
  46 6   N  1S          0.00000  -0.00000   0.00000   0.03945   0.00000
  47        2S          0.00000   0.00000   0.00000  -0.03598   0.00000
  48        2PX         0.00001   0.00000   0.00000   0.00000  -0.16460
  49        2PY         0.01312   0.00000  -0.11226   0.00000   0.00004
  50        2PZ         0.00000  -0.00001   0.00000  -0.13316   0.00000
  51        3S          0.00000   0.00001   0.00000  -0.16032   0.00000
  52        3PX         0.00001   0.00000  -0.00000   0.00000  -0.16988
  53        3PY         0.00041   0.00000  -0.11604   0.00000   0.00003
  54        3PZ         0.00000  -0.00000   0.00000  -0.11568   0.00000
  55 7   H  1S          0.00000  -0.00001   0.00000   0.11899   0.00000
  56        2S          0.00000  -0.00000   0.00000   0.09672   0.00000
  57 8   H  1S         -0.15282   0.00001  -0.02541   0.00882  -0.00002
  58        2S         -0.11752   0.00001  -0.01158   0.00670  -0.00001
  59 9   H  1S          0.15282   0.00001   0.02541   0.00882   0.00002
  60        2S          0.11752   0.00001   0.01158   0.00670   0.00001
  61 10  C  1S          0.00630   0.00000  -0.00073  -0.00026   0.00000
  62        2S         -0.00135  -0.00000   0.00155  -0.00262  -0.00001
  63        2PX         0.00001   0.25919   0.00000   0.00000   0.17083
  64        2PY        -0.10563   0.00000  -0.14279  -0.04975   0.00004
  65        2PZ        -0.09328  -0.00000   0.20325   0.21282   0.00002
  66        3S         -0.05367  -0.00000  -0.00171   0.03486   0.00001
  67        3PX         0.00001   0.22323  -0.00000  -0.00000   0.17382
  68        3PY        -0.06540   0.00000  -0.11761  -0.05557   0.00002
  69        3PZ        -0.06692  -0.00000   0.18187   0.17852   0.00001
  70 11  H  1S         -0.04362   0.14782   0.08808   0.09081   0.10765
  71        2S         -0.03882   0.12327   0.07666   0.07815   0.09436
  72 12  H  1S         -0.02273  -0.00004  -0.17595  -0.12370  -0.00002
  73        2S         -0.01625  -0.00003  -0.16542  -0.11766  -0.00001
  74 13  H  1S         -0.04365  -0.14777   0.08815   0.09087  -0.10760
  75        2S         -0.03885  -0.12323   0.07671   0.07819  -0.09431
  76 14  C  1S         -0.00630   0.00000   0.00073  -0.00026  -0.00000
  77        2S          0.00135  -0.00000  -0.00155  -0.00262   0.00001
  78        2PX         0.00001  -0.25919   0.00000  -0.00000   0.17083
  79        2PY        -0.10563  -0.00000  -0.14279   0.04975   0.00004
  80        2PZ         0.09328  -0.00000  -0.20325   0.21282  -0.00002
  81        3S          0.05367  -0.00000   0.00171   0.03486  -0.00001
  82        3PX         0.00001  -0.22323  -0.00000   0.00000   0.17382
  83        3PY        -0.06540  -0.00000  -0.11761   0.05557   0.00002
  84        3PZ         0.06692  -0.00000  -0.18187   0.17852  -0.00001
  85 15  H  1S          0.04365  -0.14777  -0.08815   0.09087   0.10760
  86        2S          0.03885  -0.12323  -0.07671   0.07819   0.09431
  87 16  H  1S          0.04362   0.14782  -0.08808   0.09081  -0.10765
  88        2S          0.03882   0.12327  -0.07666   0.07815  -0.09436
  89 17  H  1S          0.02273  -0.00004   0.17595  -0.12370   0.00002
  90        2S          0.01625  -0.00003   0.16542  -0.11766   0.00001
                          26        27        28        29        30
                           O         O         O         O         V
     Eigenvalues --    -0.49884  -0.38789  -0.37382  -0.33358   0.13304
   1 1   C  1S          0.00905   0.02339   0.00000  -0.00000   0.00000
   2        2S         -0.00736  -0.02970  -0.00000   0.00000   0.00000
   3        2PX        -0.00004  -0.00000   0.09896   0.21959  -0.15642
   4        2PY         0.21153  -0.04351   0.00000   0.00000  -0.00000
   5        2PZ        -0.04643  -0.16926   0.00000  -0.00000   0.00000
   6        3S         -0.04949  -0.08463  -0.00000   0.00000  -0.00002
   7        3PX        -0.00004  -0.00000   0.14618   0.25579  -0.22614
   8        3PY         0.21987   0.01365   0.00001   0.00000   0.00002
   9        3PZ        -0.11515  -0.00315   0.00001  -0.00000   0.00004
  10 2   C  1S         -0.00310  -0.02218  -0.00000   0.00000  -0.00000
  11        2S          0.00371   0.01942   0.00000  -0.00000   0.00000
  12        2PX        -0.00003  -0.00001  -0.15428   0.24178  -0.12150
  13        2PY        -0.16291   0.00755  -0.00001   0.00001  -0.00000
  14        2PZ         0.04941   0.15878  -0.00000   0.00001  -0.00000
  15        3S         -0.01571   0.17253   0.00001  -0.00000   0.00002
  16        3PX        -0.00003  -0.00001  -0.19184   0.30295  -0.30896
  17        3PY        -0.19057  -0.00108  -0.00001   0.00001  -0.00002
  18        3PZ        -0.00679   0.19289   0.00000   0.00000   0.00003
  19 3   C  1S          0.00000   0.00356   0.00000  -0.00000   0.00000
  20        2S          0.00000  -0.00439   0.00000   0.00000   0.00000
  21        2PX        -0.00004   0.00000  -0.26447   0.00000   0.27722
  22        2PY         0.20980   0.00000   0.00000   0.00000   0.00000
  23        2PZ         0.00000  -0.05647   0.00000  -0.00000   0.00000
  24        3S          0.00000   0.01273   0.00000  -0.00000   0.00000
  25        3PX        -0.00004   0.00000  -0.29695   0.00000   0.62842
  26        3PY         0.13303   0.00000  -0.00000   0.00000  -0.00002
  27        3PZ         0.00000  -0.11972   0.00000  -0.00000   0.00000
  28 4   C  1S          0.00310  -0.02218   0.00000   0.00000   0.00000
  29        2S         -0.00371   0.01942  -0.00000  -0.00000  -0.00000
  30        2PX        -0.00003   0.00001  -0.15428  -0.24178  -0.12150
  31        2PY        -0.16291  -0.00755  -0.00001  -0.00001  -0.00000
  32        2PZ        -0.04941   0.15878   0.00000   0.00001   0.00000
  33        3S          0.01571   0.17253  -0.00001  -0.00000  -0.00002
  34        3PX        -0.00003   0.00001  -0.19184  -0.30295  -0.30896
  35        3PY        -0.19057   0.00108  -0.00001  -0.00001  -0.00002
  36        3PZ         0.00679   0.19289  -0.00000   0.00000  -0.00003
  37 5   C  1S         -0.00905   0.02339  -0.00000  -0.00000  -0.00000
  38        2S          0.00736  -0.02970   0.00000   0.00000  -0.00000
  39        2PX        -0.00004   0.00000   0.09896  -0.21959  -0.15642
  40        2PY         0.21153   0.04351   0.00000  -0.00000  -0.00000
  41        2PZ         0.04643  -0.16926  -0.00000  -0.00000  -0.00000
  42        3S          0.04949  -0.08463   0.00000   0.00000   0.00002
  43        3PX        -0.00004   0.00000   0.14618  -0.25579  -0.22614
  44        3PY         0.21987  -0.01365   0.00001  -0.00000   0.00002
  45        3PZ         0.11515  -0.00315  -0.00001  -0.00000  -0.00004
  46 6   N  1S          0.00000  -0.07188   0.00000  -0.00000   0.00000
  47        2S          0.00000   0.06779   0.00000   0.00000   0.00000
  48        2PX        -0.00004   0.00000   0.27881   0.00000   0.25401
  49        2PY        -0.17622   0.00000   0.00000   0.00000  -0.00000
  50        2PZ         0.00000   0.39696   0.00000   0.00001   0.00000
  51        3S          0.00000   0.28479   0.00000   0.00001   0.00000
  52        3PX        -0.00005   0.00000   0.33709   0.00000   0.46775
  53        3PY        -0.19138   0.00000   0.00001   0.00000   0.00002
  54        3PZ         0.00000   0.49518   0.00000   0.00002   0.00000
  55 7   H  1S          0.00000   0.05380   0.00000   0.00000   0.00000
  56        2S          0.00000   0.03905   0.00000   0.00000   0.00000
  57 8   H  1S          0.10399  -0.05251   0.00000  -0.00000  -0.00000
  58        2S          0.07702  -0.06851   0.00000  -0.00000  -0.00000
  59 9   H  1S         -0.10399  -0.05251  -0.00000  -0.00000   0.00000
  60        2S         -0.07702  -0.06851  -0.00000  -0.00000   0.00000
  61 10  C  1S         -0.01462   0.01977  -0.00000   0.00000   0.00000
  62        2S          0.01935  -0.01551   0.00000  -0.00000  -0.00000
  63        2PX         0.00003   0.00001  -0.04233   0.06685  -0.00575
  64        2PY        -0.17297   0.09265  -0.00000   0.00000  -0.00000
  65        2PZ        -0.10499   0.05590   0.00000   0.00000   0.00001
  66        3S         -0.00859  -0.12193  -0.00000  -0.00000   0.00000
  67        3PX         0.00003   0.00002  -0.06774   0.06469  -0.14686
  68        3PY        -0.10274   0.07424  -0.00001  -0.00000  -0.00004
  69        3PZ        -0.06887   0.06047   0.00001   0.00000   0.00007
  70 11  H  1S         -0.03235   0.01322  -0.03153   0.05709   0.03410
  71        2S         -0.04315   0.04533  -0.01973   0.07784   0.20401
  72 12  H  1S         -0.05463   0.01627   0.00001  -0.00001  -0.00001
  73        2S         -0.07291   0.03778   0.00002  -0.00001   0.00002
  74 13  H  1S         -0.03239   0.01322   0.03152  -0.05707  -0.03409
  75        2S         -0.04317   0.04535   0.01971  -0.07781  -0.20403
  76 14  C  1S          0.01462   0.01977   0.00000   0.00000  -0.00000
  77        2S         -0.01935  -0.01551  -0.00000  -0.00000   0.00000
  78        2PX         0.00003  -0.00001  -0.04233  -0.06685  -0.00575
  79        2PY        -0.17297  -0.09265  -0.00000  -0.00000  -0.00000
  80        2PZ         0.10499   0.05590  -0.00000   0.00000  -0.00001
  81        3S          0.00859  -0.12193   0.00000  -0.00000  -0.00000
  82        3PX         0.00003  -0.00002  -0.06774  -0.06469  -0.14686
  83        3PY        -0.10274  -0.07424  -0.00001   0.00000  -0.00004
  84        3PZ         0.06887   0.06047  -0.00001   0.00000  -0.00007
  85 15  H  1S          0.03239   0.01322  -0.03152  -0.05707   0.03409
  86        2S          0.04317   0.04535  -0.01971  -0.07781   0.20403
  87 16  H  1S          0.03235   0.01322   0.03153   0.05709  -0.03410
  88        2S          0.04315   0.04533   0.01973   0.07784  -0.20401
  89 17  H  1S          0.05463   0.01627  -0.00001  -0.00001   0.00001
  90        2S          0.07291   0.03778  -0.00002  -0.00001  -0.00002
                          31        32        33        34        35
                           V         V         V         V         V
     Eigenvalues --     0.15242   0.26509   0.30168   0.30954   0.32923
   1 1   C  1S         -0.00000   0.01402   0.00595   0.01233   0.00016
   2        2S         -0.00000  -0.00654  -0.00850   0.00367   0.00041
   3        2PX         0.25939   0.00002  -0.00002   0.00001  -0.12234
   4        2PY         0.00000   0.04036   0.00270   0.00934   0.00091
   5        2PZ         0.00000   0.01696  -0.01644  -0.00522  -0.00036
   6        3S          0.00003  -0.22440  -0.21219  -0.01779  -0.00517
   7        3PX         0.52424   0.00005  -0.00002   0.00002  -0.19271
   8        3PY         0.00002   0.06395  -0.08089   0.03498   0.00059
   9        3PZ         0.00001   0.02338   0.05821  -0.12482  -0.00323
  10 2   C  1S         -0.00000   0.04610   0.02897  -0.01497   0.00030
  11        2S          0.00000  -0.02331  -0.01278   0.02046   0.00015
  12        2PX        -0.22178  -0.00002   0.00001  -0.00000   0.16707
  13        2PY        -0.00001   0.09485   0.09253   0.01208   0.00205
  14        2PZ        -0.00001   0.07831   0.03413   0.02087   0.00140
  15        3S          0.00003  -0.57160  -0.45666   0.02106  -0.00774
  16        3PX        -0.50606  -0.00006   0.00002  -0.00001   0.41846
  17        3PY        -0.00004   0.44359   0.34986   0.04201   0.01035
  18        3PZ        -0.00002   0.28741   0.35470  -0.18643   0.00401
  19 3   C  1S          0.00000   0.04455   0.00000   0.06119   0.00000
  20        2S         -0.00000  -0.01124   0.00000  -0.02920   0.00000
  21        2PX         0.00000   0.00000  -0.00002   0.00000  -0.18319
  22        2PY         0.00000   0.00000  -0.03556   0.00000   0.00056
  23        2PZ        -0.00000   0.13914   0.00000   0.07621   0.00000
  24        3S          0.00002  -0.72239   0.00000  -0.86666   0.00000
  25        3PX         0.00000   0.00000  -0.00004   0.00000  -0.48562
  26        3PY         0.00000   0.00000  -0.21358   0.00000   0.00222
  27        3PZ         0.00000   0.40361   0.00000   0.46780   0.00000
  28 4   C  1S         -0.00000   0.04610  -0.02897  -0.01497  -0.00030
  29        2S          0.00000  -0.02331   0.01278   0.02046  -0.00015
  30        2PX         0.22178   0.00002   0.00001   0.00000   0.16707
  31        2PY         0.00001  -0.09485   0.09253  -0.01208   0.00205
  32        2PZ        -0.00001   0.07831  -0.03413   0.02087  -0.00140
  33        3S          0.00003  -0.57160   0.45666   0.02106   0.00774
  34        3PX         0.50606   0.00006   0.00002   0.00001   0.41846
  35        3PY         0.00004  -0.44359   0.34986  -0.04201   0.01035
  36        3PZ        -0.00002   0.28741  -0.35470  -0.18643  -0.00401
  37 5   C  1S         -0.00000   0.01402  -0.00595   0.01233  -0.00016
  38        2S         -0.00000  -0.00654   0.00850   0.00367  -0.00041
  39        2PX        -0.25939  -0.00002  -0.00002  -0.00001  -0.12234
  40        2PY        -0.00000  -0.04036   0.00270  -0.00934   0.00091
  41        2PZ         0.00000   0.01696   0.01644  -0.00522   0.00036
  42        3S          0.00003  -0.22440   0.21219  -0.01779   0.00517
  43        3PX        -0.52424  -0.00005  -0.00002  -0.00002  -0.19271
  44        3PY        -0.00002  -0.06395  -0.08089  -0.03498   0.00059
  45        3PZ         0.00001   0.02338  -0.05821  -0.12482   0.00323
  46 6   N  1S         -0.00000   0.02871   0.00000  -0.01053   0.00000
  47        2S          0.00000  -0.02781   0.00000   0.01132   0.00000
  48        2PX         0.00000   0.00000   0.00002   0.00000   0.08731
  49        2PY         0.00000   0.00000   0.04260   0.00000   0.00122
  50        2PZ        -0.00000   0.04530   0.00000   0.04699   0.00000
  51        3S         -0.00002  -0.15254   0.00000   0.08781   0.00000
  52        3PX         0.00000   0.00000   0.00003   0.00000   0.20515
  53        3PY         0.00000   0.00000   0.01546   0.00000   0.00007
  54        3PZ         0.00000   0.09017   0.00000   0.05745   0.00000
  55 7   H  1S         -0.00000   0.04635   0.00000   0.01835   0.00000
  56        2S         -0.00002   0.96251   0.00000   0.90538   0.00000
  57 8   H  1S         -0.00001   0.03437  -0.01942   0.02353   0.00032
  58        2S         -0.00005   0.95492   0.68622  -0.00907   0.01621
  59 9   H  1S         -0.00001   0.03437   0.01942   0.02353  -0.00032
  60        2S         -0.00005   0.95492  -0.68622  -0.00907  -0.01621
  61 10  C  1S          0.00000   0.02037  -0.09035  -0.10648   0.00134
  62        2S         -0.00000  -0.00232   0.01904   0.02807  -0.00041
  63        2PX         0.00414   0.00001  -0.00001   0.00001  -0.14210
  64        2PY         0.00001  -0.08726   0.10978   0.04891   0.00153
  65        2PZ        -0.00000   0.01277   0.01447   0.04544  -0.00231
  66        3S         -0.00000  -0.33602   1.33973   1.49681  -0.01827
  67        3PX        -0.03040   0.00004  -0.00005   0.00008  -0.70950
  68        3PY         0.00004  -0.38709   0.47083   0.18032   0.00780
  69        3PZ        -0.00003   0.05316   0.09765   0.30902  -0.01170
  70 11  H  1S          0.05046  -0.00326  -0.00436  -0.00835   0.05029
  71        2S          0.16251   0.06593  -0.56145  -0.78067   0.79782
  72 12  H  1S         -0.00002   0.01276  -0.00233   0.01380  -0.00061
  73        2S         -0.00009   0.55058  -0.90297  -0.55509  -0.00905
  74 13  H  1S         -0.05045  -0.00327  -0.00437  -0.00836  -0.04990
  75        2S         -0.16241   0.06587  -0.56150  -0.78061  -0.76661
  76 14  C  1S          0.00000   0.02037   0.09035  -0.10648  -0.00134
  77        2S         -0.00000  -0.00232  -0.01904   0.02807   0.00041
  78        2PX        -0.00414  -0.00001  -0.00001  -0.00001  -0.14210
  79        2PY        -0.00001   0.08726   0.10978  -0.04891   0.00153
  80        2PZ        -0.00000   0.01277  -0.01447   0.04544   0.00231
  81        3S         -0.00000  -0.33602  -1.33973   1.49681   0.01827
  82        3PX         0.03040  -0.00004  -0.00005  -0.00008  -0.70950
  83        3PY        -0.00004   0.38709   0.47083  -0.18032   0.00780
  84        3PZ        -0.00003   0.05316  -0.09765   0.30902   0.01170
  85 15  H  1S         -0.05045  -0.00327   0.00437  -0.00836   0.04990
  86        2S         -0.16241   0.06587   0.56150  -0.78061   0.76661
  87 16  H  1S          0.05046  -0.00326   0.00436  -0.00835  -0.05029
  88        2S          0.16251   0.06593   0.56145  -0.78067  -0.79782
  89 17  H  1S         -0.00002   0.01276   0.00233   0.01380   0.00061
  90        2S         -0.00009   0.55058   0.90297  -0.55509   0.00905
                          36        37        38        39        40
                           V         V         V         V         V
     Eigenvalues --     0.32960   0.34310   0.36392   0.36678   0.38301
   1 1   C  1S         -0.00811   0.02100   0.00002   0.03127  -0.02577
   2        2S         -0.02029  -0.04247   0.00001  -0.01791  -0.00213
   3        2PX        -0.00242  -0.00001   0.06554   0.00000   0.00004
   4        2PY        -0.04639  -0.02369  -0.00001  -0.07287   0.00125
   5        2PZ         0.01813  -0.03317  -0.00004   0.06294   0.09911
   6        3S          0.25584   0.05463  -0.00046  -0.39678   0.60811
   7        3PX        -0.00383  -0.00003   0.29311   0.00001   0.00015
   8        3PY        -0.03169   0.15861  -0.00003  -0.19134   0.04365
   9        3PZ         0.16403  -0.16150  -0.00004   0.26760   0.12217
  10 2   C  1S         -0.01545   0.00280   0.00004  -0.07140  -0.06753
  11        2S         -0.00749   0.00735  -0.00003   0.02343   0.04862
  12        2PX         0.00333   0.00002  -0.00251  -0.00001   0.00000
  13        2PY        -0.10372   0.02356   0.00002  -0.10405  -0.04336
  14        2PZ        -0.07049  -0.04076   0.00004  -0.01588  -0.07009
  15        3S          0.39399  -0.20009  -0.00035   1.12849   0.63302
  16        3PX         0.00833   0.00003  -0.11441   0.00001  -0.00003
  17        3PY        -0.52456  -0.20725   0.00021  -0.48811  -0.57920
  18        3PZ        -0.20098  -0.32002   0.00038   0.03247  -0.56037
  19 3   C  1S          0.00000   0.05185  -0.00006   0.00000   0.08357
  20        2S          0.00000  -0.02612   0.00003   0.00000  -0.05372
  21        2PX        -0.00364   0.00000   0.00000   0.00002   0.00000
  22        2PY        -0.02920   0.00000   0.00000  -0.00700   0.00000
  23        2PZ         0.00000   0.12722  -0.00005   0.00000   0.09638
  24        3S          0.00000  -0.62861   0.00077   0.00000  -0.95143
  25        3PX        -0.00965   0.00000   0.00000   0.00001   0.00000
  26        3PY        -0.11459   0.00000   0.00000   0.14273   0.00000
  27        3PZ         0.00000   0.79675  -0.00048   0.00000   0.98976
  28 4   C  1S          0.01545   0.00280   0.00004   0.07140  -0.06753
  29        2S          0.00749   0.00735  -0.00003  -0.02343   0.04862
  30        2PX         0.00333  -0.00002   0.00251  -0.00001  -0.00000
  31        2PY        -0.10372  -0.02356  -0.00002  -0.10405   0.04336
  32        2PZ         0.07049  -0.04076   0.00004   0.01588  -0.07009
  33        3S         -0.39399  -0.20009  -0.00035  -1.12849   0.63302
  34        3PX         0.00833  -0.00003   0.11441   0.00001   0.00003
  35        3PY        -0.52456   0.20725  -0.00021  -0.48811   0.57920
  36        3PZ         0.20098  -0.32002   0.00038  -0.03247  -0.56037
  37 5   C  1S          0.00811   0.02100   0.00002  -0.03127  -0.02577
  38        2S          0.02029  -0.04247   0.00001   0.01791  -0.00213
  39        2PX        -0.00242   0.00001  -0.06554   0.00000  -0.00004
  40        2PY        -0.04639   0.02369   0.00001  -0.07287  -0.00125
  41        2PZ        -0.01813  -0.03317  -0.00004  -0.06294   0.09911
  42        3S         -0.25584   0.05463  -0.00046   0.39678   0.60811
  43        3PX        -0.00383   0.00003  -0.29311   0.00001  -0.00015
  44        3PY        -0.03169  -0.15861   0.00003  -0.19134  -0.04365
  45        3PZ        -0.16403  -0.16150  -0.00004  -0.26760   0.12217
  46 6   N  1S          0.00000  -0.02546  -0.00003   0.00000   0.03989
  47        2S          0.00000   0.02823   0.00000   0.00000  -0.00668
  48        2PX         0.00171   0.00000   0.00000   0.00001   0.00000
  49        2PY        -0.06268   0.00000   0.00000  -0.02645   0.00000
  50        2PZ         0.00000  -0.00460  -0.00002   0.00000  -0.02938
  51        3S          0.00000   0.06458   0.00033   0.00000  -0.48683
  52        3PX         0.00404   0.00000   0.00000   0.00001   0.00000
  53        3PY        -0.00634   0.00000   0.00000  -0.12596   0.00000
  54        3PZ         0.00000   0.06376  -0.00009   0.00000   0.03943
  55 7   H  1S          0.00000  -0.00216   0.00000   0.00000  -0.00691
  56        2S          0.00000   1.12340  -0.00079   0.00000   1.39614
  57 8   H  1S         -0.01633   0.00493   0.00000  -0.02238  -0.02724
  58        2S         -0.82262  -0.17238   0.00055  -1.04106  -1.13062
  59 9   H  1S          0.01633   0.00493   0.00000   0.02238  -0.02724
  60        2S          0.82262  -0.17238   0.00055   1.04106  -1.13062
  61 10  C  1S         -0.06734   0.00362  -0.00002  -0.03123   0.05110
  62        2S          0.02083  -0.00111   0.00000   0.00969  -0.00906
  63        2PX        -0.00280  -0.00001   0.21140  -0.00001   0.00013
  64        2PY        -0.07781   0.06632   0.00001   0.07426  -0.03913
  65        2PZ         0.11740  -0.16626  -0.00004  -0.10193   0.04040
  66        3S          0.91667  -0.05085   0.00034   0.45518  -0.70549
  67        3PX        -0.01397  -0.00006   1.06278  -0.00004   0.00061
  68        3PY        -0.39704   0.30458   0.00005   0.34127  -0.08914
  69        3PZ         0.59338  -0.81830  -0.00028  -0.56293   0.32201
  70 11  H  1S         -0.00865   0.02119  -0.03033   0.02531  -0.02823
  71        2S         -0.76607   0.62402  -1.05366   0.24393   0.03591
  72 12  H  1S          0.02999  -0.03918  -0.00002  -0.04446   0.04260
  73        2S          0.45410  -0.91046  -0.00015  -0.96361   0.67553
  74 13  H  1S         -0.01064   0.02121   0.03036   0.02532  -0.02821
  75        2S         -0.79727   0.62435   1.05347   0.24418   0.03697
  76 14  C  1S          0.06734   0.00362  -0.00002   0.03123   0.05110
  77        2S         -0.02083  -0.00111   0.00000  -0.00969  -0.00906
  78        2PX        -0.00280   0.00001  -0.21140  -0.00001  -0.00013
  79        2PY        -0.07781  -0.06632  -0.00001   0.07426   0.03913
  80        2PZ        -0.11740  -0.16626  -0.00004   0.10193   0.04040
  81        3S         -0.91667  -0.05085   0.00034  -0.45518  -0.70549
  82        3PX        -0.01397   0.00006  -1.06278  -0.00004  -0.00061
  83        3PY        -0.39704  -0.30458  -0.00005   0.34127   0.08914
  84        3PZ        -0.59338  -0.81830  -0.00028   0.56293   0.32201
  85 15  H  1S          0.01064   0.02121   0.03036  -0.02532  -0.02821
  86        2S          0.79727   0.62435   1.05347  -0.24418   0.03697
  87 16  H  1S          0.00865   0.02119  -0.03033  -0.02531  -0.02823
  88        2S          0.76607   0.62402  -1.05366  -0.24393   0.03591
  89 17  H  1S         -0.02999  -0.03918  -0.00002   0.04446   0.04260
  90        2S         -0.45410  -0.91046  -0.00015   0.96361   0.67553
                          41        42        43        44        45
                           V         V         V         V         V
     Eigenvalues --     0.41724   0.43651   0.45081   0.48680   0.54860
   1 1   C  1S         -0.00000  -0.12069  -0.09573   0.01824  -0.02783
   2        2S         -0.00001   0.04548   0.03205   0.01900  -0.01754
   3        2PX        -0.19945  -0.00000  -0.00002  -0.00000   0.00001
   4        2PY         0.00002  -0.08104  -0.17524  -0.12024  -0.09790
   5        2PZ        -0.00000   0.07784   0.01066   0.11455   0.15896
   6        3S          0.00009   1.62972   1.55158  -0.46285   0.79098
   7        3PX        -0.63676  -0.00001  -0.00006  -0.00001   0.00001
   8        3PY         0.00012  -0.80250  -0.99489  -0.86551  -0.68119
   9        3PZ        -0.00002   0.51373  -0.04599   0.36687   1.27055
  10 2   C  1S         -0.00001   0.02630   0.07616   0.02970  -0.07271
  11        2S          0.00000  -0.03188  -0.02390   0.00250  -0.00992
  12        2PX         0.13731  -0.00000   0.00001  -0.00000  -0.00000
  13        2PY        -0.00000   0.05868  -0.06949  -0.06735   0.12932
  14        2PZ        -0.00001  -0.02780  -0.00522   0.06618  -0.06663
  15        3S          0.00016  -0.04202  -1.32610  -0.61547   2.07143
  16        3PX         0.48037  -0.00002   0.00003   0.00002  -0.00003
  17        3PY         0.00003   0.95009  -0.02520  -0.71960   1.30370
  18        3PZ        -0.00014  -0.22415  -0.19097   0.74577  -0.18472
  19 3   C  1S          0.00000   0.01951   0.00000  -0.10415   0.00000
  20        2S          0.00000   0.03865   0.00000   0.04229   0.00000
  21        2PX        -0.10709   0.00000  -0.00000   0.00000  -0.00000
  22        2PY         0.00003   0.00000  -0.10786   0.00000   0.13067
  23        2PZ         0.00000   0.02022   0.00000   0.21656   0.00000
  24        3S          0.00000  -1.21067   0.00000   1.84461   0.00000
  25        3PX        -0.41656   0.00000  -0.00002   0.00000  -0.00001
  26        3PY         0.00021   0.00000  -0.81169   0.00000   2.18927
  27        3PZ         0.00000  -0.54162   0.00000   1.25029   0.00000
  28 4   C  1S          0.00001   0.02630  -0.07616   0.02970   0.07271
  29        2S         -0.00000  -0.03188   0.02390   0.00250   0.00992
  30        2PX         0.13731   0.00000   0.00001   0.00000  -0.00000
  31        2PY        -0.00000  -0.05868  -0.06949   0.06735   0.12932
  32        2PZ         0.00001  -0.02780   0.00522   0.06618   0.06663
  33        3S         -0.00016  -0.04202   1.32610  -0.61547  -2.07143
  34        3PX         0.48037   0.00002   0.00003  -0.00002  -0.00003
  35        3PY         0.00003  -0.95009  -0.02520   0.71960   1.30370
  36        3PZ         0.00014  -0.22415   0.19097   0.74577   0.18472
  37 5   C  1S          0.00000  -0.12069   0.09573   0.01824   0.02783
  38        2S          0.00001   0.04548  -0.03205   0.01900   0.01754
  39        2PX        -0.19945   0.00000  -0.00002   0.00000   0.00001
  40        2PY         0.00002   0.08104  -0.17524   0.12024  -0.09790
  41        2PZ         0.00000   0.07784  -0.01066   0.11455  -0.15896
  42        3S         -0.00009   1.62972  -1.55158  -0.46285  -0.79098
  43        3PX        -0.63676   0.00001  -0.00006   0.00001   0.00001
  44        3PY         0.00012   0.80250  -0.99489   0.86551  -0.68119
  45        3PZ         0.00002   0.51373   0.04599   0.36687  -1.27055
  46 6   N  1S          0.00000   0.05224   0.00000  -0.08510   0.00000
  47        2S          0.00000  -0.04011   0.00000   0.02247   0.00000
  48        2PX         0.24519   0.00000   0.00003   0.00000  -0.00001
  49        2PY         0.00002   0.00000   0.02783   0.00000   0.10918
  50        2PZ         0.00000   0.09116   0.00000  -0.12634   0.00000
  51        3S          0.00000  -0.36572   0.00000   1.17226   0.00000
  52        3PX         0.52556   0.00000   0.00006   0.00000  -0.00002
  53        3PY         0.00011   0.00000  -0.02904   0.00000   0.61940
  54        3PZ         0.00000   0.00191   0.00000  -0.63281   0.00000
  55 7   H  1S          0.00000  -0.05698   0.00000   0.02233   0.00000
  56        2S          0.00000  -0.12973   0.00000   0.69605   0.00000
  57 8   H  1S          0.00002  -0.00345  -0.04483  -0.00179   0.07405
  58        2S         -0.00008   0.71478   0.24917  -0.01974   0.42479
  59 9   H  1S         -0.00002  -0.00345   0.04483  -0.00179  -0.07405
  60        2S          0.00008   0.71478  -0.24917  -0.01974  -0.42479
  61 10  C  1S          0.00001   0.05939  -0.06024   0.02555  -0.03881
  62        2S         -0.00001   0.00505   0.00371  -0.00496  -0.04051
  63        2PX         0.15317   0.00001   0.00000  -0.00002  -0.00002
  64        2PY         0.00001   0.12511  -0.06207   0.02009   0.00619
  65        2PZ        -0.00000   0.03171  -0.10628   0.07734   0.04389
  66        3S         -0.00006  -0.99638   0.92533  -0.44766   1.04155
  67        3PX         0.78377   0.00006   0.00003  -0.00007  -0.00005
  68        3PY         0.00006   1.07648  -0.72050   0.43758  -0.96103
  69        3PZ        -0.00001   0.48488  -0.88398   0.38371  -0.28069
  70 11  H  1S          0.00622  -0.03785   0.03027   0.01255   0.04927
  71        2S         -0.69910   0.02933   0.20399  -0.09647  -0.09748
  72 12  H  1S         -0.00001  -0.02615   0.05041  -0.08032   0.01231
  73        2S          0.00013  -0.28385  -0.22681  -0.03242   0.18577
  74 13  H  1S         -0.00622  -0.03785   0.03026   0.01258   0.04930
  75        2S          0.69897   0.02950   0.20420  -0.09670  -0.09767
  76 14  C  1S         -0.00001   0.05939   0.06024   0.02555   0.03881
  77        2S          0.00001   0.00505  -0.00371  -0.00496   0.04051
  78        2PX         0.15317  -0.00001   0.00000   0.00002  -0.00002
  79        2PY         0.00001  -0.12511  -0.06207  -0.02009   0.00619
  80        2PZ         0.00000   0.03171   0.10628   0.07734  -0.04389
  81        3S          0.00006  -0.99638  -0.92533  -0.44766  -1.04155
  82        3PX         0.78377  -0.00006   0.00003   0.00007  -0.00005
  83        3PY         0.00006  -1.07648  -0.72050  -0.43758  -0.96103
  84        3PZ         0.00001   0.48488   0.88398   0.38371   0.28069
  85 15  H  1S          0.00622  -0.03785  -0.03026   0.01258  -0.04930
  86        2S         -0.69897   0.02950  -0.20420  -0.09670   0.09767
  87 16  H  1S         -0.00622  -0.03785  -0.03027   0.01255  -0.04927
  88        2S          0.69910   0.02933  -0.20399  -0.09647   0.09748
  89 17  H  1S          0.00001  -0.02615  -0.05041  -0.08032  -0.01231
  90        2S         -0.00013  -0.28385   0.22681  -0.03242  -0.18577
                          46        47        48        49        50
                           V         V         V         V         V
     Eigenvalues --     0.57812   0.58670   0.76965   0.82549   0.88344
   1 1   C  1S         -0.09232   0.00365   0.07448  -0.01976  -0.02930
   2        2S          0.01226   0.01977   0.08629  -0.05749   0.03725
   3        2PX         0.00001   0.00000  -0.00001   0.00001   0.00001
   4        2PY         0.14579  -0.12693   0.08216   0.12745   0.16910
   5        2PZ        -0.08584  -0.21765   0.16541   0.16766   0.12650
   6        3S          1.95197   0.41315  -1.99378  -0.16555   0.11538
   7        3PX         0.00002   0.00001   0.00002  -0.00001   0.00000
   8        3PY         1.03696  -1.13106  -1.27819   1.72435  -0.25032
   9        3PZ        -0.77832  -1.39403   1.56828   2.49597  -0.70531
  10 2   C  1S          0.02987   0.01209  -0.13946   0.01065   0.01798
  11        2S         -0.01605   0.03475   0.06333  -0.04819  -0.03843
  12        2PX        -0.00001  -0.00001  -0.00001   0.00004   0.00001
  13        2PY        -0.09294   0.09453   0.11731  -0.03275   0.14731
  14        2PZ        -0.11740  -0.07059   0.19129   0.03255  -0.40621
  15        3S         -0.38354  -0.70780   3.09305   0.24958   0.04788
  16        3PX        -0.00001  -0.00002  -0.00002  -0.00000  -0.00001
  17        3PY        -0.25989   0.77757   2.10693  -1.40000   0.00178
  18        3PZ        -1.57989  -1.18836   1.25395   2.37288  -0.21238
  19 3   C  1S          0.00000   0.04232   0.11010   0.00000   0.00000
  20        2S          0.00000   0.02951   0.02492   0.00000   0.00000
  21        2PX         0.00000   0.00000   0.00000  -0.00001   0.00001
  22        2PY         0.19466   0.00000   0.00000  -0.22811  -0.30564
  23        2PZ         0.00000   0.05119  -0.10336   0.00000   0.00000
  24        3S          0.00000  -1.65055  -3.01323   0.00000   0.00000
  25        3PX         0.00001   0.00000   0.00000   0.00003  -0.00001
  26        3PY         0.72537   0.00000   0.00000  -2.44055   0.98615
  27        3PZ         0.00000  -0.27701  -2.38785   0.00000   0.00000
  28 4   C  1S         -0.02987   0.01209  -0.13946  -0.01065  -0.01798
  29        2S          0.01605   0.03475   0.06333   0.04819   0.03843
  30        2PX        -0.00001   0.00001   0.00001   0.00004   0.00001
  31        2PY        -0.09294  -0.09453  -0.11731  -0.03275   0.14731
  32        2PZ         0.11740  -0.07059   0.19129  -0.03255   0.40621
  33        3S          0.38354  -0.70780   3.09305  -0.24958  -0.04788
  34        3PX        -0.00001   0.00002   0.00002  -0.00000  -0.00001
  35        3PY        -0.25989  -0.77757  -2.10693  -1.40000   0.00178
  36        3PZ         1.57989  -1.18836   1.25395  -2.37288   0.21238
  37 5   C  1S          0.09232   0.00365   0.07448   0.01976   0.02930
  38        2S         -0.01226   0.01977   0.08629   0.05749  -0.03725
  39        2PX         0.00001  -0.00000   0.00001   0.00001   0.00001
  40        2PY         0.14579   0.12693  -0.08216   0.12745   0.16910
  41        2PZ         0.08584  -0.21765   0.16541  -0.16766  -0.12650
  42        3S         -1.95197   0.41315  -1.99378   0.16555  -0.11538
  43        3PX         0.00002  -0.00001  -0.00002  -0.00001   0.00000
  44        3PY         1.03696   1.13106   1.27819   1.72435  -0.25032
  45        3PZ         0.77832  -1.39403   1.56828  -2.49597   0.70531
  46 6   N  1S          0.00000  -0.13751  -0.06173   0.00000   0.00000
  47        2S          0.00000   0.01549   0.02667   0.00000   0.00000
  48        2PX        -0.00002   0.00000   0.00000  -0.00003   0.00000
  49        2PY         0.23975   0.00000   0.00000   0.29754  -0.08276
  50        2PZ         0.00000  -0.06189  -0.09179   0.00000   0.00000
  51        3S          0.00000   2.22777   1.23164   0.00000   0.00000
[...]
  82        3PX        -0.00000   0.00000  -0.00000   0.00000   0.00000
  83        3PY         0.00001  -0.00000  -0.00001  -0.00000  -0.00000
  84        3PZ         0.00000  -0.00000   0.00000   0.00000   0.00000
  85 15  H  1S         -0.00000   0.00000  -0.00000   0.00000  -0.00000
  86        2S         -0.00000  -0.00000  -0.00000   0.00000  -0.00000
  87 16  H  1S         -0.00000   0.00000  -0.00000   0.00000   0.00000
  88        2S         -0.00000  -0.00000  -0.00000   0.00000   0.00000
  89 17  H  1S         -0.00000   0.00000   0.00000  -0.00000   0.00000
  90        2S         -0.00000   0.00000   0.00000  -0.00000   0.00000
                          71        72        73        74        75
  71        2S          0.12307
  72 12  H  1S         -0.00465   0.18403
  73        2S         -0.01271   0.09578   0.13857
  74 13  H  1S         -0.00479  -0.00019  -0.00526   0.18048
  75        2S         -0.01250  -0.00465  -0.01271   0.08824   0.12306
  76 14  C  1S          0.00000   0.00000  -0.00000   0.00000   0.00000
  77        2S         -0.00000   0.00000   0.00000   0.00000  -0.00000
  78        2PX        -0.00000   0.00000   0.00000   0.00000  -0.00000
  79        2PY        -0.00000   0.00000   0.00000  -0.00000  -0.00000
  80        2PZ         0.00000   0.00000   0.00000  -0.00000   0.00000
  81        3S         -0.00000  -0.00000  -0.00000  -0.00000  -0.00000
  82        3PX        -0.00000   0.00000   0.00000   0.00000  -0.00000
  83        3PY        -0.00000   0.00000   0.00000  -0.00000  -0.00000
  84        3PZ         0.00000  -0.00000  -0.00000   0.00000   0.00000
  85 15  H  1S         -0.00000   0.00000   0.00000   0.00000   0.00000
  86        2S         -0.00000   0.00000   0.00000   0.00000   0.00000
  87 16  H  1S          0.00000   0.00000   0.00000  -0.00000  -0.00000
  88        2S          0.00000   0.00000   0.00000  -0.00000  -0.00000
  89 17  H  1S          0.00000   0.00000  -0.00000   0.00000   0.00000
  90        2S          0.00000  -0.00000  -0.00000   0.00000   0.00000
                          76        77        78        79        80
  76 14  C  1S          2.03922
  77        2S          0.02267   0.10076
  78        2PX         0.00000   0.00000   0.28728
  79        2PY         0.00000   0.00000   0.00000   0.27732
  80        2PZ         0.00000   0.00000  -0.00000  -0.00000   0.28423
  81        3S         -0.07936   0.17743   0.00000   0.00000   0.00000
  82        3PX         0.00000   0.00000   0.13419   0.00000  -0.00000
  83        3PY         0.00000   0.00000   0.00000   0.09632  -0.00000
  84        3PZ         0.00000   0.00000  -0.00000  -0.00000   0.11854
  85 15  H  1S         -0.00101   0.00951   0.04057  -0.00001   0.02111
  86        2S          0.00194   0.00269   0.02773   0.00003   0.01519
  87 16  H  1S         -0.00101   0.00951   0.04059  -0.00001   0.02109
  88        2S          0.00194   0.00269   0.02775   0.00003   0.01517
  89 17  H  1S         -0.00102   0.00928   0.00000   0.04137   0.02122
  90        2S          0.00183   0.00256   0.00000   0.03137   0.01484
                          81        82        83        84        85
  81        3S          0.87417
  82        3PX         0.00000   0.22788
  83        3PY         0.00000   0.00000   0.12419
  84        3PZ         0.00000  -0.00000  -0.00000   0.18664
  85 15  H  1S          0.05954   0.06118  -0.00009   0.02788   0.18048
  86        2S          0.01847   0.06183  -0.00003   0.02993   0.08824
  87 16  H  1S          0.05954   0.06121  -0.00009   0.02785  -0.00018
  88        2S          0.01847   0.06187  -0.00003   0.02989  -0.00479
  89 17  H  1S          0.05876   0.00000   0.05087   0.03386  -0.00019
  90        2S          0.01903   0.00000   0.05717   0.03481  -0.00526
                          86        87        88        89        90
  86        2S          0.12306
  87 16  H  1S         -0.00479   0.18048
  88        2S         -0.01250   0.08824   0.12307
  89 17  H  1S         -0.00465  -0.00019  -0.00465   0.18403
  90        2S         -0.01271  -0.00526  -0.01271   0.09578   0.13857
     Gross orbital populations:
                           1
   1 1   C  1S          1.98784
   2        2S          0.40512
   3        2PX         0.38434
   4        2PY         0.58125
   5        2PZ         0.62387
   6        3S          0.71207
   7        3PX         0.53569
   8        3PY         0.18014
   9        3PZ         0.26710
  10 2   C  1S          1.98843
  11        2S          0.39480
  12        2PX         0.42733
  13        2PY         0.59711
  14        2PZ         0.61236
  15        3S          0.90683
  16        3PX         0.63566
  17        3PY         0.46532
  18        3PZ         0.27924
  19 3   C  1S          1.98833
  20        2S          0.40278
  21        2PX         0.37685
  22        2PY         0.63354
  23        2PZ         0.59904
  24        3S          0.87240
  25        3PX         0.55111
  26        3PY         0.25561
  27        3PZ         0.48462
  28 4   C  1S          1.98843
  29        2S          0.39480
  30        2PX         0.42733
  31        2PY         0.59711
  32        2PZ         0.61236
  33        3S          0.90683
  34        3PX         0.63566
  35        3PY         0.46532
  36        3PZ         0.27924
  37 5   C  1S          1.98784
  38        2S          0.40512
  39        2PX         0.38434
  40        2PY         0.58125
  41        2PZ         0.62387
  42        3S          0.71207
  43        3PX         0.53569
  44        3PY         0.18014
  45        3PZ         0.26710
  46 6   N  1S          1.99075
  47        2S          0.37637
  48        2PX         0.45731
  49        2PY         0.57361
  50        2PZ         0.74908
  51        3S          1.49592
  52        3PX         0.67568
  53        3PY         0.52264
  54        3PZ         0.90734
  55 7   H  1S          0.47905
  56        2S          0.27158
  57 8   H  1S          0.47728
  58        2S          0.28452
  59 9   H  1S          0.47728
  60        2S          0.28452
  61 10  C  1S          1.98849
  62        2S          0.35689
  63        2PX         0.55643
  64        2PY         0.53779
  65        2PZ         0.55071
  66        3S          1.13265
  67        3PX         0.58390
  68        3PY         0.39303
  69        3PZ         0.49206
  70 11  H  1S          0.46712
  71        2S          0.29792
  72 12  H  1S          0.47444
  73        2S          0.32542
  74 13  H  1S          0.46712
  75        2S          0.29791
  76 14  C  1S          1.98849
  77        2S          0.35689
  78        2PX         0.55643
  79        2PY         0.53779
  80        2PZ         0.55071
  81        3S          1.13265
  82        3PX         0.58390
  83        3PY         0.39303
  84        3PZ         0.49206
  85 15  H  1S          0.46712
  86        2S          0.29791
  87 16  H  1S          0.46712
  88        2S          0.29792
  89 17  H  1S          0.47444
  90        2S          0.32542
          Condensed to atoms (all electrons):
               1          2          3          4          5          6
     1  C    5.017898   0.379672  -0.117706  -0.004075  -0.116161   0.416145
     2  C    0.379672   5.387988   0.433347  -0.096654  -0.004075  -0.077026
     3  C   -0.117706   0.433347   5.213656   0.433347  -0.117706  -0.023023
     4  C   -0.004075  -0.096654   0.433347   5.387988   0.379672  -0.077026
     5  C   -0.116161  -0.004075  -0.117706   0.379672   5.017898   0.416145
     6  N    0.416145  -0.077026  -0.023023  -0.077026   0.416145   7.216958
     7  H    0.002164  -0.031061   0.397850  -0.031061   0.002164  -0.000005
     8  H   -0.022005   0.389141  -0.031113   0.002572  -0.000003   0.002421
     9  H   -0.000003   0.002572  -0.031113   0.389141  -0.022005   0.002421
    10  C    0.003000  -0.000633   0.003391  -0.083820   0.267380  -0.067549
    11  H   -0.000009   0.000027  -0.000086   0.002169  -0.048972   0.000538
    12  H   -0.000124   0.000020   0.000146   0.003207  -0.050795   0.002320
    13  H   -0.000009   0.000027  -0.000086   0.002171  -0.048966   0.000539
    14  C    0.267380  -0.083820   0.003391  -0.000633   0.003000  -0.067549
    15  H   -0.048966   0.002171  -0.000086   0.000027  -0.000009   0.000539
    16  H   -0.048972   0.002169  -0.000086   0.000027  -0.000009   0.000538
    17  H   -0.050795   0.003207   0.000146   0.000020  -0.000124   0.002320
               7          8          9         10         11         12
     1  C    0.002164  -0.022005  -0.000003   0.003000  -0.000009  -0.000124
     2  C   -0.031061   0.389141   0.002572  -0.000633   0.000027   0.000020
     3  C    0.397850  -0.031113  -0.031113   0.003391  -0.000086   0.000146
     4  C   -0.031061   0.002572   0.389141  -0.083820   0.002169   0.003207
     5  C    0.002164  -0.000003  -0.022005   0.267380  -0.048972  -0.050795
     6  N   -0.000005   0.002421   0.002421  -0.067549   0.000538   0.002320
     7  H    0.413300  -0.001327  -0.001327  -0.000038   0.000001  -0.000001
     8  H   -0.001327   0.421487  -0.000016   0.000003  -0.000000  -0.000000
     9  H   -0.001327  -0.000016   0.421487   0.000106  -0.000034   0.000606
    10  C   -0.000038   0.000003   0.000106   5.341253   0.376448   0.375958
    11  H    0.000001  -0.000000  -0.000034   0.376448   0.480030  -0.022821
    12  H   -0.000001  -0.000000   0.000606   0.375958  -0.022821   0.514166
    13  H    0.000001  -0.000000  -0.000034   0.376447  -0.022246  -0.022819
    14  C   -0.000038   0.000106   0.000003   0.000015  -0.000004   0.000000
    15  H    0.000001  -0.000034  -0.000000  -0.000004  -0.000002   0.000000
    16  H    0.000001  -0.000034  -0.000000  -0.000004   0.000001   0.000000
    17  H   -0.000001   0.000606  -0.000000   0.000000   0.000000  -0.000000
              13         14         15         16         17
     1  C   -0.000009   0.267380  -0.048966  -0.048972  -0.050795
     2  C    0.000027  -0.083820   0.002171   0.002169   0.003207
     3  C   -0.000086   0.003391  -0.000086  -0.000086   0.000146
     4  C    0.002171  -0.000633   0.000027   0.000027   0.000020
     5  C   -0.048966   0.003000  -0.000009  -0.000009  -0.000124
     6  N    0.000539  -0.067549   0.000539   0.000538   0.002320
     7  H    0.000001  -0.000038   0.000001   0.000001  -0.000001
     8  H   -0.000000   0.000106  -0.000034  -0.000034   0.000606
     9  H   -0.000034   0.000003  -0.000000  -0.000000  -0.000000
    10  C    0.376447   0.000015  -0.000004  -0.000004   0.000000
    11  H   -0.022246  -0.000004  -0.000002   0.000001   0.000000
    12  H   -0.022819   0.000000   0.000000   0.000000  -0.000000
    13  H    0.480014  -0.000004   0.000001  -0.000002   0.000000
    14  C   -0.000004   5.341253   0.376447   0.376448   0.375958
    15  H    0.000001   0.376447   0.480014  -0.022246  -0.022819
    16  H   -0.000002   0.376448  -0.022246   0.480030  -0.022821
    17  H    0.000000   0.375958  -0.022819  -0.022821   0.514166
 Mulliken charges:
               1
     1  C    0.322566
     2  C   -0.307071
     3  C   -0.164271
     4  C   -0.307071
     5  C    0.322566
     6  N   -0.748708
     7  H    0.249378
     8  H    0.238196
     9  H    0.238196
    10  C   -0.591954
    11  H    0.234961
    12  H    0.200136
    13  H    0.234966
    14  C   -0.591954
    15  H    0.234966
    16  H    0.234961
    17  H    0.200136
 Sum of Mulliken charges =   0.00000
 Mulliken charges with hydrogens summed into heavy atoms:
               1
     1  C    0.322566
     2  C   -0.068875
     3  C    0.085107
     4  C   -0.068875
     5  C    0.322566
     6  N   -0.748708
    10  C    0.078110
    14  C    0.078110
 Electronic spatial extent (au):  <R**2>=            972.2472
 Charge=              0.0000 electrons
 Dipole moment (field-independent basis, Debye):
    X=             -0.0000    Y=              0.0000    Z=             -1.5903  Tot=              1.5903
 Quadrupole moment (field-independent basis, Debye-Ang):
   XX=            -51.6214   YY=            -41.9535   ZZ=            -47.0494
   XY=             -0.0001   XZ=             -0.0000   YZ=             -0.0000
 Traceless Quadrupole moment (field-independent basis, Debye-Ang):
   XX=             -4.7466   YY=              4.9213   ZZ=             -0.1747
   XY=             -0.0001   XZ=             -0.0000   YZ=             -0.0000
 Octapole moment (field-independent basis, Debye-Ang**2):
  XXX=              0.0000  YYY=              0.0000  ZZZ=            -11.6579  XYY=             -0.0000
  XXY=              0.0000  XXZ=              6.1618  XZZ=              0.0000  YZZ=              0.0000
  YYZ=              1.4346  XYZ=              0.0008
 Hexadecapole moment (field-independent basis, Debye-Ang**3):
 XXXX=            -64.4441 YYYY=           -784.4739 ZZZZ=           -419.4811 XXXY=              0.0041
 XXXZ=              0.0000 YYYX=             -0.0017 YYYZ=              0.0000 ZZZX=              0.0000
 ZZZY=             -0.0000 XXYY=           -152.1594 XXZZ=            -86.9136 YYZZ=           -195.6526
 XXYZ=             -0.0000 YYXZ=             -0.0000 ZZXY=             -0.0017
 N-N= 3.476596125753D+02 E-N=-1.447175495291D+03  KE= 3.224394915559D+02
 Symmetry A    KE= 2.010333701790D+02
 Symmetry B    KE= 1.214061213769D+02
 Orbital energies and kinetic energies (alpha):
                                 1                 2
   1         O               -15.474449         21.929190
   2         O               -11.221802         15.875035
   3         O               -11.221570         15.871242
   4         O               -11.193960         15.874846
   5         O               -11.174120         15.871352
   6         O               -11.174047         15.877661
   7         O               -11.158645         15.875916
   8         O               -11.158588         15.874526
   9         O                -1.271780          1.812379
  10         O                -1.086272          1.679689
  11         O                -1.073988          1.538866
  12         O                -0.980006          1.391557
  13         O                -0.938035          1.488377
  14         O                -0.836072          1.502228
  15         O                -0.815208          1.592187
  16         O                -0.695425          1.053291
  17         O                -0.676493          1.404531
  18         O                -0.615447          1.363367
  19         O                -0.596995          0.920947
  20         O                -0.579181          1.155331
  21         O                -0.576888          1.259466
  22         O                -0.569466          0.932942
  23         O                -0.534779          1.135049
  24         O                -0.533819          1.242136
  25         O                -0.502295          1.025909
  26         O                -0.498838          1.503258
  27         O                -0.387890          1.862709
  28         O                -0.373819          1.212169
  29         O                -0.333582          1.093590
  30         V                 0.133044          1.352693
  31         V                 0.152419          1.287966
  32         V                 0.265086          0.914139
  33         V                 0.301682          0.967848
  34         V                 0.309542          1.070087
  35         V                 0.329231          1.135527
  36         V                 0.329595          0.980119
  37         V                 0.343103          0.949016
  38         V                 0.363923          0.893080
  39         V                 0.366778          1.114212
  40         V                 0.383007          1.262073
  41         V                 0.417243          1.479448
  42         V                 0.436513          1.807675
  43         V                 0.450811          1.827980
  44         V                 0.486797          1.754244
  45         V                 0.548603          1.540515
  46         V                 0.578121          1.925054
  47         V                 0.586702          1.946543
  48         V                 0.769646          2.777952
  49         V                 0.825493          1.997153
  50         V                 0.883441          2.094762
  51         V                 0.937409          2.397761
  52         V                 0.937757          2.440452
  53         V                 0.952548          2.172402
  54         V                 0.974873          2.528466
  55         V                 0.990196          2.288883
  56         V                 0.991130          2.778389
  57         V                 1.028395          2.897602
  58         V                 1.075856          2.975665
  59         V                 1.087623          2.633424
  60         V                 1.092025          2.662678
  61         V                 1.097696          3.049553
  62         V                 1.137092          2.776874
  63         V                 1.171621          2.842930
  64         V                 1.176982          2.915004
  65         V                 1.180784          2.704055
  66         V                 1.217782          2.700993
  67         V                 1.222221          3.080771
  68         V                 1.296509          3.404956
  69         V                 1.356909          3.222644
  70         V                 1.358247          2.966818
  71         V                 1.358261          3.001115
  72         V                 1.378825          2.940696
  73         V                 1.381135          2.878009
  74         V                 1.429323          3.270049
  75         V                 1.432369          2.994308
  76         V                 1.453730          3.204660
  77         V                 1.567380          2.945604
  78         V                 1.594520          3.915520
  79         V                 1.666434          3.117554
  80         V                 1.714851          3.237372
  81         V                 1.733026          3.526028
  82         V                 1.746424          3.207293
  83         V                 1.847583          3.153911
  84         V                 1.910983          3.254717
  85         V                 2.018395          3.589850
  86         V                 2.192950          3.256518
  87         V                 2.276829          3.524842
  88         V                 2.338096          3.804992
  89         V                 2.406845          3.480827
  90         V                 3.333128          5.144501
 Total kinetic energy from orbitals= 3.224394915559D+02
 1\1\GINC-IISERK51\SP\RHF\3-21G\C7H9N1\GAUSSIAN\16-Jun-2025\0\\# hf/3-2
 1g pop=full geom=connectivity\\2,6 DMP sp\\0,1\C,0,0.000019,-1.155928,
 0.260285\C,0,0.000011,-1.193565,-1.124299\C,0,0.,0.,-1.821622\C,0,-0.0
 00011,1.193565,-1.124299\C,0,-0.000019,1.155928,0.260285\N,0,0.,0.,0.9
 20758\H,0,0.,0.,-2.893728\H,0,0.000069,-2.132407,-1.638166\H,0,-0.0000
 69,2.132407,-1.638166\C,0,0.,2.413476,1.094531\H,0,0.874964,2.427749,1
 .733628\H,0,-0.000226,3.301603,0.476497\H,0,-0.874672,2.427555,1.73402
 4\C,0,0.,-2.413476,1.094531\H,0,0.874672,-2.427555,1.734024\H,0,-0.874
 964,-2.427749,1.733628\H,0,0.000226,-3.301603,0.476497\\Version=EM64L-
 G16RevB.01\State=1-A\HF=-322.961849\RMSD=6.433e-09\Dipole=0.,0.,-0.625
 6651\Quadrupole=-3.5289996,3.6588559,-0.1298563,-0.0000584,0.,0.\PG=C0
 2 [C2(H1C1N1),X(C6H8)]\\@


 IF GOD HAD MEANT MAN TO SEE THE SUN RISE, HE
 WOULD HAVE SCHEDULED IT FOR A LATER HOUR.
 Job cpu time:       0 days  0 hours  0 minutes  1.1 seconds.
 Elapsed time:       0 days  0 hours  0 minutes  1.1 seconds.
 File lengths (MBytes):  RWF=     10 Int=      0 D2E=      0 Chk=      2 Scr=      1
 Normal termination of Gaussian 16 at Mon Jun 16 16:41:53 2025.
