 Entering Gaussian System, Link 0=g16
 Input=/home/gaussian/Documents/Summer_Internship/Acid_Base_adduct/Base/2,6-dimeth-pyridine/26DMP_opt.com
 Output=/home/gaussian/Documents/Summer_Internship/Acid_Base_adduct/Base/2,6-dimeth-pyridine/26DMP_opt.log
 Initial command:
 /usr/local/g16/l1.exe "/home/gaussian/tmp/Gau-73893.inp" -scrdir="/home/gaussian/tmp/"
 Entering Link 1 = /usr/local/g16/l1.exe PID=     73896.
  
 Copyright (c) 1988-2017, Gaussian, Inc.  All Rights Reserved.
  
 This is part of the Gaussian(R) 16 program.  It is based on
 the Gaussian(R) 09 system (copyright 2009, Gaussian, Inc.),
 the Gaussian(R) 03 system (copyright 2003, Gaussian, Inc.),
 the Gaussian(R) 98 system (copyright 1998, Gaussian, Inc.),
 the Gaussian(R) 94 system (copyright 1995, Gaussian, Inc.),
 the Gaussian 92(TM) system (copyright 1992, Gaussian, Inc.),
 the Gaussian 90(TM) system (copyright 1990, Gaussian, Inc.),
 the Gaussian 88(TM) system (copyright 1988, Gaussian, Inc.),
 the Gaussian 86(TM) system (copyright 1986, Carnegie Mellon
 University), and the Gaussian 82(TM) system (copyright 1983,
 Carnegie Mellon University). Gaussian is a federally registered
 trademark of Gaussian, Inc.
  
 This software contains proprietary and confidential information,
 including trade secrets, belonging to Gaussian, Inc.
  
 This software is provided under written license and may be
 used, copied, transmitted, or stored only in accord with that
 written license.
  
 The following legend is applicable only to US Government
 contracts under FAR:
  
                    RESTRICTED RIGHTS LEGEND
  
 Use, reproduction and disclosure by the US Government is
 subject to restrictions as set forth in subparagraphs (a)
 and (c) of the Commercial Computer Software - Restricted
 Rights clause in FAR 52.227-19.
  
 Gaussian, Inc.
 340 Quinnipiac St., Bldg. 40, Wallingford CT 06492
  
  
 ---------------------------------------------------------------
 Warning -- This program may not be used in any manner that
 competes with the business of Gaussian, Inc. or will provide
 assistance to any competitor of Gaussian, Inc.  The licensee
 of this program is prohibited from giving any competitor of
 Gaussian, Inc. access to this program.  By using this program,
 the user acknowledges that Gaussian, Inc. is engaged in the
 business of creating and licensing software in the field of
 computational chemistry and represents and warrants to the
 licensee that it is not a competitor of Gaussian, Inc. and that
 it will not use this program in any manner prohibited above.
 ---------------------------------------------------------------
  

 Cite this work as:
 Gaussian 16, Revision B.01,
 M. J. Frisch, G. W. Trucks, H. B. Schlegel, G. E. Scuseria, 
 M. A. Robb, J. R. Cheeseman, G. Scalmani, V. Barone, 
 G. A. Petersson, H. Nakatsuji, X. Li, M. Caricato, A. V. Marenich, 
 J. Bloino, B. G. Janesko, R. Gomperts, B. Mennucci, H. P. Hratchian, 
 J. V. Ortiz, A. F. Izmaylov, J. L. Sonnenberg, D. Williams-Young, 
 F. Ding, F. Lipparini, F. Egidi, J. Goings, B. Peng, A. Petrone, 
 T. Henderson, D. Ranasinghe, V. G. Zakrzewski, J. Gao, N. Rega, 
 G. Zheng, W. Liang, M. Hada, M. Ehara, K. Toyota, R. Fukuda, 
 J. Hasegawa, M. Ishida, T. Nakajima, Y. Honda, O. Kitao, H. Nakai, 
 T. Vreven, K. Throssell, J. A. Montgomery, Jr., J. E. Peralta, 
 F. Ogliaro, M. J. Bearpark, J. J. Heyd, E. N. Brothers, K. N. Kudin, 
 V. N. Staroverov, T. A. Keith, R. Kobayashi, J. Normand, 
 K. Raghavachari, A. P. Rendell, J. C. Burant, S. S. Iyengar, 
 J. Tomasi, M. Cossi, J. M. Millam, M. Klene, C. Adamo, R. Cammi, 
 J. W. Ochterski, R. L. Martin, K. Morokuma, O. Farkas, 
 J. B. Foresman, and D. J. Fox, Gaussian, Inc., Wallingford CT, 2016.
 
 ******************************************
 Gaussian 16:  EM64L-G16RevB.01 20-Dec-2017
                16-Jun-2025 
 ******************************************
 %chk=26DMP_opt.chk
 ----------------------------------------------
 # opt freq hf/3-21g pop=full geom=connectivity
 ----------------------------------------------
 1/18=20,19=15,38=1,57=2/1,3;
 2/9=110,12=2,17=6,18=5,40=1/2;
 3/5=5,11=9,25=1,30=1,71=1/1,2,3;
 4//1;
 5/5=2,38=5/2;
 6/7=3,28=1/1;
 7//1,2,3,16;
 1/18=20,19=15/3(2);
 2/9=110/2;
 99//99;
 2/9=110/2;
 3/5=5,11=9,25=1,30=1,71=1/1,2,3;
 4/5=5,16=3,69=1/1;
 5/5=2,38=5/2;
 7//1,2,3,16;
 1/18=20,19=15/3(-5);
 2/9=110/2;
 6/7=3,19=2,28=1/1;
 99/9=1/99;
 -----------
 2,6 DMP opt
 -----------
 Symbolic Z-matrix:
 Charge =  0 Multiplicity = 1
 C                    -1.15593  -0.26029  -0.00002 
 C                    -1.19356   1.1243   -0.00001 
 C                     0.        1.82162   0. 
 C                     1.19356   1.1243    0.00001 
 C                     1.15593  -0.26029   0.00002 
 N                     0.       -0.92076   0. 
 H                     0.        2.89373   0. 
 H                    -2.13241   1.63817  -0.00006 
 H                     2.13241   1.63817   0.00006 
 C                     2.41348  -1.09453  -0.00001 
 H                     2.42775  -1.73363  -0.87497 
 H                     3.3016   -0.4765    0.00022 
 H                     2.42756  -1.73402   0.87467 
 C                    -2.41348  -1.09453   0.00001 
 H                    -2.42756  -1.73402  -0.87467 
 H                    -2.42775  -1.73363   0.87497 
 H                    -3.3016   -0.4765   -0.00022 
 

 GradGradGradGradGradGradGradGradGradGradGradGradGradGradGradGradGradGrad
 Berny optimization.
 Initialization pass.
                           ----------------------------
                           !    Initial Parameters    !
                           ! (Angstroms and Degrees)  !
 --------------------------                            --------------------------
 ! Name  Definition              Value          Derivative Info.                !
 --------------------------------------------------------------------------------
 ! R1    R(1,2)                  1.3851         estimate D2E/DX2                !
 ! R2    R(1,6)                  1.3313         estimate D2E/DX2                !
 ! R3    R(1,14)                 1.5091         estimate D2E/DX2                !
 ! R4    R(2,3)                  1.3823         estimate D2E/DX2                !
 ! R5    R(2,8)                  1.0703         estimate D2E/DX2                !
 ! R6    R(3,4)                  1.3823         estimate D2E/DX2                !
 ! R7    R(3,7)                  1.0721         estimate D2E/DX2                !
 ! R8    R(4,5)                  1.3851         estimate D2E/DX2                !
 ! R9    R(4,9)                  1.0703         estimate D2E/DX2                !
 ! R10   R(5,6)                  1.3313         estimate D2E/DX2                !
 ! R11   R(5,10)                 1.5091         estimate D2E/DX2                !
 ! R12   R(10,11)                1.0836         estimate D2E/DX2                !
 ! R13   R(10,12)                1.082          estimate D2E/DX2                !
 ! R14   R(10,13)                1.0836         estimate D2E/DX2                !
 ! R15   R(14,15)                1.0836         estimate D2E/DX2                !
 ! R16   R(14,16)                1.0836         estimate D2E/DX2                !
 ! R17   R(14,17)                1.082          estimate D2E/DX2                !
 ! A1    A(2,1,6)              121.2998         estimate D2E/DX2                !
 ! A2    A(2,1,14)             122.0029         estimate D2E/DX2                !
 ! A3    A(6,1,14)             116.6973         estimate D2E/DX2                !
 ! A4    A(1,2,3)              118.7379         estimate D2E/DX2                !
 ! A5    A(1,2,8)              120.2508         estimate D2E/DX2                !
 ! A6    A(3,2,8)              121.0113         estimate D2E/DX2                !
 ! A7    A(2,3,4)              119.41           estimate D2E/DX2                !
 ! A8    A(2,3,7)              120.295          estimate D2E/DX2                !
 ! A9    A(4,3,7)              120.295          estimate D2E/DX2                !
 ! A10   A(3,4,5)              118.7379         estimate D2E/DX2                !
 ! A11   A(3,4,9)              121.0113         estimate D2E/DX2                !
 ! A12   A(5,4,9)              120.2508         estimate D2E/DX2                !
 ! A13   A(4,5,6)              121.2998         estimate D2E/DX2                !
 ! A14   A(4,5,10)             122.0029         estimate D2E/DX2                !
 ! A15   A(6,5,10)             116.6973         estimate D2E/DX2                !
 ! A16   A(1,6,5)              120.5145         estimate D2E/DX2                !
 ! A17   A(5,10,11)            109.6957         estimate D2E/DX2                !
 ! A18   A(5,10,12)            111.6066         estimate D2E/DX2                !
 ! A19   A(5,10,13)            109.6977         estimate D2E/DX2                !
 ! A20   A(11,10,12)           109.0406         estimate D2E/DX2                !
 ! A21   A(11,10,13)           107.6698         estimate D2E/DX2                !
 ! A22   A(12,10,13)           109.0419         estimate D2E/DX2                !
 ! A23   A(1,14,15)            109.6977         estimate D2E/DX2                !
 ! A24   A(1,14,16)            109.6957         estimate D2E/DX2                !
 ! A25   A(1,14,17)            111.6066         estimate D2E/DX2                !
 ! A26   A(15,14,16)           107.6698         estimate D2E/DX2                !
 ! A27   A(15,14,17)           109.0418         estimate D2E/DX2                !
 ! A28   A(16,14,17)           109.0406         estimate D2E/DX2                !
 ! D1    D(6,1,2,3)              0.0008         estimate D2E/DX2                !
 ! D2    D(6,1,2,8)            179.9974         estimate D2E/DX2                !
 ! D3    D(14,1,2,3)           179.9986         estimate D2E/DX2                !
 ! D4    D(14,1,2,8)            -0.0048         estimate D2E/DX2                !
 ! D5    D(2,1,6,5)             -0.0004         estimate D2E/DX2                !
 ! D6    D(14,1,6,5)          -179.9983         estimate D2E/DX2                !
 ! D7    D(2,1,14,15)          120.9793         estimate D2E/DX2                !
 ! D8    D(2,1,14,16)         -120.9485         estimate D2E/DX2                !
 ! D9    D(2,1,14,17)            0.014          estimate D2E/DX2                !
 ! D10   D(6,1,14,15)          -59.0229         estimate D2E/DX2                !
 ! D11   D(6,1,14,16)           59.0494         estimate D2E/DX2                !
 ! D12   D(6,1,14,17)         -179.9882         estimate D2E/DX2                !
 ! D13   D(1,2,3,4)             -0.0004         estimate D2E/DX2                !
 ! D14   D(1,2,3,7)            179.9996         estimate D2E/DX2                !
 ! D15   D(8,2,3,4)           -179.997          estimate D2E/DX2                !
 ! D16   D(8,2,3,7)              0.003          estimate D2E/DX2                !
 ! D17   D(2,3,4,5)             -0.0004         estimate D2E/DX2                !
 ! D18   D(2,3,4,9)           -179.997          estimate D2E/DX2                !
 ! D19   D(7,3,4,5)            179.9996         estimate D2E/DX2                !
 ! D20   D(7,3,4,9)              0.003          estimate D2E/DX2                !
 ! D21   D(3,4,5,6)              0.0008         estimate D2E/DX2                !
 ! D22   D(3,4,5,10)           179.9986         estimate D2E/DX2                !
 ! D23   D(9,4,5,6)            179.9975         estimate D2E/DX2                !
 ! D24   D(9,4,5,10)            -0.0048         estimate D2E/DX2                !
 ! D25   D(4,5,6,1)             -0.0004         estimate D2E/DX2                !
 ! D26   D(10,5,6,1)          -179.9983         estimate D2E/DX2                !
 ! D27   D(4,5,10,11)         -120.9484         estimate D2E/DX2                !
 ! D28   D(4,5,10,12)            0.014          estimate D2E/DX2                !
 ! D29   D(4,5,10,13)          120.9793         estimate D2E/DX2                !
 ! D30   D(6,5,10,11)           59.0494         estimate D2E/DX2                !
 ! D31   D(6,5,10,12)         -179.9882         estimate D2E/DX2                !
 ! D32   D(6,5,10,13)          -59.0228         estimate D2E/DX2                !
 --------------------------------------------------------------------------------
 Trust Radius=3.00D-01 FncErr=1.00D-07 GrdErr=1.00D-07 EigMax=2.50D+02 EigMin=1.00D-04
 Number of steps in this run=     87 maximum allowed number of steps=    102.
 GradGradGradGradGradGradGradGradGradGradGradGradGradGradGradGradGradGrad

                          Input orientation:                          
 ---------------------------------------------------------------------
 Center     Atomic      Atomic             Coordinates (Angstroms)
 Number     Number       Type             X           Y           Z
 ---------------------------------------------------------------------
      1          6           0       -1.155928   -0.260285   -0.000016
      2          6           0       -1.193565    1.124299   -0.000008
      3          6           0        0.000000    1.821622    0.000000
      4          6           0        1.193565    1.124299    0.000008
      5          6           0        1.155928   -0.260285    0.000016
      6          7           0        0.000000   -0.920758    0.000000
      7          1           0        0.000000    2.893728    0.000000
      8          1           0       -2.132407    1.638166   -0.000063
      9          1           0        2.132407    1.638166    0.000062
     10          6           0        2.413476   -1.094531   -0.000007
     11          1           0        2.427746   -1.733628   -0.874971
     12          1           0        3.301603   -0.476497    0.000216
     13          1           0        2.427557   -1.734024    0.874665
     14          6           0       -2.413476   -1.094531    0.000007
     15          1           0       -2.427557   -1.734023   -0.874665
     16          1           0       -2.427746   -1.733628    0.874970
     17          1           0       -3.301603   -0.476497   -0.000216
 ---------------------------------------------------------------------
                    Distance matrix (angstroms):
                    1          2          3          4          5
     1  C    0.000000
     2  C    1.385095   0.000000
     3  C    2.381282   1.382337   0.000000
     4  C    2.727121   2.387130   1.382337   0.000000
     5  C    2.311856   2.727121   2.381282   1.385095   0.000000
     6  N    1.331313   2.367880   2.742380   2.367880   1.331313
     7  H    3.359162   2.134356   1.072106   2.134356   3.359162
     8  H    2.134860   1.070273   2.140284   3.365434   3.797007
     9  H    3.797007   3.365434   2.140284   1.070273   2.134860
    10  C    3.665598   4.234850   3.785342   2.532072   1.509103
    11  H    3.972280   4.695445   4.393100   3.233657   2.133978
    12  H    4.462772   4.771696   4.022677   2.646955   2.156541
    13  H    3.972196   4.695486   4.393255   3.233848   2.134000
    14  C    1.509103   2.532072   3.785342   4.234850   3.665598
    15  H    2.134000   3.233847   4.393254   4.695485   3.972195
    16  H    2.133978   3.233657   4.393100   4.695444   3.972279
    17  H    2.156541   2.646955   4.022677   4.771696   4.462772
                    6          7          8          9         10
     6  N    0.000000
     7  H    3.814486   0.000000
     8  H    3.330954   2.474590   0.000000
     9  H    3.330954   2.474590   4.264814   0.000000
    10  C    2.419724   4.661660   5.304025   2.747114   0.000000
    11  H    2.705602   5.298297   5.738419   3.495984   1.083610
    12  H    3.331359   4.717944   5.830975   2.416365   1.082005
    13  H    2.705453   5.298505   5.738474   3.496242   1.083605
    14  C    2.419724   4.661660   2.747114   5.304025   4.826952
    15  H    2.705452   5.298505   3.496241   5.738473   4.960804
    16  H    2.705602   5.298297   3.495984   5.738419   4.960994
    17  H    3.331359   4.717944   2.416365   5.830975   5.748399
                   11         12         13         14         15
    11  H    0.000000
    12  H    1.763507   0.000000
    13  H    1.749636   1.763517   0.000000
    14  C    4.960994   5.748399   4.960804   0.000000
    15  H    4.855303   5.930435   5.160648   1.083605   0.000000
    16  H    5.161211   5.930515   4.855303   1.083609   1.749635
    17  H    5.930516   6.603206   5.930436   1.082005   1.763516
                   16         17
    16  H    0.000000
    17  H    1.763506   0.000000
 Stoichiometry    C7H9N
 Framework group  C2[C2(HCN),X(C6H8)]
 Deg. of freedom    22
 Full point group                 C2      NOp   2
 Largest Abelian subgroup         C2      NOp   2
 Largest concise Abelian subgroup C2      NOp   2
                         Standard orientation:                         
 ---------------------------------------------------------------------
 Center     Atomic      Atomic             Coordinates (Angstroms)
 Number     Number       Type             X           Y           Z
 ---------------------------------------------------------------------
      1          6           0        0.000019   -1.155928    0.260285
      2          6           0        0.000011   -1.193565   -1.124299
      3          6           0        0.000000   -0.000000   -1.821622
      4          6           0       -0.000011    1.193565   -1.124299
      5          6           0       -0.000019    1.155928    0.260285
      6          7           0       -0.000000    0.000000    0.920758
      7          1           0        0.000000   -0.000000   -2.893728
      8          1           0        0.000069   -2.132407   -1.638166
      9          1           0       -0.000069    2.132407   -1.638166
     10          6           0       -0.000000    2.413476    1.094531
     11          1           0        0.874964    2.427749    1.733628
     12          1           0       -0.000226    3.301603    0.476497
     13          1           0       -0.874672    2.427555    1.734024
     14          6           0        0.000000   -2.413476    1.094531
     15          1           0        0.874672   -2.427555    1.734024
     16          1           0       -0.874964   -2.427749    1.733628
     17          1           0        0.000226   -3.301603    0.476497
 ---------------------------------------------------------------------
 Rotational constants (GHZ):           3.5617831           1.9140529           1.2642218
 Standard basis: 3-21G (6D, 7F)
 There are    47 symmetry adapted cartesian basis functions of A   symmetry.
 There are    43 symmetry adapted cartesian basis functions of B   symmetry.
 There are    47 symmetry adapted basis functions of A   symmetry.
 There are    43 symmetry adapted basis functions of B   symmetry.
    90 basis functions,   147 primitive gaussians,    90 cartesian basis functions
    29 alpha electrons       29 beta electrons
       nuclear repulsion energy       347.6596159580 Hartrees.
 NAtoms=   17 NActive=   17 NUniq=   10 SFac= 2.89D+00 NAtFMM=   60 NAOKFM=F Big=F
 Integral buffers will be    131072 words long.
 Raffenetti 1 integral format.
 Two-electron integral symmetry is turned on.
 One-electron integrals computed using PRISM.
 NBasis=    90 RedAO= T EigKep=  2.67D-03  NBF=    47    43
 NBsUse=    90 1.00D-06 EigRej= -1.00D+00 NBFU=    47    43
 ExpMin= 1.83D-01 ExpMax= 2.43D+02 ExpMxC= 2.43D+02 IAcc=3 IRadAn=         5 AccDes= 0.00D+00
 Harris functional with IExCor=  205 and IRadAn=       5 diagonalized for initial guess.
 HarFok:  IExCor=  205 AccDes= 0.00D+00 IRadAn=         5 IDoV= 1 UseB2=F ITyADJ=14
 ICtDFT=  3500011 ScaDFX=  1.000000  1.000000  1.000000  1.000000
 FoFCou: FMM=F IPFlag=           0 FMFlag=      100000 FMFlg1=           0
         NFxFlg=           0 DoJE=T BraDBF=F KetDBF=T FulRan=T
         wScrn=  0.000000 ICntrl=       500 IOpCl=  0 I1Cent=   200000004 NGrid=           0
         NMat0=    1 NMatS0=      1 NMatT0=    0 NMatD0=    1 NMtDS0=    0 NMtDT0=    0
 Petite list used in FoFCou.
 Initial guess orbital symmetries:
       Occupied  (A) (B) (A) (A) (B) (A) (B) (A) (A) (A) (B) (A)
                 (B) (A) (B) (B) (A) (A) (B) (B) (A) (A) (B) (A)
                 (B) (B) (B) (A) (A)
       Virtual   (B) (A) (B) (A) (B) (A) (B) (A) (A) (B) (B) (A)
                 (B) (A) (A) (B) (B) (A) (A) (B) (B) (A) (B) (B)
                 (A) (A) (B) (B) (A) (A) (A) (B) (B) (B) (A) (A)
                 (B) (A) (A) (B) (B) (A) (A) (B) (B) (A) (A) (B)
                 (B) (A) (B) (A) (A) (B) (A) (B) (A) (B) (B) (A)
                 (A)
 The electronic state of the initial guess is 1-A.
 Keep R1 ints in memory in symmetry-blocked form, NReq=12591722.
 Requested convergence on RMS density matrix=1.00D-08 within 128 cycles.
 Requested convergence on MAX density matrix=1.00D-06.
 Requested convergence on             energy=1.00D-06.
 No special actions if energy rises.
 SCF Done:  E(RHF) =  -322.961849000     A.U. after   13 cycles
            NFock= 13  Conv=0.64D-08     -V/T= 2.0016

 **********************************************************************

            Population analysis using the SCF Density.

 **********************************************************************

 Orbital symmetries:
       Occupied  (A) (B) (A) (A) (B) (A) (B) (A) (A) (A) (B) (A)
                 (B) (A) (B) (A) (B) (A) (B) (A) (B) (A) (B) (A)
                 (B) (B) (A) (B) (A)
       Virtual   (B) (A) (A) (B) (A) (B) (B) (A) (A) (B) (A) (B)
                 (A) (B) (A) (B) (B) (A) (A) (B) (B) (B) (A) (A)
                 (A) (B) (B) (B) (A) (B) (A) (A) (B) (A) (B) (A)
                 (A) (B) (A) (B) (A) (B) (A) (B) (B) (A) (A) (B)
                 (B) (A) (A) (B) (A) (B) (A) (B) (A) (B) (B) (A)
                 (A)
 The electronic state is 1-A.
 Alpha  occ. eigenvalues --  -15.47445 -11.22180 -11.22157 -11.19396 -11.17412
 Alpha  occ. eigenvalues --  -11.17405 -11.15864 -11.15859  -1.27178  -1.08627
 Alpha  occ. eigenvalues --   -1.07399  -0.98001  -0.93804  -0.83607  -0.81521
 Alpha  occ. eigenvalues --   -0.69543  -0.67649  -0.61545  -0.59700  -0.57918
 Alpha  occ. eigenvalues --   -0.57689  -0.56947  -0.53478  -0.53382  -0.50229
 Alpha  occ. eigenvalues --   -0.49884  -0.38789  -0.37382  -0.33358
 Alpha virt. eigenvalues --    0.13304   0.15242   0.26509   0.30168   0.30954
 Alpha virt. eigenvalues --    0.32923   0.32960   0.34310   0.36392   0.36678
 Alpha virt. eigenvalues --    0.38301   0.41724   0.43651   0.45081   0.48680
 Alpha virt. eigenvalues --    0.54860   0.57812   0.58670   0.76965   0.82549
 Alpha virt. eigenvalues --    0.88344   0.93741   0.93776   0.95255   0.97487
 Alpha virt. eigenvalues --    0.99020   0.99113   1.02839   1.07586   1.08762
 Alpha virt. eigenvalues --    1.09202   1.09770   1.13709   1.17162   1.17698
 Alpha virt. eigenvalues --    1.18078   1.21778   1.22222   1.29651   1.35691
 Alpha virt. eigenvalues --    1.35825   1.35826   1.37882   1.38113   1.42932
 Alpha virt. eigenvalues --    1.43237   1.45373   1.56738   1.59452   1.66643
 Alpha virt. eigenvalues --    1.71485   1.73303   1.74642   1.84758   1.91098
 Alpha virt. eigenvalues --    2.01839   2.19295   2.27683   2.33810   2.40684
 Alpha virt. eigenvalues --    3.33313
     Molecular Orbital Coefficients:
                           1         2         3         4         5
                           O         O         O         O         O
     Eigenvalues --   -15.47445 -11.22180 -11.22157 -11.19396 -11.17412
   1 1   C  1S         -0.00008   0.69812   0.69783   0.00310   0.00159
   2        2S         -0.00009   0.07060   0.06867   0.00010  -0.00230
   3        2PX        -0.00000  -0.00000  -0.00000  -0.00000   0.00000
   4        2PY         0.00056   0.00124  -0.00078  -0.00052  -0.00011
   5        2PZ         0.00058  -0.00091   0.00019   0.00103   0.00107
   6        3S          0.03023  -0.05421  -0.04420  -0.01009   0.01915
   7        3PX        -0.00000   0.00000  -0.00000   0.00000  -0.00000
   8        3PY         0.03486   0.00226   0.01990  -0.00025   0.00565
   9        3PZ        -0.00079   0.02008   0.00110   0.00262  -0.01249
  10 2   C  1S          0.00047  -0.00202  -0.00132  -0.00950   0.69803
  11        2S          0.00222  -0.00286  -0.00156  -0.00520   0.07066
  12        2PX        -0.00000  -0.00000  -0.00000   0.00000   0.00000
  13        2PY         0.00075   0.00018   0.00033  -0.00151   0.00167
  14        2PZ        -0.00044  -0.00089  -0.00130   0.00024   0.00014
  15        3S         -0.02140   0.02364   0.00737   0.03640  -0.05842
  16        3PX         0.00000   0.00000   0.00000  -0.00000  -0.00000
  17        3PY        -0.02575  -0.00273  -0.01309   0.02066  -0.01213
  18        3PZ        -0.00519   0.01957   0.00773   0.00065  -0.00574
  19 3   C  1S         -0.00032   0.00000  -0.00454   0.98719   0.00000
  20        2S         -0.00133   0.00000  -0.00195   0.09971   0.00000
  21        2PX         0.00000  -0.00000   0.00000   0.00000  -0.00000
  22        2PY         0.00000   0.00116   0.00000   0.00000   0.00138
  23        2PZ         0.00055   0.00000  -0.00031   0.00148   0.00000
  24        3S          0.03411   0.00000   0.01748  -0.09135   0.00000
  25        3PX         0.00000   0.00000   0.00000   0.00000   0.00000
  26        3PY         0.00000  -0.00902   0.00000   0.00000  -0.01535
  27        3PZ         0.01605   0.00000   0.00707  -0.02446   0.00000
  28 4   C  1S          0.00047   0.00202  -0.00132  -0.00950  -0.69803
  29        2S          0.00222   0.00286  -0.00156  -0.00520  -0.07066
  30        2PX         0.00000  -0.00000   0.00000  -0.00000   0.00000
  31        2PY        -0.00075   0.00018  -0.00033   0.00151   0.00167
  32        2PZ        -0.00044   0.00089  -0.00130   0.00024  -0.00014
  33        3S         -0.02140  -0.02364   0.00737   0.03640   0.05842
  34        3PX        -0.00000   0.00000  -0.00000   0.00000  -0.00000
  35        3PY         0.02575  -0.00273   0.01309  -0.02066  -0.01213
  36        3PZ        -0.00519  -0.01957   0.00773   0.00065   0.00574
  37 5   C  1S         -0.00008  -0.69812   0.69783   0.00310  -0.00159
  38        2S         -0.00009  -0.07060   0.06867   0.00010   0.00230
  39        2PX         0.00000  -0.00000   0.00000   0.00000   0.00000
  40        2PY        -0.00056   0.00124   0.00078   0.00052  -0.00011
  41        2PZ         0.00058   0.00091   0.00019   0.00103  -0.00107
  42        3S          0.03023   0.05421  -0.04420  -0.01009  -0.01915
  43        3PX         0.00000   0.00000   0.00000  -0.00000  -0.00000
  44        3PY        -0.03486   0.00226  -0.01990   0.00025   0.00565
  45        3PZ        -0.00079  -0.02008   0.00110   0.00262   0.01249
  46 6   N  1S          0.98686   0.00000   0.00043  -0.00003   0.00000
  47        2S          0.10716   0.00000   0.00250  -0.00027   0.00000
  48        2PX         0.00000   0.00000   0.00000   0.00000   0.00000
  49        2PY         0.00000   0.00002   0.00000   0.00000   0.00049
  50        2PZ        -0.00546   0.00000  -0.00012   0.00011   0.00000
  51        3S         -0.09795   0.00000  -0.00893   0.00211   0.00000
  52        3PX         0.00000  -0.00000   0.00000   0.00000  -0.00000
  53        3PY         0.00000   0.00557   0.00000   0.00000   0.00057
  54        3PZ         0.02671   0.00000   0.00676  -0.00076   0.00000
  55 7   H  1S          0.00007   0.00000  -0.00020  -0.00247   0.00000
  56        2S          0.00294   0.00000   0.00224   0.00589   0.00000
  57 8   H  1S         -0.00200  -0.00079  -0.00175  -0.00016  -0.00157
  58        2S         -0.00763   0.00071  -0.00364   0.00398   0.00444
  59 9   H  1S         -0.00200   0.00079  -0.00175  -0.00016   0.00157
  60        2S         -0.00763  -0.00071  -0.00364   0.00398  -0.00444
  61 10  C  1S         -0.00015   0.00103  -0.00180  -0.00185   0.00457
  62        2S         -0.00089   0.00069  -0.00198  -0.00099   0.00100
  63        2PX        -0.00000  -0.00000   0.00000  -0.00000   0.00000
  64        2PY        -0.00024  -0.00047  -0.00038   0.00001  -0.00011
  65        2PZ        -0.00035  -0.00037   0.00019   0.00018  -0.00017
  66        3S          0.01171  -0.00451   0.01909   0.00277  -0.00383
  67        3PX        -0.00000   0.00000  -0.00000   0.00000  -0.00000
  68        3PY        -0.00135   0.00098  -0.00653  -0.00090   0.00204
  69        3PZ        -0.00599   0.00608  -0.00976  -0.00217   0.00009
  70 11  H  1S         -0.00002   0.00043  -0.00093  -0.00010   0.00018
  71        2S         -0.00000  -0.00217   0.00207   0.00021   0.00010
  72 12  H  1S         -0.00093   0.00066  -0.00125  -0.00050   0.00002
  73        2S         -0.00145   0.00169  -0.00198   0.00008  -0.00013
  74 13  H  1S         -0.00002   0.00043  -0.00093  -0.00010   0.00018
  75        2S          0.00000  -0.00217   0.00207   0.00021   0.00010
  76 14  C  1S         -0.00015  -0.00103  -0.00180  -0.00185  -0.00457
  77        2S         -0.00089  -0.00069  -0.00198  -0.00099  -0.00100
  78        2PX         0.00000  -0.00000  -0.00000   0.00000   0.00000
  79        2PY         0.00024  -0.00047   0.00038  -0.00001  -0.00011
  80        2PZ        -0.00035   0.00037   0.00019   0.00018   0.00017
  81        3S          0.01171   0.00451   0.01909   0.00277   0.00383
  82        3PX         0.00000   0.00000   0.00000  -0.00000  -0.00000
  83        3PY         0.00135   0.00098   0.00653   0.00090   0.00204
  84        3PZ        -0.00599  -0.00608  -0.00976  -0.00217  -0.00009
  85 15  H  1S         -0.00002  -0.00043  -0.00093  -0.00010  -0.00018
  86        2S          0.00000   0.00217   0.00207   0.00021  -0.00010
  87 16  H  1S         -0.00002  -0.00043  -0.00093  -0.00010  -0.00018
  88        2S         -0.00000   0.00217   0.00207   0.00021  -0.00010
  89 17  H  1S         -0.00093  -0.00066  -0.00125  -0.00050  -0.00002
  90        2S         -0.00145  -0.00169  -0.00198   0.00008   0.00013
                           6         7         8         9        10
                           O         O         O         O         O
     Eigenvalues --   -11.17405 -11.15864 -11.15859  -1.27178  -1.08627
   1 1   C  1S          0.00113  -0.00092   0.00130  -0.10388   0.00581
   2        2S         -0.00235   0.00079  -0.00147   0.11653  -0.00315
   3        2PX        -0.00000   0.00000  -0.00000  -0.00000   0.00000
   4        2PY        -0.00004  -0.00077   0.00036   0.08526  -0.04326
   5        2PZ         0.00169   0.00051  -0.00015   0.01430  -0.09248
   6        3S          0.03072  -0.01083   0.01601   0.10613  -0.00471
   7        3PX        -0.00000  -0.00000  -0.00000   0.00000  -0.00000
   8        3PY         0.01190   0.01489  -0.00718  -0.09369   0.01666
   9        3PZ        -0.02128  -0.00834   0.00523   0.00310  -0.00828
  10 2   C  1S          0.69820  -0.00448   0.00574  -0.05080  -0.11023
  11        2S          0.07126   0.00002   0.00012   0.05105   0.12156
  12        2PX         0.00000  -0.00000   0.00000   0.00000   0.00000
  13        2PY         0.00035  -0.00049   0.00029   0.02426   0.06958
  14        2PZ         0.00092   0.00028  -0.00042   0.03344  -0.02660
  15        3S         -0.08000  -0.00222  -0.00262   0.13399   0.22288
  16        3PX         0.00000   0.00000  -0.00000  -0.00000   0.00000
  17        3PY        -0.02328  -0.00170  -0.00199   0.09173  -0.00550
  18        3PZ        -0.01456  -0.00229   0.00029   0.01637   0.00544
  19 3   C  1S          0.01226   0.00000   0.00238  -0.03815  -0.15456
  20        2S         -0.00494   0.00000  -0.00087   0.04876   0.16909
  21        2PX         0.00000   0.00000   0.00000   0.00000   0.00000
  22        2PY         0.00000  -0.00041   0.00000   0.00000   0.00000
  23        2PZ        -0.00159   0.00000  -0.00041   0.03078   0.06242
  24        3S          0.05549   0.00000   0.00541  -0.04687   0.35337
  25        3PX         0.00000  -0.00000   0.00000   0.00000   0.00000
  26        3PY         0.00000   0.00134   0.00000   0.00000   0.00000
  27        3PZ         0.03137   0.00000   0.00496  -0.04446   0.02894
  28 4   C  1S          0.69820   0.00448   0.00574  -0.05080  -0.11023
  29        2S          0.07126  -0.00002   0.00012   0.05105   0.12156
  30        2PX        -0.00000  -0.00000  -0.00000  -0.00000  -0.00000
  31        2PY        -0.00035  -0.00049  -0.00029  -0.02426  -0.06958
  32        2PZ         0.00092  -0.00028  -0.00042   0.03344  -0.02660
  33        3S         -0.08000   0.00222  -0.00262   0.13399   0.22288
  34        3PX        -0.00000   0.00000   0.00000   0.00000  -0.00000
  35        3PY         0.02328  -0.00170   0.00199  -0.09173   0.00550
  36        3PZ        -0.01456   0.00229   0.00029   0.01637   0.00544
  37 5   C  1S          0.00113   0.00092   0.00130  -0.10388   0.00581
  38        2S         -0.00235  -0.00079  -0.00147   0.11653  -0.00315
  39        2PX         0.00000   0.00000   0.00000   0.00000  -0.00000
  40        2PY         0.00004  -0.00077  -0.00036  -0.08526   0.04326
  41        2PZ         0.00169  -0.00051  -0.00015   0.01430  -0.09248
  42        3S          0.03072   0.01083   0.01601   0.10613  -0.00471
  43        3PX         0.00000  -0.00000   0.00000  -0.00000   0.00000
  44        3PY        -0.01190   0.01489   0.00718   0.09369  -0.01666
  45        3PZ        -0.02128   0.00834   0.00523   0.00310  -0.00828
  46 6   N  1S          0.00031   0.00000   0.00004  -0.17148   0.09491
  47        2S          0.00177   0.00000  -0.00040   0.14270  -0.08354
  48        2PX         0.00000  -0.00000   0.00000   0.00000   0.00000
  49        2PY         0.00000  -0.00108   0.00000   0.00000   0.00000
  50        2PZ        -0.00003   0.00000  -0.00028  -0.09457   0.02117
  51        3S         -0.01329   0.00000  -0.00145   0.59102  -0.32685
  52        3PX         0.00000   0.00000   0.00000   0.00000   0.00000
  53        3PY         0.00000   0.00314   0.00000   0.00000   0.00000
  54        3PZ         0.00859   0.00000   0.00027  -0.14108   0.04576
  55 7   H  1S          0.00006   0.00000   0.00015   0.01021   0.06799
  56        2S          0.00756   0.00000   0.00197  -0.01366   0.00619
  57 8   H  1S         -0.00225  -0.00023  -0.00010   0.01845   0.04610
  58        2S          0.00219  -0.00029  -0.00062   0.02465  -0.00355
  59 9   H  1S         -0.00225   0.00023  -0.00010   0.01845   0.04610
  60        2S          0.00219   0.00029  -0.00062   0.02465  -0.00355
  61 10  C  1S         -0.00588   0.69835   0.69824  -0.02250   0.00767
  62        2S         -0.00144   0.07270   0.07213   0.02497  -0.00659
  63        2PX        -0.00000   0.00000   0.00000  -0.00000   0.00000
  64        2PY        -0.00003   0.00001  -0.00004  -0.01832   0.00816
  65        2PZ         0.00008   0.00011  -0.00001  -0.00947  -0.00601
  66        3S          0.00801  -0.06351  -0.05895   0.00458  -0.01523
  67        3PX        -0.00000  -0.00000  -0.00000   0.00000  -0.00000
  68        3PY        -0.00385   0.00524   0.00352   0.00121   0.00783
  69        3PZ        -0.00033   0.00309   0.00184   0.02839  -0.00772
  70 11  H  1S         -0.00032   0.00035   0.00018   0.00835  -0.00456
  71        2S         -0.00037   0.01048   0.01036  -0.00613  -0.00087
  72 12  H  1S         -0.00002   0.00027   0.00005   0.01005  -0.00009
  73        2S          0.00016   0.01016   0.01021   0.00608  -0.00105
  74 13  H  1S         -0.00032   0.00035   0.00018   0.00835  -0.00456
  75        2S         -0.00037   0.01048   0.01036  -0.00613  -0.00087
  76 14  C  1S         -0.00588  -0.69835   0.69824  -0.02250   0.00767
  77        2S         -0.00144  -0.07270   0.07213   0.02497  -0.00659
  78        2PX         0.00000   0.00000  -0.00000   0.00000  -0.00000
  79        2PY         0.00003   0.00001   0.00004   0.01832  -0.00816
  80        2PZ         0.00008  -0.00011  -0.00001  -0.00947  -0.00601
  81        3S          0.00801   0.06351  -0.05895   0.00458  -0.01523
  82        3PX         0.00000  -0.00000   0.00000  -0.00000   0.00000
  83        3PY         0.00385   0.00524  -0.00352  -0.00121  -0.00783
  84        3PZ        -0.00033  -0.00309   0.00184   0.02839  -0.00772
  85 15  H  1S         -0.00032  -0.00035   0.00018   0.00835  -0.00456
  86        2S         -0.00037  -0.01048   0.01036  -0.00613  -0.00087
  87 16  H  1S         -0.00032  -0.00035   0.00018   0.00835  -0.00456
  88        2S         -0.00037  -0.01048   0.01036  -0.00613  -0.00087
  89 17  H  1S         -0.00002  -0.00027   0.00005   0.01005  -0.00009
  90        2S          0.00016  -0.01016   0.01021   0.00608  -0.00105
                          11        12        13        14        15
                           O         O         O         O         O
     Eigenvalues --    -1.07399  -0.98001  -0.93804  -0.83607  -0.81521
   1 1   C  1S         -0.11905  -0.03450  -0.01510   0.05682  -0.09172
   2        2S          0.13085   0.04023   0.01703  -0.06346   0.09772
   3        2PX        -0.00000  -0.00000   0.00000  -0.00000  -0.00000
   4        2PY        -0.01833  -0.12318   0.03802   0.03701   0.10710
   5        2PZ        -0.00976   0.00841  -0.11739   0.14895   0.08152
   6        3S          0.25304   0.07638   0.03045  -0.16955   0.29142
   7        3PX        -0.00000  -0.00000   0.00000   0.00000  -0.00000
   8        3PY        -0.01321  -0.02545  -0.01197   0.01884   0.02111
   9        3PZ        -0.05882  -0.00023  -0.02632   0.07420  -0.03966
  10 2   C  1S         -0.08105  -0.00745  -0.11223   0.05066   0.05633
  11        2S          0.08914   0.00882   0.11700  -0.05350  -0.05445
  12        2PX         0.00000   0.00000   0.00000  -0.00000  -0.00000
  13        2PY        -0.00580  -0.04060   0.00939   0.08223   0.01872
  14        2PZ         0.05412   0.02869   0.00553  -0.15246   0.08853
  15        3S          0.15363   0.02425   0.30502  -0.15581  -0.21810
  16        3PX         0.00000   0.00000   0.00000  -0.00000  -0.00000
  17        3PY         0.02307  -0.01141   0.02231   0.01292   0.02194
  18        3PZ        -0.02630   0.00314   0.00701  -0.05064  -0.01204
  19 3   C  1S          0.00000   0.02887   0.00000  -0.12477   0.00000
  20        2S          0.00000  -0.02850   0.00000   0.12913   0.00000
  21        2PX         0.00000   0.00000   0.00000   0.00000  -0.00000
  22        2PY        -0.06227   0.00000  -0.13765   0.00000   0.11719
  23        2PZ         0.00000  -0.00759   0.00000  -0.08270   0.00000
  24        3S          0.00000  -0.08405   0.00000   0.40921   0.00000
  25        3PX        -0.00000   0.00000   0.00000   0.00000  -0.00000
  26        3PY         0.02566   0.00000  -0.02945   0.00000   0.07369
  27        3PZ         0.00000  -0.01971   0.00000  -0.02300   0.00000
  28 4   C  1S          0.08105  -0.00745   0.11223   0.05066  -0.05633
  29        2S         -0.08914   0.00882  -0.11700  -0.05350   0.05445
  30        2PX         0.00000  -0.00000   0.00000   0.00000  -0.00000
  31        2PY        -0.00580   0.04060   0.00939  -0.08223   0.01872
  32        2PZ        -0.05412   0.02869  -0.00553  -0.15246  -0.08853
  33        3S         -0.15363   0.02425  -0.30502  -0.15581   0.21810
  34        3PX         0.00000  -0.00000   0.00000   0.00000  -0.00000
  35        3PY         0.02307   0.01141   0.02231  -0.01292   0.02194
  36        3PZ         0.02630   0.00314  -0.00701  -0.05064   0.01204
  37 5   C  1S          0.11905  -0.03450   0.01510   0.05682   0.09172
  38        2S         -0.13085   0.04023  -0.01703  -0.06346  -0.09772
  39        2PX        -0.00000   0.00000   0.00000   0.00000  -0.00000
  40        2PY        -0.01833   0.12318   0.03802  -0.03701   0.10710
  41        2PZ         0.00976   0.00841   0.11739   0.14895  -0.08152
  42        3S         -0.25304   0.07638  -0.03045  -0.16955  -0.29142
  43        3PX        -0.00000   0.00000   0.00000  -0.00000  -0.00000
  44        3PY        -0.01321   0.02545  -0.01197  -0.01884   0.02111
  45        3PZ         0.05882  -0.00023   0.02632   0.07420   0.03966
  46 6   N  1S          0.00000   0.06086   0.00000  -0.05899   0.00000
  47        2S          0.00000  -0.05305   0.00000   0.05643   0.00000
  48        2PX         0.00000   0.00000   0.00000   0.00000   0.00000
  49        2PY        -0.11539   0.00000   0.01792   0.00000  -0.25197
  50        2PZ         0.00000   0.04656   0.00000   0.03947   0.00000
  51        3S          0.00000  -0.21839   0.00000   0.21402   0.00000
  52        3PX         0.00000   0.00000   0.00000   0.00000   0.00000
  53        3PY        -0.08406   0.00000  -0.00234   0.00000  -0.20741
  54        3PZ         0.00000   0.04733   0.00000   0.01261   0.00000
  55 7   H  1S          0.00000  -0.01504   0.00000   0.13446   0.00000
  56        2S          0.00000  -0.01020   0.00000   0.06248   0.00000
  57 8   H  1S          0.04076   0.01418   0.07052  -0.03808  -0.07202
  58        2S          0.00849   0.00690   0.02334  -0.01679  -0.04005
  59 9   H  1S         -0.04076   0.01418  -0.07052  -0.03808   0.07202
  60        2S         -0.00849   0.00690  -0.02334  -0.01679   0.04005
  61 10  C  1S          0.08527  -0.13670  -0.10418  -0.04227  -0.06158
  62        2S         -0.08271   0.13123   0.09742   0.03918   0.05601
  63        2PX        -0.00000   0.00000   0.00000   0.00000   0.00000
  64        2PY         0.03403  -0.00941   0.00189   0.01602   0.08197
  65        2PZ         0.02560  -0.01481   0.01548   0.04755   0.01958
  66        3S         -0.23239   0.40036   0.32966   0.14347   0.20661
  67        3PX        -0.00000   0.00000   0.00000   0.00000   0.00000
  68        3PY         0.01643   0.00009  -0.00382   0.00485   0.04698
  69        3PZ         0.00000  -0.00996  -0.00038   0.02123  -0.00363
  70 11  H  1S         -0.03838   0.07402   0.06489   0.04119   0.04702
  71        2S          0.00696   0.00410   0.01078   0.01818   0.01917
  72 12  H  1S         -0.04100   0.07886   0.05744   0.01977   0.07051
  73        2S         -0.00262   0.00741   0.00528   0.00196   0.03021
  74 13  H  1S         -0.03838   0.07402   0.06489   0.04120   0.04702
  75        2S          0.00696   0.00410   0.01078   0.01818   0.01917
  76 14  C  1S         -0.08527  -0.13670   0.10418  -0.04227   0.06158
  77        2S          0.08271   0.13123  -0.09742   0.03918  -0.05601
  78        2PX        -0.00000  -0.00000   0.00000  -0.00000   0.00000
  79        2PY         0.03403   0.00941   0.00189  -0.01602   0.08197
  80        2PZ        -0.02560  -0.01481  -0.01548   0.04755  -0.01958
  81        3S          0.23239   0.40036  -0.32966   0.14347  -0.20661
  82        3PX        -0.00000  -0.00000   0.00000  -0.00000   0.00000
  83        3PY         0.01643  -0.00009  -0.00382  -0.00485   0.04698
  84        3PZ        -0.00000  -0.00996   0.00038   0.02123   0.00363
  85 15  H  1S          0.03838   0.07402  -0.06489   0.04120  -0.04702
  86        2S         -0.00696   0.00410  -0.01078   0.01818  -0.01917
  87 16  H  1S          0.03838   0.07402  -0.06489   0.04119  -0.04702
  88        2S         -0.00696   0.00410  -0.01078   0.01818  -0.01917
  89 17  H  1S          0.04100   0.07886  -0.05744   0.01977  -0.07051
  90        2S          0.00262   0.00741  -0.00528   0.00196  -0.03021
                          16        17        18        19        20
                           O         O         O         O         O
     Eigenvalues --    -0.69543  -0.67649  -0.61545  -0.59700  -0.57918
   1 1   C  1S          0.00994  -0.02323  -0.06931  -0.00000   0.00066
   2        2S         -0.00484   0.02386   0.07214   0.00000  -0.00570
   3        2PX        -0.00000  -0.00000  -0.00001   0.14624   0.00000
   4        2PY         0.06930  -0.12308  -0.12671  -0.00000  -0.09237
   5        2PZ        -0.06401  -0.18119   0.01332   0.00001   0.09492
   6        3S         -0.05273   0.08678   0.24658  -0.00000   0.03037
   7        3PX        -0.00000  -0.00000  -0.00000   0.12860   0.00000
   8        3PY         0.05373  -0.06929  -0.12600   0.00000  -0.07369
   9        3PZ        -0.05940  -0.09032   0.02788   0.00000   0.10765
  10 2   C  1S          0.02401   0.01726   0.04808   0.00000  -0.02460
  11        2S         -0.01903  -0.01764  -0.04944  -0.00000   0.02480
  12        2PX        -0.00001  -0.00000  -0.00001   0.08467  -0.00000
  13        2PY         0.20292  -0.08615   0.07522  -0.00002   0.04695
  14        2PZ         0.07811   0.21432   0.10277  -0.00000  -0.06960
  15        3S         -0.12064  -0.06160  -0.15662  -0.00001   0.09665
  16        3PX        -0.00001  -0.00000  -0.00001   0.07202   0.00000
  17        3PY         0.13252  -0.04075   0.12134  -0.00002   0.01916
  18        3PZ         0.05413   0.11786   0.08204  -0.00000  -0.04587
  19 3   C  1S         -0.01481   0.00000  -0.04603   0.00000  -0.00056
  20        2S          0.02086   0.00000   0.04988   0.00000   0.00400
  21        2PX         0.00000  -0.00000   0.00000   0.06763   0.00000
  22        2PY         0.00000   0.24063   0.00000   0.00002   0.00000
  23        2PZ         0.20777   0.00000  -0.13270   0.00000   0.21293
  24        3S          0.02476   0.00000   0.11949   0.00000  -0.02792
  25        3PX         0.00000  -0.00000   0.00000   0.06039   0.00000
  26        3PY         0.00000   0.12813   0.00000   0.00001   0.00000
  27        3PZ         0.14208   0.00000  -0.16070   0.00000   0.19148
  28 4   C  1S          0.02401  -0.01726   0.04808  -0.00000  -0.02460
  29        2S         -0.01903   0.01764  -0.04944   0.00000   0.02480
  30        2PX         0.00001  -0.00000   0.00001   0.08467   0.00000
  31        2PY        -0.20292  -0.08615  -0.07522  -0.00002  -0.04695
  32        2PZ         0.07811  -0.21432   0.10277   0.00000  -0.06960
  33        3S         -0.12064   0.06160  -0.15662   0.00001   0.09665
  34        3PX         0.00001  -0.00000   0.00001   0.07202  -0.00000
  35        3PY        -0.13252  -0.04075  -0.12134  -0.00002  -0.01916
  36        3PZ         0.05413  -0.11786   0.08204   0.00000  -0.04587
  37 5   C  1S          0.00994   0.02323  -0.06931   0.00000   0.00066
  38        2S         -0.00484  -0.02386   0.07214  -0.00000  -0.00570
  39        2PX         0.00000  -0.00000   0.00001   0.14624  -0.00000
  40        2PY        -0.06930  -0.12308   0.12671  -0.00000   0.09237
  41        2PZ        -0.06401   0.18119   0.01332  -0.00001   0.09492
  42        3S         -0.05273  -0.08678   0.24658   0.00000   0.03037
  43        3PX         0.00000  -0.00000   0.00000   0.12860  -0.00000
  44        3PY        -0.05373  -0.06929   0.12600   0.00000   0.07369
  45        3PZ        -0.05940   0.09032   0.02788  -0.00000   0.10765
  46 6   N  1S          0.03617   0.00000   0.04525   0.00000  -0.00335
  47        2S         -0.03289   0.00000  -0.04308   0.00000   0.00939
  48        2PX         0.00000  -0.00000   0.00000   0.15190   0.00000
  49        2PY         0.00000   0.18595   0.00000  -0.00000   0.00000
  50        2PZ        -0.08173   0.00000   0.02317   0.00000   0.15739
  51        3S         -0.13550   0.00000  -0.17220   0.00000  -0.00795
  52        3PX         0.00000  -0.00000   0.00000   0.15164   0.00000
  53        3PY         0.00000   0.14260   0.00000  -0.00001   0.00000
  54        3PZ        -0.06135   0.00000   0.00850   0.00000   0.14702
  55 7   H  1S         -0.10729   0.00000   0.13737   0.00000  -0.15034
  56        2S         -0.07035   0.00000   0.08032   0.00000  -0.11123
  57 8   H  1S         -0.14645  -0.03160  -0.12679   0.00001   0.01660
  58        2S         -0.09177  -0.01799  -0.07304   0.00001   0.00061
  59 9   H  1S         -0.14645   0.03160  -0.12679  -0.00001   0.01660
  60        2S         -0.09177   0.01799  -0.07304  -0.00001   0.00061
  61 10  C  1S         -0.02346  -0.00628   0.01029   0.00000   0.00356
  62        2S          0.01754   0.00572  -0.00459  -0.00000   0.00189
  63        2PX         0.00000  -0.00000   0.00001   0.20253  -0.00000
  64        2PY         0.06094  -0.02724  -0.14117  -0.00000  -0.18200
  65        2PZ         0.05124   0.09547  -0.10015  -0.00000   0.08373
  66        3S          0.11343   0.03425  -0.08287  -0.00000  -0.05024
  67        3PX         0.00000  -0.00000   0.00001   0.15848  -0.00000
  68        3PY         0.02993  -0.02016  -0.07482   0.00000  -0.12349
  69        3PZ         0.02715   0.05868  -0.05584  -0.00000   0.08117
  70 11  H  1S          0.03522   0.03874  -0.04637   0.11114   0.03181
  71        2S          0.01915   0.02834  -0.04257   0.09347   0.02679
  72 12  H  1S          0.02600  -0.04308  -0.05011  -0.00003  -0.14241
  73        2S          0.01046  -0.03505  -0.05025  -0.00003  -0.12629
  74 13  H  1S          0.03522   0.03876  -0.04638  -0.11111   0.03186
  75        2S          0.01915   0.02835  -0.04258  -0.09344   0.02683
  76 14  C  1S         -0.02346   0.00628   0.01029  -0.00000   0.00356
  77        2S          0.01754  -0.00572  -0.00459   0.00000   0.00189
  78        2PX        -0.00000  -0.00000  -0.00001   0.20253   0.00000
  79        2PY        -0.06094  -0.02724   0.14117  -0.00000   0.18200
  80        2PZ         0.05124  -0.09547  -0.10015   0.00000   0.08373
  81        3S          0.11343  -0.03425  -0.08287   0.00000  -0.05024
  82        3PX        -0.00000  -0.00000  -0.00001   0.15848   0.00000
  83        3PY        -0.02993  -0.02016   0.07482   0.00000   0.12349
  84        3PZ         0.02715  -0.05868  -0.05584   0.00000   0.08117
  85 15  H  1S          0.03522  -0.03876  -0.04638   0.11111   0.03186
  86        2S          0.01915  -0.02835  -0.04258   0.09344   0.02683
  87 16  H  1S          0.03522  -0.03874  -0.04637  -0.11114   0.03181
  88        2S          0.01915  -0.02834  -0.04257  -0.09347   0.02679
  89 17  H  1S          0.02600   0.04308  -0.05011   0.00003  -0.14241
  90        2S          0.01046   0.03505  -0.05025   0.00003  -0.12629
                          21        22        23        24        25
                           O         O         O         O         O
     Eigenvalues --    -0.57689  -0.56947  -0.53478  -0.53382  -0.50229
   1 1   C  1S         -0.00335   0.00000  -0.00244  -0.01374  -0.00000
   2        2S          0.00720  -0.00001   0.00471   0.01819   0.00000
   3        2PX         0.00001  -0.07903  -0.00000  -0.00000  -0.12041
   4        2PY         0.11003   0.00001   0.05713   0.07297  -0.00005
   5        2PZ        -0.15410   0.00000   0.07304  -0.09580   0.00001
   6        3S         -0.02689  -0.00001  -0.01513   0.04284   0.00001
   7        3PX         0.00001  -0.05897   0.00000  -0.00000  -0.14160
   8        3PY         0.08780   0.00001   0.03255   0.06072  -0.00006
   9        3PZ        -0.10380  -0.00000   0.03421  -0.11821   0.00003
  10 2   C  1S         -0.01871  -0.00000   0.01220  -0.00056  -0.00000
  11        2S          0.02234   0.00000  -0.01129   0.00111  -0.00000
  12        2PX        -0.00000  -0.03576  -0.00000   0.00000  -0.14540
  13        2PY         0.21605  -0.00001   0.06991  -0.06995   0.00003
  14        2PZ         0.11791  -0.00001  -0.07534   0.09068  -0.00001
  15        3S          0.03675   0.00001  -0.05822  -0.00692   0.00000
  16        3PX        -0.00000  -0.03500  -0.00000  -0.00000  -0.13858
  17        3PY         0.18437  -0.00001   0.04515  -0.02299   0.00004
  18        3PZ         0.10506  -0.00001  -0.03548   0.03844   0.00001
  19 3   C  1S          0.00000   0.00000   0.00000   0.02058   0.00000
  20        2S          0.00000  -0.00000   0.00000  -0.02201   0.00000
  21        2PX         0.00000   0.00000   0.00000   0.00000  -0.15183
  22        2PY        -0.13298   0.00000  -0.10284   0.00000  -0.00005
  23        2PZ         0.00000   0.00001   0.00000  -0.18514   0.00000
  24        3S          0.00000  -0.00002   0.00000  -0.08313   0.00000
  25        3PX         0.00000   0.00000  -0.00000   0.00000  -0.15337
  26        3PY        -0.07894   0.00000  -0.07875   0.00000  -0.00004
  27        3PZ         0.00000   0.00001   0.00000  -0.18293   0.00000
  28 4   C  1S          0.01871  -0.00000  -0.01220  -0.00056   0.00000
  29        2S         -0.02234   0.00000   0.01129   0.00111   0.00000
  30        2PX        -0.00000   0.03576  -0.00000  -0.00000  -0.14540
  31        2PY         0.21605   0.00001   0.06991   0.06995   0.00003
  32        2PZ        -0.11791  -0.00001   0.07534   0.09068   0.00001
  33        3S         -0.03675   0.00001   0.05822  -0.00692  -0.00000
  34        3PX        -0.00000   0.03500  -0.00000   0.00000  -0.13858
  35        3PY         0.18437   0.00001   0.04515   0.02299   0.00004
  36        3PZ        -0.10506  -0.00001   0.03548   0.03844  -0.00001
  37 5   C  1S          0.00335   0.00000   0.00244  -0.01374   0.00000
  38        2S         -0.00720  -0.00001  -0.00471   0.01819  -0.00000
  39        2PX         0.00001   0.07903  -0.00000   0.00000  -0.12041
  40        2PY         0.11003  -0.00001   0.05713  -0.07297  -0.00005
  41        2PZ         0.15410   0.00000  -0.07304  -0.09580  -0.00001
  42        3S          0.02689  -0.00001   0.01513   0.04284  -0.00001
  43        3PX         0.00001   0.05897   0.00000   0.00000  -0.14160
  44        3PY         0.08780  -0.00001   0.03255  -0.06072  -0.00006
  45        3PZ         0.10380  -0.00000  -0.03421  -0.11821  -0.00003
  46 6   N  1S          0.00000  -0.00000   0.00000   0.03945   0.00000
  47        2S          0.00000   0.00000   0.00000  -0.03598   0.00000
  48        2PX         0.00001   0.00000   0.00000   0.00000  -0.16460
  49        2PY         0.01312   0.00000  -0.11226   0.00000   0.00004
  50        2PZ         0.00000  -0.00000   0.00000  -0.13316   0.00000
  51        3S          0.00000   0.00001   0.00000  -0.16032   0.00000
  52        3PX         0.00001   0.00000   0.00000   0.00000  -0.16988
  53        3PY         0.00041   0.00000  -0.11604   0.00000   0.00004
  54        3PZ         0.00000  -0.00000   0.00000  -0.11568   0.00000
  55 7   H  1S          0.00000  -0.00001   0.00000   0.11899   0.00000
  56        2S          0.00000  -0.00000   0.00000   0.09672   0.00000
  57 8   H  1S         -0.15282   0.00001  -0.02541   0.00882  -0.00002
  58        2S         -0.11752   0.00001  -0.01158   0.00670  -0.00001
  59 9   H  1S          0.15282   0.00001   0.02541   0.00882   0.00002
  60        2S          0.11752   0.00001   0.01158   0.00670   0.00001
  61 10  C  1S          0.00630   0.00000  -0.00073  -0.00026   0.00000
  62        2S         -0.00135  -0.00000   0.00155  -0.00262  -0.00001
  63        2PX         0.00001   0.25919   0.00000   0.00000   0.17083
  64        2PY        -0.10563   0.00000  -0.14279  -0.04975   0.00004
  65        2PZ        -0.09328  -0.00000   0.20325   0.21282   0.00002
  66        3S         -0.05367  -0.00000  -0.00171   0.03486   0.00001
  67        3PX         0.00001   0.22323  -0.00000  -0.00000   0.17382
  68        3PY        -0.06540   0.00000  -0.11761  -0.05557   0.00002
  69        3PZ        -0.06692  -0.00000   0.18187   0.17852   0.00001
  70 11  H  1S         -0.04362   0.14782   0.08808   0.09081   0.10765
  71        2S         -0.03882   0.12327   0.07666   0.07815   0.09436
  72 12  H  1S         -0.02273  -0.00004  -0.17595  -0.12370  -0.00002
  73        2S         -0.01625  -0.00003  -0.16542  -0.11766  -0.00001
  74 13  H  1S         -0.04365  -0.14777   0.08815   0.09087  -0.10760
  75        2S         -0.03885  -0.12323   0.07671   0.07819  -0.09431
  76 14  C  1S         -0.00630   0.00000   0.00073  -0.00026  -0.00000
  77        2S          0.00135  -0.00000  -0.00155  -0.00262   0.00001
  78        2PX         0.00001  -0.25919   0.00000  -0.00000   0.17083
  79        2PY        -0.10563  -0.00000  -0.14279   0.04975   0.00004
  80        2PZ         0.09328  -0.00000  -0.20325   0.21282  -0.00002
  81        3S          0.05367  -0.00000   0.00171   0.03486  -0.00001
  82        3PX         0.00001  -0.22323  -0.00000   0.00000   0.17382
  83        3PY        -0.06540  -0.00000  -0.11761   0.05557   0.00002
  84        3PZ         0.06692  -0.00000  -0.18187   0.17852  -0.00001
  85 15  H  1S          0.04365  -0.14777  -0.08815   0.09087   0.10760
  86        2S          0.03885  -0.12323  -0.07671   0.07819   0.09431
  87 16  H  1S          0.04362   0.14782  -0.08808   0.09081  -0.10765
  88        2S          0.03882   0.12327  -0.07666   0.07815  -0.09436
  89 17  H  1S          0.02273  -0.00004   0.17595  -0.12370   0.00002
  90        2S          0.01625  -0.00003   0.16542  -0.11766   0.00001
                          26        27        28        29        30
                           O         O         O         O         V
     Eigenvalues --    -0.49884  -0.38789  -0.37382  -0.33358   0.13304
   1 1   C  1S          0.00905   0.02339   0.00000  -0.00000   0.00000
   2        2S         -0.00736  -0.02970  -0.00000   0.00000   0.00000
   3        2PX        -0.00004  -0.00000   0.09896   0.21959  -0.15642
   4        2PY         0.21153  -0.04351   0.00000   0.00000  -0.00000
   5        2PZ        -0.04643  -0.16926   0.00000  -0.00000   0.00000
   6        3S         -0.04949  -0.08463  -0.00000   0.00000  -0.00002
   7        3PX        -0.00004  -0.00000   0.14618   0.25579  -0.22614
   8        3PY         0.21987   0.01365   0.00001   0.00000   0.00002
   9        3PZ        -0.11515  -0.00315   0.00001  -0.00000   0.00004
  10 2   C  1S         -0.00310  -0.02218  -0.00000   0.00000  -0.00000
  11        2S          0.00371   0.01942   0.00000  -0.00000   0.00000
  12        2PX        -0.00003  -0.00001  -0.15428   0.24178  -0.12150
  13        2PY        -0.16291   0.00755  -0.00001   0.00001  -0.00000
  14        2PZ         0.04941   0.15878  -0.00000   0.00001  -0.00000
  15        3S         -0.01571   0.17253   0.00001  -0.00000   0.00002
  16        3PX        -0.00003  -0.00001  -0.19184   0.30295  -0.30896
  17        3PY        -0.19057  -0.00108  -0.00001   0.00001  -0.00002
  18        3PZ        -0.00679   0.19289   0.00000   0.00000   0.00003
  19 3   C  1S          0.00000   0.00356   0.00000  -0.00000   0.00000
  20        2S          0.00000  -0.00439   0.00000   0.00000   0.00000
  21        2PX        -0.00004   0.00000  -0.26447   0.00000   0.27722
  22        2PY         0.20980   0.00000   0.00000   0.00000   0.00000
  23        2PZ         0.00000  -0.05647   0.00000  -0.00000   0.00000
  24        3S          0.00000   0.01273   0.00000  -0.00000   0.00000
  25        3PX        -0.00004   0.00000  -0.29695   0.00000   0.62842
  26        3PY         0.13303   0.00000  -0.00000   0.00000  -0.00002
  27        3PZ         0.00000  -0.11972   0.00000  -0.00000   0.00000
  28 4   C  1S          0.00310  -0.02218   0.00000   0.00000   0.00000
  29        2S         -0.00371   0.01942  -0.00000  -0.00000  -0.00000
  30        2PX        -0.00003   0.00001  -0.15428  -0.24178  -0.12150
  31        2PY        -0.16291  -0.00755  -0.00001  -0.00001  -0.00000
  32        2PZ        -0.04941   0.15878   0.00000   0.00001   0.00000
  33        3S          0.01571   0.17253  -0.00001  -0.00000  -0.00002
  34        3PX        -0.00003   0.00001  -0.19184  -0.30295  -0.30896
  35        3PY        -0.19057   0.00108  -0.00001  -0.00001  -0.00002
  36        3PZ         0.00679   0.19289  -0.00000   0.00000  -0.00003
  37 5   C  1S         -0.00905   0.02339  -0.00000  -0.00000  -0.00000
  38        2S          0.00736  -0.02970   0.00000   0.00000  -0.00000
  39        2PX        -0.00004   0.00000   0.09896  -0.21959  -0.15642
  40        2PY         0.21153   0.04351   0.00000  -0.00000  -0.00000
  41        2PZ         0.04643  -0.16926  -0.00000  -0.00000  -0.00000
  42        3S          0.04949  -0.08463   0.00000   0.00000   0.00002
  43        3PX        -0.00004   0.00000   0.14618  -0.25579  -0.22614
  44        3PY         0.21987  -0.01365   0.00001  -0.00000   0.00002
  45        3PZ         0.11515  -0.00315  -0.00001  -0.00000  -0.00004
  46 6   N  1S          0.00000  -0.07188   0.00000  -0.00000   0.00000
  47        2S          0.00000   0.06779   0.00000   0.00000   0.00000
  48        2PX        -0.00004   0.00000   0.27881   0.00000   0.25401
  49        2PY        -0.17622   0.00000   0.00000   0.00000  -0.00000
  50        2PZ         0.00000   0.39696   0.00000   0.00001   0.00000
  51        3S          0.00000   0.28479   0.00000   0.00001   0.00000
  52        3PX        -0.00005   0.00000   0.33709   0.00000   0.46775
  53        3PY        -0.19138   0.00000   0.00001   0.00000   0.00002
  54        3PZ         0.00000   0.49518   0.00000   0.00001   0.00000
  55 7   H  1S          0.00000   0.05380   0.00000   0.00000   0.00000
  56        2S          0.00000   0.03905   0.00000   0.00000   0.00000
  57 8   H  1S          0.10399  -0.05251   0.00000  -0.00000  -0.00000
  58        2S          0.07702  -0.06851   0.00000  -0.00000  -0.00000
  59 9   H  1S         -0.10399  -0.05251  -0.00000  -0.00000   0.00000
  60        2S         -0.07702  -0.06851  -0.00000  -0.00000   0.00000
  61 10  C  1S         -0.01462   0.01977  -0.00000   0.00000   0.00000
  62        2S          0.01935  -0.01551   0.00000  -0.00000  -0.00000
  63        2PX         0.00003   0.00001  -0.04233   0.06685  -0.00575
  64        2PY        -0.17297   0.09265  -0.00000   0.00000  -0.00000
  65        2PZ        -0.10499   0.05590   0.00000   0.00000   0.00001
  66        3S         -0.00859  -0.12193  -0.00000  -0.00000   0.00000
  67        3PX         0.00003   0.00002  -0.06774   0.06469  -0.14686
  68        3PY        -0.10274   0.07424  -0.00001  -0.00000  -0.00004
  69        3PZ        -0.06887   0.06047   0.00001   0.00000   0.00007
  70 11  H  1S         -0.03235   0.01322  -0.03153   0.05709   0.03410
  71        2S         -0.04314   0.04533  -0.01973   0.07784   0.20401
  72 12  H  1S         -0.05463   0.01627   0.00001  -0.00001  -0.00001
  73        2S         -0.07291   0.03778   0.00002  -0.00001   0.00002
  74 13  H  1S         -0.03239   0.01322   0.03152  -0.05707  -0.03409
  75        2S         -0.04317   0.04535   0.01971  -0.07781  -0.20403
  76 14  C  1S          0.01462   0.01977   0.00000   0.00000  -0.00000
  77        2S         -0.01935  -0.01551  -0.00000  -0.00000   0.00000
  78        2PX         0.00003  -0.00001  -0.04233  -0.06685  -0.00575
  79        2PY        -0.17297  -0.09265  -0.00000  -0.00000  -0.00000
  80        2PZ         0.10499   0.05590  -0.00000   0.00000  -0.00001
  81        3S          0.00859  -0.12193   0.00000  -0.00000  -0.00000
  82        3PX         0.00003  -0.00002  -0.06774  -0.06469  -0.14686
  83        3PY        -0.10274  -0.07424  -0.00001   0.00000  -0.00004
  84        3PZ         0.06887   0.06047  -0.00001   0.00000  -0.00007
  85 15  H  1S          0.03239   0.01322  -0.03152  -0.05707   0.03409
  86        2S          0.04317   0.04535  -0.01971  -0.07781   0.20403
  87 16  H  1S          0.03235   0.01322   0.03153   0.05709  -0.03410
  88        2S          0.04314   0.04533   0.01973   0.07784  -0.20401
  89 17  H  1S          0.05463   0.01627  -0.00001  -0.00001   0.00001
  90        2S          0.07291   0.03778  -0.00002  -0.00001  -0.00002
                          31        32        33        34        35
                           V         V         V         V         V
     Eigenvalues --     0.15242   0.26509   0.30168   0.30954   0.32923
   1 1   C  1S         -0.00000   0.01402   0.00595   0.01233   0.00016
   2        2S         -0.00000  -0.00654  -0.00850   0.00367   0.00041
   3        2PX         0.25939   0.00002  -0.00002   0.00001  -0.12234
   4        2PY         0.00000   0.04036   0.00270   0.00934   0.00091
   5        2PZ         0.00000   0.01696  -0.01644  -0.00522  -0.00036
   6        3S          0.00003  -0.22440  -0.21219  -0.01779  -0.00516
   7        3PX         0.52424   0.00005  -0.00002   0.00002  -0.19271
   8        3PY         0.00002   0.06395  -0.08089   0.03498   0.00059
   9        3PZ         0.00001   0.02338   0.05821  -0.12482  -0.00323
  10 2   C  1S         -0.00000   0.04610   0.02897  -0.01497   0.00030
  11        2S          0.00000  -0.02331  -0.01278   0.02046   0.00015
  12        2PX        -0.22178  -0.00002   0.00001  -0.00000   0.16707
  13        2PY        -0.00001   0.09485   0.09253   0.01208   0.00205
  14        2PZ        -0.00001   0.07831   0.03413   0.02087   0.00140
  15        3S          0.00003  -0.57160  -0.45666   0.02106  -0.00774
  16        3PX        -0.50606  -0.00006   0.00002  -0.00001   0.41846
  17        3PY        -0.00004   0.44359   0.34986   0.04201   0.01034
  18        3PZ        -0.00002   0.28741   0.35470  -0.18643   0.00401
  19 3   C  1S          0.00000   0.04455   0.00000   0.06119   0.00000
  20        2S         -0.00000  -0.01124   0.00000  -0.02920   0.00000
  21        2PX         0.00000   0.00000  -0.00002   0.00000  -0.18319
  22        2PY         0.00000   0.00000  -0.03556   0.00000   0.00056
  23        2PZ        -0.00000   0.13914   0.00000   0.07621   0.00000
  24        3S          0.00002  -0.72239   0.00000  -0.86666   0.00000
  25        3PX         0.00000   0.00000  -0.00004   0.00000  -0.48562
  26        3PY         0.00000   0.00000  -0.21358   0.00000   0.00222
  27        3PZ         0.00000   0.40361   0.00000   0.46780   0.00000
  28 4   C  1S         -0.00000   0.04610  -0.02897  -0.01497  -0.00030
  29        2S          0.00000  -0.02331   0.01278   0.02046  -0.00015
  30        2PX         0.22178   0.00002   0.00001   0.00000   0.16707
  31        2PY         0.00001  -0.09485   0.09253  -0.01208   0.00205
  32        2PZ        -0.00001   0.07831  -0.03413   0.02087  -0.00140
  33        3S          0.00003  -0.57160   0.45666   0.02106   0.00774
  34        3PX         0.50606   0.00006   0.00002   0.00001   0.41846
  35        3PY         0.00004  -0.44359   0.34986  -0.04201   0.01034
  36        3PZ        -0.00002   0.28741  -0.35470  -0.18643  -0.00401
  37 5   C  1S         -0.00000   0.01402  -0.00595   0.01233  -0.00016
  38        2S         -0.00000  -0.00654   0.00850   0.00367  -0.00041
  39        2PX        -0.25939  -0.00002  -0.00002  -0.00001  -0.12234
  40        2PY        -0.00000  -0.04036   0.00270  -0.00934   0.00091
  41        2PZ         0.00000   0.01696   0.01644  -0.00522   0.00036
  42        3S          0.00003  -0.22440   0.21219  -0.01779   0.00516
  43        3PX        -0.52424  -0.00005  -0.00002  -0.00002  -0.19271
  44        3PY        -0.00002  -0.06395  -0.08089  -0.03498   0.00059
  45        3PZ         0.00001   0.02338  -0.05821  -0.12482   0.00323
  46 6   N  1S         -0.00000   0.02871   0.00000  -0.01053   0.00000
  47        2S          0.00000  -0.02781   0.00000   0.01132   0.00000
  48        2PX         0.00000   0.00000   0.00002   0.00000   0.08731
  49        2PY         0.00000   0.00000   0.04260   0.00000   0.00122
  50        2PZ        -0.00000   0.04530   0.00000   0.04699   0.00000
  51        3S         -0.00002  -0.15254   0.00000   0.08781   0.00000
  52        3PX         0.00000   0.00000   0.00003   0.00000   0.20515
  53        3PY         0.00000   0.00000   0.01546   0.00000   0.00007
  54        3PZ         0.00000   0.09017   0.00000   0.05745   0.00000
  55 7   H  1S         -0.00000   0.04635   0.00000   0.01835   0.00000
  56        2S         -0.00002   0.96251   0.00000   0.90538   0.00000
  57 8   H  1S         -0.00001   0.03437  -0.01942   0.02353   0.00032
  58        2S         -0.00004   0.95492   0.68622  -0.00907   0.01620
  59 9   H  1S         -0.00001   0.03437   0.01942   0.02353  -0.00032
  60        2S         -0.00004   0.95492  -0.68622  -0.00907  -0.01620
  61 10  C  1S          0.00000   0.02037  -0.09035  -0.10648   0.00134
  62        2S         -0.00000  -0.00232   0.01904   0.02807  -0.00041
  63        2PX         0.00414   0.00001  -0.00001   0.00001  -0.14210
  64        2PY         0.00001  -0.08726   0.10978   0.04891   0.00153
  65        2PZ        -0.00000   0.01277   0.01447   0.04544  -0.00231
  66        3S         -0.00000  -0.33602   1.33973   1.49681  -0.01827
  67        3PX        -0.03040   0.00004  -0.00005   0.00008  -0.70950
  68        3PY         0.00004  -0.38709   0.47083   0.18032   0.00780
  69        3PZ        -0.00003   0.05316   0.09765   0.30902  -0.01169
  70 11  H  1S          0.05046  -0.00326  -0.00436  -0.00835   0.05029
  71        2S          0.16251   0.06593  -0.56145  -0.78067   0.79782
  72 12  H  1S         -0.00002   0.01276  -0.00233   0.01380  -0.00061
  73        2S         -0.00009   0.55058  -0.90297  -0.55509  -0.00905
  74 13  H  1S         -0.05045  -0.00327  -0.00437  -0.00836  -0.04990
  75        2S         -0.16241   0.06587  -0.56150  -0.78061  -0.76661
  76 14  C  1S          0.00000   0.02037   0.09035  -0.10648  -0.00134
  77        2S         -0.00000  -0.00232  -0.01904   0.02807   0.00041
  78        2PX        -0.00414  -0.00001  -0.00001  -0.00001  -0.14210
  79        2PY        -0.00001   0.08726   0.10978  -0.04891   0.00153
  80        2PZ        -0.00000   0.01277  -0.01447   0.04544   0.00231
  81        3S         -0.00000  -0.33602  -1.33973   1.49681   0.01827
  82        3PX         0.03040  -0.00004  -0.00005  -0.00008  -0.70950
  83        3PY        -0.00004   0.38709   0.47083  -0.18032   0.00780
  84        3PZ        -0.00003   0.05316  -0.09765   0.30902   0.01169
  85 15  H  1S         -0.05045  -0.00327   0.00437  -0.00836   0.04990
  86        2S         -0.16241   0.06587   0.56150  -0.78061   0.76661
  87 16  H  1S          0.05046  -0.00326   0.00436  -0.00835  -0.05029
  88        2S          0.16251   0.06593   0.56145  -0.78067  -0.79782
  89 17  H  1S         -0.00002   0.01276   0.00233   0.01380   0.00061
  90        2S         -0.00009   0.55058   0.90297  -0.55509   0.00905
                          36        37        38        39        40
                           V         V         V         V         V
     Eigenvalues --     0.32960   0.34310   0.36392   0.36678   0.38301
   1 1   C  1S         -0.00811   0.02100   0.00002   0.03127  -0.02577
   2        2S         -0.02029  -0.04247   0.00001  -0.01791  -0.00213
   3        2PX        -0.00242  -0.00001   0.06554   0.00000   0.00004
   4        2PY        -0.04639  -0.02369  -0.00001  -0.07287   0.00125
   5        2PZ         0.01813  -0.03317  -0.00004   0.06294   0.09911
   6        3S          0.25584   0.05463  -0.00046  -0.39678   0.60811
   7        3PX        -0.00383  -0.00003   0.29311   0.00001   0.00015
   8        3PY        -0.03169   0.15861  -0.00003  -0.19134   0.04365
   9        3PZ         0.16403  -0.16150  -0.00004   0.26760   0.12217
  10 2   C  1S         -0.01545   0.00280   0.00004  -0.07140  -0.06753
  11        2S         -0.00749   0.00735  -0.00003   0.02343   0.04862
  12        2PX         0.00332   0.00002  -0.00251  -0.00001   0.00000
  13        2PY        -0.10372   0.02356   0.00002  -0.10405  -0.04336
  14        2PZ        -0.07049  -0.04076   0.00004  -0.01588  -0.07009
  15        3S          0.39399  -0.20009  -0.00035   1.12849   0.63302
  16        3PX         0.00833   0.00003  -0.11441   0.00001  -0.00003
  17        3PY        -0.52456  -0.20725   0.00021  -0.48811  -0.57920
  18        3PZ        -0.20098  -0.32002   0.00038   0.03247  -0.56037
  19 3   C  1S          0.00000   0.05185  -0.00006   0.00000   0.08357
  20        2S          0.00000  -0.02612   0.00003   0.00000  -0.05372
  21        2PX        -0.00363   0.00000   0.00000   0.00002   0.00000
  22        2PY        -0.02920   0.00000   0.00000  -0.00700   0.00000
  23        2PZ         0.00000   0.12722  -0.00005   0.00000   0.09638
  24        3S          0.00000  -0.62861   0.00077   0.00000  -0.95143
  25        3PX        -0.00964   0.00000   0.00000   0.00001   0.00000
  26        3PY        -0.11459   0.00000   0.00000   0.14273   0.00000
  27        3PZ         0.00000   0.79675  -0.00048   0.00000   0.98976
  28 4   C  1S          0.01545   0.00280   0.00004   0.07140  -0.06753
  29        2S          0.00749   0.00735  -0.00003  -0.02343   0.04862
  30        2PX         0.00332  -0.00002   0.00251  -0.00001  -0.00000
  31        2PY        -0.10372  -0.02356  -0.00002  -0.10405   0.04336
  32        2PZ         0.07049  -0.04076   0.00004   0.01588  -0.07009
  33        3S         -0.39399  -0.20009  -0.00035  -1.12849   0.63302
  34        3PX         0.00833  -0.00003   0.11441   0.00001   0.00003
  35        3PY        -0.52456   0.20725  -0.00021  -0.48811   0.57920
  36        3PZ         0.20098  -0.32002   0.00038  -0.03247  -0.56037
  37 5   C  1S          0.00811   0.02100   0.00002  -0.03127  -0.02577
  38        2S          0.02029  -0.04247   0.00001   0.01791  -0.00213
  39        2PX        -0.00242   0.00001  -0.06554   0.00000  -0.00004
  40        2PY        -0.04639   0.02369   0.00001  -0.07287  -0.00125
  41        2PZ        -0.01813  -0.03317  -0.00004  -0.06294   0.09911
  42        3S         -0.25584   0.05463  -0.00046   0.39678   0.60811
  43        3PX        -0.00383   0.00003  -0.29311   0.00001  -0.00015
  44        3PY        -0.03169  -0.15861   0.00003  -0.19134  -0.04365
  45        3PZ        -0.16403  -0.16150  -0.00004  -0.26760   0.12217
  46 6   N  1S          0.00000  -0.02546  -0.00003   0.00000   0.03989
  47        2S          0.00000   0.02823   0.00000   0.00000  -0.00668
  48        2PX         0.00171   0.00000   0.00000   0.00001   0.00000
  49        2PY        -0.06268   0.00000   0.00000  -0.02645   0.00000
  50        2PZ         0.00000  -0.00460  -0.00002   0.00000  -0.02938
  51        3S          0.00000   0.06458   0.00033   0.00000  -0.48683
  52        3PX         0.00404   0.00000   0.00000   0.00001   0.00000
  53        3PY        -0.00634   0.00000   0.00000  -0.12596   0.00000
  54        3PZ         0.00000   0.06376  -0.00009   0.00000   0.03943
  55 7   H  1S          0.00000  -0.00216   0.00000   0.00000  -0.00691
  56        2S          0.00000   1.12339  -0.00079   0.00000   1.39614
  57 8   H  1S         -0.01633   0.00493   0.00000  -0.02238  -0.02724
  58        2S         -0.82262  -0.17238   0.00055  -1.04106  -1.13062
  59 9   H  1S          0.01633   0.00493   0.00000   0.02238  -0.02724
  60        2S          0.82262  -0.17238   0.00055   1.04106  -1.13062
  61 10  C  1S         -0.06734   0.00362  -0.00002  -0.03123   0.05110
  62        2S          0.02083  -0.00111   0.00000   0.00969  -0.00906
  63        2PX        -0.00280  -0.00001   0.21140  -0.00001   0.00013
  64        2PY        -0.07781   0.06632   0.00002   0.07426  -0.03913
  65        2PZ         0.11740  -0.16626  -0.00004  -0.10193   0.04040
  66        3S          0.91667  -0.05085   0.00035   0.45518  -0.70549
  67        3PX        -0.01397  -0.00006   1.06278  -0.00004   0.00061
  68        3PY        -0.39704   0.30458   0.00005   0.34127  -0.08914
  69        3PZ         0.59338  -0.81830  -0.00028  -0.56293   0.32201
  70 11  H  1S         -0.00865   0.02119  -0.03033   0.02531  -0.02823
  71        2S         -0.76608   0.62402  -1.05366   0.24393   0.03592
  72 12  H  1S          0.02999  -0.03918  -0.00002  -0.04446   0.04260
  73        2S          0.45410  -0.91046  -0.00015  -0.96361   0.67553
  74 13  H  1S         -0.01064   0.02121   0.03036   0.02532  -0.02821
  75        2S         -0.79726   0.62435   1.05347   0.24418   0.03697
  76 14  C  1S          0.06734   0.00362  -0.00002   0.03123   0.05110
  77        2S         -0.02083  -0.00111   0.00000  -0.00969  -0.00906
  78        2PX        -0.00280   0.00001  -0.21140  -0.00001  -0.00013
  79        2PY        -0.07781  -0.06632  -0.00002   0.07426   0.03913
  80        2PZ        -0.11740  -0.16626  -0.00004   0.10193   0.04040
  81        3S         -0.91667  -0.05085   0.00035  -0.45518  -0.70549
  82        3PX        -0.01397   0.00006  -1.06278  -0.00004  -0.00061
  83        3PY        -0.39704  -0.30458  -0.00005   0.34127   0.08914
  84        3PZ        -0.59338  -0.81830  -0.00028   0.56293   0.32201
  85 15  H  1S          0.01064   0.02121   0.03036  -0.02532  -0.02821
  86        2S          0.79726   0.62435   1.05347  -0.24418   0.03697
  87 16  H  1S          0.00865   0.02119  -0.03033  -0.02531  -0.02823
  88        2S          0.76608   0.62402  -1.05366  -0.24393   0.03592
  89 17  H  1S         -0.02999  -0.03918  -0.00002   0.04446   0.04260
  90        2S         -0.45410  -0.91046  -0.00015   0.96361   0.67553
                          41        42        43        44        45
                           V         V         V         V         V
     Eigenvalues --     0.41724   0.43651   0.45081   0.48680   0.54860
   1 1   C  1S         -0.00000  -0.12069  -0.09573   0.01824  -0.02783
   2        2S         -0.00001   0.04548   0.03205   0.01900  -0.01754
   3        2PX        -0.19945  -0.00000  -0.00002  -0.00000   0.00001
   4        2PY         0.00002  -0.08104  -0.17524  -0.12024  -0.09790
   5        2PZ        -0.00000   0.07784   0.01066   0.11455   0.15896
   6        3S          0.00009   1.62972   1.55158  -0.46285   0.79098
   7        3PX        -0.63676  -0.00001  -0.00006  -0.00001   0.00001
   8        3PY         0.00012  -0.80250  -0.99489  -0.86551  -0.68119
   9        3PZ        -0.00002   0.51373  -0.04599   0.36687   1.27055
  10 2   C  1S         -0.00001   0.02630   0.07616   0.02970  -0.07271
  11        2S          0.00000  -0.03188  -0.02390   0.00250  -0.00992
  12        2PX         0.13731  -0.00000   0.00001  -0.00000  -0.00000
  13        2PY        -0.00000   0.05868  -0.06949  -0.06735   0.12932
  14        2PZ        -0.00001  -0.02780  -0.00522   0.06618  -0.06663
  15        3S          0.00016  -0.04202  -1.32610  -0.61547   2.07143
  16        3PX         0.48037  -0.00002   0.00003   0.00002  -0.00003
  17        3PY         0.00003   0.95009  -0.02520  -0.71960   1.30370
  18        3PZ        -0.00014  -0.22415  -0.19097   0.74577  -0.18472
  19 3   C  1S          0.00000   0.01951   0.00000  -0.10415   0.00000
  20        2S          0.00000   0.03865   0.00000   0.04229   0.00000
  21        2PX        -0.10709   0.00000  -0.00000   0.00000  -0.00000
  22        2PY         0.00003   0.00000  -0.10786   0.00000   0.13067
  23        2PZ         0.00000   0.02022   0.00000   0.21656   0.00000
  24        3S          0.00000  -1.21067   0.00000   1.84461   0.00000
  25        3PX        -0.41656   0.00000  -0.00002   0.00000  -0.00001
  26        3PY         0.00021   0.00000  -0.81169   0.00000   2.18927
  27        3PZ         0.00000  -0.54162   0.00000   1.25029   0.00000
  28 4   C  1S          0.00001   0.02630  -0.07616   0.02970   0.07271
  29        2S         -0.00000  -0.03188   0.02390   0.00250   0.00992
  30        2PX         0.13731   0.00000   0.00001   0.00000  -0.00000
  31        2PY        -0.00000  -0.05868  -0.06949   0.06735   0.12932
  32        2PZ         0.00001  -0.02780   0.00522   0.06618   0.06663
  33        3S         -0.00016  -0.04202   1.32610  -0.61547  -2.07143
  34        3PX         0.48037   0.00002   0.00003  -0.00002  -0.00003
  35        3PY         0.00003  -0.95009  -0.02520   0.71960   1.30370
  36        3PZ         0.00014  -0.22415   0.19097   0.74577   0.18472
  37 5   C  1S          0.00000  -0.12069   0.09573   0.01824   0.02783
  38        2S          0.00001   0.04548  -0.03205   0.01900   0.01754
  39        2PX        -0.19945   0.00000  -0.00002   0.00000   0.00001
  40        2PY         0.00002   0.08104  -0.17524   0.12024  -0.09790
  41        2PZ         0.00000   0.07784  -0.01066   0.11455  -0.15896
[...]
 0229624,0.0114985,-0.0341206,0.0157056,-0.0890433,-0.0171841,-0.099064
 9,-0.0345322,0.0366004,-0.0230094,-0.011469,-0.0341407,0.0157672,0.089
 0214,0.0171966,0.099039,-0.0346283,-0.0866805,0.0338299,-0.0000314,0.1
 31041,-0.0173137,0.0000319,-0.0000435,0.0000138,0.079635\Polar=88.2634
 247,-0.0000004,76.6116626,0.0001003,0.,33.2417079\PolarDeriv=-3.446193
 6,-3.2728963,-0.999304,-0.0000461,0.0003714,1.000016,-4.3354864,-1.210
 9704,-2.5897059,0.0003731,-0.0002049,-0.13588,-0.0010646,-0.00011,-0.0
 006442,-1.3653156,-2.6167392,0.0000205,-0.3628531,2.3418982,-2.2810583
 ,0.0004044,-0.0002903,0.1595508,3.3307146,2.792835,3.177461,-0.0001934
 ,0.0000485,-0.1786001,0.0008246,-0.0003884,0.0002259,-3.6206874,1.9492
 042,0.0004907,0.0000001,-4.781194,-0.0000012,0.,0.0002352,-0.0000004,2
 .0870425,0.0000007,-0.1488784,0.0001153,0.,-0.3127489,0.,0.0002088,0.,
 0.0000001,2.8415631,0.,0.3628536,2.3418982,2.2810582,-0.0004044,-0.000
 2903,-0.1595508,3.3307142,-2.7928352,3.1774612,-0.0001934,-0.0000485,-
 0.1786001,-0.0008246,-0.0003884,-0.0002259,3.6206876,1.949204,-0.00049
 07,3.4461929,-3.2728964,0.9993042,0.0000461,0.0003714,-1.0000161,-4.33
 54865,1.2109707,-2.5897061,0.0003731,0.0002049,-0.13588,0.0010646,-0.0
 0011,0.0006442,1.3653154,-2.6167393,-0.0000205,0.0000005,4.2489347,-0.
 0000008,0.,0.0001084,0.,-2.0003786,0.000003,-7.6413703,-0.0000197,0.,0
 .1048015,-0.0000002,0.0001174,0.0000003,0.0000002,-1.3849473,-0.000000
 1,0.,1.4628903,0.0000003,0.,-0.000019,0.,0.156114,0.0000002,10.8770322
 ,0.000002,0.,0.4407305,0.,-0.0000553,0.,0.0000002,1.7286068,0.,-7.1651
 996,3.0549114,-1.6457446,-0.0002629,0.0001001,-0.3242383,2.6666428,-2.
 7201649,2.6435053,0.0001124,-0.0001482,0.1985731,-0.0004532,0.0001967,
 -0.0002241,-1.0639774,0.6748742,-0.0002996,7.1652002,3.0549112,1.64574
 44,0.0002629,0.0001001,0.3242384,2.6666427,2.7201647,2.6435048,0.00011
 24,0.0001482,0.1985731,0.0004532,0.0001967,0.0002241,1.0639775,0.67487
 42,0.0002996,-1.4784772,-1.7978246,-0.5718222,-0.0001561,-0.0011774,0.
 4387663,-2.340655,-3.2243229,3.2763047,-0.001208,-0.0012626,3.6469242,
 -0.0001345,-0.0012301,-0.0012593,-2.5107622,5.6490716,0.0028915,1.2375
 63,-1.2763701,0.3562532,-2.2107406,0.3979701,0.0729726,-0.7742159,2.22
 56342,-5.0749714,0.8278155,-2.7412296,-1.6425259,-1.4556871,1.1987813,
 -1.9035183,1.7417982,-3.6964954,-5.1072161,7.6059105,1.7615585,0.22346
 86,0.0010884,0.0001896,0.2599842,2.1058953,1.8299845,2.1015894,0.00031
 85,0.0007126,-0.3622594,0.0007364,0.0002971,0.000263,2.3813968,0.14417
 6,0.0006658,1.2357836,-1.2765917,0.3560837,2.2098771,-0.3973257,0.0726
 558,-0.774284,2.2255023,-5.0775751,-0.8272669,2.7415839,-1.6426236,1.4
 545006,-1.1976838,1.9041395,1.7405848,-3.6966999,5.1037424,1.4784769,-
 1.7978245,0.5718226,0.0001561,-0.0011774,-0.4387661,-2.3406547,3.22432
 34,3.2763043,-0.001208,0.0012626,3.6469242,0.0001345,-0.0012301,0.0012
 593,2.5107625,5.6490715,-0.0028915,-1.2357838,-1.2765918,-0.3560839,-2
 .2098772,-0.3973257,-0.0726559,-0.7742842,-2.2255025,-5.0775748,-0.827
 2669,-2.7415838,-1.6426236,-1.4545008,-1.1976838,-1.9041393,-1.740585,
 -3.6966998,-5.1037424,-1.2375632,-1.2763701,-0.3562534,2.2107406,0.397
 9701,-0.0729727,-0.7742161,-2.2256344,-5.0749711,0.8278155,2.7412295,-
 1.6425259,1.4556872,1.1987814,1.9035181,-1.7417984,-3.6964953,5.107216
 1,-7.6059101,1.7615588,-0.2234687,-0.0010884,0.0001896,-0.2599842,2.10
 58956,-1.8299846,2.1015896,0.0003185,-0.0007126,-0.3622594,-0.0007364,
 0.0002971,-0.000263,-2.3813968,0.1441762,-0.0006658\HyperPolar=0.00000
 78,80.7495959,-0.0000048,11.9737493,0.,0.0072379,0.,-0.0000017,-53.090
 842,0.\Quadrupole=3.658855,-0.1298563,-3.5289986,-0.0000001,0.0000349,
 0.\PG=C02 [C2(H1C1N1),X(C6H8)]\NImag=0\\0.74827579,0.02025807,0.725596
 75,0.00000021,-0.00000254,0.26326097,-0.17204215,0.04826541,-0.0000013
 2,0.84472652,-0.05110968,-0.32550196,-0.00000102,-0.05351031,0.7455410
 6,-0.00000180,0.00000171,-0.10733791,0.00001931,-0.00000838,0.18812878
 ,0.06883512,-0.11792362,0.00000105,-0.30851105,-0.03852908,-0.00000281
 ,0.73056139,-0.04632831,-0.03625377,0.00000049,-0.12524323,-0.21655986
 ,-0.00000130,0.,0.86028040,-0.00000016,-0.00000121,0.01489703,-0.00000
 188,-0.00000028,-0.09429247,0.00000784,0.,0.20031227,-0.03053718,0.044
 59226,-0.00000067,-0.07227481,-0.03165133,-0.00000159,-0.30851103,0.12
 524324,-0.00000188,0.84472653,0.06250908,-0.09062707,0.00000064,0.0316
 5134,0.09970880,0.00000098,0.03852910,-0.21655988,0.00000028,0.0535103
 1,0.74554105,-0.00000006,0.00000182,-0.01465084,-0.00000159,-0.0000009
 8,0.01382753,-0.00000281,0.00000130,-0.09429247,0.00001931,0.00000838,
 0.18812878,-0.12819614,0.04529755,-0.00000159,-0.03053719,-0.06250909,
 -0.00000006,0.06883512,0.04632830,-0.00000016,-0.17204215,0.05110967,-
 0.00000180,0.74827578,-0.04529753,0.10275716,-0.00000129,-0.04459226,-
 0.09062706,-0.00000182,0.11792360,-0.03625378,0.00000121,-0.04826542,-
 0.32550196,-0.00000171,-0.02025807,0.72559675,-0.00000159,0.00000129,0
 .00871393,-0.00000067,-0.00000064,-0.01465084,0.00000105,-0.00000049,0
 .01489703,-0.00000132,0.00000102,-0.10733791,0.00000021,0.00000254,0.2
 6326097,-0.28809389,0.04925995,-0.00000153,0.04402907,0.13340978,0.000
 00065,-0.12847019,0.,-0.00000046,0.04402906,-0.13340978,0.00000065,-0.
 28809391,-0.04925995,-0.00000153,0.71798606,0.10590031,-0.20061431,0.0
 0000005,0.04731455,-0.03405155,0.00000228,0.,0.00224921,0.,-0.04731454
 ,-0.03405157,-0.00000228,-0.10590033,-0.20061429,-0.00000005,0.,0.4527
 7148,-0.00000102,-0.00000252,-0.09987678,0.00000174,0.00000331,0.03492
 876,-0.00000392,0.,-0.01338905,0.00000175,-0.00000331,0.03492877,-0.00
 000102,0.00000252,-0.09987678,0.00000420,0.,0.12614731,-0.00607620,-0.
 00290395,-0.00000003,0.00705681,-0.03500029,-0.00000003,-0.07549936,0.
 ,-0.00000009,0.00705681,0.03500029,-0.00000003,-0.00607620,0.00290395,
 -0.00000003,-0.00070217,0.,-0.00000003,0.07184745,-0.00302613,0.000815
 26,-0.00000003,0.00418531,-0.01292295,0.00000003,-0.00000001,-0.376331
 65,0.,-0.00418531,-0.01292295,-0.00000003,0.00302613,0.00081525,0.0000
 0003,0.,0.00088573,0.,0.00000001,0.39918327,0.,-0.00000067,0.01021090,
 0.00000051,0.00000054,0.00890312,-0.00000155,0.,-0.05665353,0.00000051
 ,-0.00000054,0.00890312,0.,0.00000067,0.01021091,-0.00000055,0.,-0.004
 17281,0.00000023,0.,0.03497681,0.00111598,-0.00377492,-0.00000033,-0.3
 0834451,0.13059178,-0.00001311,-0.02183734,0.01962287,-0.00000119,-0.0
 0296751,-0.00452462,-0.00000052,0.00055030,-0.00098048,-0.00000006,0.0
 0216796,-0.00081925,-0.00000033,0.00105023,-0.00048455,0.00000035,0.32
 780874,0.03760157,-0.01026123,0.00000170,0.12820360,-0.14570957,0.0000
 0670,-0.02069078,0.01487834,-0.00000051,-0.00407460,-0.00176415,0.0000
 0020,-0.00202997,-0.00127450,-0.00000002,0.00086222,-0.00751640,0.0000
 0004,0.00067568,0.00103420,-0.00000011,-0.13934258,0.14895076,-0.00000
 010,-0.00000116,0.00487818,-0.00001593,0.00000850,-0.05132494,0.000000
 79,0.00000053,0.00599320,-0.00000009,0.00000034,0.00937843,-0.00000023
 ,-0.00000016,0.00007030,0.00000020,-0.00000038,0.00820267,0.00000005,-
 0.00000002,-0.00541641,0.00001488,-0.00000775,0.03390272,0.00055030,0.
 00098048,-0.00000006,-0.00296751,0.00452462,-0.00000052,-0.02183734,-0
 .01962287,-0.00000119,-0.30834453,-0.13059177,-0.00001311,0.00111597,0
 .00377492,-0.00000033,0.00216796,0.00081925,-0.00000033,0.00105023,0.0
 0048455,0.00000035,-0.00107741,-0.00087107,0.,0.32780875,0.00202997,-0
 .00127450,0.00000002,0.00407460,-0.00176415,-0.00000020,0.02069078,0.0
 1487834,0.00000051,-0.12820359,-0.14570955,-0.00000670,-0.03760157,-0.
 01026122,-0.00000170,-0.00086222,-0.00751638,-0.00000004,-0.00067568,0
 .00103420,0.00000011,0.00087107,0.00050501,0.,0.13934257,0.14895074,-0
 .00000023,0.00000016,0.00007030,-0.00000009,-0.00000034,0.00937843,0.0
 0000079,-0.00000053,0.00599320,-0.00001593,-0.00000850,-0.05132494,-0.
 00000010,0.00000116,0.00487818,0.00000020,0.00000038,0.00820267,0.0000
 0005,0.00000002,-0.00541641,0.,0.,0.00021431,0.00001488,0.00000775,0.0
 3390272,0.00102526,-0.00408471,0.00000039,0.00061908,0.00188640,0.0000
 0005,-0.00169154,-0.00272685,-0.00000069,0.00387602,-0.00074543,-0.000
 00004,-0.16827008,0.05479084,0.00000132,-0.04834026,0.01711966,0.00000
 003,0.00053081,-0.00042508,0.00000006,0.00002856,0.00020084,0.00000007
 ,0.00050482,-0.00117994,0.00000054,0.57804330,-0.00556817,-0.00152948,
 0.00000084,0.00136706,0.00009089,0.,-0.00324021,-0.00449713,-0.0000006
 9,0.03563594,-0.01848686,-0.00000126,0.05444364,-0.14043554,0.00000103
 ,-0.02171340,0.01295111,-0.00000050,0.00105106,-0.00056445,0.00000004,
 0.00001582,0.00009942,0.,0.00052618,0.00098244,0.00000048,0.07049402,0
 .61093366,-0.00000143,-0.00000014,0.01044378,0.00000104,-0.00000010,0.
 00000530,-0.00000108,0.00000102,0.00916414,-0.00000087,-0.00000004,0.0
 1361620,0.00000132,0.00000063,-0.09429044,-0.00000141,0.00000077,-0.00
 153326,-0.00000010,0.00000005,-0.00087307,0.00000004,-0.00000003,-0.00
 170878,0.00000007,-0.00000011,-0.00504930,0.00000959,-0.00001568,0.614
 60300,0.00059015,0.00010330,-0.00117796,-0.00050366,0.00014725,0.00029
 587,0.00012385,0.00035934,-0.00119433,-0.00295084,0.00069203,-0.000842
 81,-0.00313810,0.02381375,0.03089240,0.00215726,-0.00063710,-0.0012847
 3,-0.00019770,0.00014494,0.00004528,-0.00000914,-0.00005501,0.00010262
 ,0.00013762,0.00022031,0.00028358,-0.05870716,-0.00159691,0.00034260,0
 .06135260,0.00093691,-0.00111734,0.00128344,0.00023706,0.00081968,-0.0
 0006916,-0.00057605,-0.00057076,0.00125698,0.00305346,-0.00098493,0.00
 072540,0.00233833,-0.01738019,-0.01889314,-0.00337934,0.00153626,0.000
 21718,0.00019160,-0.00013571,-0.00011698,0.00005400,0.00003790,-0.0002
 5113,0.00006982,0.00021976,-0.00072207,0.00093196,-0.15111730,-0.13611
 666,-0.00448289,0.16654155,0.00054970,-0.00032448,0.00011973,0.0001347
 1,0.00040010,-0.00004665,-0.00039564,0.00004377,-0.00033223,0.00013494
 ,0.00016154,-0.00045677,-0.00079778,0.00207645,0.00307133,-0.00039094,
 0.00062401,0.00101562,0.00001638,-0.00000084,0.00004328,0.00001843,0.0
 0001263,-0.00001368,-0.00001021,0.00007385,0.00017955,0.00192984,-0.13
 634318,-0.24257125,0.00016042,0.15094413,0.26432745,0.00019626,-0.0011
 4563,0.00000051,0.00007173,0.00067979,0.00000005,-0.00033946,0.0001081
 2,0.00000034,0.00120957,-0.00156348,0.00000044,-0.02169523,-0.02340209
 ,-0.00000624,-0.00848616,0.00372828,-0.00000094,0.00001093,0.00003963,
 -0.00000004,0.00003582,0.00015731,-0.00000009,0.00070738,0.00132139,-0
 .00000024,-0.24807236,-0.12895398,-0.00004840,0.00150931,0.00107066,-0
 .00104872,0.27365232,0.00087830,0.00057703,-0.00000052,-0.00012318,-0.
 00005605,0.00000001,0.00016433,0.00047550,0.00000015,0.00032226,0.0006
 7004,-0.00000002,0.02060811,0.01375381,0.00000624,0.00477370,-0.001795
 63,-0.00000012,-0.00009459,0.00004073,0.00000001,-0.00003344,-0.000001
 88,0.,0.00058386,-0.00043808,-0.00000015,-0.13742863,-0.15774951,-0.00
 003375,-0.01824469,-0.01291035,0.00185748,0.14663222,0.17046789,0.0000
 0052,-0.00000044,0.00039542,-0.00000001,0.00000026,-0.00003884,-0.0000
 0006,0.00000003,-0.00023213,-0.00000005,0.00000011,-0.00013644,0.00000
 316,0.00000099,-0.00309693,0.00000056,-0.00000026,0.00195493,-0.000000
 01,0.,0.00001369,0.00000002,0.,-0.00001874,0.00000003,0.00000018,0.000
 54634,-0.00004994,-0.00003282,-0.05910706,-0.02792720,-0.01776601,0.00
 172989,0.00005429,0.00003917,0.05630315,0.00058988,0.00010332,0.001176
 97,-0.00050353,0.00014676,-0.00029587,0.00012449,0.00036006,0.00119427
 ,-0.00295355,0.00069346,0.00084227,-0.00312972,0.02382503,-0.03088311,
 0.00215919,-0.00063724,0.00128511,-0.00019784,0.00014499,-0.00004522,-
 0.00000913,-0.00005506,-0.00010254,0.00013765,0.00022041,-0.00028353,-
 0.05870887,-0.00162784,-0.00030124,-0.00037854,-0.00048015,-0.00033960
 ,0.00150371,-0.01825584,0.02791869,0.06135191,0.00093683,-0.00111650,-
 0.00128329,0.00023659,0.00081944,0.00006921,-0.00057569,-0.00057129,-0
 .00125633,0.00305487,-0.00098494,-0.00072407,0.00233114,-0.01738813,0.
 01888436,-0.00338022,0.00153730,-0.00021797,0.00019172,-0.00013575,0.0
 0011686,0.00005400,0.00003795,0.00025112,0.00006984,0.00022002,0.00072
 162,0.00090458,-0.15124466,0.13616398,-0.00047605,0.01500213,-0.019530
 92,0.00106722,-0.01291667,0.01775874,-0.00444956,0.16668181,-0.0005494
 9,0.00032443,0.00011953,-0.00013531,-0.00040031,-0.00004658,0.00039656
 ,-0.00004433,-0.00033239,-0.00013455,-0.00016092,-0.00045671,0.0007987
 8,-0.00208183,0.00307182,0.00039087,-0.00062419,0.00101532,-0.00001630
 ,0.00000079,0.00004325,-0.00001841,-0.00001264,-0.00001361,0.00001034,
 -0.00007371,0.00017975,-0.00189116,0.13639188,-0.24245693,0.00034493,0
 .01954963,-0.02708153,0.00104907,-0.00186852,0.00174391,-0.00020691,-0
 .15099485,0.26419894,-0.16827009,-0.05479084,0.00000132,0.00387602,0.0
 0074542,-0.00000004,-0.00169154,0.00272685,-0.00000069,0.00061908,-0.0
 0188640,0.00000005,0.00102526,0.00408471,0.00000039,-0.04834027,-0.017
 11965,0.00000002,0.00053081,0.00042508,0.00000006,0.00050482,0.0011799
 4,0.00000054,0.00002856,-0.00020084,0.00000007,-0.00052536,-0.00042813
 ,-0.00000007,-0.00003300,0.00000833,0.00000664,-0.00024623,0.00014909,
 -0.00000002,-0.00003298,0.00000838,-0.00000663,0.57804329,-0.05444364,
 -0.14043554,-0.00000103,-0.03563595,-0.01848686,0.00000126,0.00324021,
 -0.00449713,0.00000069,-0.00136706,0.00009089,0.,0.00556817,-0.0015294
 8,-0.00000084,0.02171340,0.01295112,0.00000051,-0.00105106,-0.00056445
 ,-0.00000004,-0.00052618,0.00098244,-0.00000048,-0.00001582,0.00009942
 ,0.,0.00042813,0.00075143,0.00000012,0.00004092,-0.00000402,-0.0000133
 7,0.00032338,-0.00017598,0.,0.00004080,-0.00000402,0.00001336,-0.07049
 402,0.61093367,0.00000132,-0.00000063,-0.09429044,-0.00000087,0.000000
 04,0.01361620,-0.00000109,-0.00000102,0.00916414,0.00000104,0.00000010
 ,0.00000530,-0.00000143,0.00000014,0.01044378,-0.00000141,-0.00000077,
 -0.00153328,-0.00000010,-0.00000005,-0.00087308,0.00000007,0.00000011,
 -0.00504930,0.00000004,0.00000003,-0.00170878,-0.00000007,-0.00000012,
 -0.00019141,-0.00002559,-0.00005254,0.00000398,-0.00000006,0.00000002,
 -0.00005897,0.00002559,0.00005257,0.00000401,0.00000959,0.00001568,0.6
 1460300,-0.00312973,-0.02382503,-0.03088311,-0.00295355,-0.00069346,0.
 00084227,0.00012449,-0.00036006,0.00119427,-0.00050353,-0.00014676,-0.
 00029587,0.00058988,-0.00010332,0.00117697,0.00215919,0.00063724,0.001
 28511,-0.00019784,-0.00014499,-0.00004522,0.00013765,-0.00022041,-0.00
 028353,-0.00000913,0.00005506,-0.00010254,-0.00003298,-0.00004080,0.00
 002559,-0.00002460,0.00003315,0.00002554,0.00003940,0.00000650,-0.0000
 0689,0.00003254,-0.00001052,-0.00000352,-0.05870887,0.00162784,-0.0003
 0125,0.06135191,-0.00233114,-0.01738813,-0.01888436,-0.00305487,-0.000
 98494,0.00072407,0.00057570,-0.00057129,0.00125633,-0.00023659,0.00081
 944,-0.00006921,-0.00093683,-0.00111650,0.00128329,0.00338022,0.001537
 30,0.00021798,-0.00019172,-0.00013575,-0.00011686,-0.00006984,0.000220
 02,-0.00072162,-0.00005400,0.00003795,-0.00025112,-0.00000838,-0.00000
 402,-0.00005257,-0.00003320,0.00004371,0.00000794,-0.00000367,-0.00000
 249,-0.00000184,0.00001052,0.00002208,0.00000492,-0.00090459,-0.151244
 66,-0.13616398,0.00444957,0.16668181,0.00079878,0.00208183,0.00307182,
 -0.00013455,0.00016092,-0.00045671,0.00039656,0.00004433,-0.00033238,-
 0.00013531,0.00040031,-0.00004658,-0.00054949,-0.00032443,0.00011953,0
 .00039087,0.00062418,0.00101533,-0.00001630,-0.00000079,0.00004325,0.0
 0001034,0.00007371,0.00017975,-0.00001841,0.00001264,-0.00001361,-0.00
 000663,-0.00001336,0.00000401,-0.00002551,0.00000791,0.00002939,-0.000
 00276,0.00001580,0.00000499,-0.00000352,-0.00000492,-0.00002312,-0.001
 89117,-0.13639188,-0.24245693,-0.00020690,0.15099485,0.26419894,-0.003
 13810,-0.02381375,0.03089240,-0.00295084,-0.00069203,-0.00084281,0.000
 12385,-0.00035934,-0.00119433,-0.00050366,-0.00014725,0.00029587,0.000
 59015,-0.00010330,-0.00117796,0.00215726,0.00063709,-0.00128472,-0.000
 19770,-0.00014494,0.00004528,0.00013762,-0.00022031,0.00028358,-0.0000
 0914,0.00005501,0.00010262,-0.00003300,-0.00004092,-0.00002559,0.00003
 260,-0.00001052,0.00000350,0.00003936,0.00000650,0.00000692,-0.0000246
 0,0.00003320,-0.00002551,-0.05870716,0.00159690,0.00034261,-0.00037854
 ,0.00047605,0.00034493,0.06135260,-0.00233833,-0.01738019,0.01889313,-
 0.00305346,-0.00098493,-0.00072540,0.00057605,-0.00057076,-0.00125698,
 -0.00023706,0.00081968,0.00006916,-0.00093691,-0.00111734,-0.00128344,
 0.00337934,0.00153626,-0.00021719,-0.00019160,-0.00013571,0.00011698,-
 0.00006982,0.00021976,0.00072207,-0.00005400,0.00003790,0.00025113,-0.
 00000833,-0.00000402,0.00005254,0.00001052,0.00002210,-0.00000492,-0.0
 0000366,-0.00000251,0.00000186,-0.00003315,0.00004371,-0.00000791,-0.0
 0093197,-0.15111730,0.13611666,0.00048015,0.01500213,-0.01954963,0.004
 48289,0.16654155,-0.00079778,-0.00207645,0.00307133,0.00013494,-0.0001
 6154,-0.00045677,-0.00039564,-0.00004377,-0.00033223,0.00013471,-0.000
 40010,-0.00004665,0.00054970,0.00032448,0.00011973,-0.00039094,-0.0006
 2401,0.00101563,0.00001638,0.00000084,0.00004329,-0.00001021,-0.000073
 85,0.00017955,0.00001843,-0.00001263,-0.00001368,0.00000664,0.00001337
 ,0.00000398,0.00000350,0.00000492,-0.00002308,0.00000279,-0.00001580,0
 .00000500,0.00002554,-0.00000794,0.00002939,0.00192985,0.13634318,-0.2
 4257125,-0.00033960,0.01953092,-0.02708153,0.00016041,-0.15094413,0.26
 432745,-0.02169523,0.02340210,-0.00000624,0.00120957,0.00156348,0.0000
 0044,-0.00033946,-0.00010812,0.00000034,0.00007173,-0.00067979,0.00000
 005,0.00019626,0.00114563,0.00000051,-0.00848616,-0.00372828,-0.000000
 93,0.00001093,-0.00003963,-0.00000004,0.00070738,-0.00132139,-0.000000
 24,0.00003582,-0.00015731,-0.00000009,-0.00024623,-0.00032338,-0.00000
 006,0.00003936,0.00000366,0.00000279,-0.00013636,0.00005549,0.,0.00003
 940,0.00000367,-0.00000276,-0.24807234,0.12895399,-0.00004840,0.001503
 71,-0.00106722,0.00104907,0.00150931,-0.00107066,-0.00104872,0.2736523
 0,-0.02060811,0.01375381,-0.00000624,-0.00032226,0.00067004,0.00000002
 ,-0.00016433,0.00047550,-0.00000015,0.00012318,-0.00005605,-0.00000001
 ,-0.00087830,0.00057703,0.00000052,-0.00477370,-0.00179563,0.00000012,
 0.00009459,0.00004073,-0.00000001,-0.00058386,-0.00043808,0.00000015,0
 .00003344,-0.00000188,0.,-0.00014909,-0.00017598,-0.00000002,-0.000006
 50,-0.00000251,0.00001580,-0.00005549,0.00006415,0.,-0.00000650,-0.000
 00249,-0.00001580,0.13742863,-0.15774952,0.00003375,0.01825584,-0.0129
 1667,0.00186852,0.01824469,-0.01291035,-0.00185748,-0.14663223,0.17046
 791,0.00000316,-0.00000099,-0.00309693,-0.00000005,-0.00000011,-0.0001
 3644,-0.00000006,-0.00000003,-0.00023213,-0.00000001,-0.00000026,-0.00
 003884,0.00000052,0.00000044,0.00039542,0.00000056,0.00000026,0.001954
 93,-0.00000001,0.,0.00001369,0.00000003,-0.00000018,0.00054634,0.00000
 002,0.,-0.00001874,-0.00000002,0.,-0.00005897,0.00000692,-0.00000186,0
 .00000500,0.,0.,-0.00000820,-0.00000689,0.00000184,0.00000499,-0.00004
 994,0.00003282,-0.05910706,0.02791869,-0.01775874,0.00174391,-0.027927
 20,0.01776601,0.00172989,0.00005429,-0.00003917,0.05630315\\0.00001226
 ,0.00000260,-0.00000146,-0.00000059,-0.00000073,0.00000719,0.,-0.00000
 252,0.,0.00000059,-0.00000073,-0.00000719,-0.00001226,0.00000260,0.000
 00146,0.,0.00000857,0.,0.,0.00000234,0.,-0.00000010,-0.00000097,-0.000
 00312,0.00000010,-0.00000097,0.00000312,0.00000824,-0.00000126,0.00000
 294,-0.00000131,-0.00000185,-0.00000270,0.,0.00000111,-0.00000054,0.00
 000080,-0.00000309,0.00000138,-0.00000824,-0.00000126,-0.00000294,-0.0
 0000080,-0.00000309,-0.00000138,0.00000131,-0.00000185,0.00000270,0.,0
 .00000111,0.00000054\\\@


 THE PROBLEM WITH THE LADDER OF SUCCESS IS YOU CAN'T
 CLIMB IT WHILE YOU'RE TWIDDLING YOUR THUMBS.
 Job cpu time:       0 days  0 hours  0 minutes  5.6 seconds.
 Elapsed time:       0 days  0 hours  0 minutes  5.6 seconds.
 File lengths (MBytes):  RWF=     17 Int=      0 D2E=      0 Chk=      2 Scr=      1
 Normal termination of Gaussian 16 at Mon Jun 16 16:40:59 2025.
