 Entering Gaussian System, Link 0=g16
 Input=/home/gaussian/Documents/Summer_Internship/Acid_Base_adduct/Base/2,6-dimeth-pyridine/26DMP_ion_sp.com
 Output=/home/gaussian/Documents/Summer_Internship/Acid_Base_adduct/Base/2,6-dimeth-pyridine/26DMP_ion_sp.log
 Initial command:
 /usr/local/g16/l1.exe "/home/gaussian/tmp/Gau-74055.inp" -scrdir="/home/gaussian/tmp/"
 Entering Link 1 = /usr/local/g16/l1.exe PID=     74058.
  
 Copyright (c) 1988-2017, Gaussian, Inc.  All Rights Reserved.
  
 This is part of the Gaussian(R) 16 program.  It is based on
 the Gaussian(R) 09 system (copyright 2009, Gaussian, Inc.),
 the Gaussian(R) 03 system (copyright 2003, Gaussian, Inc.),
 the Gaussian(R) 98 system (copyright 1998, Gaussian, Inc.),
 the Gaussian(R) 94 system (copyright 1995, Gaussian, Inc.),
 the Gaussian 92(TM) system (copyright 1992, Gaussian, Inc.),
 the Gaussian 90(TM) system (copyright 1990, Gaussian, Inc.),
 the Gaussian 88(TM) system (copyright 1988, Gaussian, Inc.),
 the Gaussian 86(TM) system (copyright 1986, Carnegie Mellon
 University), and the Gaussian 82(TM) system (copyright 1983,
 Carnegie Mellon University). Gaussian is a federally registered
 trademark of Gaussian, Inc.
  
 This software contains proprietary and confidential information,
 including trade secrets, belonging to Gaussian, Inc.
  
 This software is provided under written license and may be
 used, copied, transmitted, or stored only in accord with that
 written license.
  
 The following legend is applicable only to US Government
 contracts under FAR:
  
                    RESTRICTED RIGHTS LEGEND
  
 Use, reproduction and disclosure by the US Government is
 subject to restrictions as set forth in subparagraphs (a)
 and (c) of the Commercial Computer Software - Restricted
 Rights clause in FAR 52.227-19.
  
 Gaussian, Inc.
 340 Quinnipiac St., Bldg. 40, Wallingford CT 06492
  
  
 ---------------------------------------------------------------
 Warning -- This program may not be used in any manner that
 competes with the business of Gaussian, Inc. or will provide
 assistance to any competitor of Gaussian, Inc.  The licensee
 of this program is prohibited from giving any competitor of
 Gaussian, Inc. access to this program.  By using this program,
 the user acknowledges that Gaussian, Inc. is engaged in the
 business of creating and licensing software in the field of
 computational chemistry and represents and warrants to the
 licensee that it is not a competitor of Gaussian, Inc. and that
 it will not use this program in any manner prohibited above.
 ---------------------------------------------------------------
  

 Cite this work as:
 Gaussian 16, Revision B.01,
 M. J. Frisch, G. W. Trucks, H. B. Schlegel, G. E. Scuseria, 
 M. A. Robb, J. R. Cheeseman, G. Scalmani, V. Barone, 
 G. A. Petersson, H. Nakatsuji, X. Li, M. Caricato, A. V. Marenich, 
 J. Bloino, B. G. Janesko, R. Gomperts, B. Mennucci, H. P. Hratchian, 
 J. V. Ortiz, A. F. Izmaylov, J. L. Sonnenberg, D. Williams-Young, 
 F. Ding, F. Lipparini, F. Egidi, J. Goings, B. Peng, A. Petrone, 
 T. Henderson, D. Ranasinghe, V. G. Zakrzewski, J. Gao, N. Rega, 
 G. Zheng, W. Liang, M. Hada, M. Ehara, K. Toyota, R. Fukuda, 
 J. Hasegawa, M. Ishida, T. Nakajima, Y. Honda, O. Kitao, H. Nakai, 
 T. Vreven, K. Throssell, J. A. Montgomery, Jr., J. E. Peralta, 
 F. Ogliaro, M. J. Bearpark, J. J. Heyd, E. N. Brothers, K. N. Kudin, 
 V. N. Staroverov, T. A. Keith, R. Kobayashi, J. Normand, 
 K. Raghavachari, A. P. Rendell, J. C. Burant, S. S. Iyengar, 
 J. Tomasi, M. Cossi, J. M. Millam, M. Klene, C. Adamo, R. Cammi, 
 J. W. Ochterski, R. L. Martin, K. Morokuma, O. Farkas, 
 J. B. Foresman, and D. J. Fox, Gaussian, Inc., Wallingford CT, 2016.
 
 ******************************************
 Gaussian 16:  EM64L-G16RevB.01 20-Dec-2017
                16-Jun-2025 
 ******************************************
 %chk=26DMP_ion_sp.chk
 -------------------------------------
 # hf/3-21g pop=full geom=connectivity
 -------------------------------------
 1/38=1,57=2,172=1/1;
 2/12=2,17=6,18=5,40=1/2;
 3/5=5,11=9,25=1,30=1/1,2,3;
 4//1;
 5/5=2,38=5/2;
 6/7=3,28=1/1;
 99/5=1,9=1/99;
 --------------
 2,6 DMP ion sp
 --------------
 Symbolic Z-matrix:
 Charge =  1 Multiplicity = 1
 C                     0.        1.19671   0.22137 
 C                     0.        1.2045   -1.15067 
 C                     0.        0.       -1.83731 
 C                     0.       -1.2045   -1.15067 
 C                     0.       -1.19671   0.22137 
 N                     0.        0.        0.84805 
 H                     0.        0.       -2.90846 
 H                    0.         2.13668  -1.67222 
 H                     0.       -2.13668  -1.67222 
 C                    -0.00002  -2.43526   1.07505 
 H                    -0.88186  -2.45989   1.7062 
 H                     0.00017  -3.3189    0.45543 
 H                     0.88159  -2.45972   1.70652 
 C                     0.00002   2.43526   1.07505 
 H                    -0.88159   2.45972   1.70652 
 H                     0.88186   2.45989   1.7062 
 H                    -0.00017   3.3189    0.45543 
 H                     0.        0.        1.85509 
 
                          Input orientation:                          
 ---------------------------------------------------------------------
 Center     Atomic      Atomic             Coordinates (Angstroms)
 Number     Number       Type             X           Y           Z
 ---------------------------------------------------------------------
      1          6           0        0.000000    1.196710    0.221373
      2          6           0        0.000000    1.204498   -1.150672
      3          6           0        0.000000    0.000000   -1.837312
      4          6           0        0.000000   -1.204498   -1.150672
      5          6           0        0.000000   -1.196710    0.221373
      6          7           0        0.000000    0.000000    0.848054
      7          1           0        0.000000    0.000000   -2.908463
      8          1           0       -0.000001    2.136677   -1.672223
      9          1           0        0.000001   -2.136677   -1.672223
     10          6           0       -0.000023   -2.435258    1.075053
     11          1           0       -0.881858   -2.459886    1.706196
     12          1           0        0.000172   -3.318896    0.455430
     13          1           0        0.881586   -2.459720    1.706515
     14          6           0        0.000023    2.435258    1.075053
     15          1           0       -0.881586    2.459720    1.706515
     16          1           0        0.881858    2.459886    1.706196
     17          1           0       -0.000172    3.318896    0.455430
     18          1           0        0.000000    0.000000    1.855087
 ---------------------------------------------------------------------
                    Distance matrix (angstroms):
                    1          2          3          4          5
     1  C    0.000000
     2  C    1.372067   0.000000
     3  C    2.381239   1.386467   0.000000
     4  C    2.765557   2.408996   1.386467   0.000000
     5  C    2.393420   2.765557   2.381239   1.372067   0.000000
     6  N    1.350868   2.333607   2.685366   2.333607   1.350868
     7  H    3.350819   2.130879   1.071151   2.130879   3.350819
     8  H    2.114059   1.068163   2.143045   3.381637   3.833689
     9  H    3.833689   3.381637   2.143045   1.068163   2.114059
    10  C    3.730946   4.266342   3.796360   2.543349   1.504251
    11  H    4.043893   4.729385   4.402858   3.242741   2.139623
    12  H    4.521668   4.800068   4.033824   2.655229   2.135054
    13  H    4.043800   4.729398   4.402968   3.242884   2.139634
    14  C    1.504251   2.543349   3.796360   4.266342   3.730946
    15  H    2.139634   3.242884   4.402968   4.729398   4.043800
    16  H    2.139623   3.242741   4.402858   4.729385   4.043893
    17  H    2.135054   2.655229   4.033824   4.800068   4.521668
    18  H    2.025126   3.238117   3.692399   3.238117   2.025126
                    6          7          8          9         10
     6  N    0.000000
     7  H    3.756517   0.000000
     8  H    3.304116   2.468538   0.000000
     9  H    3.304116   2.468538   4.273354   0.000000
    10  C    2.445815   4.668927   5.333865   2.763454   0.000000
    11  H    2.750476   5.303187   5.772329   3.506544   1.084703
    12  H    3.342039   4.725553   5.855782   2.434040   1.079235
    13  H    2.750340   5.303342   5.772342   3.506768   1.084701
    14  C    2.445815   4.668927   2.763454   5.333865   4.870516
    15  H    2.750340   5.303342   3.506768   5.772342   5.013652
    16  H    2.750476   5.303187   3.506544   5.772329   5.013830
    17  H    3.342039   4.725553   2.434040   5.855782   5.787419
    18  H    1.007033   4.763550   4.123991   4.123991   2.557134
                   11         12         13         14         15
    11  H    0.000000
    12  H    1.755076   0.000000
    13  H    1.763444   1.755075   0.000000
    14  C    5.013830   5.787419   5.013652   0.000000
    15  H    4.919606   5.977885   5.225865   1.084701   0.000000
    16  H    5.226361   5.977968   4.919606   1.084703   1.763444
    17  H    5.977968   6.637792   5.977885   1.079235   1.755075
    18  H    2.617419   3.601959   2.617153   2.557134   2.617153
                   16         17         18
    16  H    0.000000
    17  H    1.755076   0.000000
    18  H    2.617419   3.601959   0.000000
 Stoichiometry    C7H10N(1+)
 Framework group  C2[C2(HCNH),X(C6H8)]
 Deg. of freedom    23
 Full point group                 C2      NOp   2
 Largest Abelian subgroup         C2      NOp   2
 Largest concise Abelian subgroup C2      NOp   2
                         Standard orientation:                         
 ---------------------------------------------------------------------
 Center     Atomic      Atomic             Coordinates (Angstroms)
 Number     Number       Type             X           Y           Z
 ---------------------------------------------------------------------
      1          6           0       -0.000000    1.196710    0.221373
      2          6           0        0.000000    1.204498   -1.150672
      3          6           0        0.000000    0.000000   -1.837312
      4          6           0       -0.000000   -1.204498   -1.150672
      5          6           0       -0.000000   -1.196710    0.221373
      6          7           0       -0.000000   -0.000000    0.848054
      7          1           0        0.000000    0.000000   -2.908463
      8          1           0       -0.000001    2.136677   -1.672223
      9          1           0        0.000001   -2.136677   -1.672223
     10          6           0       -0.000023   -2.435258    1.075053
     11          1           0       -0.881858   -2.459886    1.706196
     12          1           0        0.000172   -3.318896    0.455430
     13          1           0        0.881586   -2.459720    1.706515
     14          6           0        0.000023    2.435258    1.075053
     15          1           0       -0.881586    2.459720    1.706515
     16          1           0        0.881858    2.459886    1.706196
     17          1           0       -0.000172    3.318896    0.455430
     18          1           0       -0.000000   -0.000000    1.855087
 ---------------------------------------------------------------------
 Rotational constants (GHZ):           3.5074064           1.8686416           1.2378440
 Standard basis: 3-21G (6D, 7F)
 There are    49 symmetry adapted cartesian basis functions of A   symmetry.
 There are    43 symmetry adapted cartesian basis functions of B   symmetry.
 There are    49 symmetry adapted basis functions of A   symmetry.
 There are    43 symmetry adapted basis functions of B   symmetry.
    92 basis functions,   150 primitive gaussians,    92 cartesian basis functions
    29 alpha electrons       29 beta electrons
       nuclear repulsion energy       360.1244562482 Hartrees.
 NAtoms=   18 NActive=   18 NUniq=   11 SFac= 2.68D+00 NAtFMM=   60 NAOKFM=F Big=F
 Integral buffers will be    131072 words long.
 Raffenetti 1 integral format.
 Two-electron integral symmetry is turned on.
 One-electron integrals computed using PRISM.
 NBasis=    92 RedAO= T EigKep=  2.29D-03  NBF=    49    43
 NBsUse=    92 1.00D-06 EigRej= -1.00D+00 NBFU=    49    43
 ExpMin= 1.83D-01 ExpMax= 2.43D+02 ExpMxC= 2.43D+02 IAcc=3 IRadAn=         5 AccDes= 0.00D+00
 Harris functional with IExCor=  205 and IRadAn=       5 diagonalized for initial guess.
 HarFok:  IExCor=  205 AccDes= 0.00D+00 IRadAn=         5 IDoV= 1 UseB2=F ITyADJ=14
 ICtDFT=  3500011 ScaDFX=  1.000000  1.000000  1.000000  1.000000
 FoFCou: FMM=F IPFlag=           0 FMFlag=      100000 FMFlg1=           0
         NFxFlg=           0 DoJE=T BraDBF=F KetDBF=T FulRan=T
         wScrn=  0.000000 ICntrl=       500 IOpCl=  0 I1Cent=   200000004 NGrid=           0
         NMat0=    1 NMatS0=      1 NMatT0=    0 NMatD0=    1 NMtDS0=    0 NMtDT0=    0
 Petite list used in FoFCou.
 Initial guess orbital symmetries:
       Occupied  (A) (B) (A) (A) (B) (A) (B) (A) (A) (A) (B) (A)
                 (B) (A) (B) (A) (B) (A) (A) (B) (B) (A) (A) (B)
                 (B) (B) (A) (B) (A)
       Virtual   (B) (A) (B) (A) (B) (A) (B) (A) (A) (A) (B) (B)
                 (A) (B) (A) (A) (B) (B) (A) (A) (B) (B) (A) (B)
                 (B) (A) (A) (B) (A) (B) (A) (A) (B) (B) (B) (A)
                 (A) (B) (A) (A) (B) (B) (A) (A) (B) (B) (A) (A)
                 (A) (B) (B) (B) (A) (A) (B) (A) (B) (A) (B) (B)
                 (A) (A) (A)
 The electronic state of the initial guess is 1-A.
 Keep R1 ints in memory in symmetry-blocked form, NReq=13741858.
 Requested convergence on RMS density matrix=1.00D-08 within 128 cycles.
 Requested convergence on MAX density matrix=1.00D-06.
 Requested convergence on             energy=1.00D-06.
 No special actions if energy rises.
 SCF Done:  E(RHF) =  -323.360315118     A.U. after   13 cycles
            NFock= 13  Conv=0.33D-08     -V/T= 2.0021

 **********************************************************************

            Population analysis using the SCF Density.

 **********************************************************************

 Orbital symmetries:
       Occupied  (A) (B) (A) (A) (B) (A) (B) (A) (A) (A) (B) (A)
                 (B) (A) (B) (A) (B) (A) (B) (A) (B) (A) (A) (B)
                 (B) (B) (A) (B) (A)
       Virtual   (B) (A) (A) (A) (B) (B) (A) (B) (A) (A) (B) (A)
                 (B) (A) (B) (A) (B) (B) (A) (A) (B) (B) (A) (B)
                 (A) (A) (B) (B) (A) (B) (B) (A) (A) (B) (A) (B)
                 (A) (B) (A) (A) (A) (B) (B) (A) (B) (A) (B) (A)
                 (A) (B) (B) (B) (A) (A) (B) (A) (B) (A) (B) (B)
                 (A) (A) (A)
 The electronic state is 1-A.
 Alpha  occ. eigenvalues --  -15.77428 -11.45216 -11.45193 -11.39679 -11.36641
 Alpha  occ. eigenvalues --  -11.36634 -11.34251 -11.34246  -1.52975  -1.30162
 Alpha  occ. eigenvalues --   -1.28925  -1.17632  -1.13317  -1.07022  -1.03917
 Alpha  occ. eigenvalues --   -0.94282  -0.88421  -0.84743  -0.81481  -0.80022
 Alpha  occ. eigenvalues --   -0.77471  -0.75374  -0.74301  -0.71801  -0.70861
 Alpha  occ. eigenvalues --   -0.70157  -0.69617  -0.59899  -0.53177
 Alpha virt. eigenvalues --   -0.09654  -0.03804   0.06434   0.12414   0.14101
 Alpha virt. eigenvalues --    0.14383   0.15758   0.15973   0.17224   0.19555
 Alpha virt. eigenvalues --    0.19837   0.21274   0.22025   0.25473   0.26824
 Alpha virt. eigenvalues --    0.32014   0.34475   0.37371   0.37760   0.58256
 Alpha virt. eigenvalues --    0.60593   0.68433   0.72652   0.74295   0.77088
 Alpha virt. eigenvalues --    0.77275   0.80331   0.81527   0.83115   0.84240
 Alpha virt. eigenvalues --    0.90238   0.90773   0.90811   0.95265   0.95586
 Alpha virt. eigenvalues --    0.95970   0.98270   1.02293   1.03920   1.11355
 Alpha virt. eigenvalues --    1.18306   1.18324   1.18407   1.19286   1.20527
 Alpha virt. eigenvalues --    1.23150   1.24970   1.25819   1.28242   1.30457
 Alpha virt. eigenvalues --    1.37080   1.48408   1.50291   1.54735   1.65506
 Alpha virt. eigenvalues --    1.70507   1.78998   1.93402   2.06646   2.11397
 Alpha virt. eigenvalues --    2.14248   2.21430   3.04272
     Molecular Orbital Coefficients:
                           1         2         3         4         5
                           O         O         O         O         O
     Eigenvalues --   -15.77428 -11.45216 -11.45193 -11.39679 -11.36641
   1 1   C  1S         -0.00020   0.69810   0.69787   0.00165   0.00061
   2        2S         -0.00063   0.07028   0.06870  -0.00012  -0.00251
   3        2PX        -0.00000   0.00000   0.00000   0.00000   0.00000
   4        2PY        -0.00028  -0.00153   0.00054   0.00053   0.00015
   5        2PZ         0.00054  -0.00076   0.00060   0.00106   0.00123
   6        3S          0.02737  -0.05427  -0.04335  -0.00993   0.01987
   7        3PX        -0.00000  -0.00000  -0.00000  -0.00000  -0.00000
   8        3PY        -0.03281  -0.00297  -0.02191   0.00066  -0.00610
   9        3PZ        -0.00175   0.01921  -0.00419   0.00247  -0.01264
  10 2   C  1S          0.00040  -0.00104  -0.00037  -0.00666   0.69802
  11        2S          0.00188  -0.00284  -0.00135  -0.00490   0.07067
  12        2PX         0.00000   0.00000   0.00000   0.00000  -0.00000
  13        2PY        -0.00063  -0.00024  -0.00033   0.00152  -0.00181
  14        2PZ        -0.00054  -0.00108  -0.00157   0.00020   0.00037
  15        3S         -0.02058   0.02326   0.00262   0.03565  -0.05881
  16        3PX        -0.00000  -0.00000  -0.00000   0.00000   0.00000
  17        3PY         0.02362   0.00386   0.01484  -0.02065   0.01198
  18        3PZ        -0.00515   0.01968   0.00561   0.00110  -0.00619
  19 3   C  1S         -0.00032   0.00000  -0.00251   0.98726   0.00000
  20        2S         -0.00139   0.00000  -0.00186   0.09955   0.00000
  21        2PX         0.00000  -0.00000   0.00000   0.00000  -0.00000
  22        2PY         0.00000  -0.00113   0.00000   0.00000  -0.00132
  23        2PZ         0.00033   0.00000  -0.00038   0.00165   0.00000
  24        3S          0.03149   0.00000   0.01953  -0.09054   0.00000
  25        3PX         0.00000   0.00000   0.00000   0.00000  -0.00000
  26        3PY         0.00000   0.00956   0.00000   0.00000   0.01534
  27        3PZ         0.01511   0.00000   0.00880  -0.02393   0.00000
  28 4   C  1S          0.00040   0.00104  -0.00037  -0.00666  -0.69802
  29        2S          0.00188   0.00284  -0.00135  -0.00490  -0.07067
  30        2PX        -0.00000   0.00000  -0.00000  -0.00000  -0.00000
  31        2PY         0.00063  -0.00024   0.00033  -0.00152  -0.00181
  32        2PZ        -0.00054   0.00108  -0.00157   0.00020  -0.00037
  33        3S         -0.02058  -0.02326   0.00262   0.03565   0.05881
  34        3PX         0.00000  -0.00000   0.00000  -0.00000   0.00000
  35        3PY        -0.02362   0.00386  -0.01484   0.02065   0.01198
  36        3PZ        -0.00515  -0.01968   0.00561   0.00110   0.00619
  37 5   C  1S         -0.00020  -0.69810   0.69787   0.00165  -0.00061
  38        2S         -0.00063  -0.07028   0.06870  -0.00012   0.00251
  39        2PX         0.00000   0.00000  -0.00000  -0.00000   0.00000
  40        2PY         0.00028  -0.00153  -0.00054  -0.00053   0.00015
  41        2PZ         0.00054   0.00076   0.00060   0.00106  -0.00123
  42        3S          0.02737   0.05427  -0.04335  -0.00993  -0.01987
  43        3PX         0.00000  -0.00000   0.00000   0.00000  -0.00000
  44        3PY         0.03281  -0.00297   0.02191  -0.00066  -0.00610
  45        3PZ        -0.00175  -0.01921  -0.00419   0.00247   0.01264
  46 6   N  1S          0.98668   0.00000   0.00035  -0.00004   0.00000
  47        2S          0.10687   0.00000   0.00203  -0.00039   0.00000
  48        2PX         0.00000  -0.00000   0.00000   0.00000  -0.00000
  49        2PY         0.00000   0.00024   0.00000   0.00000  -0.00048
  50        2PZ        -0.00217   0.00000  -0.00093   0.00017   0.00000
  51        3S         -0.09423   0.00000  -0.00664   0.00246   0.00000
  52        3PX         0.00000   0.00000   0.00000   0.00000   0.00000
  53        3PY         0.00000  -0.00548   0.00000   0.00000  -0.00103
  54        3PZ         0.01933   0.00000   0.01106  -0.00079   0.00000
  55 7   H  1S          0.00007   0.00000  -0.00011  -0.00240   0.00000
  56        2S          0.00293   0.00000   0.00270   0.00601   0.00000
  57 8   H  1S         -0.00183  -0.00085  -0.00179  -0.00013  -0.00153
  58        2S         -0.00676   0.00055  -0.00405   0.00418   0.00442
  59 9   H  1S         -0.00183   0.00085  -0.00179  -0.00013   0.00153
  60        2S         -0.00676  -0.00055  -0.00405   0.00418  -0.00442
  61 10  C  1S         -0.00015   0.00068  -0.00137  -0.00127   0.00288
  62        2S         -0.00087   0.00078  -0.00232  -0.00092   0.00079
  63        2PX         0.00000   0.00000  -0.00000   0.00000  -0.00000
  64        2PY         0.00031   0.00047   0.00042  -0.00003   0.00010
  65        2PZ        -0.00026  -0.00039   0.00013   0.00019  -0.00016
  66        3S          0.01162  -0.00520   0.02218   0.00251  -0.00381
  67        3PX         0.00000  -0.00000   0.00000  -0.00000   0.00000
  68        3PY         0.00094  -0.00126   0.00827   0.00086  -0.00203
  69        3PZ        -0.00613   0.00633  -0.01023  -0.00201   0.00015
  70 11  H  1S          0.00007   0.00046  -0.00114  -0.00010   0.00017
  71        2S         -0.00014  -0.00215   0.00205   0.00019   0.00008
  72 12  H  1S         -0.00097   0.00069  -0.00131  -0.00049   0.00003
  73        2S         -0.00157   0.00160  -0.00161   0.00012  -0.00015
  74 13  H  1S          0.00007   0.00046  -0.00114  -0.00010   0.00017
  75        2S         -0.00014  -0.00215   0.00205   0.00019   0.00008
  76 14  C  1S         -0.00015  -0.00068  -0.00137  -0.00127  -0.00288
  77        2S         -0.00087  -0.00078  -0.00232  -0.00092  -0.00079
  78        2PX        -0.00000   0.00000   0.00000  -0.00000  -0.00000
  79        2PY        -0.00031   0.00047  -0.00042   0.00003   0.00010
  80        2PZ        -0.00026   0.00039   0.00013   0.00019   0.00016
  81        3S          0.01162   0.00520   0.02218   0.00251   0.00381
  82        3PX        -0.00000  -0.00000  -0.00000   0.00000   0.00000
  83        3PY        -0.00094  -0.00126  -0.00827  -0.00086  -0.00203
  84        3PZ        -0.00613  -0.00633  -0.01023  -0.00201  -0.00015
  85 15  H  1S          0.00007  -0.00046  -0.00114  -0.00010  -0.00017
  86        2S         -0.00014   0.00215   0.00205   0.00019  -0.00008
  87 16  H  1S          0.00007  -0.00046  -0.00114  -0.00010  -0.00017
  88        2S         -0.00014   0.00215   0.00205   0.00019  -0.00008
  89 17  H  1S         -0.00097  -0.00069  -0.00131  -0.00049  -0.00003
  90        2S         -0.00157  -0.00160  -0.00161   0.00012   0.00015
  91 18  H  1S          0.00050   0.00000  -0.00245  -0.00007   0.00000
  92        2S          0.00426   0.00000  -0.00144   0.00006   0.00000
                           6         7         8         9        10
                           O         O         O         O         O
     Eigenvalues --   -11.36634 -11.34251 -11.34246  -1.52975  -1.30162
   1 1   C  1S          0.00019  -0.00054   0.00079  -0.09075   0.02575
   2        2S         -0.00258   0.00092  -0.00158   0.10540  -0.03263
   3        2PX         0.00000  -0.00000   0.00000   0.00000  -0.00000
   4        2PY         0.00016   0.00079  -0.00036  -0.08365  -0.02425
   5        2PZ         0.00187   0.00054  -0.00024   0.02181   0.09805
   6        3S          0.03279  -0.01149   0.01551   0.06725  -0.04408
   7        3PX        -0.00000   0.00000   0.00000   0.00000  -0.00000
   8        3PY        -0.01432  -0.01457   0.00873   0.11263   0.00062
   9        3PZ        -0.02428  -0.00857   0.00609   0.02662   0.00341
  10 2   C  1S          0.69828  -0.00280   0.00365  -0.03587   0.11526
  11        2S          0.07155   0.00017  -0.00011   0.03351  -0.12725
  12        2PX        -0.00000   0.00000  -0.00000   0.00000  -0.00000
  13        2PY        -0.00049   0.00045  -0.00024  -0.01629   0.06826
  14        2PZ         0.00106   0.00024  -0.00037   0.03016   0.00071
  15        3S         -0.08366  -0.00264  -0.00128   0.12873  -0.24263
  16        3PX         0.00000  -0.00000   0.00000   0.00000   0.00000
  17        3PY         0.02453   0.00202   0.00068  -0.10158   0.01693
  18        3PZ        -0.01676  -0.00216   0.00045   0.02610  -0.01808
  19 3   C  1S          0.00824   0.00000   0.00152  -0.02304   0.14279
  20        2S         -0.00536   0.00000  -0.00089   0.03288  -0.16152
  21        2PX         0.00000  -0.00000   0.00000   0.00000   0.00000
  22        2PY         0.00000   0.00042   0.00000   0.00000   0.00000
  23        2PZ        -0.00158   0.00000  -0.00046   0.02135  -0.06996
  24        3S          0.05702   0.00000   0.00356  -0.08843  -0.29019
  25        3PX         0.00000   0.00000   0.00000   0.00000   0.00000
  26        3PY         0.00000  -0.00099   0.00000   0.00000   0.00000
  27        3PZ         0.03253   0.00000   0.00426  -0.05537  -0.01839
  28 4   C  1S          0.69828   0.00280   0.00365  -0.03587   0.11526
  29        2S          0.07155  -0.00017  -0.00011   0.03351  -0.12725
  30        2PX         0.00000   0.00000   0.00000  -0.00000   0.00000
  31        2PY         0.00049   0.00045   0.00024   0.01629  -0.06826
  32        2PZ         0.00106  -0.00024  -0.00037   0.03016   0.00071
  33        3S         -0.08366   0.00264  -0.00128   0.12873  -0.24263
  34        3PX        -0.00000  -0.00000  -0.00000  -0.00000  -0.00000
  35        3PY        -0.02453   0.00202  -0.00068   0.10158  -0.01693
  36        3PZ        -0.01676   0.00216   0.00045   0.02610  -0.01808
  37 5   C  1S          0.00019   0.00054   0.00079  -0.09075   0.02575
  38        2S         -0.00258  -0.00092  -0.00158   0.10540  -0.03263
  39        2PX        -0.00000  -0.00000  -0.00000  -0.00000   0.00000
  40        2PY        -0.00016   0.00079   0.00036   0.08365   0.02425
  41        2PZ         0.00187  -0.00054  -0.00024   0.02181   0.09805
  42        3S          0.03279   0.01149   0.01551   0.06725  -0.04408
  43        3PX         0.00000   0.00000  -0.00000  -0.00000   0.00000
  44        3PY         0.01432  -0.01457  -0.00873  -0.11263  -0.00062
  45        3PZ        -0.02428   0.00857   0.00609   0.02662   0.00341
  46 6   N  1S          0.00028   0.00000   0.00002  -0.19716  -0.08278
  47        2S          0.00150   0.00000  -0.00045   0.16850   0.07433
  48        2PX         0.00000   0.00000   0.00000   0.00000   0.00000
  49        2PY         0.00000   0.00102   0.00000   0.00000   0.00000
  50        2PZ        -0.00023   0.00000  -0.00002  -0.03638   0.05323
  51        3S         -0.01373   0.00000  -0.00044   0.68633   0.29264
  52        3PX         0.00000  -0.00000   0.00000   0.00000   0.00000
  53        3PY         0.00000  -0.00294   0.00000   0.00000   0.00000
  54        3PZ         0.00992   0.00000  -0.00152  -0.10580   0.03567
  55 7   H  1S          0.00016   0.00000   0.00017   0.00501  -0.05658
  56        2S          0.00778   0.00000   0.00188  -0.01477   0.00392
  57 8   H  1S         -0.00229  -0.00026   0.00000   0.01358  -0.04437
  58        2S          0.00159  -0.00033  -0.00029   0.02839   0.00070
  59 9   H  1S         -0.00229   0.00026   0.00000   0.01358  -0.04437
  60        2S          0.00159   0.00033  -0.00029   0.02839   0.00070
  61 10  C  1S         -0.00380   0.69835   0.69827  -0.01722   0.00313
  62        2S         -0.00132   0.07269   0.07225   0.02095  -0.00449
  63        2PX         0.00000  -0.00000  -0.00000   0.00000   0.00000
  64        2PY         0.00013   0.00019   0.00026   0.01597   0.00299
  65        2PZ         0.00001  -0.00002  -0.00007  -0.00693   0.00961
  66        3S          0.00979  -0.06351  -0.05994  -0.02108  -0.00148
  67        3PX         0.00000  -0.00000   0.00000  -0.00000  -0.00000
  68        3PY         0.00469  -0.00494  -0.00385  -0.00741   0.01051
  69        3PZ        -0.00072   0.00366   0.00257   0.03287   0.00388
  70 11  H  1S         -0.00040   0.00032   0.00024   0.00663  -0.00045
  71        2S         -0.00035   0.01032   0.01016  -0.00621   0.00225
  72 12  H  1S         -0.00007   0.00035   0.00015   0.00789  -0.00488
  73        2S          0.00025   0.01039   0.01030   0.00539   0.00159
  74 13  H  1S         -0.00040   0.00032   0.00024   0.00663  -0.00045
  75        2S         -0.00035   0.01032   0.01016  -0.00621   0.00225
  76 14  C  1S         -0.00380  -0.69835   0.69827  -0.01722   0.00313
  77        2S         -0.00132  -0.07269   0.07225   0.02095  -0.00449
  78        2PX        -0.00000  -0.00000   0.00000  -0.00000  -0.00000
  79        2PY        -0.00013   0.00019  -0.00026  -0.01597  -0.00299
  80        2PZ         0.00001   0.00002  -0.00007  -0.00693   0.00961
  81        3S          0.00979   0.06351  -0.05994  -0.02108  -0.00148
  82        3PX        -0.00000  -0.00000  -0.00000   0.00000   0.00000
  83        3PY        -0.00469  -0.00494   0.00385   0.00741  -0.01051
  84        3PZ        -0.00072  -0.00366   0.00257   0.03287   0.00388
  85 15  H  1S         -0.00040  -0.00032   0.00024   0.00663  -0.00045
  86        2S         -0.00035  -0.01032   0.01016  -0.00621   0.00225
  87 16  H  1S         -0.00040  -0.00032   0.00024   0.00663  -0.00045
  88        2S         -0.00035  -0.01032   0.01016  -0.00621   0.00225
  89 17  H  1S         -0.00007  -0.00035   0.00015   0.00789  -0.00488
  90        2S          0.00025  -0.01039   0.01030   0.00539   0.00159
  91 18  H  1S         -0.00095   0.00000  -0.00034   0.08295   0.06669
  92        2S         -0.00034   0.00000   0.00169   0.01217   0.01131
                          11        12        13        14        15
                           O         O         O         O         O
     Eigenvalues --    -1.28925  -1.17632  -1.13317  -1.07022  -1.03917
   1 1   C  1S         -0.12719  -0.05209  -0.01014   0.06506  -0.06700
   2        2S          0.14289   0.06061   0.01244  -0.07470   0.07172
   3        2PX         0.00000   0.00000  -0.00000   0.00000  -0.00000
   4        2PY         0.00348   0.11575  -0.04122   0.03878  -0.13608
   5        2PZ        -0.00601   0.01702  -0.13732   0.11582   0.09269
   6        3S          0.25255   0.11490   0.02899  -0.16676   0.18544
   7        3PX         0.00000   0.00000  -0.00000  -0.00000  -0.00000
   8        3PY         0.02213   0.02637   0.00211  -0.02242  -0.00686
   9        3PZ        -0.06116   0.00852  -0.03334   0.03887  -0.03685
  10 2   C  1S         -0.07760  -0.00045  -0.11246   0.01446   0.05723
  11        2S          0.08611   0.00043   0.11890  -0.01419  -0.05757
  12        2PX         0.00000   0.00000  -0.00000  -0.00000  -0.00000
  13        2PY         0.00345   0.05038  -0.01245  -0.05639  -0.02221
  14        2PZ         0.05948   0.04352   0.01208  -0.14643   0.05139
  15        3S          0.14317   0.01775   0.30195  -0.07399  -0.20610
  16        3PX        -0.00000  -0.00000   0.00000   0.00000   0.00000
  17        3PY        -0.03552   0.00616  -0.02407   0.02798  -0.03310
  18        3PZ        -0.02678   0.00859   0.01080  -0.05169  -0.02629
  19 3   C  1S          0.00000   0.04991   0.00000  -0.12606   0.00000
  20        2S          0.00000  -0.05164   0.00000   0.13372   0.00000
  21        2PX         0.00000   0.00000  -0.00000   0.00000   0.00000
  22        2PY         0.05711   0.00000   0.13784   0.00000  -0.09270
  23        2PZ         0.00000  -0.01034   0.00000  -0.05411   0.00000
  24        3S          0.00000  -0.14558   0.00000   0.41935   0.00000
  25        3PX         0.00000   0.00000  -0.00000   0.00000  -0.00000
  26        3PY        -0.03416   0.00000   0.02714   0.00000  -0.06200
  27        3PZ         0.00000  -0.02966   0.00000   0.00599   0.00000
  28 4   C  1S          0.07760  -0.00045   0.11246   0.01446  -0.05723
  29        2S         -0.08611   0.00043  -0.11890  -0.01419   0.05757
  30        2PX         0.00000  -0.00000  -0.00000   0.00000  -0.00000
  31        2PY         0.00345  -0.05038  -0.01245   0.05639  -0.02221
  32        2PZ        -0.05948   0.04352  -0.01208  -0.14643  -0.05139
  33        3S         -0.14317   0.01775  -0.30195  -0.07399   0.20610
  34        3PX        -0.00000   0.00000   0.00000  -0.00000   0.00000
  35        3PY        -0.03552  -0.00616  -0.02407  -0.02798  -0.03310
  36        3PZ         0.02678   0.00859  -0.01080  -0.05169   0.02629
  37 5   C  1S          0.12719  -0.05209   0.01014   0.06506   0.06700
  38        2S         -0.14289   0.06061  -0.01244  -0.07470  -0.07172
  39        2PX         0.00000  -0.00000  -0.00000  -0.00000  -0.00000
  40        2PY         0.00348  -0.11575  -0.04122  -0.03878  -0.13608
  41        2PZ         0.00601   0.01702   0.13732   0.11582  -0.09269
  42        3S         -0.25255   0.11490  -0.02899  -0.16676  -0.18544
  43        3PX         0.00000  -0.00000  -0.00000   0.00000  -0.00000
  44        3PY         0.02213  -0.02637   0.00211   0.02242  -0.00686
  45        3PZ         0.06116   0.00852   0.03334   0.03887   0.03685
  46 6   N  1S          0.00000   0.05556   0.00000  -0.03659   0.00000
  47        2S          0.00000  -0.04971   0.00000   0.03676   0.00000
  48        2PX         0.00000   0.00000  -0.00000   0.00000  -0.00000
  49        2PY         0.15219   0.00000  -0.03427   0.00000   0.28983
  50        2PZ         0.00000   0.00775   0.00000   0.20133   0.00000
  51        3S          0.00000  -0.21368   0.00000   0.12956   0.00000
  52        3PX        -0.00000   0.00000  -0.00000   0.00000  -0.00000
  53        3PY         0.14224   0.00000  -0.02616   0.00000   0.30175
  54        3PZ         0.00000   0.01380   0.00000   0.19772   0.00000
  55 7   H  1S          0.00000  -0.02702   0.00000   0.11201   0.00000
  56        2S          0.00000  -0.01297   0.00000   0.03634   0.00000
  57 8   H  1S          0.03573   0.00940   0.06622  -0.00106  -0.06017
  58        2S          0.00674   0.00644   0.01651  -0.00967  -0.02177
  59 9   H  1S         -0.03573   0.00940  -0.06622  -0.00106   0.06017
  60        2S         -0.00674   0.00644  -0.01651  -0.00967   0.02177
  61 10  C  1S          0.07516  -0.13345  -0.10301  -0.04431  -0.07522
  62        2S         -0.07275   0.12745   0.09610   0.04007   0.06918
  63        2PX        -0.00000   0.00000  -0.00000   0.00000  -0.00000
  64        2PY        -0.03775   0.01903   0.00784  -0.00676  -0.06103
  65        2PZ         0.02597  -0.02018   0.01148   0.02762   0.00494
  66        3S         -0.20111   0.38793   0.32505   0.16483   0.24869
  67        3PX         0.00000  -0.00000  -0.00000  -0.00000  -0.00000
  68        3PY        -0.02197   0.01114   0.01590   0.01538  -0.03173
  69        3PZ        -0.00538  -0.00800   0.00124   0.00570  -0.01526
  70 11  H  1S         -0.03151   0.06881   0.06132   0.03382   0.04939
  71        2S          0.01029  -0.00217   0.00545   0.01133   0.01240
  72 12  H  1S         -0.03326   0.07227   0.05256   0.02137   0.06923
  73        2S         -0.00059   0.00236   0.00195   0.00421   0.01735
  74 13  H  1S         -0.03151   0.06881   0.06132   0.03383   0.04938
  75        2S          0.01029  -0.00217   0.00545   0.01134   0.01240
  76 14  C  1S         -0.07516  -0.13345   0.10301  -0.04431   0.07522
  77        2S          0.07275   0.12745  -0.09610   0.04007  -0.06918
  78        2PX        -0.00000  -0.00000  -0.00000  -0.00000  -0.00000
  79        2PY        -0.03775  -0.01903   0.00784   0.00676  -0.06103
  80        2PZ        -0.02597  -0.02018  -0.01148   0.02762  -0.00494
  81        3S          0.20111   0.38793  -0.32505   0.16483  -0.24869
  82        3PX         0.00000   0.00000  -0.00000   0.00000  -0.00000
  83        3PY        -0.02197  -0.01114   0.01590  -0.01538  -0.03173
  84        3PZ         0.00538  -0.00800  -0.00124   0.00570   0.01526
  85 15  H  1S          0.03151   0.06881  -0.06132   0.03383  -0.04938
  86        2S         -0.01029  -0.00217  -0.00545   0.01134  -0.01240
  87 16  H  1S          0.03151   0.06881  -0.06132   0.03382  -0.04939
  88        2S         -0.01029  -0.00217  -0.00545   0.01133  -0.01240
  89 17  H  1S          0.03326   0.07227  -0.05256   0.02137  -0.06923
  90        2S          0.00059   0.00236  -0.00195   0.00421  -0.01735
  91 18  H  1S          0.00000  -0.02829   0.00000   0.13041   0.00000
  92        2S          0.00000  -0.01275   0.00000   0.03939   0.00000
                          16        17        18        19        20
                           O         O         O         O         O
     Eigenvalues --    -0.94282  -0.88421  -0.84743  -0.81481  -0.80022
   1 1   C  1S         -0.00776   0.04315   0.03472   0.00000  -0.06408
   2        2S          0.00556  -0.04657  -0.03486  -0.00000   0.06709
   3        2PX        -0.00000  -0.00000  -0.00000   0.16991   0.00000
   4        2PY         0.11811  -0.10577  -0.00645   0.00000   0.14448
   5        2PZ        -0.06388   0.16641  -0.08278   0.00000   0.03835
   6        3S          0.07588  -0.20288  -0.11101   0.00001   0.25129
   7        3PX        -0.00000  -0.00000  -0.00000   0.14119   0.00000
   8        3PY         0.02994  -0.03893  -0.05455   0.00000   0.14019
   9        3PZ        -0.03691   0.09312  -0.07413  -0.00000   0.07817
  10 2   C  1S         -0.06310  -0.02901  -0.01907  -0.00000   0.04006
  11        2S          0.06543   0.02758   0.02515   0.00000  -0.04225
  12        2PX        -0.00000  -0.00000  -0.00000   0.08688   0.00000
  13        2PY         0.13906  -0.08080  -0.15293  -0.00000  -0.11941
  14        2PZ         0.02137  -0.22853   0.05709  -0.00000   0.08724
  15        3S          0.19213   0.12661   0.00617  -0.00000  -0.12302
  16        3PX        -0.00000   0.00000   0.00000   0.06830   0.00000
  17        3PY         0.09706  -0.04075  -0.07717  -0.00000  -0.15761
  18        3PZ        -0.01516  -0.09679   0.03081  -0.00001   0.08229
  19 3   C  1S          0.05380   0.00000   0.01546   0.00000  -0.04583
  20        2S         -0.05892   0.00000  -0.01153   0.00000   0.05336
  21        2PX         0.00000  -0.00000   0.00000   0.06269   0.00000
  22        2PY         0.00000   0.26031   0.00000   0.00000   0.00000
  23        2PZ        -0.00882   0.00000   0.31013   0.00000  -0.01461
  24        3S         -0.16590   0.00000  -0.07978   0.00000   0.09518
  25        3PX         0.00000  -0.00000   0.00000   0.05450   0.00000
  26        3PY         0.00000   0.13452   0.00000  -0.00000   0.00000
  27        3PZ        -0.00466   0.00000   0.24999   0.00000  -0.07036
  28 4   C  1S         -0.06310   0.02901  -0.01907   0.00000   0.04006
  29        2S          0.06543  -0.02758   0.02515  -0.00000  -0.04225
  30        2PX         0.00000  -0.00000   0.00000   0.08688  -0.00000
  31        2PY        -0.13906  -0.08080   0.15293  -0.00000   0.11941
  32        2PZ         0.02137   0.22853   0.05709   0.00000   0.08724
  33        3S          0.19213  -0.12661   0.00617   0.00000  -0.12302
  34        3PX         0.00000   0.00000  -0.00000   0.06830  -0.00000
  35        3PY        -0.09706  -0.04075   0.07717  -0.00000   0.15761
  36        3PZ        -0.01516   0.09679   0.03081   0.00001   0.08229
  37 5   C  1S         -0.00776  -0.04315   0.03472  -0.00000  -0.06408
  38        2S          0.00556   0.04657  -0.03486   0.00000   0.06709
  39        2PX         0.00000  -0.00000   0.00000   0.16991  -0.00000
  40        2PY        -0.11811  -0.10577   0.00645   0.00000  -0.14448
  41        2PZ        -0.06388  -0.16641  -0.08278  -0.00000   0.03835
  42        3S          0.07588   0.20288  -0.11101  -0.00001   0.25129
  43        3PX         0.00000  -0.00000   0.00000   0.14119  -0.00000
  44        3PY        -0.02994  -0.03893   0.05455   0.00000  -0.14019
  45        3PZ        -0.03691  -0.09312  -0.07413   0.00000   0.07817
  46 6   N  1S         -0.00352   0.00000   0.00570   0.00000   0.04283
  47        2S          0.00453   0.00000  -0.00138   0.00000  -0.03920
  48        2PX         0.00000  -0.00000   0.00000   0.28654   0.00000
  49        2PY         0.00000   0.15979   0.00000  -0.00000   0.00000
  50        2PZ         0.27431   0.00000   0.17100   0.00000   0.09643
  51        3S         -0.00575   0.00000  -0.04015   0.00000  -0.18709
  52        3PX         0.00000  -0.00000   0.00000   0.31192   0.00000
  53        3PY         0.00000   0.17323   0.00000  -0.00000   0.00000
  54        3PZ         0.29862   0.00000   0.20631   0.00000   0.08554
  55 7   H  1S         -0.03977   0.00000  -0.19523   0.00000   0.05593
  56        2S         -0.01524   0.00000  -0.09450   0.00000   0.01470
  57 8   H  1S          0.10683   0.04802  -0.07581  -0.00000  -0.13296
  58        2S          0.03585   0.02660  -0.05118  -0.00000  -0.05895
  59 9   H  1S          0.10683  -0.04802  -0.07581   0.00000  -0.13296
  60        2S          0.03585  -0.02660  -0.05118   0.00000  -0.05895
  61 10  C  1S          0.03797   0.01242  -0.01322  -0.00000   0.01776
  62        2S         -0.03353  -0.01040   0.00787   0.00000  -0.01032
  63        2PX         0.00000  -0.00000   0.00000   0.13881  -0.00000
  64        2PY         0.03601  -0.00336  -0.05527  -0.00000   0.16351
  65        2PZ        -0.05185  -0.08497   0.05021   0.00000  -0.08901
  66        3S         -0.13484  -0.05598   0.09061   0.00000  -0.13506
  67        3PX         0.00000  -0.00000   0.00000   0.10017  -0.00000
  68        3PY         0.02263  -0.01355  -0.00939  -0.00000   0.07852
  69        3PZ        -0.02679  -0.05068   0.02404  -0.00000  -0.03555
  70 11  H  1S         -0.04227  -0.03721   0.02831  -0.07146  -0.04730
  71        2S         -0.01482  -0.02410   0.02123  -0.05671  -0.03771
  72 12  H  1S         -0.02402   0.02052   0.01703   0.00002  -0.06939
  73        2S         -0.00145   0.01164   0.01213   0.00001  -0.05402
  74 13  H  1S         -0.04227  -0.03722   0.02832   0.07144  -0.04730
  75        2S         -0.01482  -0.02411   0.02123   0.05671  -0.03772
  76 14  C  1S          0.03797  -0.01242  -0.01322   0.00000   0.01776
  77        2S         -0.03353   0.01040   0.00787  -0.00000  -0.01032
  78        2PX        -0.00000  -0.00000  -0.00000   0.13881   0.00000
  79        2PY        -0.03601  -0.00336   0.05527  -0.00000  -0.16351
  80        2PZ        -0.05185   0.08497   0.05021  -0.00000  -0.08901
  81        3S         -0.13484   0.05598   0.09061  -0.00000  -0.13506
  82        3PX        -0.00000  -0.00000  -0.00000   0.10017   0.00000
  83        3PY        -0.02263  -0.01355   0.00939  -0.00000  -0.07852
  84        3PZ        -0.02679   0.05068   0.02404   0.00000  -0.03555
  85 15  H  1S         -0.04227   0.03722   0.02832  -0.07144  -0.04730
  86        2S         -0.01482   0.02411   0.02123  -0.05671  -0.03772
  87 16  H  1S         -0.04227   0.03721   0.02831   0.07146  -0.04730
  88        2S         -0.01482   0.02410   0.02123   0.05671  -0.03771
  89 17  H  1S         -0.02402  -0.02052   0.01703  -0.00002  -0.06939
  90        2S         -0.00145  -0.01164   0.01213  -0.00001  -0.05402
  91 18  H  1S          0.16480   0.00000   0.11304   0.00000   0.02750
  92        2S          0.07240   0.00000   0.07023   0.00000   0.01019
                          21        22        23        24        25
                           O         O         O         O         O
     Eigenvalues --    -0.77471  -0.75374  -0.74301  -0.71801  -0.70861
   1 1   C  1S         -0.00284  -0.00000  -0.00473   0.00501   0.00000
   2        2S         -0.00123   0.00000   0.00219  -0.00368  -0.00000
   3        2PX         0.00000  -0.09098   0.00000  -0.00000   0.06744
   4        2PY         0.14029   0.00000   0.00793  -0.06436  -0.00003
   5        2PZ         0.15830  -0.00000   0.10097   0.04930  -0.00001
   6        3S          0.05463   0.00000   0.02741  -0.05581  -0.00003
   7        3PX         0.00000  -0.07647   0.00000  -0.00000   0.07826
   8        3PY         0.13243   0.00000   0.01762  -0.02813  -0.00003
   9        3PZ         0.14378   0.00001   0.09518  -0.00977  -0.00002
  10 2   C  1S          0.01128   0.00000  -0.02204   0.01123  -0.00000
  11        2S         -0.01568  -0.00000   0.02053  -0.01036   0.00000
  12        2PX        -0.00000  -0.04224   0.00000  -0.00000   0.06498
  13        2PY         0.19742  -0.00000   0.02518  -0.03232   0.00003
  14        2PZ        -0.12075   0.00001  -0.08646  -0.05898   0.00001
  15        3S          0.01834  -0.00000   0.10662  -0.06203  -0.00001
  16        3PX        -0.00000  -0.03620   0.00000  -0.00000   0.05973
  17        3PY         0.16313  -0.00000   0.03229  -0.01637   0.00004
  18        3PZ        -0.09173   0.00001  -0.06560  -0.03691   0.00000
  19 3   C  1S          0.00000  -0.00000   0.01497   0.00000   0.00000
  20        2S          0.00000   0.00000  -0.01442   0.00000   0.00000
  21        2PX        -0.00000   0.00000   0.00000  -0.00000   0.06030
  22        2PY        -0.10360   0.00000   0.00000   0.05562  -0.00004
  23        2PZ         0.00000  -0.00001   0.10530   0.00000   0.00000
  24        3S          0.00000   0.00001  -0.07693   0.00000   0.00000
  25        3PX         0.00000   0.00000   0.00000  -0.00000   0.05854
  26        3PY        -0.05818   0.00000   0.00000   0.04169  -0.00002
  27        3PZ         0.00000  -0.00001   0.11412   0.00000   0.00000
  28 4   C  1S         -0.01128   0.00000  -0.02204  -0.01123   0.00000
  29        2S          0.01568  -0.00000   0.02053   0.01036  -0.00000
  30        2PX        -0.00000   0.04224  -0.00000  -0.00000   0.06498
  31        2PY         0.19742   0.00000  -0.02518  -0.03232   0.00003
  32        2PZ         0.12075   0.00001  -0.08646   0.05898  -0.00001
  33        3S         -0.01834  -0.00000   0.10662   0.06203   0.00001
  34        3PX        -0.00000   0.03620  -0.00000  -0.00000   0.05973
  35        3PY         0.16313   0.00000  -0.03229  -0.01637   0.00004
  36        3PZ         0.09173   0.00001  -0.06560   0.03691  -0.00000
  37 5   C  1S          0.00284  -0.00000  -0.00473  -0.00501  -0.00000
  38        2S          0.00123   0.00000   0.00219   0.00368   0.00000
  39        2PX         0.00000   0.09098  -0.00000  -0.00000   0.06744
  40        2PY         0.14029  -0.00000  -0.00793  -0.06436  -0.00003
  41        2PZ        -0.15830  -0.00000   0.10097  -0.04930   0.00001
  42        3S         -0.05463   0.00000   0.02741   0.05581   0.00003
  43        3PX         0.00000   0.07647  -0.00000  -0.00000   0.07826
  44        3PY         0.13243  -0.00000  -0.01762  -0.02813  -0.00003
  45        3PZ        -0.14378   0.00001   0.09518   0.00977   0.00002
  46 6   N  1S          0.00000   0.00000   0.01990   0.00000   0.00000
  47        2S          0.00000  -0.00000  -0.01348   0.00000   0.00000
  48        2PX        -0.00000   0.00000   0.00000  -0.00001   0.21072
  49        2PY        -0.01216   0.00000   0.00000   0.11979   0.00003
  50        2PZ         0.00000  -0.00000  -0.06056   0.00000   0.00000
  51        3S          0.00000  -0.00001  -0.10623   0.00000   0.00000
  52        3PX        -0.00000   0.00000   0.00000  -0.00001   0.24267
  53        3PY        -0.01936   0.00000   0.00000   0.16284   0.00004
  54        3PZ         0.00000  -0.00000  -0.07251   0.00000   0.00000
  55 7   H  1S          0.00000   0.00001  -0.08933   0.00000   0.00000
  56        2S          0.00000   0.00000  -0.04799   0.00000   0.00000
  57 8   H  1S          0.13870  -0.00001   0.06267  -0.00458   0.00002
  58        2S          0.08441  -0.00000   0.03126   0.00550   0.00001
  59 9   H  1S         -0.13870  -0.00001   0.06267   0.00458  -0.00002
  60        2S         -0.08441  -0.00000   0.03126  -0.00550  -0.00001
  61 10  C  1S         -0.01328   0.00000   0.00213   0.00115  -0.00000
  62        2S          0.00518   0.00000  -0.00078  -0.00117   0.00000
  63        2PX        -0.00001   0.26061  -0.00000   0.00001  -0.23403
  64        2PY        -0.12319   0.00000   0.18342   0.17437   0.00003
  65        2PZ         0.10465   0.00000   0.16457   0.19758  -0.00002
  66        3S          0.11404  -0.00000  -0.03109  -0.02168  -0.00001
  67        3PX        -0.00000   0.22311  -0.00000   0.00000  -0.22485
  68        3PY        -0.05462  -0.00000   0.14472   0.15132   0.00002
  69        3PZ         0.06083   0.00000   0.15471   0.18949  -0.00001
  70 11  H  1S          0.05183  -0.14535   0.06231   0.07999   0.13888
  71        2S          0.04108  -0.11073   0.04512   0.06267   0.10603
  72 12  H  1S          0.03247   0.00003  -0.16968  -0.18492  -0.00004
  73        2S          0.02167   0.00002  -0.12309  -0.13983  -0.00004
  74 13  H  1S          0.05183   0.14531   0.06237   0.08006  -0.13886
  75        2S          0.04109   0.11071   0.04516   0.06273  -0.10601
  76 14  C  1S          0.01328   0.00000   0.00213  -0.00115   0.00000
  77        2S         -0.00518   0.00000  -0.00078   0.00117  -0.00000
  78        2PX        -0.00001  -0.26061   0.00000   0.00001  -0.23403
  79        2PY        -0.12319  -0.00000  -0.18342   0.17437   0.00003
  80        2PZ        -0.10465   0.00000   0.16457  -0.19758   0.00002
  81        3S         -0.11404  -0.00000  -0.03109   0.02168   0.00001
  82        3PX        -0.00000  -0.22311   0.00000   0.00000  -0.22485
  83        3PY        -0.05462   0.00000  -0.14472   0.15132   0.00002
  84        3PZ        -0.06083   0.00000   0.15471  -0.18949   0.00001
  85 15  H  1S         -0.05183   0.14531   0.06237  -0.08006   0.13886
  86        2S         -0.04109   0.11071   0.04516  -0.06273   0.10601
  87 16  H  1S         -0.05183  -0.14535   0.06231  -0.07999  -0.13888
  88        2S         -0.04108  -0.11073   0.04512  -0.06267  -0.10603
  89 17  H  1S         -0.03247   0.00003  -0.16968   0.18492   0.00004
  90        2S         -0.02167   0.00002  -0.12309   0.13983   0.00004
  91 18  H  1S          0.00000  -0.00000  -0.05476   0.00000   0.00000
  92        2S          0.00000   0.00000  -0.04330   0.00000   0.00000
                          26        27        28        29        30
                           O         O         O         O         V
     Eigenvalues --    -0.70157  -0.69617  -0.59899  -0.53177  -0.09654
   1 1   C  1S         -0.02081   0.00428  -0.00000   0.00000  -0.00000
   2        2S          0.02096  -0.00888  -0.00000  -0.00000  -0.00000
   3        2PX         0.00001  -0.00000  -0.00242   0.22866  -0.22112
   4        2PY         0.17028   0.04191   0.00000  -0.00000   0.00000
   5        2PZ         0.05941   0.20435  -0.00000  -0.00000   0.00000
   6        3S          0.11524  -0.00961   0.00000  -0.00001   0.00001
   7        3PX         0.00001  -0.00000   0.00187   0.26608  -0.34816
   8        3PY         0.18292   0.07880   0.00000  -0.00000   0.00001
   9        3PZ         0.14254   0.18439  -0.00001   0.00000  -0.00002
  10 2   C  1S          0.00511  -0.00041  -0.00000   0.00000  -0.00000
  11        2S         -0.00581  -0.00140   0.00000  -0.00000   0.00000
  12        2PX         0.00001  -0.00000  -0.20986   0.23752  -0.07645
  13        2PY        -0.20643  -0.03381  -0.00000  -0.00000   0.00000
  14        2PZ        -0.03915  -0.18768   0.00000   0.00000  -0.00000
  15        3S          0.01076   0.01761  -0.00000   0.00000  -0.00001
  16        3PX         0.00001  -0.00000  -0.23356   0.27900  -0.17206
  17        3PY        -0.23106   0.01003  -0.00000  -0.00000  -0.00000
  18        3PZ         0.02823  -0.12340  -0.00000   0.00000  -0.00001
  19 3   C  1S          0.00000  -0.01016   0.00000  -0.00000   0.00000
  20        2S          0.00000   0.01043   0.00000  -0.00000   0.00000
  21        2PX         0.00001   0.00000  -0.27545   0.00000   0.28344
  22        2PY         0.23932   0.00000   0.00000   0.00000  -0.00000
  23        2PZ         0.00000   0.22178   0.00000  -0.00000   0.00000
  24        3S          0.00000   0.02988   0.00000   0.00000   0.00000
  25        3PX         0.00001   0.00000  -0.28302   0.00000   0.55047
  26        3PY         0.14212   0.00000  -0.00000   0.00000  -0.00001
  27        3PZ         0.00000   0.26362   0.00000  -0.00000   0.00000
  28 4   C  1S         -0.00511  -0.00041   0.00000   0.00000   0.00000
  29        2S          0.00581  -0.00140  -0.00000  -0.00000  -0.00000
  30        2PX         0.00001   0.00000  -0.20986  -0.23752  -0.07645
  31        2PY        -0.20643   0.03381  -0.00000   0.00000   0.00000
  32        2PZ         0.03915  -0.18768  -0.00000   0.00000   0.00000
  33        3S         -0.01076   0.01761   0.00000   0.00000   0.00001
  34        3PX         0.00001   0.00000  -0.23356  -0.27900  -0.17206
  35        3PY        -0.23106  -0.01003  -0.00000   0.00000  -0.00000
  36        3PZ        -0.02823  -0.12340   0.00000   0.00000   0.00001
  37 5   C  1S          0.02081   0.00428   0.00000   0.00000   0.00000
  38        2S         -0.02096  -0.00888   0.00000  -0.00000   0.00000
  39        2PX         0.00001   0.00000  -0.00242  -0.22866  -0.22112
  40        2PY         0.17028  -0.04191   0.00000   0.00000   0.00000
  41        2PZ        -0.05941   0.20435   0.00000  -0.00000  -0.00000
  42        3S         -0.11524  -0.00961  -0.00000  -0.00001  -0.00001
  43        3PX         0.00001   0.00000   0.00187  -0.26608  -0.34816
  44        3PY         0.18292  -0.07880   0.00000   0.00000   0.00001
  45        3PZ        -0.14254   0.18439   0.00001   0.00000   0.00002
  46 6   N  1S          0.00000  -0.01137   0.00000  -0.00000   0.00000
  47        2S          0.00000   0.00788   0.00000   0.00000   0.00000
  48        2PX         0.00003   0.00000   0.24811   0.00000   0.23474
  49        2PY        -0.14645   0.00000  -0.00000   0.00000  -0.00000
  50        2PZ         0.00000  -0.08542   0.00000  -0.00000   0.00000
  51        3S          0.00000   0.07208   0.00000  -0.00000   0.00000
  52        3PX         0.00003   0.00000   0.32786   0.00000   0.44526
  53        3PY        -0.19688   0.00000   0.00000   0.00000   0.00000
  54        3PZ         0.00000  -0.13854   0.00000  -0.00000   0.00000
  55 7   H  1S          0.00000  -0.15571   0.00000   0.00000   0.00000
  56        2S          0.00000  -0.09007   0.00000  -0.00000   0.00000
  57 8   H  1S         -0.12590   0.05092  -0.00000  -0.00000   0.00000
  58        2S         -0.06917   0.03794  -0.00000   0.00000  -0.00000
  59 9   H  1S          0.12590   0.05092   0.00000  -0.00000  -0.00000
  60        2S          0.06917   0.03794   0.00000   0.00000   0.00000
  61 10  C  1S          0.00647  -0.00473   0.00000   0.00000   0.00000
  62        2S         -0.01257   0.00934   0.00000   0.00000   0.00000
  63        2PX        -0.00004   0.00001  -0.00828   0.07859   0.01018
  64        2PY        -0.13683   0.02401  -0.00000  -0.00000  -0.00000
  65        2PZ         0.11884  -0.17253  -0.00000  -0.00000  -0.00000
  66        3S          0.05731  -0.02955  -0.00000  -0.00000  -0.00001
  67        3PX        -0.00004   0.00001  -0.01329   0.08675  -0.06954
  68        3PY        -0.05514  -0.02526  -0.00001  -0.00001  -0.00002
  69        3PZ         0.07439  -0.14601  -0.00001  -0.00000  -0.00004
  70 11  H  1S          0.04385  -0.07016   0.00449  -0.06283  -0.04378
  71        2S          0.04665  -0.06595  -0.00699  -0.07211  -0.16588
  72 12  H  1S          0.02968   0.06526  -0.00000   0.00001   0.00001
  73        2S          0.04049   0.04524  -0.00001   0.00001   0.00000
  74 13  H  1S          0.04381  -0.07019  -0.00449   0.06282   0.04378
  75        2S          0.04662  -0.06597   0.00700   0.07209   0.16589
  76 14  C  1S         -0.00647  -0.00473  -0.00000   0.00000  -0.00000
  77        2S          0.01257   0.00934  -0.00000   0.00000  -0.00000
  78        2PX        -0.00004  -0.00001  -0.00828  -0.07859   0.01018
  79        2PY        -0.13683  -0.02401  -0.00000   0.00000  -0.00000
  80        2PZ        -0.11884  -0.17253   0.00000  -0.00000   0.00000
  81        3S         -0.05731  -0.02955   0.00000  -0.00000   0.00001
  82        3PX        -0.00004  -0.00001  -0.01329  -0.08675  -0.06954
  83        3PY        -0.05514   0.02526  -0.00001   0.00001  -0.00002
  84        3PZ        -0.07439  -0.14601   0.00001  -0.00000   0.00004
  85 15  H  1S         -0.04381  -0.07019   0.00449   0.06282  -0.04378
  86        2S         -0.04662  -0.06597  -0.00700   0.07209  -0.16589
  87 16  H  1S         -0.04385  -0.07016  -0.00449  -0.06283   0.04378
  88        2S         -0.04665  -0.06595   0.00699  -0.07211   0.16588
  89 17  H  1S         -0.02968   0.06526   0.00000   0.00001  -0.00001
  90        2S         -0.04049   0.04524   0.00001   0.00001  -0.00000
  91 18  H  1S          0.00000  -0.07131   0.00000  -0.00000   0.00000
  92        2S          0.00000  -0.07296   0.00000   0.00000   0.00000
                          31        32        33        34        35
                           V         V         V         V         V
     Eigenvalues --    -0.03804   0.06434   0.12414   0.14101   0.14383
   1 1   C  1S          0.00000   0.01093   0.01164   0.01130  -0.00001
   2        2S          0.00000  -0.00441   0.00008  -0.01502   0.00003
   3        2PX         0.25531  -0.00001  -0.00000   0.00022   0.16141
   4        2PY        -0.00000  -0.07149  -0.02277  -0.00768   0.00001
   5        2PZ        -0.00000   0.00283   0.03301  -0.01786   0.00002
   6        3S         -0.00001  -0.25312  -0.13209  -0.31002   0.00021
   7        3PX         0.51525  -0.00005   0.00001   0.00043   0.31989
   8        3PY         0.00000  -0.09824  -0.07565   0.04202  -0.00003
   9        3PZ        -0.00001  -0.10282   0.09100   0.11053  -0.00017
  10 2   C  1S          0.00000   0.03370   0.02132   0.02308  -0.00003
  11        2S         -0.00000  -0.02824  -0.00787  -0.01495   0.00002
  12        2PX        -0.23426   0.00001   0.00001  -0.00029  -0.21377
  13        2PY        -0.00000  -0.04241  -0.06873  -0.08702   0.00010
  14        2PZ         0.00000   0.00619   0.09854   0.03376  -0.00002
  15        3S         -0.00002  -0.34251  -0.32957  -0.33931   0.00047
  16        3PX        -0.51522   0.00003   0.00000  -0.00075  -0.55254
  17        3PY        -0.00001  -0.27108  -0.31827  -0.27132   0.00028
  18        3PZ         0.00000   0.07981   0.26158   0.39755  -0.00044
  19 3   C  1S          0.00000   0.02689   0.05294   0.00000   0.00000
  20        2S         -0.00000  -0.01459  -0.02383   0.00000   0.00000
  21        2PX         0.00000   0.00000   0.00000   0.00032   0.23670
  22        2PY         0.00000   0.00000   0.00000   0.03222  -0.00005
  23        2PZ         0.00000   0.03407   0.14262   0.00000   0.00000
  24        3S         -0.00000  -0.40749  -0.78615   0.00000   0.00000
  25        3PX         0.00000   0.00000   0.00000   0.00085   0.62655
  26        3PY         0.00000   0.00000   0.00000   0.22749  -0.00032
  27        3PZ         0.00000   0.09854   0.47845   0.00000   0.00000
  28 4   C  1S          0.00000   0.03370   0.02132  -0.02308   0.00003
  29        2S         -0.00000  -0.02824  -0.00787   0.01495  -0.00002
  30        2PX         0.23426  -0.00001  -0.00001  -0.00029  -0.21377
  31        2PY         0.00000   0.04241   0.06873  -0.08702   0.00010
  32        2PZ         0.00000   0.00619   0.09854  -0.03376   0.00002
  33        3S         -0.00002  -0.34251  -0.32957   0.33931  -0.00047
  34        3PX         0.51522  -0.00003  -0.00000  -0.00075  -0.55254
  35        3PY         0.00001   0.27108   0.31827  -0.27132   0.00028
  36        3PZ         0.00000   0.07981   0.26158  -0.39755   0.00044
  37 5   C  1S          0.00000   0.01093   0.01164  -0.01130   0.00001
  38        2S          0.00000  -0.00441   0.00008   0.01502  -0.00003
  39        2PX        -0.25531   0.00001   0.00000   0.00022   0.16141
  40        2PY         0.00000   0.07149   0.02277  -0.00768   0.00001
  41        2PZ        -0.00000   0.00283   0.03301   0.01786  -0.00002
  42        3S         -0.00001  -0.25312  -0.13209   0.31002  -0.00021
  43        3PX        -0.51525   0.00005  -0.00001   0.00043   0.31989
  44        3PY        -0.00000   0.09824   0.07565   0.04202  -0.00003
  45        3PZ        -0.00001  -0.10282   0.09100  -0.11053   0.00017
  46 6   N  1S          0.00000   0.08786  -0.01356   0.00000   0.00000
  47        2S         -0.00000  -0.05388  -0.00089   0.00000   0.00000
  48        2PX         0.00000   0.00000   0.00000  -0.00015  -0.10744
  49        2PY         0.00000   0.00000   0.00000  -0.04564   0.00005
  50        2PZ        -0.00001  -0.14448   0.14477   0.00000   0.00000
  51        3S         -0.00000  -0.78215   0.22864   0.00000   0.00000
  52        3PX         0.00000   0.00000   0.00000  -0.00032  -0.24174
  53        3PY         0.00000   0.00000   0.00000  -0.00277   0.00007
  54        3PZ        -0.00002  -0.49180   0.42138   0.00000   0.00000
  55 7   H  1S          0.00000   0.03081   0.06055   0.00000   0.00000
  56        2S          0.00001   0.36536   1.07345   0.00000   0.00000
  57 8   H  1S          0.00000   0.03853   0.03714  -0.01452   0.00002
  58        2S          0.00001   0.51731   0.71634   0.60083  -0.00069
  59 9   H  1S          0.00000   0.03853   0.03714   0.01452  -0.00002
  60        2S          0.00001   0.51731   0.71634  -0.60083   0.00069
  61 10  C  1S         -0.00000   0.01977  -0.03770  -0.09182   0.00014
  62        2S          0.00000  -0.00807   0.01182   0.03027  -0.00005
  63        2PX         0.01095  -0.00001   0.00001   0.00013   0.09485
  64        2PY         0.00000   0.06730   0.04130  -0.09776   0.00011
  65        2PZ        -0.00000  -0.05059   0.07514   0.02648  -0.00006
  66        3S         -0.00000  -0.28717   0.49339   1.34318  -0.00204
  67        3PX        -0.00403  -0.00008   0.00003   0.00064   0.45805
  68        3PY         0.00003   0.37629   0.13012  -0.49099   0.00054
  69        3PZ         0.00002  -0.11487   0.29532   0.14051  -0.00033
  70 11  H  1S         -0.05126  -0.02122  -0.00146  -0.00089   0.05110
  71        2S         -0.13511   0.16135  -0.41315  -0.59707   0.54883
  72 12  H  1S          0.00001   0.03555   0.00618  -0.01459  -0.00001
  73        2S          0.00007   0.39087   0.18297  -0.88870   0.00095
  74 13  H  1S          0.05125  -0.02123  -0.00147  -0.00102  -0.05107
  75        2S          0.13505   0.16143  -0.41336  -0.59854  -0.54670
  76 14  C  1S         -0.00000   0.01977  -0.03770   0.09182  -0.00014
  77        2S          0.00000  -0.00807   0.01182  -0.03027   0.00005
  78        2PX        -0.01095   0.00001  -0.00001   0.00013   0.09485
  79        2PY        -0.00000  -0.06730  -0.04130  -0.09776   0.00011
  80        2PZ        -0.00000  -0.05059   0.07514  -0.02648   0.00006
  81        3S         -0.00000  -0.28717   0.49339  -1.34318   0.00204
  82        3PX         0.00403   0.00008  -0.00003   0.00064   0.45805
  83        3PY        -0.00003  -0.37629  -0.13012  -0.49099   0.00054
  84        3PZ         0.00002  -0.11487   0.29532  -0.14051   0.00033
  85 15  H  1S          0.05125  -0.02123  -0.00147   0.00102   0.05107
  86        2S          0.13505   0.16143  -0.41336   0.59854   0.54670
  87 16  H  1S         -0.05126  -0.02122  -0.00146   0.00089  -0.05110
  88        2S         -0.13511   0.16135  -0.41315   0.59707  -0.54883
  89 17  H  1S          0.00001   0.03555   0.00618   0.01459   0.00001
  90        2S          0.00007   0.39087   0.18297   0.88870  -0.00095
  91 18  H  1S          0.00000   0.08203  -0.01674   0.00000   0.00000
  92        2S          0.00003   1.15132  -0.73282   0.00000   0.00000
                          36        37        38        39        40
                           V         V         V         V         V
     Eigenvalues --     0.15758   0.15973   0.17224   0.19555   0.19837
   1 1   C  1S          0.02145  -0.01776   0.03705  -0.00001   0.04227
   2        2S         -0.00154  -0.01473  -0.04843  -0.00002  -0.02239
   3        2PX        -0.00001   0.00004  -0.00000   0.05531  -0.00000
   4        2PY        -0.02330   0.06698   0.06238  -0.00002   0.09783
   5        2PZ        -0.05245   0.00740  -0.06065   0.00002   0.04536
   6        3S         -0.11957   0.38687  -0.19356   0.00046  -0.65216
   7        3PX        -0.00004   0.00009  -0.00003   0.28387  -0.00000
   8        3PY        -0.19535   0.13080  -0.05110  -0.00021   0.33757
   9        3PZ        -0.43582   0.07626  -0.34588  -0.00010   0.37045
  10 2   C  1S         -0.02005  -0.00286   0.02700  -0.00003  -0.07705
  11        2S          0.02158  -0.00768  -0.00475   0.00002   0.02589
  12        2PX        -0.00000  -0.00006  -0.00002  -0.00142   0.00002
  13        2PY         0.01963   0.09999  -0.03401  -0.00000   0.10851
  14        2PZ        -0.04552  -0.07203  -0.01503  -0.00006  -0.00464
  15        3S          0.06484   0.15897  -0.55102   0.00024   1.24647
  16        3PX         0.00001  -0.00015   0.00000  -0.11140   0.00003
  17        3PY         0.06716   0.46403   0.07082   0.00013   0.47545
  18        3PZ        -0.43395  -0.24131  -0.17382  -0.00050   0.18519
  19 3   C  1S          0.04489   0.00000   0.02428   0.00007   0.00000
  20        2S         -0.02992   0.00000  -0.01370  -0.00004   0.00000
  21        2PX         0.00000   0.00007   0.00000   0.00000  -0.00002
  22        2PY         0.00000   0.04777   0.00000   0.00000   0.02048
  23        2PZ        -0.02716   0.00000   0.12729   0.00004   0.00000
  24        3S         -0.57703   0.00000  -0.29794  -0.00097   0.00000
  25        3PX         0.00000   0.00017   0.00000   0.00000  -0.00003
  26        3PY         0.00000   0.18554   0.00000   0.00000  -0.05897
  27        3PZ         0.12377   0.00000   0.65969   0.00042   0.00000
  28 4   C  1S         -0.02005   0.00286   0.02700  -0.00003   0.07705
  29        2S          0.02158   0.00768  -0.00475   0.00002  -0.02589
  30        2PX         0.00000  -0.00006   0.00002   0.00142   0.00002
  31        2PY        -0.01963   0.09999   0.03401   0.00000   0.10851
  32        2PZ        -0.04552   0.07203  -0.01503  -0.00006   0.00464
  33        3S          0.06484  -0.15897  -0.55102   0.00024  -1.24647
  34        3PX        -0.00001  -0.00015  -0.00000   0.11140   0.00003
  35        3PY        -0.06716   0.46403  -0.07082  -0.00013   0.47545
  36        3PZ        -0.43395   0.24131  -0.17382  -0.00050  -0.18519
  37 5   C  1S          0.02145   0.01776   0.03705  -0.00001  -0.04227
  38        2S         -0.00154   0.01473  -0.04843  -0.00002   0.02239
  39        2PX         0.00001   0.00004   0.00000  -0.05531  -0.00000
  40        2PY         0.02330   0.06698  -0.06238   0.00002   0.09783
  41        2PZ        -0.05245  -0.00740  -0.06065   0.00002  -0.04536
  42        3S         -0.11957  -0.38687  -0.19356   0.00046   0.65216
  43        3PX         0.00004   0.00009   0.00003  -0.28387  -0.00000
  44        3PY         0.19535   0.13080   0.05110   0.00021   0.33757
  45        3PZ        -0.43582  -0.07626  -0.34588  -0.00010  -0.37045
  46 6   N  1S          0.01825   0.00000  -0.06026   0.00004   0.00000
  47        2S         -0.00270   0.00000   0.03828  -0.00001   0.00000
  48        2PX         0.00000  -0.00001   0.00000   0.00000  -0.00001
  49        2PY         0.00000   0.07741   0.00000   0.00000   0.04871
  50        2PZ        -0.10150   0.00000  -0.00216  -0.00000   0.00000
  51        3S         -0.22676   0.00000   0.53811  -0.00053   0.00000
  52        3PX         0.00000  -0.00005   0.00000   0.00000  -0.00000
  53        3PY         0.00000   0.06047   0.00000   0.00000   0.31147
  54        3PZ        -0.24899   0.00000   0.03751   0.00009   0.00000
  55 7   H  1S          0.00170   0.00000   0.01319   0.00000   0.00000
  56        2S          0.27982   0.00000   0.86379   0.00081   0.00000
  57 8   H  1S          0.01836  -0.02607   0.01105   0.00000  -0.03921
  58        2S         -0.32927  -0.70860   0.16661  -0.00046  -1.03297
  59 9   H  1S          0.01836   0.02607   0.01105   0.00000   0.03921
  60        2S         -0.32927   0.70860   0.16661  -0.00046   1.03297
  61 10  C  1S         -0.11408  -0.06441  -0.00376   0.00001  -0.03225
  62        2S          0.03199   0.01917   0.00256  -0.00000   0.01510
  63        2PX        -0.00003   0.00002  -0.00002   0.21554  -0.00001
  64        2PY        -0.03690   0.09712  -0.02451  -0.00002  -0.04103
  65        2PZ        -0.02735   0.10814  -0.15417  -0.00004  -0.08329
  66        3S          1.64413   0.86494   0.03735  -0.00007   0.49274
  67        3PX        -0.00015   0.00008  -0.00011   1.06199  -0.00002
  68        3PY        -0.05614   0.47518  -0.15787  -0.00006  -0.25287
  69        3PZ         0.00958   0.53684  -0.79576  -0.00009  -0.51182
  70 11  H  1S         -0.01239  -0.02217   0.04424   0.03602   0.03181
  71        2S         -0.61096  -0.73905   0.59229   1.05685   0.18791
  72 12  H  1S          0.01231   0.04720  -0.07366   0.00001  -0.05363
  73        2S         -0.72797   0.55015  -0.83535  -0.00030  -0.82161
  74 13  H  1S         -0.01239  -0.02220   0.04428  -0.03604   0.03183
  75        2S         -0.61065  -0.73956   0.59286  -1.05639   0.18821
  76 14  C  1S         -0.11408   0.06441  -0.00376   0.00001   0.03225
  77        2S          0.03199  -0.01917   0.00256  -0.00000  -0.01510
  78        2PX         0.00003   0.00002   0.00002  -0.21554  -0.00001
  79        2PY         0.03690   0.09712   0.02451   0.00002  -0.04103
  80        2PZ        -0.02735  -0.10814  -0.15417  -0.00004   0.08329
  81        3S          1.64413  -0.86494   0.03735  -0.00007  -0.49274
  82        3PX         0.00015   0.00008   0.00011  -1.06199  -0.00002
  83        3PY         0.05614   0.47518   0.15787   0.00006  -0.25287
  84        3PZ         0.00958  -0.53684  -0.79576  -0.00009   0.51182
  85 15  H  1S         -0.01239   0.02220   0.04428  -0.03604  -0.03183
  86        2S         -0.61065   0.73956   0.59286  -1.05639  -0.18821
  87 16  H  1S         -0.01239   0.02217   0.04424   0.03602  -0.03181
  88        2S         -0.61096   0.73905   0.59229   1.05685  -0.18791
  89 17  H  1S          0.01231  -0.04720  -0.07366   0.00001   0.05363
  90        2S         -0.72797  -0.55015  -0.83535  -0.00030   0.82161
  91 18  H  1S          0.09779   0.00000   0.01423   0.00001   0.00000
  92        2S          0.65112   0.00000  -0.17638   0.00020   0.00000
                          41        42        43        44        45
                           V         V         V         V         V
     Eigenvalues --     0.21274   0.22025   0.25473   0.26824   0.32014
   1 1   C  1S          0.05546   0.00001  -0.10387  -0.09528  -0.01347
   2        2S         -0.00388   0.00001   0.05274   0.04262   0.02939
   3        2PX         0.00002  -0.14923   0.00001   0.00000   0.00001
   4        2PY         0.01866   0.00002  -0.00347   0.16456   0.15864
   5        2PZ        -0.10911  -0.00001   0.03312   0.01527   0.10200
   6        3S         -1.00080  -0.00032   1.28854   1.51972   0.06928
   7        3PX         0.00013  -0.53576   0.00003   0.00001   0.00004
   8        3PY         0.07629   0.00012   0.35518   0.88861   1.09011
   9        3PZ        -0.32995   0.00004   0.36263  -0.06463   0.37954
  10 2   C  1S          0.06000  -0.00000   0.04536   0.07848   0.04017
  11        2S         -0.03776   0.00000  -0.04926  -0.02472  -0.01082
  12        2PX         0.00000   0.10497  -0.00001   0.00001   0.00000
  13        2PY        -0.00548  -0.00001  -0.07742   0.05318   0.07314
  14        2PZ         0.07540   0.00001  -0.01508  -0.00361   0.03211
  15        3S         -0.70614   0.00002  -0.21759  -1.36828  -0.63299
  16        3PX        -0.00005   0.38909  -0.00001   0.00000  -0.00001
  17        3PY        -0.22212   0.00000  -1.03768   0.00743   0.50839
  18        3PZ         0.60418   0.00019  -0.08817  -0.15359   0.48055
  19 3   C  1S         -0.11006   0.00000   0.00242   0.00000  -0.09034
  20        2S          0.05731   0.00000   0.04251   0.00000   0.04675
  21        2PX         0.00000  -0.08090   0.00000  -0.00001   0.00000
  22        2PY         0.00000   0.00003   0.00000   0.12597   0.00000
  23        2PZ        -0.10639   0.00000  -0.06980   0.00000   0.22418
  24        3S          1.55103   0.00000  -0.82987   0.00000   1.36370
  25        3PX         0.00000  -0.33119   0.00000  -0.00001   0.00000
  26        3PY         0.00000   0.00014   0.00000   0.81655   0.00000
  27        3PZ        -0.74828   0.00000  -0.97483   0.00000   1.14382
  28 4   C  1S          0.06000   0.00000   0.04536  -0.07848   0.04017
  29        2S         -0.03776  -0.00000  -0.04926   0.02472  -0.01082
  30        2PX        -0.00000   0.10497   0.00001   0.00001  -0.00000
  31        2PY         0.00548  -0.00001   0.07742   0.05318  -0.07314
  32        2PZ         0.07540  -0.00001  -0.01508   0.00361   0.03211
  33        3S         -0.70614  -0.00002  -0.21759   1.36828  -0.63299
  34        3PX         0.00005   0.38909   0.00001   0.00000   0.00001
  35        3PY         0.22212   0.00000   1.03768   0.00743  -0.50839
  36        3PZ         0.60418  -0.00019  -0.08817   0.15359   0.48055
  37 5   C  1S          0.05546  -0.00001  -0.10387   0.09528  -0.01347
  38        2S         -0.00388  -0.00001   0.05274  -0.04262   0.02939
  39        2PX        -0.00002  -0.14923  -0.00001   0.00000  -0.00001
  40        2PY        -0.01866   0.00002   0.00347   0.16456  -0.15864
  41        2PZ        -0.10911   0.00001   0.03312  -0.01527   0.10200
  42        3S         -1.00080   0.00032   1.28854  -1.51972   0.06928
  43        3PX        -0.00013  -0.53576  -0.00003   0.00001  -0.00004
  44        3PY        -0.07629   0.00012  -0.35518   0.88861  -1.09011
  45        3PZ        -0.32995  -0.00004   0.36263   0.06463   0.37954
  46 6   N  1S         -0.06775   0.00000   0.07864   0.00000  -0.04292
  47        2S          0.01864   0.00000  -0.05209   0.00000   0.00061
  48        2PX         0.00000   0.17661   0.00000  -0.00001   0.00000
  49        2PY         0.00000   0.00003   0.00000  -0.03326   0.00000
  50        2PZ        -0.03618   0.00000   0.09534   0.00000  -0.17248
  51        3S          0.87806   0.00000  -0.72688   0.00000   0.73030
  52        3PX         0.00000   0.33922   0.00000  -0.00001   0.00000
  53        3PY         0.00000   0.00019   0.00000   0.01351   0.00000
  54        3PZ        -0.17058   0.00000   0.11190   0.00000  -0.85951
  55 7   H  1S          0.00043   0.00000  -0.04630   0.00000   0.00403
  56        2S         -1.42756   0.00000  -0.75841   0.00000   0.72849
  57 8   H  1S          0.02136  -0.00001   0.02777  -0.04451   0.00599
  58        2S          0.82055   0.00005   0.99890   0.31179   0.02602
  59 9   H  1S          0.02136   0.00001   0.02777   0.04451   0.00599
  60        2S          0.82055  -0.00005   0.99890  -0.31179   0.02602
  61 10  C  1S         -0.05015   0.00000   0.02125  -0.05894   0.02665
  62        2S          0.00894   0.00000   0.00874   0.00487   0.00138
  63        2PX         0.00011   0.19192   0.00001   0.00001   0.00004
  64        2PY         0.06203   0.00001  -0.14835   0.06009  -0.08453
  65        2PZ         0.00830   0.00001  -0.00354  -0.13669   0.07474
  66        3S          0.68257  -0.00005  -0.36285   0.86885  -0.49458
  67        3PX         0.00053   0.96076   0.00003   0.00004   0.00011
  68        3PY         0.35934   0.00001  -0.89258   0.61411  -0.68605
  69        3PZ        -0.10289   0.00004   0.14709  -0.91788   0.62343
  70 11  H  1S          0.03211   0.01250  -0.01959   0.02354  -0.02096
  71        2S         -0.17216   0.90124   0.02086   0.25323  -0.22826
  72 12  H  1S         -0.03949   0.00000  -0.02045   0.04004  -0.05587
  73        2S         -0.08268  -0.00011  -0.60961  -0.33445  -0.14147
  74 13  H  1S          0.03209  -0.01250  -0.01960   0.02353  -0.02096
  75        2S         -0.17325  -0.90105   0.02091   0.25332  -0.22859
  76 14  C  1S         -0.05015  -0.00000   0.02125   0.05894   0.02665
  77        2S          0.00894  -0.00000   0.00874  -0.00487   0.00138
  78        2PX        -0.00011   0.19192  -0.00001   0.00001  -0.00004
  79        2PY        -0.06203   0.00001   0.14835   0.06009   0.08453
  80        2PZ         0.00830  -0.00001  -0.00354   0.13669   0.07474
  81        3S          0.68257   0.00005  -0.36285  -0.86885  -0.49458
  82        3PX        -0.00053   0.96076  -0.00003   0.00004  -0.00011
  83        3PY        -0.35934   0.00001   0.89258   0.61411   0.68605
  84        3PZ        -0.10289  -0.00004   0.14709   0.91788   0.62343
  85 15  H  1S          0.03209   0.01250  -0.01960  -0.02353  -0.02096
  86        2S         -0.17325   0.90105   0.02091  -0.25332  -0.22859
  87 16  H  1S          0.03211  -0.01250  -0.01959  -0.02354  -0.02096
  88        2S         -0.17216  -0.90124   0.02086  -0.25323  -0.22826
  89 17  H  1S         -0.03949  -0.00000  -0.02045  -0.04004  -0.05587
  90        2S         -0.08268   0.00011  -0.60961   0.33445  -0.14147
  91 18  H  1S          0.04453   0.00000   0.03866   0.00000  -0.00874
  92        2S         -0.07670   0.00000   0.15703   0.00000   0.74087
                          46        47        48        49        50
                           V         V         V         V         V
     Eigenvalues --     0.34475   0.37371   0.37760   0.58256   0.60593
   1 1   C  1S         -0.08327   0.04653   0.02351   0.07864  -0.00166
   2        2S         -0.00477  -0.02030  -0.02909   0.08544  -0.05717
   3        2PX        -0.00001   0.00001   0.00000   0.00000  -0.00000
   4        2PY        -0.05460   0.19061  -0.15342  -0.03744  -0.12379
   5        2PZ         0.13558   0.14470   0.18567   0.09098   0.15446
   6        3S          1.80099  -0.92052  -0.88274  -2.00454  -0.63749
   7        3PX        -0.00004   0.00004   0.00001   0.00001  -0.00000
   8        3PY        -0.43265   1.27963  -1.14014   1.57517  -1.53413
   9        3PZ         0.72340   1.32812   1.25066   1.65939   2.29537
  10 2   C  1S         -0.04054  -0.06483  -0.01482  -0.12952   0.01056
  11        2S         -0.01702   0.00189  -0.02685   0.07069  -0.03693
  12        2PX         0.00000  -0.00001  -0.00001  -0.00001  -0.00003
  13        2PY        -0.01958  -0.16620   0.10298  -0.14238   0.05873
  14        2PZ        -0.11834   0.05748   0.10875   0.20604   0.11617
  15        3S          1.31982   1.60568   0.68334   3.03646   0.03805
  16        3PX         0.00002  -0.00002  -0.00000   0.00000   0.00002
  17        3PY        -0.50024  -1.13935   0.92254  -2.07682   1.52452
  18        3PZ        -0.82768   1.00009   1.26965   1.30403   2.44380
  19 3   C  1S          0.00000   0.00000  -0.05553   0.09906   0.00000
  20        2S          0.00000   0.00000  -0.02695   0.04225   0.00000
  21        2PX        -0.00000   0.00001   0.00000   0.00000   0.00001
  22        2PY        -0.20739   0.02949   0.00000   0.00000   0.22382
  23        2PZ         0.00000   0.00000  -0.04027  -0.07870   0.00000
  24        3S          0.00000   0.00000   1.92685  -2.89312   0.00000
  25        3PX        -0.00002   0.00002   0.00000   0.00000  -0.00001
[...]
  80        2PZ        -0.00000   0.00000   0.00000  -0.00000  -0.00000
  81        3S          0.00000  -0.00000   0.00000  -0.00000   0.00000
  82        3PX        -0.00000   0.00000   0.00000   0.00000  -0.00000
  83        3PY         0.00000   0.00000   0.00000  -0.00000   0.00000
  84        3PZ        -0.00000  -0.00000   0.00000   0.00000  -0.00000
  85 15  H  1S         -0.00000   0.00000   0.00000   0.00000   0.00000
  86        2S         -0.00000  -0.00000  -0.00000   0.00000   0.00000
  87 16  H  1S          0.00000   0.00000   0.00000  -0.00000  -0.00000
  88        2S          0.00000  -0.00000  -0.00000  -0.00000  -0.00000
  89 17  H  1S         -0.00000   0.00000  -0.00000   0.00000  -0.00000
  90        2S         -0.00000  -0.00000  -0.00000   0.00000  -0.00000
  91 18  H  1S          0.00007   0.00000   0.00001  -0.00000   0.00007
  92        2S          0.00071   0.00000   0.00007   0.00005   0.00071
                          76        77        78        79        80
  76 14  C  1S          2.03925
  77        2S          0.02282   0.09962
  78        2PX         0.00000   0.00000   0.29640
  79        2PY         0.00000   0.00000  -0.00000   0.27101
  80        2PZ         0.00000   0.00000  -0.00000   0.00000   0.28692
  81        3S         -0.08036   0.17740   0.00000   0.00000   0.00000
  82        3PX         0.00000   0.00000   0.13922  -0.00000  -0.00000
  83        3PY         0.00000   0.00000  -0.00000   0.08858   0.00000
  84        3PZ         0.00000   0.00000  -0.00000   0.00000   0.11985
  85 15  H  1S         -0.00101   0.00923   0.04119  -0.00001   0.02057
  86        2S          0.00194   0.00190   0.02567   0.00003   0.01345
  87 16  H  1S         -0.00101   0.00923   0.04121  -0.00001   0.02055
  88        2S          0.00194   0.00190   0.02568   0.00003   0.01343
  89 17  H  1S         -0.00108   0.00995   0.00000   0.04155   0.02183
  90        2S          0.00174   0.00356   0.00000   0.02490   0.01189
  91 18  H  1S          0.00000  -0.00000  -0.00000  -0.00000   0.00000
  92        2S          0.00002  -0.00012   0.00000  -0.00058   0.00011
                          81        82        83        84        85
  81        3S          0.92164
  82        3PX         0.00000   0.23614
  83        3PY         0.00000  -0.00000   0.11972
  84        3PZ         0.00000  -0.00000   0.00000   0.19437
  85 15  H  1S          0.06420   0.06254  -0.00033   0.02714   0.17726
  86        2S          0.02636   0.05777  -0.00025   0.02578   0.07844
  87 16  H  1S          0.06420   0.06258  -0.00033   0.02711  -0.00017
  88        2S          0.02636   0.05780  -0.00025   0.02576  -0.00434
  89 17  H  1S          0.06732   0.00000   0.05264   0.03779  -0.00017
  90        2S          0.03165   0.00000   0.04682   0.03114  -0.00374
  91 18  H  1S         -0.00010  -0.00000   0.00005   0.00011  -0.00000
  92        2S         -0.00002   0.00000  -0.00094   0.00057   0.00005
                          86        87        88        89        90
  86        2S          0.09901
  87 16  H  1S         -0.00434   0.17726
  88        2S         -0.01043   0.07844   0.09901
  89 17  H  1S         -0.00421  -0.00017  -0.00421   0.17943
  90        2S         -0.00880  -0.00374  -0.00880   0.07422   0.08529
  91 18  H  1S          0.00007  -0.00000   0.00007   0.00000   0.00001
  92        2S          0.00071   0.00005   0.00071   0.00000   0.00007
                          91        92
  91 18  H  1S          0.15583
  92        2S          0.04520   0.03898
     Gross orbital populations:
                           1
   1 1   C  1S          1.98788
   2        2S          0.41357
   3        2PX         0.35792
   4        2PY         0.55922
   5        2PZ         0.64871
   6        3S          0.69115
   7        3PX         0.46723
   8        3PY         0.12426
   9        3PZ         0.27376
  10 2   C  1S          1.98843
  11        2S          0.39829
  12        2PX         0.43121
  13        2PY         0.61331
  14        2PZ         0.60516
  15        3S          0.92133
  16        3PX         0.61393
  17        3PY         0.50233
  18        3PZ         0.25460
  19 3   C  1S          1.98852
  20        2S          0.41267
  21        2PX         0.32408
  22        2PY         0.63938
  23        2PZ         0.62668
  24        3S          0.88458
  25        3PX         0.46236
  26        3PY         0.24359
  27        3PZ         0.51494
  28 4   C  1S          1.98843
  29        2S          0.39829
  30        2PX         0.43121
  31        2PY         0.61331
  32        2PZ         0.60516
  33        3S          0.92133
  34        3PX         0.61393
  35        3PY         0.50233
  36        3PZ         0.25460
  37 5   C  1S          1.98788
  38        2S          0.41357
  39        2PX         0.35792
  40        2PY         0.55922
  41        2PZ         0.64871
  42        3S          0.69115
  43        3PX         0.46723
  44        3PY         0.12426
  45        3PZ         0.27376
  46 6   N  1S          1.98942
  47        2S          0.36088
  48        2PX         0.64017
  49        2PY         0.61768
  50        2PZ         0.61425
  51        3S          1.44446
  52        3PX         0.88331
  53        3PY         0.69054
  54        3PZ         0.77077
  55 7   H  1S          0.47102
  56        2S          0.19720
  57 8   H  1S          0.46817
  58        2S          0.21585
  59 9   H  1S          0.46817
  60        2S          0.21585
  61 10  C  1S          1.98848
  62        2S          0.35458
  63        2PX         0.56969
  64        2PY         0.53021
  65        2PZ         0.55498
  66        3S          1.16328
  67        3PX         0.59875
  68        3PY         0.37494
  69        3PZ         0.49503
  70 11  H  1S          0.45957
  71        2S          0.26208
  72 12  H  1S          0.46431
  73        2S          0.25366
  74 13  H  1S          0.45957
  75        2S          0.26210
  76 14  C  1S          1.98848
  77        2S          0.35458
  78        2PX         0.56969
  79        2PY         0.53021
  80        2PZ         0.55498
  81        3S          1.16328
  82        3PX         0.59875
  83        3PY         0.37494
  84        3PZ         0.49503
  85 15  H  1S          0.45957
  86        2S          0.26210
  87 16  H  1S          0.45957
  88        2S          0.26208
  89 17  H  1S          0.46431
  90        2S          0.25366
  91 18  H  1S          0.42469
  92        2S          0.14378
          Condensed to atoms (all electrons):
               1          2          3          4          5          6
     1  C    5.057051   0.457575  -0.117241  -0.002982  -0.072666   0.211197
     2  C    0.457575   5.282184   0.407087  -0.092092  -0.002982  -0.043415
     3  C   -0.117241   0.407087   5.208469   0.407087  -0.117241  -0.033523
     4  C   -0.002982  -0.092092   0.407087   5.282184   0.457575  -0.043415
     5  C   -0.072666  -0.002982  -0.117241   0.457575   5.057051   0.211197
     6  N    0.211197  -0.043415  -0.033523  -0.043415   0.211197   7.472531
     7  H    0.001916  -0.025480   0.381937  -0.025480   0.001916  -0.000058
     8  H   -0.024781   0.385540  -0.022466   0.002131  -0.000149   0.002232
     9  H   -0.000149   0.002131  -0.022466   0.385540  -0.024781   0.002232
    10  C    0.001533  -0.000274   0.002834  -0.044402   0.191270  -0.052741
    11  H    0.000010   0.000006  -0.000066   0.001027  -0.052242  -0.000979
    12  H   -0.000063   0.000006   0.000132  -0.001667  -0.044602   0.002237
    13  H    0.000010   0.000006  -0.000066   0.001028  -0.052240  -0.000981
    14  C    0.191270  -0.044402   0.002834  -0.000274   0.001533  -0.052741
    15  H   -0.052240   0.001028  -0.000066   0.000006   0.000010  -0.000981
    16  H   -0.052242   0.001027  -0.000066   0.000006   0.000010  -0.000979
    17  H   -0.044602  -0.001667   0.000132   0.000006  -0.000063   0.002237
    18  H   -0.029905   0.002292  -0.000512   0.002292  -0.029905   0.337441
               7          8          9         10         11         12
     1  C    0.001916  -0.024781  -0.000149   0.001533   0.000010  -0.000063
     2  C   -0.025480   0.385540   0.002131  -0.000274   0.000006   0.000006
     3  C    0.381937  -0.022466  -0.022466   0.002834  -0.000066   0.000132
     4  C   -0.025480   0.002131   0.385540  -0.044402   0.001027  -0.001667
     5  C    0.001916  -0.000149  -0.024781   0.191270  -0.052242  -0.044602
     6  N   -0.000058   0.002232   0.002232  -0.052741  -0.000979   0.002237
     7  H    0.335669  -0.001083  -0.001083  -0.000023   0.000000  -0.000000
     8  H   -0.001083   0.343342  -0.000014   0.000000  -0.000000  -0.000000
     9  H   -0.001083  -0.000014   0.343342  -0.001485  -0.000020   0.000835
    10  C   -0.000023   0.000000  -0.001485   5.400118   0.376164   0.381697
    11  H    0.000000  -0.000000  -0.000020   0.376164   0.433143  -0.016923
    12  H   -0.000000  -0.000000   0.000835   0.381697  -0.016923   0.413165
    13  H    0.000000  -0.000000  -0.000020   0.376167  -0.019292  -0.016924
    14  C   -0.000023  -0.001485   0.000000  -0.000018   0.000001   0.000000
    15  H    0.000000  -0.000020  -0.000000   0.000001  -0.000002  -0.000000
    16  H    0.000000  -0.000020  -0.000000   0.000001   0.000001  -0.000000
    17  H   -0.000000   0.000835  -0.000000   0.000000  -0.000000  -0.000000
    18  H    0.000003  -0.000046  -0.000046  -0.000909   0.000828   0.000077
              13         14         15         16         17         18
     1  C    0.000010   0.191270  -0.052240  -0.052242  -0.044602  -0.029905
     2  C    0.000006  -0.044402   0.001028   0.001027  -0.001667   0.002292
     3  C   -0.000066   0.002834  -0.000066  -0.000066   0.000132  -0.000512
     4  C    0.001028  -0.000274   0.000006   0.000006   0.000006   0.002292
     5  C   -0.052240   0.001533   0.000010   0.000010  -0.000063  -0.029905
     6  N   -0.000981  -0.052741  -0.000981  -0.000979   0.002237   0.337441
     7  H    0.000000  -0.000023   0.000000   0.000000  -0.000000   0.000003
     8  H   -0.000000  -0.001485  -0.000020  -0.000020   0.000835  -0.000046
     9  H   -0.000020   0.000000  -0.000000  -0.000000  -0.000000  -0.000046
    10  C    0.376167  -0.000018   0.000001   0.000001   0.000000  -0.000909
    11  H   -0.019292   0.000001  -0.000002   0.000001  -0.000000   0.000828
    12  H   -0.016924   0.000000  -0.000000  -0.000000  -0.000000   0.000077
    13  H    0.433154   0.000001   0.000001  -0.000002  -0.000000   0.000829
    14  C    0.000001   5.400118   0.376167   0.376164   0.381697  -0.000909
    15  H    0.000001   0.376167   0.433154  -0.019292  -0.016924   0.000829
    16  H   -0.000002   0.376164  -0.019292   0.433143  -0.016923   0.000828
    17  H   -0.000000   0.381697  -0.016924  -0.016923   0.413165   0.000077
    18  H    0.000829  -0.000909   0.000829   0.000828   0.000077   0.285210
 Mulliken charges:
               1
     1  C    0.476309
     2  C   -0.328572
     3  C   -0.096800
     4  C   -0.328572
     5  C    0.476309
     6  N   -1.011492
     7  H    0.331786
     8  H    0.315984
     9  H    0.315984
    10  C   -0.629934
    11  H    0.278345
    12  H    0.282028
    13  H    0.278329
    14  C   -0.629934
    15  H    0.278329
    16  H    0.278345
    17  H    0.282028
    18  H    0.431527
 Sum of Mulliken charges =   1.00000
 Mulliken charges with hydrogens summed into heavy atoms:
               1
     1  C    0.476309
     2  C   -0.012588
     3  C    0.234987
     4  C   -0.012588
     5  C    0.476309
     6  N   -0.579965
    10  C    0.208768
    14  C    0.208768
 Electronic spatial extent (au):  <R**2>=            971.6469
 Charge=              1.0000 electrons
 Dipole moment (field-independent basis, Debye):
    X=              0.0000    Y=             -0.0000    Z=              1.1626  Tot=              1.1626
 Quadrupole moment (field-independent basis, Debye-Ang):
   XX=            -49.9392   YY=            -28.1544   ZZ=            -30.7757
   XY=              0.0003   XZ=              0.0000   YZ=             -0.0000
 Traceless Quadrupole moment (field-independent basis, Debye-Ang):
   XX=            -13.6494   YY=              8.1354   ZZ=              5.5141
   XY=              0.0003   XZ=              0.0000   YZ=             -0.0000
 Octapole moment (field-independent basis, Debye-Ang**2):
  XXX=             -0.0000  YYY=              0.0000  ZZZ=             -4.6313  XYY=             -0.0000
  XXY=             -0.0000  XXZ=              6.9168  XZZ=             -0.0000  YZZ=             -0.0000
  YYZ=              7.0035  XYZ=              0.0008
 Hexadecapole moment (field-independent basis, Debye-Ang**3):
 XXXX=            -61.1160 YYYY=           -653.0108 ZZZZ=           -340.4325 XXXY=              0.0008
 XXXZ=             -0.0000 YYYX=             -0.0041 YYYZ=              0.0000 ZZZX=             -0.0000
 ZZZY=             -0.0000 XXYY=           -145.8372 XXZZ=            -81.7048 YYZZ=           -169.7343
 XXYZ=             -0.0000 YYXZ=              0.0000 ZZXY=             -0.0013
 N-N= 3.601244562482D+02 E-N=-1.460566057888D+03  KE= 3.226934302177D+02
 Symmetry A    KE= 2.007416566887D+02
 Symmetry B    KE= 1.219517735290D+02
 Orbital energies and kinetic energies (alpha):
                                 1                 2
   1         O               -15.774285         21.922799
   2         O               -11.452158         15.875387
   3         O               -11.451934         15.872670
   4         O               -11.396789         15.875834
   5         O               -11.366406         15.870451
   6         O               -11.366342         15.877855
   7         O               -11.342506         15.875392
   8         O               -11.342462         15.874394
   9         O                -1.529753          1.889776
  10         O                -1.301625          1.617000
  11         O                -1.289253          1.591395
  12         O                -1.176316          1.424694
  13         O                -1.133172          1.507758
  14         O                -1.070218          1.485634
  15         O                -1.039172          1.599437
  16         O                -0.942817          1.380106
  17         O                -0.884214          1.447888
  18         O                -0.847433          1.225393
  19         O                -0.814805          1.071684
  20         O                -0.800224          1.376641
  21         O                -0.774709          1.267931
  22         O                -0.753738          0.942207
  23         O                -0.743007          1.100589
  24         O                -0.718007          1.116598
  25         O                -0.708615          1.118557
  26         O                -0.701569          1.469819
  27         O                -0.696169          1.390882
  28         O                -0.598985          1.163589
  29         O                -0.531773          1.114354
  30         V                -0.096537          1.384938
  31         V                -0.038035          1.301947
  32         V                 0.064345          1.034820
  33         V                 0.124137          0.968974
  34         V                 0.141010          0.960766
  35         V                 0.143829          1.336374
  36         V                 0.157583          1.216464
  37         V                 0.159733          1.011151
  38         V                 0.172242          1.092409
  39         V                 0.195551          0.891964
  40         V                 0.198370          1.186489
  41         V                 0.212741          1.519871
  42         V                 0.220252          1.208426
  43         V                 0.254732          1.672574
  44         V                 0.268235          1.841369
  45         V                 0.320140          1.726676
  46         V                 0.344751          1.861381
  47         V                 0.373710          1.678500
  48         V                 0.377605          1.759749
  49         V                 0.582558          2.693409
  50         V                 0.605931          1.966866
  51         V                 0.684333          2.062968
  52         V                 0.726518          2.300861
  53         V                 0.742947          2.446618
  54         V                 0.770883          2.214261
  55         V                 0.772751          2.602385
  56         V                 0.803308          2.804578
  57         V                 0.815269          2.302486
  58         V                 0.831155          3.151476
  59         V                 0.842397          2.904355
  60         V                 0.902380          2.602110
  61         V                 0.907727          2.660804
  62         V                 0.908108          2.673187
  63         V                 0.952650          2.746003
  64         V                 0.955859          2.576049
  65         V                 0.959704          2.822649
  66         V                 0.982699          2.624960
  67         V                 1.022935          3.058939
  68         V                 1.039198          2.866857
  69         V                 1.113550          3.361455
  70         V                 1.183056          2.951622
  71         V                 1.183240          3.145557
  72         V                 1.184074          2.979029
  73         V                 1.192864          2.747934
  74         V                 1.205274          2.901354
  75         V                 1.231501          3.419705
  76         V                 1.249699          3.218401
  77         V                 1.258190          3.042584
  78         V                 1.282417          3.207683
  79         V                 1.304569          3.804339
  80         V                 1.370805          3.059541
  81         V                 1.484083          3.366050
  82         V                 1.502909          2.742431
  83         V                 1.547353          3.237562
  84         V                 1.655055          3.134002
  85         V                 1.705071          3.196345
  86         V                 1.789978          3.673334
  87         V                 1.934023          3.618549
  88         V                 2.066456          3.811830
  89         V                 2.113974          3.421404
  90         V                 2.142480          3.603068
  91         V                 2.214297          3.479743
  92         V                 3.042723          5.100206
 Total kinetic energy from orbitals= 3.226934302177D+02
 1\1\GINC-IISERK51\SP\RHF\3-21G\C7H10N1(1+)\GAUSSIAN\16-Jun-2025\0\\# h
 f/3-21g pop=full geom=connectivity\\2,6 DMP ion sp\\1,1\C,0,0.,1.19671
 ,0.221373\C,0,0.,1.204498,-1.150672\C,0,0.,0.,-1.837312\C,0,0.,-1.2044
 98,-1.150672\C,0,0.,-1.19671,0.221373\N,0,0.,0.,0.848054\H,0,0.,0.,-2.
 908463\H,0,-0.000001,2.136677,-1.672223\H,0,0.000001,-2.136677,-1.6722
 23\C,0,-0.000023,-2.435258,1.075053\H,0,-0.881858,-2.459886,1.706196\H
 ,0,0.000172,-3.318896,0.45543\H,0,0.881586,-2.45972,1.706515\C,0,0.000
 023,2.435258,1.075053\H,0,-0.881586,2.45972,1.706515\H,0,0.881858,2.45
 9886,1.706196\H,0,-0.000172,3.318896,0.45543\H,0,0.,0.,1.855087\\Versi
 on=EM64L-G16RevB.01\State=1-A\HF=-323.3603151\RMSD=3.345e-09\Dipole=0.
 ,0.,0.4574\Quadrupole=-10.1480002,6.0484346,4.0995656,0.0002154,0.,0.\
 PG=C02 [C2(H1C1N1H1),X(C6H8)]\\@


 THE HURRIEDER I GO, THE BEHINDER I GET.
 Job cpu time:       0 days  0 hours  0 minutes  1.1 seconds.
 Elapsed time:       0 days  0 hours  0 minutes  1.1 seconds.
 File lengths (MBytes):  RWF=     10 Int=      0 D2E=      0 Chk=      2 Scr=      1
 Normal termination of Gaussian 16 at Mon Jun 16 16:47:12 2025.
