 Entering Gaussian System, Link 0=g16
 Input=/home/gaussian/Documents/program files/Aromaticity/AM1 HF3-21G*/cyclooctatetraene/opt freq/cyclooctatetraene.com
 Output=/home/gaussian/Documents/program files/Aromaticity/AM1 HF3-21G*/cyclooctatetraene/opt freq/cyclooctatetraene.log
 Initial command:
 /usr/local/g16/l1.exe "/home/gaussian/tmp/Gau-145388.inp" -scrdir="/home/gaussian/tmp/"
 Entering Link 1 = /usr/local/g16/l1.exe PID=    145391.
  
 Copyright (c) 1988-2017, Gaussian, Inc.  All Rights Reserved.
  
 This is part of the Gaussian(R) 16 program.  It is based on
 the Gaussian(R) 09 system (copyright 2009, Gaussian, Inc.),
 the Gaussian(R) 03 system (copyright 2003, Gaussian, Inc.),
 the Gaussian(R) 98 system (copyright 1998, Gaussian, Inc.),
 the Gaussian(R) 94 system (copyright 1995, Gaussian, Inc.),
 the Gaussian 92(TM) system (copyright 1992, Gaussian, Inc.),
 the Gaussian 90(TM) system (copyright 1990, Gaussian, Inc.),
 the Gaussian 88(TM) system (copyright 1988, Gaussian, Inc.),
 the Gaussian 86(TM) system (copyright 1986, Carnegie Mellon
 University), and the Gaussian 82(TM) system (copyright 1983,
 Carnegie Mellon University). Gaussian is a federally registered
 trademark of Gaussian, Inc.
  
 This software contains proprietary and confidential information,
 including trade secrets, belonging to Gaussian, Inc.
  
 This software is provided under written license and may be
 used, copied, transmitted, or stored only in accord with that
 written license.
  
 The following legend is applicable only to US Government
 contracts under FAR:
  
                    RESTRICTED RIGHTS LEGEND
  
 Use, reproduction and disclosure by the US Government is
 subject to restrictions as set forth in subparagraphs (a)
 and (c) of the Commercial Computer Software - Restricted
 Rights clause in FAR 52.227-19.
  
 Gaussian, Inc.
 340 Quinnipiac St., Bldg. 40, Wallingford CT 06492
  
  
 ---------------------------------------------------------------
 Warning -- This program may not be used in any manner that
 competes with the business of Gaussian, Inc. or will provide
 assistance to any competitor of Gaussian, Inc.  The licensee
 of this program is prohibited from giving any competitor of
 Gaussian, Inc. access to this program.  By using this program,
 the user acknowledges that Gaussian, Inc. is engaged in the
 business of creating and licensing software in the field of
 computational chemistry and represents and warrants to the
 licensee that it is not a competitor of Gaussian, Inc. and that
 it will not use this program in any manner prohibited above.
 ---------------------------------------------------------------
  

 Cite this work as:
 Gaussian 16, Revision B.01,
 M. J. Frisch, G. W. Trucks, H. B. Schlegel, G. E. Scuseria, 
 M. A. Robb, J. R. Cheeseman, G. Scalmani, V. Barone, 
 G. A. Petersson, H. Nakatsuji, X. Li, M. Caricato, A. V. Marenich, 
 J. Bloino, B. G. Janesko, R. Gomperts, B. Mennucci, H. P. Hratchian, 
 J. V. Ortiz, A. F. Izmaylov, J. L. Sonnenberg, D. Williams-Young, 
 F. Ding, F. Lipparini, F. Egidi, J. Goings, B. Peng, A. Petrone, 
 T. Henderson, D. Ranasinghe, V. G. Zakrzewski, J. Gao, N. Rega, 
 G. Zheng, W. Liang, M. Hada, M. Ehara, K. Toyota, R. Fukuda, 
 J. Hasegawa, M. Ishida, T. Nakajima, Y. Honda, O. Kitao, H. Nakai, 
 T. Vreven, K. Throssell, J. A. Montgomery, Jr., J. E. Peralta, 
 F. Ogliaro, M. J. Bearpark, J. J. Heyd, E. N. Brothers, K. N. Kudin, 
 V. N. Staroverov, T. A. Keith, R. Kobayashi, J. Normand, 
 K. Raghavachari, A. P. Rendell, J. C. Burant, S. S. Iyengar, 
 J. Tomasi, M. Cossi, J. M. Millam, M. Klene, C. Adamo, R. Cammi, 
 J. W. Ochterski, R. L. Martin, K. Morokuma, O. Farkas, 
 J. B. Foresman, and D. J. Fox, Gaussian, Inc., Wallingford CT, 2016.
 
 ******************************************
 Gaussian 16:  EM64L-G16RevB.01 20-Dec-2017
                12-Jun-2025 
 ******************************************
 %chk=cyclooctatetraene.chk
 ---------------------------------------
 # opt freq am1 pop=full gfinput gfprint
 ---------------------------------------
 1/18=20,19=15,26=1,38=1/1,3;
 2/9=110,12=2,17=6,18=5,40=1/2;
 3/5=2,24=110,25=1,41=700000,71=1/1,2,3;
 4/35=1/1;
 5/5=2,35=1,38=5/2;
 6/7=3,28=1/1;
 7//1,2,3,16;
 1/18=20,19=15,26=1/3(2);
 2/9=110/2;
 99//99;
 2/9=110/2;
 3/5=2,25=1,41=700000,71=1,135=20/1,2,3;
 4/5=5,16=3,35=1/1;
 5/5=2,35=1,38=5/2;
 7//1,2,3,16;
 1/18=20,19=15,26=1/3(-5);
 2/9=110/2;
 6/7=3,19=2,28=1/1;
 99/9=1/99;
 ------------
 optimisation
 ------------
 Symbolic Z-matrix:
 Charge =  0 Multiplicity = 1
 C                     0.        0.703     0. 
 C                     0.7532    0.        0. 
 C                     1.7574    0.        0. 
 C                     0.        1.7072    0. 
 C                     2.4102    0.7532    0. 
 C                     0.6528    2.4102    0. 
 C                     2.4102    1.7574    0. 
 C                     1.657     2.4102    0. 
 H                    -0.9465    0.2917    0. 
 H                     0.37476  -0.96011   0. 
 H                     2.18606  -0.93876   0. 
 H                    -0.96059   2.08442   0. 
 H                     3.37711   0.3925    0. 
 H                     0.2403    3.35617   0. 
 H                     3.34896   2.18606   0. 
 H                     2.0177    3.37711   0. 
 

 GradGradGradGradGradGradGradGradGradGradGradGradGradGradGradGradGradGrad
 Berny optimization.
 Initialization pass.
                           ----------------------------
                           !    Initial Parameters    !
                           ! (Angstroms and Degrees)  !
 --------------------------                            --------------------------
 ! Name  Definition              Value          Derivative Info.                !
 --------------------------------------------------------------------------------
 ! R1    R(1,2)                  1.0303         estimate D2E/DX2                !
 ! R2    R(1,4)                  1.0042         estimate D2E/DX2                !
 ! R3    R(1,6)                  1.8278         estimate D2E/DX2                !
 ! R4    R(1,9)                  1.032          estimate D2E/DX2                !
 ! R5    R(2,3)                  1.0042         estimate D2E/DX2                !
 ! R6    R(2,5)                  1.8202         estimate D2E/DX2                !
 ! R7    R(2,10)                 1.032          estimate D2E/DX2                !
 ! R8    R(3,5)                  0.9967         estimate D2E/DX2                !
 ! R9    R(3,11)                 1.032          estimate D2E/DX2                !
 ! R10   R(4,6)                  0.9594         estimate D2E/DX2                !
 ! R11   R(4,8)                  1.8            estimate D2E/DX2                !
 ! R12   R(4,12)                 1.032          estimate D2E/DX2                !
 ! R13   R(5,7)                  1.0042         estimate D2E/DX2                !
 ! R14   R(5,8)                  1.8202         estimate D2E/DX2                !
 ! R15   R(5,13)                 1.032          estimate D2E/DX2                !
 ! R16   R(6,8)                  1.0042         estimate D2E/DX2                !
 ! R17   R(6,14)                 1.032          estimate D2E/DX2                !
 ! R18   R(7,8)                  0.9967         estimate D2E/DX2                !
 ! R19   R(7,15)                 1.032          estimate D2E/DX2                !
 ! R20   R(8,16)                 1.032          estimate D2E/DX2                !
 ! A1    A(2,1,4)              133.0256         estimate D2E/DX2                !
 ! A2    A(2,1,6)              112.0997         estimate D2E/DX2                !
 ! A3    A(2,1,9)              113.4871         estimate D2E/DX2                !
 ! A4    A(4,1,9)              113.4873         estimate D2E/DX2                !
 ! A5    A(6,1,9)              134.4132         estimate D2E/DX2                !
 ! A6    A(1,2,3)              136.9744         estimate D2E/DX2                !
 ! A7    A(1,2,5)              112.5299         estimate D2E/DX2                !
 ! A8    A(1,2,10)             111.5131         estimate D2E/DX2                !
 ! A9    A(3,2,10)             111.5125         estimate D2E/DX2                !
 ! A10   A(5,2,10)             135.957          estimate D2E/DX2                !
 ! A11   A(2,3,11)             114.5426         estimate D2E/DX2                !
 ! A12   A(5,3,11)             114.5419         estimate D2E/DX2                !
 ! A13   A(1,4,8)              112.9896         estimate D2E/DX2                !
 ! A14   A(1,4,12)             111.4397         estimate D2E/DX2                !
 ! A15   A(6,4,12)             111.4398         estimate D2E/DX2                !
 ! A16   A(8,4,12)             135.5706         estimate D2E/DX2                !
 ! A17   A(2,5,7)              114.4445         estimate D2E/DX2                !
 ! A18   A(2,5,8)               90.0            estimate D2E/DX2                !
 ! A19   A(2,5,13)             135.0978         estimate D2E/DX2                !
 ! A20   A(3,5,7)              139.0845         estimate D2E/DX2                !
 ! A21   A(3,5,8)              114.64           estimate D2E/DX2                !
 ! A22   A(3,5,13)             110.4578         estimate D2E/DX2                !
 ! A23   A(7,5,13)             110.4577         estimate D2E/DX2                !
 ! A24   A(8,5,13)             134.9022         estimate D2E/DX2                !
 ! A25   A(1,6,8)              110.9259         estimate D2E/DX2                !
 ! A26   A(1,6,14)             135.514          estimate D2E/DX2                !
 ! A27   A(4,6,14)             113.5604         estimate D2E/DX2                !
 ! A28   A(8,6,14)             113.5601         estimate D2E/DX2                !
 ! A29   A(5,7,15)             114.5426         estimate D2E/DX2                !
 ! A30   A(8,7,15)             114.5419         estimate D2E/DX2                !
 ! A31   A(4,8,5)               91.4549         estimate D2E/DX2                !
 ! A32   A(4,8,7)              116.0949         estimate D2E/DX2                !
 ! A33   A(4,8,16)             133.4473         estimate D2E/DX2                !
 ! A34   A(5,8,6)              114.4445         estimate D2E/DX2                !
 ! A35   A(5,8,16)             135.0978         estimate D2E/DX2                !
 ! A36   A(6,8,7)              139.0845         estimate D2E/DX2                !
 ! A37   A(6,8,16)             110.4577         estimate D2E/DX2                !
 ! A38   A(7,8,16)             110.4578         estimate D2E/DX2                !
 ! D1    D(4,1,2,3)              0.0            estimate D2E/DX2                !
 ! D2    D(4,1,2,5)              0.0            estimate D2E/DX2                !
 ! D3    D(4,1,2,10)           180.0            estimate D2E/DX2                !
 ! D4    D(6,1,2,3)              0.0            estimate D2E/DX2                !
 ! D5    D(6,1,2,5)              0.0            estimate D2E/DX2                !
 ! D6    D(6,1,2,10)           180.0            estimate D2E/DX2                !
 ! D7    D(9,1,2,3)            180.0            estimate D2E/DX2                !
 ! D8    D(9,1,2,5)            180.0            estimate D2E/DX2                !
 ! D9    D(9,1,2,10)             0.0            estimate D2E/DX2                !
 ! D10   D(2,1,4,8)              0.0            estimate D2E/DX2                !
 ! D11   D(2,1,4,12)           180.0            estimate D2E/DX2                !
 ! D12   D(9,1,4,8)            180.0            estimate D2E/DX2                !
 ! D13   D(9,1,4,12)             0.0            estimate D2E/DX2                !
 ! D14   D(2,1,6,8)              0.0            estimate D2E/DX2                !
 ! D15   D(2,1,6,14)           180.0            estimate D2E/DX2                !
 ! D16   D(9,1,6,8)            180.0            estimate D2E/DX2                !
 ! D17   D(9,1,6,14)             0.0            estimate D2E/DX2                !
 ! D18   D(1,2,3,11)           180.0            estimate D2E/DX2                !
 ! D19   D(10,2,3,11)            0.0            estimate D2E/DX2                !
 ! D20   D(1,2,5,7)              0.0            estimate D2E/DX2                !
 ! D21   D(1,2,5,8)              0.0            estimate D2E/DX2                !
 ! D22   D(1,2,5,13)           180.0            estimate D2E/DX2                !
 ! D23   D(10,2,5,7)           180.0            estimate D2E/DX2                !
 ! D24   D(10,2,5,8)           180.0            estimate D2E/DX2                !
 ! D25   D(10,2,5,13)            0.0            estimate D2E/DX2                !
 ! D26   D(11,3,5,7)           180.0            estimate D2E/DX2                !
 ! D27   D(11,3,5,8)           180.0            estimate D2E/DX2                !
 ! D28   D(11,3,5,13)            0.0            estimate D2E/DX2                !
 ! D29   D(12,4,6,14)            0.0            estimate D2E/DX2                !
 ! D30   D(1,4,8,5)              0.0            estimate D2E/DX2                !
 ! D31   D(1,4,8,7)              0.0            estimate D2E/DX2                !
 ! D32   D(1,4,8,16)           180.0            estimate D2E/DX2                !
 ! D33   D(12,4,8,5)           180.0            estimate D2E/DX2                !
 ! D34   D(12,4,8,7)           180.0            estimate D2E/DX2                !
 ! D35   D(12,4,8,16)            0.0            estimate D2E/DX2                !
 ! D36   D(2,5,7,15)           180.0            estimate D2E/DX2                !
 ! D37   D(3,5,7,15)           180.0            estimate D2E/DX2                !
 ! D38   D(13,5,7,15)            0.0            estimate D2E/DX2                !
 ! D39   D(2,5,8,4)              0.0            estimate D2E/DX2                !
 ! D40   D(2,5,8,6)              0.0            estimate D2E/DX2                !
 ! D41   D(2,5,8,16)           180.0            estimate D2E/DX2                !
 ! D42   D(3,5,8,4)              0.0            estimate D2E/DX2                !
 ! D43   D(3,5,8,6)              0.0            estimate D2E/DX2                !
 ! D44   D(3,5,8,16)           180.0            estimate D2E/DX2                !
 ! D45   D(13,5,8,4)           180.0            estimate D2E/DX2                !
 ! D46   D(13,5,8,6)           180.0            estimate D2E/DX2                !
 ! D47   D(13,5,8,16)            0.0            estimate D2E/DX2                !
 ! D48   D(1,6,8,5)              0.0            estimate D2E/DX2                !
 ! D49   D(1,6,8,7)              0.0            estimate D2E/DX2                !
 ! D50   D(1,6,8,16)           180.0            estimate D2E/DX2                !
 ! D51   D(14,6,8,5)           180.0            estimate D2E/DX2                !
 ! D52   D(14,6,8,7)           180.0            estimate D2E/DX2                !
 ! D53   D(14,6,8,16)            0.0            estimate D2E/DX2                !
 ! D54   D(15,7,8,4)           180.0            estimate D2E/DX2                !
 ! D55   D(15,7,8,6)           180.0            estimate D2E/DX2                !
 ! D56   D(15,7,8,16)            0.0            estimate D2E/DX2                !
 --------------------------------------------------------------------------------
 Trust Radius=3.00D-01 FncErr=1.00D-07 GrdErr=1.00D-07 EigMax=2.50D+02 EigMin=1.00D-04
 Number of steps in this run=    100 maximum allowed number of steps=    100.
 GradGradGradGradGradGradGradGradGradGradGradGradGradGradGradGradGradGrad

                          Input orientation:                          
 ---------------------------------------------------------------------
 Center     Atomic      Atomic             Coordinates (Angstroms)
 Number     Number       Type             X           Y           Z
 ---------------------------------------------------------------------
      1          6           0        0.000000    0.703000    0.000000
      2          6           0        0.753200    0.000000    0.000000
      3          6           0        1.757400    0.000000    0.000000
      4          6           0        0.000000    1.707200    0.000000
      5          6           0        2.410200    0.753200    0.000000
      6          6           0        0.652800    2.410200    0.000000
      7          6           0        2.410200    1.757400    0.000000
      8          6           0        1.657000    2.410200    0.000000
      9          1           0       -0.946500    0.291700    0.000000
     10          1           0        0.374760   -0.960110    0.000000
     11          1           0        2.186060   -0.938760    0.000000
     12          1           0       -0.960590    2.084420    0.000000
     13          1           0        3.377110    0.392500    0.000000
     14          1           0        0.240300    3.356170    0.000000
     15          1           0        3.348960    2.186060    0.000000
     16          1           0        2.017700    3.377110    0.000000
 ---------------------------------------------------------------------
                    Distance matrix (angstroms):
                    1          2          3          4          5
     1  C    0.000000
     2  C    1.030301   0.000000
     3  C    1.892793   1.004200   0.000000
     4  C    1.004200   1.865969   2.450099   0.000000
     5  C    2.410723   1.820154   0.996724   2.592138   0.000000
     6  C    1.827753   2.412290   2.651265   0.959352   2.415389
     7  C    2.630746   2.415389   1.874727   2.410723   1.004200
     8  C    2.379113   2.574086   2.412290   1.799961   1.820154
     9  H    1.032003   1.724549   2.719589   1.702793   3.388276
    10  H    1.704811   1.032002   1.683302   2.693508   2.660535
    11  H    2.733905   1.712997   1.031998   3.432195   1.706742
    12  H    1.682574   2.698496   3.425241   1.032002   3.624137
    13  H    3.391354   2.653104   1.666588   3.623991   1.031998
    14  H    2.664030   3.395135   3.683133   1.666387   3.388793
    15  H    3.662649   3.393645   2.704057   3.383022   1.712997
    16  H    3.349922   3.606083   3.387127   2.619105   2.653104
                    6          7          8          9         10
     6  C    0.000000
     7  C    1.874727   0.000000
     8  C    1.004200   0.996724   0.000000
     9  H    2.654393   3.662746   3.356524   0.000000
    10  H    3.381759   3.395273   3.605985   1.820098   0.000000
    11  H    3.683262   2.705461   3.390492   3.365556   1.811426
    12  H    1.645953   3.386616   2.637785   1.792775   3.324503
    13  H    3.390130   1.672683   2.651394   4.324785   3.292971
    14  H    1.031996   2.695279   1.703496   3.286255   4.318374
    15  H    2.705461   1.031998   1.706742   4.694633   4.329463
    16  H    1.672683   1.666588   1.031998   4.278579   4.637966
                   11         12         13         14         15
    11  H    0.000000
    12  H    4.363602   0.000000
    13  H    1.786296   4.655989   0.000000
    14  H    4.715125   1.749138   4.315428   0.000000
    15  H    3.334192   4.310748   1.793781   3.321585   0.000000
    16  H    4.319153   3.246730   3.279618   1.777523   1.786296
                   16
    16  H    0.000000
 Stoichiometry    C8H8
 Framework group  CS[SG(C8H8)]
 Deg. of freedom    29
 Full point group                 CS      NOp   2
 Largest Abelian subgroup         CS      NOp   2
 Largest concise Abelian subgroup C1      NOp   1
                         Standard orientation:                         
 ---------------------------------------------------------------------
 Center     Atomic      Atomic             Coordinates (Angstroms)
 Number     Number       Type             X           Y           Z
 ---------------------------------------------------------------------
      1          6           0       -1.205046   -0.515505    0.000000
      2          6           0       -0.451846   -1.218505    0.000000
      3          6           0        0.552354   -1.218505    0.000000
      4          6           0       -1.205046    0.488695    0.000000
      5          6           0        1.205154   -0.465305    0.000000
      6          6           0       -0.552246    1.191695    0.000000
      7          6           0        1.205154    0.538895    0.000000
      8          6           0        0.451954    1.191695    0.000000
      9          1           0       -2.151546   -0.926805    0.000000
     10          1           0       -0.830286   -2.178615    0.000000
     11          1           0        0.981014   -2.157265    0.000000
     12          1           0       -2.165636    0.865915    0.000000
     13          1           0        2.172064   -0.826005    0.000000
     14          1           0       -0.964746    2.137665    0.000000
     15          1           0        2.143914    0.967555    0.000000
     16          1           0        0.812654    2.158605    0.000000
 ---------------------------------------------------------------------
 Rotational constants (GHZ):           4.9421135           4.7857279           2.4313318
 Standard basis: VSTO-6G (5D, 7F)
 AO basis set in the form of general basis input (Overlap normalization):
      1 0
 SP   6 1.00       0.000000000000
      0.8932223782D+01 -0.9737395526D-02 -0.8104943356D-02
      0.2572025686D+01 -0.7265876782D-01 -0.1715478915D-01
      0.1011642098D+01 -0.1716155198D+00  0.7369785762D-01
      0.4623548222D+00  0.1289776243D+00  0.3965149986D+00
      0.2300982791D+00  0.7288614510D+00  0.4978084880D+00
      0.1181697462D+00  0.3013317422D+00  0.1174825823D+00
 ****
      2 0
 SP   6 1.00       0.000000000000
      0.8932223782D+01 -0.9737395526D-02 -0.8104943356D-02
      0.2572025686D+01 -0.7265876782D-01 -0.1715478915D-01
      0.1011642098D+01 -0.1716155198D+00  0.7369785762D-01
      0.4623548222D+00  0.1289776243D+00  0.3965149986D+00
      0.2300982791D+00  0.7288614510D+00  0.4978084880D+00
      0.1181697462D+00  0.3013317422D+00  0.1174825823D+00
 ****
      3 0
 SP   6 1.00       0.000000000000
      0.8932223782D+01 -0.9737395526D-02 -0.8104943356D-02
      0.2572025686D+01 -0.7265876782D-01 -0.1715478915D-01
      0.1011642098D+01 -0.1716155198D+00  0.7369785762D-01
      0.4623548222D+00  0.1289776243D+00  0.3965149986D+00
      0.2300982791D+00  0.7288614510D+00  0.4978084880D+00
      0.1181697462D+00  0.3013317422D+00  0.1174825823D+00
 ****
      4 0
 SP   6 1.00       0.000000000000
      0.8932223782D+01 -0.9737395526D-02 -0.8104943356D-02
      0.2572025686D+01 -0.7265876782D-01 -0.1715478915D-01
      0.1011642098D+01 -0.1716155198D+00  0.7369785762D-01
      0.4623548222D+00  0.1289776243D+00  0.3965149986D+00
      0.2300982791D+00  0.7288614510D+00  0.4978084880D+00
      0.1181697462D+00  0.3013317422D+00  0.1174825823D+00
 ****
      5 0
 SP   6 1.00       0.000000000000
      0.8932223782D+01 -0.9737395526D-02 -0.8104943356D-02
      0.2572025686D+01 -0.7265876782D-01 -0.1715478915D-01
      0.1011642098D+01 -0.1716155198D+00  0.7369785762D-01
      0.4623548222D+00  0.1289776243D+00  0.3965149986D+00
      0.2300982791D+00  0.7288614510D+00  0.4978084880D+00
      0.1181697462D+00  0.3013317422D+00  0.1174825823D+00
 ****
      6 0
 SP   6 1.00       0.000000000000
      0.8932223782D+01 -0.9737395526D-02 -0.8104943356D-02
      0.2572025686D+01 -0.7265876782D-01 -0.1715478915D-01
      0.1011642098D+01 -0.1716155198D+00  0.7369785762D-01
      0.4623548222D+00  0.1289776243D+00  0.3965149986D+00
      0.2300982791D+00  0.7288614510D+00  0.4978084880D+00
      0.1181697462D+00  0.3013317422D+00  0.1174825823D+00
 ****
      7 0
 SP   6 1.00       0.000000000000
      0.8932223782D+01 -0.9737395526D-02 -0.8104943356D-02
      0.2572025686D+01 -0.7265876782D-01 -0.1715478915D-01
      0.1011642098D+01 -0.1716155198D+00  0.7369785762D-01
      0.4623548222D+00  0.1289776243D+00  0.3965149986D+00
      0.2300982791D+00  0.7288614510D+00  0.4978084880D+00
      0.1181697462D+00  0.3013317422D+00  0.1174825823D+00
 ****
      8 0
 SP   6 1.00       0.000000000000
      0.8932223782D+01 -0.9737395526D-02 -0.8104943356D-02
      0.2572025686D+01 -0.7265876782D-01 -0.1715478915D-01
      0.1011642098D+01 -0.1716155198D+00  0.7369785762D-01
      0.4623548222D+00  0.1289776243D+00  0.3965149986D+00
      0.2300982791D+00  0.7288614510D+00  0.4978084880D+00
      0.1181697462D+00  0.3013317422D+00  0.1174825823D+00
 ****
      9 0
 S   6 1.00       0.000000000000
      0.3854191010D+01 -0.9737395526D-02
      0.1109810784D+01 -0.7265876782D-01
      0.4365163674D+00 -0.1716155198D+00
      0.1995028162D+00  0.1289776243D+00
      0.9928577031D-01  0.7288614510D+00
      0.5098940471D-01  0.3013317422D+00
 ****
     10 0
 S   6 1.00       0.000000000000
      0.3854191010D+01 -0.9737395526D-02
      0.1109810784D+01 -0.7265876782D-01
      0.4365163674D+00 -0.1716155198D+00
      0.1995028162D+00  0.1289776243D+00
      0.9928577031D-01  0.7288614510D+00
      0.5098940471D-01  0.3013317422D+00
 ****
     11 0
 S   6 1.00       0.000000000000
      0.3854191010D+01 -0.9737395526D-02
      0.1109810784D+01 -0.7265876782D-01
      0.4365163674D+00 -0.1716155198D+00
      0.1995028162D+00  0.1289776243D+00
      0.9928577031D-01  0.7288614510D+00
      0.5098940471D-01  0.3013317422D+00
 ****
     12 0
 S   6 1.00       0.000000000000
      0.3854191010D+01 -0.9737395526D-02
      0.1109810784D+01 -0.7265876782D-01
      0.4365163674D+00 -0.1716155198D+00
      0.1995028162D+00  0.1289776243D+00
      0.9928577031D-01  0.7288614510D+00
      0.5098940471D-01  0.3013317422D+00
 ****
     13 0
 S   6 1.00       0.000000000000
      0.3854191010D+01 -0.9737395526D-02
      0.1109810784D+01 -0.7265876782D-01
      0.4365163674D+00 -0.1716155198D+00
      0.1995028162D+00  0.1289776243D+00
      0.9928577031D-01  0.7288614510D+00
      0.5098940471D-01  0.3013317422D+00
 ****
     14 0
 S   6 1.00       0.000000000000
      0.3854191010D+01 -0.9737395526D-02
      0.1109810784D+01 -0.7265876782D-01
      0.4365163674D+00 -0.1716155198D+00
      0.1995028162D+00  0.1289776243D+00
      0.9928577031D-01  0.7288614510D+00
      0.5098940471D-01  0.3013317422D+00
 ****
     15 0
 S   6 1.00       0.000000000000
      0.3854191010D+01 -0.9737395526D-02
      0.1109810784D+01 -0.7265876782D-01
      0.4365163674D+00 -0.1716155198D+00
      0.1995028162D+00  0.1289776243D+00
      0.9928577031D-01  0.7288614510D+00
      0.5098940471D-01  0.3013317422D+00
 ****
     16 0
 S   6 1.00       0.000000000000
      0.3854191010D+01 -0.9737395526D-02
      0.1109810784D+01 -0.7265876782D-01
      0.4365163674D+00 -0.1716155198D+00
      0.1995028162D+00  0.1289776243D+00
      0.9928577031D-01  0.7288614510D+00
      0.5098940471D-01  0.3013317422D+00
 ****

 AO basis set (Overlap normalization):
 Atom C1       Shell     1 SP   6    bf    1 -     4         -2.277207717385         -0.974163603295          0.000000000000
      0.8932223782D+01 -0.9737395526D-02 -0.8104943356D-02
      0.2572025686D+01 -0.7265876782D-01 -0.1715478915D-01
      0.1011642098D+01 -0.1716155198D+00  0.7369785762D-01
      0.4623548222D+00  0.1289776243D+00  0.3965149986D+00
      0.2300982791D+00  0.7288614510D+00  0.4978084880D+00
      0.1181697462D+00  0.3013317422D+00  0.1174825823D+00
 Atom C2       Shell     2 SP   6    bf    5 -     8         -0.853866000363         -2.302641068864          0.000000000000
      0.8932223782D+01 -0.9737395526D-02 -0.8104943356D-02
      0.2572025686D+01 -0.7265876782D-01 -0.1715478915D-01
      0.1011642098D+01 -0.1716155198D+00  0.7369785762D-01
      0.4623548222D+00  0.1289776243D+00  0.3965149986D+00
      0.2300982791D+00  0.7288614510D+00  0.4978084880D+00
      0.1181697462D+00  0.3013317422D+00  0.1174825823D+00
 Atom C3       Shell     3 SP   6    bf    9 -    12          1.043796973925         -2.302641068864          0.000000000000
      0.8932223782D+01 -0.9737395526D-02 -0.8104943356D-02
      0.2572025686D+01 -0.7265876782D-01 -0.1715478915D-01
      0.1011642098D+01 -0.1716155198D+00  0.7369785762D-01
      0.4623548222D+00  0.1289776243D+00  0.3965149986D+00
      0.2300982791D+00  0.7288614510D+00  0.4978084880D+00
      0.1181697462D+00  0.3013317422D+00  0.1174825823D+00
 Atom C4       Shell     4 SP   6    bf   13 -    16         -2.277207717385          0.923499370993          0.000000000000
      0.8932223782D+01 -0.9737395526D-02 -0.8104943356D-02
      0.2572025686D+01 -0.7265876782D-01 -0.1715478915D-01
      0.1011642098D+01 -0.1716155198D+00  0.7369785762D-01
      0.4623548222D+00  0.1289776243D+00  0.3965149986D+00
      0.2300982791D+00  0.7288614510D+00  0.4978084880D+00
      0.1181697462D+00  0.3013317422D+00  0.1174825823D+00
 Atom C5       Shell     5 SP   6    bf   17 -    20          2.277410188041         -0.879299351842          0.000000000000
      0.8932223782D+01 -0.9737395526D-02 -0.8104943356D-02
      0.2572025686D+01 -0.7265876782D-01 -0.1715478915D-01
      0.1011642098D+01 -0.1716155198D+00  0.7369785762D-01
      0.4623548222D+00  0.1289776243D+00  0.3965149986D+00
      0.2300982791D+00  0.7288614510D+00  0.4978084880D+00
      0.1181697462D+00  0.3013317422D+00  0.1174825823D+00
 Atom C6       Shell     6 SP   6    bf   21 -    24         -1.043594503269          2.251976836562          0.000000000000
      0.8932223782D+01 -0.9737395526D-02 -0.8104943356D-02
      0.2572025686D+01 -0.7265876782D-01 -0.1715478915D-01
      0.1011642098D+01 -0.1716155198D+00  0.7369785762D-01
      0.4623548222D+00  0.1289776243D+00  0.3965149986D+00
      0.2300982791D+00  0.7288614510D+00  0.4978084880D+00
      0.1181697462D+00  0.3013317422D+00  0.1174825823D+00
 Atom C7       Shell     7 SP   6    bf   25 -    28          2.277410188041          1.018363622446          0.000000000000
      0.8932223782D+01 -0.9737395526D-02 -0.8104943356D-02
      0.2572025686D+01 -0.7265876782D-01 -0.1715478915D-01
      0.1011642098D+01 -0.1716155198D+00  0.7369785762D-01
      0.4623548222D+00  0.1289776243D+00  0.3965149986D+00
      0.2300982791D+00  0.7288614510D+00  0.4978084880D+00
      0.1181697462D+00  0.3013317422D+00  0.1174825823D+00
 Atom C8       Shell     8 SP   6    bf   29 -    32          0.854068471019          2.251976836562          0.000000000000
      0.8932223782D+01 -0.9737395526D-02 -0.8104943356D-02
      0.2572025686D+01 -0.7265876782D-01 -0.1715478915D-01
      0.1011642098D+01 -0.1716155198D+00  0.7369785762D-01
      0.4623548222D+00  0.1289776243D+00  0.3965149986D+00
      0.2300982791D+00  0.7288614510D+00  0.4978084880D+00
      0.1181697462D+00  0.3013317422D+00  0.1174825823D+00
 Atom H9       Shell     9 S   6     bf   33 -    33         -4.065833494286         -1.751407958329          0.000000000000
      0.3854191010D+01 -0.9737395526D-02
      0.1109810784D+01 -0.7265876782D-01
      0.4365163674D+00 -0.1716155198D+00
      0.1995028162D+00  0.1289776243D+00
      0.9928577031D-01  0.7288614510D+00
      0.5098940471D-01  0.3013317422D+00
 Atom H10      Shell    10 S   6     bf   34 -    34         -1.569013954943         -4.116986018320          0.000000000000
      0.3854191010D+01 -0.9737395526D-02
      0.1109810784D+01 -0.7265876782D-01
      0.4365163674D+00 -0.1716155198D+00
      0.1995028162D+00  0.1289776243D+00
      0.9928577031D-01  0.7288614510D+00
      0.5098940471D-01  0.3013317422D+00
 Atom H11      Shell    11 S   6     bf   35 -    35          1.853846974481         -4.076640365561          0.000000000000
      0.3854191010D+01 -0.9737395526D-02
      0.1109810784D+01 -0.7265876782D-01
      0.4365163674D+00 -0.1716155198D+00
      0.1995028162D+00  0.1289776243D+00
      0.9928577031D-01  0.7288614510D+00
      0.5098940471D-01  0.3013317422D+00
 Atom H12      Shell    12 S   6     bf   36 -    36         -4.092459735381          1.636341859702          0.000000000000
      0.3854191010D+01 -0.9737395526D-02
      0.1109810784D+01 -0.7265876782D-01
      0.4365163674D+00 -0.1716155198D+00
      0.1995028162D+00  0.1289776243D+00
      0.9928577031D-01  0.7288614510D+00
      0.5098940471D-01  0.3013317422D+00
 Atom H13      Shell    13 S   6     bf   37 -    37          4.104605275145         -1.560923564972          0.000000000000
      0.3854191010D+01 -0.9737395526D-02
      0.1109810784D+01 -0.7265876782D-01
      0.4365163674D+00 -0.1716155198D+00
      0.1995028162D+00  0.1289776243D+00
      0.9928577031D-01  0.7288614510D+00
      0.5098940471D-01  0.3013317422D+00
 Atom H14      Shell    14 S   6     bf   38 -    38         -1.823106529652          4.039601058617          0.000000000000
      0.3854191010D+01 -0.9737395526D-02
      0.1109810784D+01 -0.7265876782D-01
      0.4365163674D+00 -0.1716155198D+00
      0.1995028162D+00  0.1289776243D+00
      0.9928577031D-01  0.7288614510D+00
      0.5098940471D-01  0.3013317422D+00
 Atom H15      Shell    15 S   6     bf   39 -    39          4.051409484738          1.828413623002          0.000000000000
      0.3854191010D+01 -0.9737395526D-02
      0.1109810784D+01 -0.7265876782D-01
      0.4365163674D+00 -0.1716155198D+00
      0.1995028162D+00  0.1289776243D+00
      0.9928577031D-01  0.7288614510D+00
      0.5098940471D-01  0.3013317422D+00
 Atom H16      Shell    16 S   6     bf   40 -    40          1.535692684150          4.079171923666          0.000000000000
      0.3854191010D+01 -0.9737395526D-02
      0.1109810784D+01 -0.7265876782D-01
      0.4365163674D+00 -0.1716155198D+00
      0.1995028162D+00  0.1289776243D+00
      0.9928577031D-01  0.7288614510D+00
      0.5098940471D-01  0.3013317422D+00
 There are    32 symmetry adapted cartesian basis functions of A'  symmetry.
 There are     8 symmetry adapted cartesian basis functions of A"  symmetry.
 There are    32 symmetry adapted basis functions of A'  symmetry.
 There are     8 symmetry adapted basis functions of A"  symmetry.
    40 basis functions,   240 primitive gaussians,    40 cartesian basis functions
    20 alpha electrons       20 beta electrons
       nuclear repulsion energy       220.0492903238 Hartrees.
 Integral buffers will be    131072 words long.
 Regular integral format.
 Two-electron integral symmetry is turned off.
 Do NDO integrals.
 One-electron integrals computed using PRISM.
 NBasis=    40 RedAO= T EigKep=  1.00D+00  NBF=    32     8
 NBsUse=    40 1.00D-06 EigRej= -1.00D+00 NBFU=    32     8
 Simple Huckel Guess.
 Initial guess orbital symmetries:
       Occupied  (A') (A') (A') (A') (A') (A') (A") (A') (A') (A')
                 (A') (A") (A") (A') (A') (A') (A') (A') (A') (A")
       Virtual   (A") (A") (A") (A') (A') (A') (A") (A') (A') (A')
                 (A') (A') (A') (A') (A') (A') (A') (A') (A') (A')
 The electronic state of the initial guess is 1-A'.
 Keep J ints in memory in canonical form, NReq=863427.
 Overlap will be assumed to be unity.
 Requested convergence on RMS density matrix=1.00D-08 within 128 cycles.
 Requested convergence on MAX density matrix=1.00D-06.
 Requested convergence on             energy=1.00D-06.
 No special actions if energy rises.
 Fock symm off for IB=2 I1=    1 I=   33 J=    6 Cut=1.00D-07 Err=7.41D-04
 Fock matrix is not symmetric: symmetry in diagonalization turned off.
 SCF Done:  E(RAM1) =   3.26232759892     A.U. after   23 cycles
            NFock= 22  Conv=0.82D-08     -V/T= 1.0502

 **********************************************************************

            Population analysis using the SCF Density.

 **********************************************************************

 Orbital symmetries:
       Occupied  (A') (A') (A') (A') (A') (A') (A') (A') (A") (A')
                 (A') (A') (A") (A") (A') (A') (A') (A') (A') (A")
       Virtual   (A") (A") (A') (A') (A") (A') (A') (A') (A") (A')
                 (A') (A') (A') (A') (A') (A') (A') (A') (A') (A')
 The electronic state is 1-A'.
 Alpha  occ. eigenvalues --   -2.10879  -1.63556  -1.60659  -1.18248  -1.16502
 Alpha  occ. eigenvalues --   -0.87809  -0.79706  -0.79481  -0.75453  -0.66980
 Alpha  occ. eigenvalues --   -0.65786  -0.59799  -0.56727  -0.55313  -0.45154
 Alpha  occ. eigenvalues --   -0.43731  -0.43081  -0.38586  -0.38337  -0.31418
 Alpha virt. eigenvalues --   -0.05234   0.10273   0.10358   0.10515   0.10819
 Alpha virt. eigenvalues --    0.11551   0.12317   0.13111   0.16959   0.17149
 Alpha virt. eigenvalues --    0.17258   0.17625   0.19453   0.20911   0.21067
 Alpha virt. eigenvalues --    0.21110   0.21827   0.22019   0.22099   0.23036
     Molecular Orbital Coefficients:
                           1         2         3         4         5
                           O         O         O         O         O
     Eigenvalues --    -2.10879  -1.63556  -1.60659  -1.18248  -1.16502
   1 1   C  1S          0.31521  -0.15681   0.40359   0.31337  -0.17899
   2        1PX         0.10565   0.05799   0.05730   0.01327   0.14211
   3        1PY         0.05280  -0.16431  -0.05155  -0.16442  -0.22451
   4        1PZ        -0.00000   0.00000  -0.00000  -0.00000   0.00000
   5 2   C  1S          0.31245   0.17796   0.40570   0.18296   0.29680
   6        1PX         0.04172   0.16588  -0.05491  -0.26536   0.12190
   7        1PY         0.10686  -0.04829   0.04926   0.06697  -0.12144
   8        1PZ        -0.00000  -0.00000  -0.00000  -0.00000  -0.00000
   9 3   C  1S          0.31215   0.40742   0.17804  -0.30033   0.17346
  10        1PX        -0.04478   0.04735  -0.16001  -0.17508  -0.23146
  11        1PY         0.10916   0.06484  -0.05506  -0.00940  -0.14249
  12        1PZ        -0.00000  -0.00000   0.00000   0.00000   0.00000
  13 4   C  1S          0.33416  -0.40341   0.17024  -0.16680  -0.28467
  14        1PX         0.11193  -0.05057  -0.05614  -0.05441   0.13062
  15        1PY        -0.03438  -0.06747  -0.16654  -0.27282   0.12785
  16        1PZ        -0.00000   0.00000  -0.00000   0.00000   0.00000
  17 5   C  1S          0.32423   0.40567  -0.15466  -0.18620  -0.29620
  18        1PX        -0.10651  -0.05003  -0.05990   0.04676  -0.12978
  19        1PY         0.04134  -0.06120  -0.17543   0.26594  -0.12445
  20        1PZ        -0.00000  -0.00000   0.00000   0.00000   0.00000
  21 6   C  1S          0.33610  -0.40246  -0.15019  -0.29347   0.17381
  22        1PX         0.04561   0.06290  -0.16568   0.16822   0.23403
  23        1PY        -0.11125   0.05918  -0.06514  -0.00250   0.14471
  24        1PZ        -0.00000   0.00000   0.00000   0.00000  -0.00000
  25 7   C  1S          0.32242   0.17454  -0.40483   0.28963  -0.17685
  26        1PX        -0.11107   0.05294   0.05906  -0.01951  -0.14652
  27        1PY        -0.04623  -0.15767  -0.05716   0.16789   0.23070
  28        1PZ        -0.00000   0.00000   0.00000   0.00000   0.00000
  29 8   C  1S          0.33531  -0.15018  -0.40155   0.17528   0.29540
  30        1PX        -0.04328   0.17217  -0.07167   0.25962  -0.12616
  31        1PY        -0.10802  -0.05825   0.04363  -0.05913   0.12803
  32        1PZ        -0.00000   0.00000  -0.00000   0.00000  -0.00000
  33 9   H  1S          0.07529  -0.05299   0.13622   0.14080  -0.08554
  34 10  H  1S          0.07526   0.05940   0.13935   0.08374   0.14189
  35 11  H  1S          0.07404   0.13427   0.05941  -0.13992   0.08048
  36 12  H  1S          0.08182  -0.13838   0.05957  -0.08206  -0.14010
  37 13  H  1S          0.07932   0.13871  -0.05506  -0.09055  -0.14601
  38 14  H  1S          0.08149  -0.13553  -0.05301  -0.13878   0.08342
  39 15  H  1S          0.07694   0.05770  -0.13683   0.13028  -0.08362
  40 16  H  1S          0.08258  -0.05317  -0.14091   0.07998   0.14463
                           6         7         8         9        10
                           O         O         O         O         O
     Eigenvalues --    -0.87809  -0.79706  -0.79481  -0.75453  -0.66980
   1 1   C  1S         -0.05634  -0.22761  -0.08341  -0.00000  -0.00601
   2        1PX         0.25808   0.15107  -0.11595  -0.00000  -0.11891
   3        1PY         0.11160  -0.08711   0.35918   0.00000  -0.10660
   4        1PZ         0.00000   0.00000   0.00000   0.34125  -0.00000
   5 2   C  1S         -0.06859   0.21693  -0.10104   0.00000   0.01833
   6        1PX         0.09004   0.11636   0.35631   0.00000   0.07120
   7        1PY         0.27162  -0.14961  -0.08237  -0.00000   0.16341
   8        1PZ         0.00000  -0.00000  -0.00000   0.33566   0.00000
   9 3   C  1S         -0.06900  -0.08556   0.21715   0.00000   0.02487
  10        1PX        -0.09369  -0.36061  -0.09491  -0.00000  -0.13548
  11        1PY         0.26604  -0.10294  -0.13412  -0.00000   0.38264
  12        1PZ         0.00000   0.00000  -0.00000   0.34075   0.00000
  13 4   C  1S         -0.06135   0.09117   0.20693   0.00000  -0.05340
  14        1PX         0.27796   0.08538  -0.15709  -0.00000  -0.35141
  15        1PY        -0.11867   0.34545  -0.12153   0.00000   0.13658
  16        1PZ         0.00000  -0.00000   0.00000   0.36701  -0.00000
  17 5   C  1S         -0.03378  -0.09365  -0.21307  -0.00000   0.05791
  18        1PX        -0.26792   0.05771  -0.17877  -0.00000  -0.36171
  19        1PY         0.08851   0.36282  -0.10955   0.00000   0.09764
  20        1PZ         0.00000  -0.00000  -0.00000   0.35030   0.00000
  21 6   C  1S         -0.05245   0.07621  -0.21605   0.00000  -0.03350
  22        1PX         0.14077  -0.34807  -0.09460  -0.00000  -0.15476
  23        1PY        -0.26345  -0.11788  -0.15621   0.00000   0.36462
  24        1PZ         0.00000  -0.00000   0.00000   0.37201  -0.00000
  25 7   C  1S         -0.08571   0.21840   0.08015   0.00000   0.00414
  26        1PX        -0.26407   0.12606  -0.13993  -0.00000  -0.14323
  27        1PY        -0.13685  -0.10452   0.34265  -0.00000  -0.07906
  28        1PZ         0.00000  -0.00000  -0.00000   0.35469  -0.00000
  29 8   C  1S         -0.04764  -0.21685   0.09149   0.00000  -0.01755
  30        1PX        -0.13321   0.11246   0.34705   0.00000   0.09453
  31        1PY        -0.26938  -0.17510  -0.09571  -0.00000   0.13064
  32        1PZ         0.00000  -0.00000  -0.00000   0.36491  -0.00000
  33 9   H  1S         -0.18332  -0.15291  -0.05536   0.00000   0.09812
  34 10  H  1S         -0.19197   0.14290  -0.07245   0.00000  -0.11171
  35 11  H  1S         -0.18755  -0.06617   0.13585   0.00000  -0.25805
  36 12  H  1S         -0.19809   0.06008   0.14204   0.00000   0.23117
  37 13  H  1S         -0.17717  -0.07871  -0.16117  -0.00000  -0.22762
  38 14  H  1S         -0.19075   0.04521  -0.14895   0.00000   0.24950
  39 15  H  1S         -0.20288   0.12972   0.03942  -0.00000  -0.10671
  40 16  H  1S         -0.19191  -0.16001   0.05286   0.00000   0.09772
                          11        12        13        14        15
                           O         O         O         O         O
     Eigenvalues --    -0.65786  -0.59799  -0.56727  -0.55313  -0.45154
   1 1   C  1S          0.03192   0.00520   0.00000   0.00000   0.06144
   2        1PX         0.37628  -0.13738   0.00000   0.00000   0.34864
   3        1PY         0.13703   0.32710  -0.00000  -0.00000   0.12517
   4        1PZ         0.00000  -0.00000  -0.15773   0.47381  -0.00000
   5 2   C  1S          0.05194   0.00378  -0.00000  -0.00000   0.02063
   6        1PX         0.11878   0.33817  -0.00000  -0.00000  -0.12916
   7        1PY         0.36252  -0.10957   0.00000   0.00000   0.11676
   8        1PZ        -0.00000   0.00000   0.18211   0.47328  -0.00000
   9 3   C  1S          0.01533   0.00316   0.00000  -0.00000  -0.06436
  10        1PX        -0.08679  -0.33123   0.00000   0.00000   0.11554
  11        1PY         0.13884  -0.11930   0.00000   0.00000  -0.32604
  12        1PZ        -0.00000   0.00000   0.47669   0.18574   0.00000
  13 4   C  1S          0.02779  -0.00291   0.00000   0.00000  -0.00469
  14        1PX         0.14768  -0.13570   0.00000   0.00000  -0.12078
  15        1PY        -0.07393  -0.32457   0.00000   0.00000  -0.12647
  16        1PZ         0.00000  -0.00000  -0.46689   0.17323  -0.00000
  17 5   C  1S         -0.02937   0.00494  -0.00000   0.00000  -0.00808
  18        1PX         0.12641   0.11043  -0.00000  -0.00000   0.12595
  19        1PY        -0.10208   0.32827  -0.00000  -0.00000   0.13575
  20        1PZ        -0.00000   0.00000   0.47200  -0.15336   0.00000
  21 6   C  1S         -0.01531  -0.00199  -0.00000  -0.00000  -0.07326
  22        1PX        -0.10601   0.31278  -0.00000  -0.00000  -0.11159
  23        1PY         0.10319   0.16177  -0.00000  -0.00000   0.31544
  24        1PZ         0.00000  -0.00000  -0.46871  -0.15016  -0.00000
  25 7   C  1S         -0.02705  -0.00244   0.00000  -0.00000   0.04707
  26        1PX         0.36624   0.16185  -0.00000  -0.00000  -0.33145
  27        1PY         0.17578  -0.31874   0.00000   0.00000  -0.13591
  28        1PZ         0.00000   0.00000   0.18093  -0.47271   0.00000
  29 8   C  1S         -0.06007  -0.00169  -0.00000  -0.00000   0.02190
  30        1PX         0.13674  -0.32171   0.00000   0.00000   0.13463
  31        1PY         0.34569   0.15178  -0.00000   0.00000  -0.08530
  32        1PZ         0.00000  -0.00000  -0.14671  -0.46634  -0.00000
  33 9   H  1S         -0.25527  -0.00044   0.00000  -0.00000  -0.31204
  34 10  H  1S         -0.23692  -0.01440  -0.00000   0.00000  -0.04529
  35 11  H  1S         -0.10255  -0.01804   0.00000   0.00000   0.29018
  36 12  H  1S         -0.10080   0.00802  -0.00000  -0.00000   0.06236
  37 13  H  1S          0.09295  -0.00419  -0.00000   0.00000   0.06298
  38 14  H  1S          0.08592   0.01975   0.00000  -0.00000   0.27582
  39 15  H  1S          0.26130   0.01149   0.00000   0.00000  -0.31275
  40 16  H  1S          0.22820   0.02331  -0.00000   0.00000  -0.01964
                          16        17        18        19        20
                           O         O         O         O         O
     Eigenvalues --    -0.43731  -0.43081  -0.38586  -0.38337  -0.31418
   1 1   C  1S         -0.13697  -0.04867   0.04875  -0.03537  -0.00000
   2        1PX         0.13787   0.05401  -0.17584   0.17876   0.00000
   3        1PY         0.13122  -0.14839  -0.18445  -0.16210  -0.00000
   4        1PZ        -0.00000  -0.00000  -0.00000   0.00000   0.39411
   5 2   C  1S          0.11408   0.11060  -0.04123  -0.01669   0.00000
   6        1PX        -0.10237   0.13605   0.17877  -0.17495   0.00000
   7        1PY        -0.27592   0.25025   0.19135   0.15990   0.00000
   8        1PZ        -0.00000  -0.00000   0.00000  -0.00000   0.33375
   9 3   C  1S         -0.13723  -0.02976   0.02163   0.05407   0.00000
  10        1PX        -0.03108  -0.19029  -0.16444   0.18094  -0.00000
  11        1PY         0.20218   0.02303  -0.17022  -0.15924  -0.00000
  12        1PZ         0.00000   0.00000   0.00000   0.00000  -0.37323
  13 4   C  1S          0.14886  -0.03311  -0.00959   0.05377  -0.00000
  14        1PX        -0.08147  -0.33949   0.17982  -0.21109   0.00000
  15        1PY         0.00853   0.16356   0.17535   0.17512  -0.00000
  16        1PZ        -0.00000  -0.00000   0.00000  -0.00000  -0.31300
  17 5   C  1S          0.15479  -0.04464   0.02459  -0.03588   0.00000
  18        1PX         0.08502   0.35511   0.17293  -0.20982   0.00000
  19        1PY        -0.04795  -0.16160   0.17388   0.17221   0.00000
  20        1PZ         0.00000   0.00000  -0.00000   0.00000  -0.33633
  21 6   C  1S         -0.12800  -0.02778  -0.02602  -0.06216  -0.00000
  22        1PX         0.02208   0.18953  -0.16526   0.18140   0.00000
  23        1PY        -0.17017  -0.04213  -0.19621  -0.19152   0.00000
  24        1PZ        -0.00000  -0.00000   0.00000  -0.00000  -0.37112
  25 7   C  1S         -0.13480  -0.04761  -0.06436   0.01932  -0.00000
  26        1PX        -0.13980  -0.05830  -0.17098   0.18031  -0.00000
  27        1PY        -0.09273   0.14913  -0.18638  -0.16480   0.00000
  28        1PZ         0.00000  -0.00000  -0.00000   0.00000   0.36793
  29 8   C  1S          0.10505   0.11806   0.04456   0.02389   0.00000
  30        1PX         0.09920  -0.13104   0.17915  -0.17471   0.00000
  31        1PY         0.24661  -0.25341   0.22499   0.18518  -0.00000
  32        1PZ         0.00000  -0.00000  -0.00000   0.00000   0.33136
  33 9   H  1S         -0.25792  -0.01984   0.30001  -0.13751   0.00000
  34 10  H  1S          0.35412  -0.21627  -0.30311  -0.10616  -0.00000
  35 11  H  1S         -0.27860  -0.11859   0.11563   0.29345  -0.00000
  36 12  H  1S          0.16233   0.35749  -0.12786   0.33315   0.00000
  37 13  H  1S          0.18125   0.36170   0.13095  -0.31431   0.00000
  38 14  H  1S         -0.23966  -0.12950  -0.15248  -0.32866   0.00000
  39 15  H  1S         -0.24625  -0.02134  -0.31312   0.12617  -0.00000
  40 16  H  1S          0.31889  -0.21356   0.33566   0.14515  -0.00000
                          21        22        23        24        25
                           V         V         V         V         V
     Eigenvalues --    -0.05234   0.10273   0.10358   0.10515   0.10819
   1 1   C  1S         -0.00000   0.00000  -0.03975   0.02379   0.00000
   2        1PX        -0.00000  -0.00000   0.14829  -0.14238   0.00000
   3        1PY         0.00000   0.00000  -0.18520  -0.15925  -0.00000
   4        1PZ         0.34462  -0.46083  -0.00000   0.00000   0.16685
   5 2   C  1S          0.00000  -0.00000   0.01303   0.01924  -0.00000
   6        1PX         0.00000  -0.00000   0.16442  -0.15544  -0.00000
   7        1PY         0.00000  -0.00000  -0.15286  -0.15548  -0.00000
   8        1PZ        -0.38116   0.47993   0.00000  -0.00000   0.16882
   9 3   C  1S          0.00000  -0.00000   0.03785   0.01218  -0.00000
  10        1PX         0.00000  -0.00000   0.16735  -0.15086  -0.00000
  11        1PY         0.00000   0.00000  -0.12462  -0.16674  -0.00000
  12        1PZ        -0.32561  -0.19197  -0.00000   0.00000  -0.46893
  13 4   C  1S         -0.00000   0.00000  -0.01662  -0.00971   0.00000
  14        1PX        -0.00000  -0.00000   0.19979  -0.19638   0.00000
  15        1PY        -0.00000   0.00000  -0.18858  -0.16835   0.00000
  16        1PZ         0.35898   0.15982   0.00000  -0.00000  -0.47792
  17 5   C  1S         -0.00000   0.00000   0.00654  -0.02923  -0.00000
  18        1PX         0.00000  -0.00000   0.19784  -0.14266  -0.00000
  19        1PY         0.00000   0.00000  -0.16327  -0.19390  -0.00000
  20        1PZ         0.38409  -0.14623  -0.00000   0.00000   0.47922
  21 6   C  1S          0.00000   0.00000  -0.02580  -0.02862  -0.00000
  22        1PX        -0.00000  -0.00000   0.19630  -0.20395  -0.00000
  23        1PY        -0.00000   0.00000  -0.17529  -0.18524   0.00000
  24        1PZ        -0.32205   0.16914   0.00000  -0.00000   0.45916
  25 7   C  1S          0.00000  -0.00000   0.01610  -0.03602   0.00000
  26        1PX         0.00000  -0.00000   0.18329  -0.14368  -0.00000
  27        1PY        -0.00000   0.00000  -0.17029  -0.20400  -0.00000
  28        1PZ         0.32214   0.46613   0.00000  -0.00000  -0.19191
  29 8   C  1S          0.00000  -0.00000  -0.02420   0.00320  -0.00000
  30        1PX         0.00000  -0.00000   0.20015  -0.19725  -0.00000
  31        1PY        -0.00000   0.00000  -0.16643  -0.23656   0.00000
  32        1PZ        -0.38218  -0.47711  -0.00000   0.00000  -0.13436
  33 9   H  1S          0.00000  -0.00000   0.12160  -0.28753   0.00000
  34 10  H  1S         -0.00000  -0.00000  -0.12067  -0.28897  -0.00000
  35 11  H  1S         -0.00000   0.00000  -0.28378  -0.13090  -0.00000
  36 12  H  1S         -0.00000  -0.00000   0.35407  -0.15567   0.00000
  37 13  H  1S          0.00000   0.00000  -0.33106   0.11408   0.00000
  38 14  H  1S          0.00000  -0.00000   0.34419   0.14866  -0.00000
  39 15  H  1S         -0.00000   0.00000  -0.14595   0.32266   0.00000
  40 16  H  1S          0.00000  -0.00000   0.13876   0.38294   0.00000
                          26        27        28        29        30
                           V         V         V         V         V
     Eigenvalues --     0.11551   0.12317   0.13111   0.16959   0.17149
   1 1   C  1S         -0.06501  -0.10347  -0.12531  -0.00000   0.02693
   2        1PX        -0.07191  -0.29255   0.15384  -0.00000   0.02313
   3        1PY        -0.22934  -0.02971   0.09258   0.00000   0.06206
   4        1PZ         0.00000   0.00000   0.00000   0.34623   0.00000
   5 2   C  1S         -0.11358   0.03881  -0.11201   0.00000  -0.14226
   6        1PX        -0.21504  -0.10405   0.09463  -0.00000  -0.26651
   7        1PY        -0.22322   0.22217   0.18753   0.00000  -0.20701
   8        1PZ        -0.00000   0.00000  -0.00000  -0.33863  -0.00000
   9 3   C  1S          0.04102   0.08296  -0.15007  -0.00000   0.16765
  10        1PX        -0.25378  -0.04791  -0.03151  -0.00000  -0.27833
  11        1PY         0.03601   0.32317   0.11916  -0.00000   0.29809
  12        1PZ         0.00000  -0.00000   0.00000   0.34654   0.00000
  13 4   C  1S          0.09823  -0.05435  -0.12476   0.00000   0.09288
  14        1PX         0.21321  -0.21530   0.16041  -0.00000   0.28644
  15        1PY        -0.21071  -0.10337  -0.02434   0.00000   0.07633
  16        1PZ        -0.00000  -0.00000   0.00000  -0.36949   0.00000
  17 5   C  1S          0.10590  -0.05080  -0.11534   0.00000  -0.09565
  18        1PX        -0.27961   0.18768  -0.16692  -0.00000   0.18519
  19        1PY         0.18186   0.13971   0.06508  -0.00000  -0.10471
  20        1PZ         0.00000   0.00000  -0.00000  -0.34541  -0.00000
  21 6   C  1S          0.04848   0.10254  -0.14449  -0.00000  -0.16238
  22        1PX         0.20832   0.03630   0.03535   0.00000  -0.06825
  23        1PY        -0.08400  -0.30261  -0.10057  -0.00000   0.38827
  24        1PZ        -0.00000   0.00000  -0.00000   0.37215  -0.00000
  25 7   C  1S         -0.06850  -0.10027  -0.13680  -0.00000  -0.01542
  26        1PX         0.01434   0.28843  -0.12863   0.00000   0.14513
  27        1PY         0.20931   0.07102  -0.05292  -0.00000  -0.11080
  28        1PZ        -0.00000  -0.00000   0.00000   0.35319  -0.00000
  29 8   C  1S         -0.12797   0.04561  -0.10563   0.00000   0.12501
  30        1PX         0.16638   0.10141  -0.07649   0.00000  -0.05800
  31        1PY         0.21286  -0.18224  -0.17451  -0.00000  -0.30295
  32        1PZ         0.00000  -0.00000   0.00000  -0.35538   0.00000
  33 9   H  1S         -0.14410  -0.24698   0.31182   0.00000   0.02238
  34 10  H  1S         -0.26224   0.16515   0.32756  -0.00000  -0.15551
  35 11  H  1S          0.13908   0.30291   0.26404  -0.00000   0.22209
  36 12  H  1S          0.25799  -0.14614   0.27412  -0.00000   0.14003
  37 13  H  1S          0.31531  -0.10660   0.29034  -0.00000  -0.11290
  38 14  H  1S          0.15769   0.25990   0.23835   0.00000  -0.22130
  39 15  H  1S         -0.06565  -0.26093   0.27325  -0.00000  -0.06224
  40 16  H  1S         -0.21155   0.12064   0.29575  -0.00000   0.17348
                          31        32        33        34        35
                           V         V         V         V         V
     Eigenvalues --     0.17258   0.17625   0.19453   0.20911   0.21067
   1 1   C  1S          0.16181   0.03445  -0.03151   0.21996  -0.14011
   2        1PX         0.34682  -0.17866   0.28346   0.14282   0.06102
   3        1PY         0.20105   0.29699   0.14521  -0.01961  -0.08009
   4        1PZ        -0.00000  -0.00000  -0.00000   0.00000  -0.00000
   5 2   C  1S         -0.08236   0.00602  -0.00129  -0.38129  -0.26648
   6        1PX        -0.04243  -0.24656  -0.13191  -0.06125  -0.16779
   7        1PY        -0.23290   0.21466  -0.25954  -0.03308   0.19917
   8        1PZ         0.00000   0.00000  -0.00000  -0.00000   0.00000
   9 3   C  1S         -0.01189  -0.01854  -0.01183   0.38146   0.21394
  10        1PX        -0.03652  -0.24164  -0.15027  -0.06391  -0.19769
  11        1PY        -0.12441  -0.21844   0.26877   0.06625  -0.18079
  12        1PZ        -0.00000  -0.00000   0.00000   0.00000  -0.00000
  13 4   C  1S         -0.15235  -0.04699  -0.03138  -0.29180   0.14872
  14        1PX        -0.25167   0.03667  -0.24470  -0.09099   0.02483
  15        1PY         0.19219   0.31571   0.09239  -0.06519  -0.03205
  16        1PZ         0.00000   0.00000  -0.00000  -0.00000   0.00000
  17 5   C  1S          0.15563  -0.03116   0.00669  -0.35442   0.00793
  18        1PX        -0.27345  -0.16640   0.25475   0.06013  -0.03769
  19        1PY         0.14856  -0.32038  -0.10773  -0.02478  -0.05794
  20        1PZ         0.00000   0.00000  -0.00000  -0.00000   0.00000
  21 6   C  1S          0.02644   0.09354  -0.00710   0.24803  -0.39130
  22        1PX        -0.00844   0.37403   0.09469  -0.07840  -0.19777
  23        1PY        -0.08431   0.01770  -0.26602  -0.12559  -0.12614
  24        1PZ        -0.00000  -0.00000   0.00000   0.00000  -0.00000
  25 7   C  1S         -0.15803   0.05075  -0.01426   0.36868  -0.01212
  26        1PX         0.37920   0.07766  -0.26144  -0.05478   0.13535
  27        1PY         0.17884  -0.31891  -0.12230  -0.03063  -0.10134
  28        1PZ        -0.00000  -0.00000   0.00000   0.00000  -0.00000
  29 8   C  1S          0.09463  -0.09566   0.00716  -0.22484   0.44660
  30        1PX         0.00549   0.37399   0.08533  -0.07886  -0.15835
  31        1PY        -0.24369  -0.02461   0.24845   0.12290   0.15657
  32        1PZ         0.00000   0.00000   0.00000  -0.00000   0.00000
  33 9   H  1S          0.23476  -0.05604   0.24906  -0.03370   0.08799
  34 10  H  1S         -0.14142   0.08168  -0.20129   0.15752   0.20531
  35 11  H  1S         -0.07469  -0.07005   0.22935  -0.13881  -0.16045
  36 12  H  1S         -0.15697  -0.03178  -0.16200   0.10458  -0.04978
  37 13  H  1S          0.15643   0.05332  -0.19085   0.13186   0.00295
  38 14  H  1S          0.04331   0.04682   0.20441  -0.06983   0.21721
  39 15  H  1S         -0.25390   0.01867   0.21692  -0.14919  -0.04660
  40 16  H  1S          0.12510  -0.02829  -0.18133   0.05695  -0.26808
                          36        37        38        39        40
                           V         V         V         V         V
     Eigenvalues --     0.21110   0.21827   0.22019   0.22099   0.23036
   1 1   C  1S         -0.36091   0.09372   0.31403   0.20914   0.28303
   2        1PX         0.14611  -0.05573   0.08593  -0.17398   0.04461
   3        1PY        -0.17243   0.01118  -0.28590   0.20029  -0.23442
   4        1PZ        -0.00000   0.00000   0.00000  -0.00000   0.00000
   5 2   C  1S          0.13660   0.04718  -0.24048   0.27532  -0.25771
   6        1PX         0.03203  -0.02309   0.33197   0.11110   0.26044
   7        1PY        -0.01153  -0.07068  -0.12332  -0.14759  -0.04039
   8        1PZ         0.00000  -0.00000  -0.00000   0.00000  -0.00000
   9 3   C  1S         -0.11829   0.33678  -0.06687  -0.20662  -0.26456
  10        1PX         0.09397   0.29087   0.06499   0.17036  -0.21002
  11        1PY         0.09914   0.08051   0.12909   0.14670   0.00255
  12        1PZ         0.00000   0.00000   0.00000  -0.00000  -0.00000
  13 4   C  1S          0.36586   0.28407   0.03830  -0.26588   0.21313
  14        1PX        -0.16530   0.03989  -0.07545   0.17050  -0.01516
  15        1PY        -0.19286   0.33275   0.00287   0.15870   0.21193
  16        1PZ         0.00000   0.00000  -0.00000   0.00000   0.00000
  17 5   C  1S         -0.32773  -0.28579  -0.15812  -0.22811   0.20577
  18        1PX        -0.18868   0.07880  -0.06988  -0.14129  -0.01476
  19        1PY        -0.19063   0.32930   0.02899  -0.12743  -0.23966
  20        1PZ        -0.00000  -0.00000  -0.00000  -0.00000   0.00000
  21 6   C  1S          0.04468  -0.31708   0.11290  -0.22304  -0.22750
  22        1PX         0.07218   0.31534  -0.00049  -0.15951   0.19073
  23        1PY         0.10115   0.03242   0.06236  -0.16263  -0.00411
  24        1PZ        -0.00000  -0.00000   0.00000  -0.00000  -0.00000
  25 7   C  1S          0.30984  -0.05558  -0.29105   0.22877   0.24885
  26        1PX         0.16784  -0.09980   0.08238   0.13826  -0.01220
  27        1PY        -0.18824   0.03028  -0.33861  -0.12743   0.17224
  28        1PZ        -0.00000   0.00000   0.00000  -0.00000  -0.00000
  29 8   C  1S         -0.04957  -0.10568   0.28707   0.21125  -0.20381
  30        1PX         0.02385  -0.03009   0.34168  -0.16474  -0.20082
  31        1PY        -0.00523  -0.04058  -0.04987   0.15368   0.02014
  32        1PZ         0.00000   0.00000   0.00000   0.00000   0.00000
  33 9   H  1S          0.22284  -0.07656  -0.17656  -0.14209  -0.15743
  34 10  H  1S         -0.06388  -0.06936   0.12015  -0.17753   0.14473
  35 11  H  1S          0.09356  -0.19377   0.08991   0.13172   0.16868
  36 12  H  1S         -0.22635  -0.17542  -0.06288   0.17352  -0.13612
  37 13  H  1S          0.22091   0.15471   0.11746   0.14640  -0.12150
  38 14  H  1S         -0.06365   0.20579  -0.09047   0.15151   0.13984
  39 15  H  1S         -0.20349   0.07777   0.18084  -0.14891  -0.14448
  40 16  H  1S          0.01977   0.07965  -0.17032  -0.13811   0.11109
     Density Matrix:
                           1         2         3         4         5
   1 1   C  1S          1.01724
   2        1PX        -0.03235   1.04401
   3        1PY        -0.01152   0.01895   1.02253
   4        1PZ        -0.00000   0.00000   0.00000   1.04231
   5 2   C  1S          0.36370   0.37595  -0.35073  -0.00000   1.01625
   6        1PX        -0.36357  -0.20109   0.37366  -0.00000  -0.00804
   7        1PY         0.35192   0.39029  -0.16495   0.00000  -0.02462
   8        1PZ         0.00000  -0.00000  -0.00000   0.88320  -0.00000
   9 3   C  1S          0.00448  -0.00634  -0.01075   0.00000   0.36444
  10        1PX        -0.00352   0.00382  -0.00090  -0.00000  -0.52024
  11        1PY        -0.01158   0.00094   0.00138   0.00000  -0.01079
  12        1PZ         0.00000   0.00000  -0.00000  -0.03598  -0.00000
  13 4   C  1S          0.36236  -0.00291   0.50297   0.00000   0.00586
  14        1PX         0.00150   0.20267   0.00565  -0.00000  -0.01034
  15        1PY        -0.51414   0.00007  -0.56708   0.00000  -0.00637
  16        1PZ        -0.00000   0.00000   0.00000   0.31521   0.00000
  17 5   C  1S         -0.01299  -0.01410   0.00406  -0.00000   0.00799
  18        1PX         0.01257   0.01438  -0.00732  -0.00000   0.00162
  19        1PY         0.00406   0.00810   0.00418   0.00000  -0.01316
  20        1PZ         0.00000   0.00000  -0.00000  -0.32024  -0.00000
  21 6   C  1S          0.00800  -0.01066   0.00922   0.00000  -0.01236
  22        1PX        -0.01350   0.00116  -0.00275   0.00000   0.00133
  23        1PY         0.00254  -0.00291  -0.00147  -0.00000   0.01299
  24        1PZ        -0.00000  -0.00000   0.00000  -0.03306   0.00000
  25 7   C  1S          0.00134   0.00194   0.00111  -0.00000  -0.01092
  26        1PX        -0.00242  -0.00464  -0.00539   0.00000   0.00607
  27        1PY        -0.00083  -0.00521   0.00392   0.00000   0.01122
  28        1PZ         0.00000   0.00000  -0.00000   0.02706   0.00000
  29 8   C  1S         -0.01127  -0.00601  -0.01124  -0.00000   0.00333
  30        1PX         0.01087   0.00881   0.01354  -0.00000  -0.00138
  31        1PY         0.00606  -0.00389   0.00854   0.00000  -0.00435
  32        1PZ        -0.00000   0.00000   0.00000   0.11460   0.00000
  33 9   H  1S          0.44814  -0.78403  -0.34778  -0.00000  -0.00973
  34 10  H  1S         -0.00584   0.00577   0.00451  -0.00000   0.42989
  35 11  H  1S          0.07501   0.07499  -0.05325   0.00000  -0.00901
  36 12  H  1S         -0.00371   0.00693   0.00483   0.00000   0.07774
  37 13  H  1S          0.00676   0.00455   0.00303   0.00000   0.08212
  38 14  H  1S          0.08323   0.01347   0.10000  -0.00000   0.00411
  39 15  H  1S         -0.00149  -0.00190  -0.00169   0.00000   0.00289
  40 16  H  1S          0.00611   0.00581   0.00072  -0.00000  -0.00066
                           6         7         8         9        10
   6        1PX         1.01585
   7        1PY         0.01991   1.04611
   8        1PZ        -0.00000  -0.00000   0.96243
   9 3   C  1S          0.50050   0.00482   0.00000   1.00550
  10        1PX        -0.56370  -0.01530  -0.00000   0.01788   1.01563
  11        1PY        -0.01398   0.20202   0.00000  -0.03669  -0.01397
  12        1PZ         0.00000  -0.00000   0.32907  -0.00000  -0.00000
  13 4   C  1S         -0.01139  -0.00369   0.00000  -0.01002   0.01048
  14        1PX         0.00435   0.00571   0.00000  -0.00525   0.00821
  15        1PY         0.00062   0.00025  -0.00000   0.01017  -0.01296
  16        1PZ        -0.00000   0.00000   0.03137  -0.00000   0.00000
  17 5   C  1S          0.00972  -0.00852   0.00000   0.37555   0.34607
  18        1PX        -0.00243  -0.01088  -0.00000  -0.34154  -0.13103
  19        1PY        -0.00239   0.00574   0.00000  -0.37606  -0.37155
  20        1PZ         0.00000  -0.00000   0.03742   0.00000   0.00000
  21 6   C  1S          0.00373  -0.01315   0.00000   0.00157  -0.00125
  22        1PX         0.00522   0.00464  -0.00000   0.00044   0.00411
  23        1PY        -0.00748   0.01517   0.00000  -0.00229   0.00517
  24        1PZ         0.00000   0.00000  -0.31084  -0.00000  -0.00000
  25 7   C  1S         -0.00983  -0.00583  -0.00000   0.00574   0.01171
  26        1PX         0.00874  -0.00213  -0.00000   0.01154  -0.00037
  27        1PY         0.01309   0.00815  -0.00000  -0.00530  -0.00078
  28        1PZ        -0.00000  -0.00000   0.10215   0.00000   0.00000
  29 8   C  1S          0.00201   0.00428  -0.00000  -0.01231  -0.00202
  30        1PX         0.00513  -0.00637   0.00000  -0.00313   0.00504
  31        1PY        -0.00638  -0.00779   0.00000   0.01233   0.00503
  32        1PZ         0.00000  -0.00000  -0.02870   0.00000   0.00000
  33 9   H  1S          0.00655   0.00701   0.00000   0.07281  -0.08886
  34 10  H  1S         -0.32491  -0.80359  -0.00000  -0.00149  -0.00202
  35 11  H  1S          0.00088   0.01147   0.00000   0.45176   0.35323
  36 12  H  1S         -0.05666   0.07299  -0.00000   0.00405   0.00133
  37 13  H  1S          0.09474   0.01456   0.00000  -0.00160   0.00065
  38 14  H  1S          0.00404   0.00172   0.00000  -0.00122   0.00173
  39 15  H  1S         -0.00324   0.00438  -0.00000   0.07397   0.04817
  40 16  H  1S         -0.00180  -0.00089   0.00000   0.00695  -0.00345
                          11        12        13        14        15
  11        1PY         1.04173
  12        1PZ        -0.00000   1.03429
  13 4   C  1S         -0.00535   0.00000   0.99407
  14        1PX         0.00096   0.00000  -0.02353   1.04913
  15        1PY         0.00854   0.00000   0.01180  -0.01039   1.01227
  16        1PZ         0.00000   0.10299  -0.00000  -0.00000  -0.00000
  17 5   C  1S          0.39064  -0.00000   0.00330   0.00429  -0.00146
  18        1PX        -0.38503   0.00000  -0.00377  -0.00701   0.00597
  19        1PY        -0.20869  -0.00000   0.00169   0.00598   0.00515
  20        1PZ        -0.00000   0.88281   0.00000   0.00000  -0.00000
  21 6   C  1S          0.00204  -0.00000   0.38903   0.35574   0.37418
  22        1PX         0.00486   0.00000  -0.35938  -0.13495  -0.37275
  23        1PY        -0.00419  -0.00000  -0.38147  -0.38228  -0.17425
  24        1PZ         0.00000   0.02792  -0.00000  -0.00000   0.00000
  25 7   C  1S         -0.00491   0.00000  -0.01165  -0.01189  -0.00126
  26        1PX         0.00048  -0.00000   0.01330   0.01541   0.00503
  27        1PY         0.00193  -0.00000  -0.00124  -0.00435   0.00568
  28        1PZ         0.00000  -0.03603  -0.00000   0.00000  -0.00000
  29 8   C  1S         -0.01361  -0.00000   0.00956  -0.00040   0.01415
  30        1PX        -0.00728   0.00000  -0.01243  -0.00441  -0.00450
  31        1PY         0.01493   0.00000   0.00899  -0.00858   0.00468
  32        1PZ        -0.00000  -0.31176  -0.00000   0.00000  -0.00000
  33 9   H  1S          0.00933  -0.00000  -0.00486   0.01121  -0.00086
  34 10  H  1S          0.00657  -0.00000   0.07414   0.01192  -0.08998
  35 11  H  1S         -0.77768   0.00000   0.00290   0.00382   0.00247
  36 12  H  1S          0.00483   0.00000   0.41981  -0.81181   0.30480
  37 13  H  1S          0.00687   0.00000  -0.00103  -0.00164   0.00121
  38 14  H  1S         -0.00202  -0.00000  -0.00521   0.01220  -0.00207
  39 15  H  1S          0.07345   0.00000   0.00374   0.00105  -0.00471
  40 16  H  1S          0.00459   0.00000   0.07788   0.06777   0.05084
                          16        17        18        19        20
  16        1PZ         0.96133
  17 5   C  1S         -0.00000   1.00696
  18        1PX        -0.00000   0.01971   1.05133
  19        1PY        -0.00000  -0.00702  -0.01568   1.01674
  20        1PZ        -0.02621  -0.00000  -0.00000  -0.00000   0.96427
  21 6   C  1S          0.00000  -0.01025   0.00531  -0.01008  -0.00000
  22        1PX        -0.00000  -0.01147   0.00825  -0.01339   0.00000
  23        1PY        -0.00000   0.00552   0.00235   0.00885  -0.00000
  24        1PZ         0.89104   0.00000   0.00000  -0.00000   0.11387
  25 7   C  1S          0.00000   0.36280  -0.00780   0.50125   0.00000
  26        1PX         0.00000   0.01001   0.20206   0.01352   0.00000
  27        1PY         0.00000  -0.51641   0.01891  -0.56611  -0.00000
  28        1PZ        -0.30271   0.00000   0.00000  -0.00000   0.31680
  29 8   C  1S          0.00000   0.00796   0.00896   0.01002  -0.00000
  30        1PX        -0.00000   0.01321   0.00600   0.00282   0.00000
  31        1PY         0.00000   0.00160   0.01019  -0.00249  -0.00000
  32        1PZ         0.03584   0.00000   0.00000   0.00000   0.03731
  33 9   H  1S         -0.00000   0.00449  -0.00201   0.00420  -0.00000
  34 10  H  1S          0.00000   0.07895  -0.06974  -0.05636   0.00000
  35 11  H  1S          0.00000  -0.00959  -0.01089   0.00724   0.00000
  36 12  H  1S         -0.00000  -0.00257   0.00251  -0.00147   0.00000
  37 13  H  1S          0.00000   0.41655   0.81672  -0.30217  -0.00000
  38 14  H  1S         -0.00000   0.00247  -0.00387  -0.00332   0.00000
  39 15  H  1S          0.00000  -0.00865  -0.01354   0.00052   0.00000
  40 16  H  1S         -0.00000   0.08129  -0.01505   0.09529  -0.00000
                          21        22        23        24        25
  21 6   C  1S          0.99498
  22        1PX        -0.01595   1.01716
  23        1PY         0.03156  -0.00883   1.04790
  24        1PZ         0.00000  -0.00000  -0.00000   1.03672
  25 7   C  1S          0.00578   0.00555   0.01176   0.00000   1.00573
  26        1PX         0.00470   0.00174  -0.00097  -0.00000   0.03669
  27        1PY         0.01176   0.00114  -0.00029   0.00000   0.01683
  28        1PZ        -0.00000   0.00000   0.00000  -0.03684  -0.00000
  29 8   C  1S          0.36019   0.51778   0.00794   0.00000   0.37487
  30        1PX        -0.49591  -0.56914  -0.01132  -0.00000   0.37637
  31        1PY        -0.00791  -0.01954   0.20203   0.00000  -0.34105
  32        1PZ        -0.00000   0.00000  -0.00000   0.30313  -0.00000
  33 9   H  1S          0.07538  -0.04714  -0.07004   0.00000   0.00007
  34 10  H  1S          0.00607   0.00417  -0.00341  -0.00000   0.00620
  35 11  H  1S         -0.00176  -0.00133   0.00257  -0.00000   0.07570
  36 12  H  1S         -0.00123  -0.00061  -0.00974  -0.00000   0.00593
  37 13  H  1S          0.00579   0.00139  -0.00520   0.00000   0.00023
  38 14  H  1S          0.43901  -0.32986   0.79223   0.00000   0.07399
  39 15  H  1S          0.07463   0.09435  -0.01063  -0.00000   0.45243
  40 16  H  1S          0.00085   0.00469  -0.00687   0.00000  -0.00130
                          26        27        28        29        30
  26        1PX         1.04215
  27        1PY         0.01387   1.01737
  28        1PZ         0.00000   0.00000   1.03474
  29 8   C  1S         -0.39014   0.34651   0.00000   1.00761
  30        1PX        -0.20923   0.37259   0.00000   0.00547   1.01938
  31        1PY         0.38459  -0.13159  -0.00000   0.01953   0.01585
  32        1PZ         0.00000   0.00000   0.89049   0.00000   0.00000
  33 9   H  1S          0.00096   0.00143   0.00000   0.00433   0.00099
  34 10  H  1S         -0.00572  -0.00136  -0.00000  -0.00134   0.00123
  35 11  H  1S         -0.01038  -0.09372  -0.00000   0.00347  -0.00466
  36 12  H  1S         -0.00353  -0.00362   0.00000   0.08561  -0.10159
  37 13  H  1S         -0.00509  -0.00478  -0.00000   0.07901   0.05619
  38 14  H  1S         -0.07318   0.04800   0.00000  -0.00742  -0.00280
  39 15  H  1S          0.77803   0.35178  -0.00000  -0.00933  -0.00771
  40 16  H  1S         -0.00688   0.00049   0.00000   0.41700   0.30099
                          31        32        33        34        35
  31        1PY         1.05214
  32        1PZ        -0.00000   0.96391
  33 9   H  1S         -0.00469   0.00000   0.92444
  34 10  H  1S          0.00159  -0.00000  -0.12245   0.92893
  35 11  H  1S         -0.00099  -0.00000  -0.00838  -0.12148   0.92780
  36 12  H  1S         -0.01679   0.00000  -0.12576  -0.01102   0.01538
  37 13  H  1S         -0.06955  -0.00000   0.01434  -0.01415  -0.12848
  38 14  H  1S         -0.01261   0.00000  -0.00795   0.01604  -0.00419
  39 15  H  1S         -0.01096  -0.00000  -0.00435   0.01353  -0.00618
  40 16  H  1S          0.81700   0.00000   0.01128  -0.00335   0.01593
                          36        37        38        39        40
  36 12  H  1S          0.93564
  37 13  H  1S         -0.00290   0.93139
  38 14  H  1S         -0.13503   0.01350   0.93245
  39 15  H  1S          0.01762  -0.12548  -0.00563   0.92830
  40 16  H  1S         -0.01157  -0.01365  -0.12951  -0.12799   0.93128
    Full Mulliken population analysis:
                           1         2         3         4         5
   1 1   C  1S          1.01724
   2        1PX         0.00000   1.04401
   3        1PY         0.00000   0.00000   1.02253
   4        1PZ         0.00000   0.00000   0.00000   1.04231
   5 2   C  1S          0.00000   0.00000   0.00000   0.00000   1.01625
   6        1PX         0.00000   0.00000   0.00000   0.00000   0.00000
   7        1PY         0.00000   0.00000   0.00000   0.00000   0.00000
   8        1PZ         0.00000   0.00000   0.00000   0.00000   0.00000
   9 3   C  1S          0.00000   0.00000   0.00000   0.00000   0.00000
  10        1PX         0.00000   0.00000   0.00000   0.00000   0.00000
  11        1PY         0.00000   0.00000   0.00000   0.00000   0.00000
  12        1PZ         0.00000   0.00000   0.00000   0.00000   0.00000
  13 4   C  1S          0.00000   0.00000   0.00000   0.00000   0.00000
  14        1PX         0.00000   0.00000   0.00000   0.00000   0.00000
  15        1PY         0.00000   0.00000   0.00000   0.00000   0.00000
  16        1PZ         0.00000   0.00000   0.00000   0.00000   0.00000
  17 5   C  1S          0.00000   0.00000   0.00000   0.00000   0.00000
  18        1PX         0.00000   0.00000   0.00000   0.00000   0.00000
  19        1PY         0.00000   0.00000   0.00000   0.00000   0.00000
  20        1PZ         0.00000   0.00000   0.00000   0.00000   0.00000
  21 6   C  1S          0.00000   0.00000   0.00000   0.00000   0.00000
  22        1PX         0.00000   0.00000   0.00000   0.00000   0.00000
  23        1PY         0.00000   0.00000   0.00000   0.00000   0.00000
  24        1PZ         0.00000   0.00000   0.00000   0.00000   0.00000
  25 7   C  1S          0.00000   0.00000   0.00000   0.00000   0.00000
  26        1PX         0.00000   0.00000   0.00000   0.00000   0.00000
  27        1PY         0.00000   0.00000   0.00000   0.00000   0.00000
  28        1PZ         0.00000   0.00000   0.00000   0.00000   0.00000
  29 8   C  1S          0.00000   0.00000   0.00000   0.00000   0.00000
  30        1PX         0.00000   0.00000   0.00000   0.00000   0.00000
  31        1PY         0.00000   0.00000   0.00000   0.00000   0.00000
  32        1PZ         0.00000   0.00000   0.00000   0.00000   0.00000
  33 9   H  1S          0.00000   0.00000   0.00000   0.00000   0.00000
  34 10  H  1S          0.00000   0.00000   0.00000   0.00000   0.00000
  35 11  H  1S          0.00000   0.00000   0.00000   0.00000   0.00000
  36 12  H  1S          0.00000   0.00000   0.00000   0.00000   0.00000
  37 13  H  1S          0.00000   0.00000   0.00000   0.00000   0.00000
  38 14  H  1S          0.00000   0.00000   0.00000   0.00000   0.00000
  39 15  H  1S          0.00000   0.00000   0.00000   0.00000   0.00000
  40 16  H  1S          0.00000   0.00000   0.00000   0.00000   0.00000
                           6         7         8         9        10
   6        1PX         1.01585
   7        1PY         0.00000   1.04611
   8        1PZ         0.00000   0.00000   0.96243
   9 3   C  1S          0.00000   0.00000   0.00000   1.00550
  10        1PX         0.00000   0.00000   0.00000   0.00000   1.01563
  11        1PY         0.00000   0.00000   0.00000   0.00000   0.00000
  12        1PZ         0.00000   0.00000   0.00000   0.00000   0.00000
  13 4   C  1S          0.00000   0.00000   0.00000   0.00000   0.00000
  14        1PX         0.00000   0.00000   0.00000   0.00000   0.00000
  15        1PY         0.00000   0.00000   0.00000   0.00000   0.00000
  16        1PZ         0.00000   0.00000   0.00000   0.00000   0.00000
  17 5   C  1S          0.00000   0.00000   0.00000   0.00000   0.00000
  18        1PX         0.00000   0.00000   0.00000   0.00000   0.00000
  19        1PY         0.00000   0.00000   0.00000   0.00000   0.00000
  20        1PZ         0.00000   0.00000   0.00000   0.00000   0.00000
  21 6   C  1S          0.00000   0.00000   0.00000   0.00000   0.00000
  22        1PX         0.00000   0.00000   0.00000   0.00000   0.00000
  23        1PY         0.00000   0.00000   0.00000   0.00000   0.00000
  24        1PZ         0.00000   0.00000   0.00000   0.00000   0.00000
  25 7   C  1S          0.00000   0.00000   0.00000   0.00000   0.00000
  26        1PX         0.00000   0.00000   0.00000   0.00000   0.00000
  27        1PY         0.00000   0.00000   0.00000   0.00000   0.00000
  28        1PZ         0.00000   0.00000   0.00000   0.00000   0.00000
  29 8   C  1S          0.00000   0.00000   0.00000   0.00000   0.00000
  30        1PX         0.00000   0.00000   0.00000   0.00000   0.00000
  31        1PY         0.00000   0.00000   0.00000   0.00000   0.00000
  32        1PZ         0.00000   0.00000   0.00000   0.00000   0.00000
  33 9   H  1S          0.00000   0.00000   0.00000   0.00000   0.00000
  34 10  H  1S          0.00000   0.00000   0.00000   0.00000   0.00000
  35 11  H  1S          0.00000   0.00000   0.00000   0.00000   0.00000
  36 12  H  1S          0.00000   0.00000   0.00000   0.00000   0.00000
  37 13  H  1S          0.00000   0.00000   0.00000   0.00000   0.00000
  38 14  H  1S          0.00000   0.00000   0.00000   0.00000   0.00000
  39 15  H  1S          0.00000   0.00000   0.00000   0.00000   0.00000
  40 16  H  1S          0.00000   0.00000   0.00000   0.00000   0.00000
                          11        12        13        14        15
  11        1PY         1.04173
  12        1PZ         0.00000   1.03429
  13 4   C  1S          0.00000   0.00000   0.99407
  14        1PX         0.00000   0.00000   0.00000   1.04913
  15        1PY         0.00000   0.00000   0.00000   0.00000   1.01227
  16        1PZ         0.00000   0.00000   0.00000   0.00000   0.00000
  17 5   C  1S          0.00000   0.00000   0.00000   0.00000   0.00000
  18        1PX         0.00000   0.00000   0.00000   0.00000   0.00000
  19        1PY         0.00000   0.00000   0.00000   0.00000   0.00000
[...]
 ! D42   D(3,5,8,4)              0.0            -DE/DX =    0.0                 !
 ! D43   D(3,5,8,6)              0.0            -DE/DX =    0.0                 !
 ! D44   D(3,5,8,16)           180.0            -DE/DX =    0.0                 !
 ! D45   D(13,5,8,4)           180.0            -DE/DX =    0.0                 !
 ! D46   D(13,5,8,6)           180.0            -DE/DX =    0.0                 !
 ! D47   D(13,5,8,16)            0.0            -DE/DX =    0.0                 !
 ! D48   D(1,6,8,5)              0.0            -DE/DX =    0.0                 !
 ! D49   D(1,6,8,7)              0.0            -DE/DX =    0.0                 !
 ! D50   D(1,6,8,16)           180.0            -DE/DX =    0.0                 !
 ! D51   D(14,6,8,5)           180.0            -DE/DX =    0.0                 !
 ! D52   D(14,6,8,7)           180.0            -DE/DX =    0.0                 !
 ! D53   D(14,6,8,16)            0.0            -DE/DX =    0.0                 !
 ! D54   D(15,7,8,4)           180.0            -DE/DX =    0.0                 !
 ! D55   D(15,7,8,6)           180.0            -DE/DX =    0.0                 !
 ! D56   D(15,7,8,16)            0.0            -DE/DX =    0.0                 !
 --------------------------------------------------------------------------------
 GradGradGradGradGradGradGradGradGradGradGradGradGradGradGradGradGradGrad


 ----------------------------------------------------------------------

 Electric dipole moment (input orientation):
 (Debye = 10**-18 statcoulomb cm , SI units = C m)
                  (au)            (Debye)         (10**-30 SI)
   Tot        0.479412D-04      0.121854D-03      0.406463D-03
   x         -0.327067D-04     -0.831320D-04     -0.277299D-03
   y          0.350519D-04      0.890931D-04      0.297183D-03
   z          0.000000D+00      0.000000D+00      0.000000D+00

 Dipole polarizability, Alpha (input orientation).
 (esu units = cm**3 , SI units = C**2 m**2 J**-1)
 Alpha(0;0):
               (au)            (10**-24 esu)      (10**-40 SI)
   iso        0.712229D+02      0.105541D+02      0.117431D+02
   aniso      0.874111D+02      0.129530D+02      0.144121D+02
   xx         0.100345D+03      0.148696D+02      0.165447D+02
   yx        -0.313765D-02     -0.464952D-03     -0.517329D-03
   yy         0.100375D+03      0.148740D+02      0.165496D+02
   zx         0.000000D+00      0.000000D+00      0.000000D+00
   zy         0.000000D+00      0.000000D+00      0.000000D+00
   zz         0.129489D+02      0.191882D+01      0.213498D+01

 First dipole hyperpolarizability, Beta (input orientation).
 ||, _|_  parallel and perpendicular components, (z) with respect to z axis,
 vector components x,y,z.  Values do not include the 1/n! factor of 1/2.
 (esu units = statvolt**-1 cm**4 , SI units = C**3 m**3 J**-2)
 Beta(0;0,0):
               (au)            (10**-30 esu)      (10**-50 SI)
   || (z)     0.000000D+00      0.000000D+00      0.000000D+00
   _|_(z)     0.000000D+00      0.000000D+00      0.000000D+00
   x          0.174567D+00      0.150812D-02      0.559723D-03
   y         -0.215647D+00     -0.186302D-02     -0.691443D-03
   z          0.000000D+00      0.000000D+00      0.000000D+00
   ||         0.554895D-01      0.479386D-03      0.177919D-03
   xxx        0.788004D-01      0.680774D-03      0.252663D-03
   xxy       -0.122326D-01     -0.105680D-03     -0.392220D-04
   yxy       -0.154270D-01     -0.133277D-03     -0.494646D-04
   yyy       -0.633689D-01     -0.547458D-03     -0.203183D-03
   xxz        0.000000D+00      0.000000D+00      0.000000D+00
   yxz        0.000000D+00      0.000000D+00      0.000000D+00
   yyz        0.000000D+00      0.000000D+00      0.000000D+00
   zxz       -0.518454D-02     -0.447904D-04     -0.166235D-04
   zyz        0.371901D-02      0.321294D-04      0.119245D-04
   zzz        0.000000D+00      0.000000D+00      0.000000D+00

 ----------------------------------------------------------------------

 Dipole orientation:
     6         -0.01546455         -0.01442984          1.19788728
     6          0.09691666          0.09043210         -1.32184971
     6          1.58947829          1.48312856         -3.12649324
     6          1.30411059          1.21685440          3.23864951
     6          3.43092214          3.20136402         -2.97179811
     6          3.14669245          2.93615173          3.39284226
     6          4.75116002          4.43326666         -0.93193021
     6          4.63871621          4.32834630          1.58757716
     1         -1.45204832         -1.35489383          1.95520256
     1         -1.26120502         -1.17681959         -2.31304964
     1          1.03551945          0.96623431         -5.09134403
     1          0.57910147          0.54035461          5.09603023
     1          4.15593359          3.87786598         -4.82944121
     1          3.70057129          3.45297133          5.35744606
     1          6.18753631          5.77353706         -1.68977975
     1          5.99644261          5.59522917          2.58001065

 Electric dipole moment (dipole orientation):
 (Debye = 10**-18 statcoulomb cm , SI units = C m)
                  (au)            (Debye)         (10**-30 SI)
   Tot        0.479412D-04      0.121854D-03      0.406463D-03
   x          0.000000D+00      0.000000D+00      0.000000D+00
   y          0.000000D+00      0.000000D+00      0.000000D+00
   z          0.479412D-04      0.121854D-03      0.406463D-03

 Dipole polarizability, Alpha (dipole orientation).
 (esu units = cm**3 , SI units = C**2 m**2 J**-1)
 Alpha(0;0):
               (au)            (10**-24 esu)      (10**-40 SI)
   iso        0.712229D+02      0.105541D+02      0.117431D+02
   aniso      0.874111D+02      0.129530D+02      0.144121D+02
   xx         0.596741D+02      0.884278D+01      0.983892D+01
   yx         0.435989D+02      0.646069D+01      0.718848D+01
   yy         0.536306D+02      0.794723D+01      0.884249D+01
   zx         0.107320D-01      0.159031D-02      0.176946D-02
   zy         0.100139D-01      0.148391D-02      0.165107D-02
   zz         0.100364D+03      0.148724D+02      0.165478D+02

 First dipole hyperpolarizability, Beta (dipole orientation).
 ||, _|_  parallel and perpendicular components, (z) with respect to z axis,
 vector components x,y,z.  Values do not include the 1/n! factor of 1/2.
 (esu units = statvolt**-1 cm**4 , SI units = C**3 m**3 J**-2)
 Beta(0;0,0):
               (au)            (10**-30 esu)      (10**-50 SI)
   || (z)    -0.553525D-01     -0.478202D-03     -0.177480D-03
   _|_(z)    -0.184508D-01     -0.159401D-03     -0.591600D-04
   x         -0.142474D-01     -0.123086D-03     -0.456823D-04
   y         -0.132941D-01     -0.114851D-03     -0.426258D-04
   z         -0.276762D+00     -0.239101D-02     -0.887401D-03
   ||         0.554895D-01      0.479386D-03      0.177919D-03
   xxx       -0.849276D-02     -0.733708D-04     -0.272309D-04
   xxy       -0.621426D-02     -0.536864D-04     -0.199252D-04
   yxy       -0.591701D-02     -0.511184D-04     -0.189721D-04
   yyy       -0.723137D-02     -0.624734D-04     -0.231864D-04
   xxz       -0.254803D-01     -0.220130D-03     -0.816991D-04
   yxz       -0.296130D-01     -0.255833D-03     -0.949500D-04
   yyz       -0.213755D-01     -0.184668D-03     -0.685376D-04
   zxz        0.966064D-02      0.834604D-04      0.309755D-04
   zyz        0.901426D-02      0.778762D-04      0.289030D-04
   zzz       -0.453983D-01     -0.392206D-03     -0.145563D-03

 ----------------------------------------------------------------------
 1\1\GINC-IISERK51\Freq\RAM1\ZDO\C8H8\GAUSSIAN\12-Jun-2025\0\\#N Geom=A
 llCheck Guess=TCheck SCRF=Check GenChk RAM1/ZDO Freq\\optimisation\\0,
 1\C,-0.4406414524,0.4558320004,0.\C,0.5284966255,-0.4635749584,0.\C,1.
 9698336598,-0.4248163793,0.\C,-0.479102716,1.8969795943,0.\C,2.8884361
 711,0.544286904,0.\C,0.4402833737,2.8664504272,0.\C,2.850648481,1.9854
 157215,0.\C,1.8815601756,2.9047029265,0.\H,-1.4742527175,0.039497677,0
 .\H,0.1676498499,-1.5176753543,0.\H,2.3860362815,-1.4585545938,0.\H,-1
 .5333074911,2.2576202313,0.\H,3.9427369,0.183545907,0.\H,0.0241275797,
 3.9000535742,0.\H,3.8843428354,2.4014408992,0.\H,2.2417524439,3.959085
 4232,0.\\Version=EM64L-G16RevB.01\State=1-A'\HF=0.1202583\RMSD=8.732e-
 10\RMSF=2.053e-04\ZeroPoint=0.1357256\Thermal=0.1417928\Dipole=-0.0000
 327,0.0000351,0.\DipoleDeriv=-0.1646306,0.0786214,0.,0.1022596,0.02679
 88,0.,0.,0.,-0.1247757,0.0165022,0.1117416,0.,0.0880524,-0.1547906,0.,
 0.,0.,-0.1249799,0.0271658,-0.102324,0.,-0.0783255,-0.1646895,0.,0.,0.
 ,-0.1246887,-0.1548132,-0.0882555,0.,-0.1118316,0.0166326,0.,0.,0.,-0.
 1248608,-0.1547384,-0.0880162,0.,-0.1118846,0.0166241,0.,0.,0.,-0.1247
 933,0.0267192,-0.1022091,0.,-0.0785591,-0.1647794,0.,0.,0.,-0.1248829,
 -0.1647494,0.0783233,0.,0.1020354,0.0266141,0.,0.,0.,-0.1248452,0.0168
 444,0.1121475,0.,0.088191,-0.1546447,0.,0.,0.,-0.1247824,0.1213563,0.0
 107636,0.,0.0555384,0.0164194,0.,0.,0.,0.1247879,0.0132561,0.0498724,0
 .,0.0051182,0.1249534,0.,0.,0.,0.1248951,0.0164422,-0.055466,0.,-0.010
 8766,0.1214804,0.,0.,0.,0.1247843,0.124875,-0.0050427,0.,-0.0498319,0.
 0132363,0.,0.,0.,0.1248631,0.1245457,-0.0050993,0.,-0.0497398,0.013211
 4,0.,0.,0.,0.1247589,0.0164202,-0.0555891,0.,-0.0107663,0.1215873,0.,0
 .,0.,0.1248302,0.1215992,0.0108258,0.,0.0556056,0.0165086,0.,0.,0.,0.1
 24846,0.0132248,0.0496863,0.,0.0050347,0.1248572,0.,0.,0.,0.1248356\Po
 lar=100.3450137,-0.0031377,100.3748758,0.,0.,12.948866\HyperPolar=0.07
 88004,-0.0122326,-0.015427,-0.0633689,0.,0.,0.,-0.0051845,0.003719,0.\
 PG=CS [SG(C8H8)]\NImag=1\\0.74058621,-0.22830609,0.88429873,0.,0.,0.14
 054281,-0.36794463,0.27815765,0.,0.90751524,0.27837575,-0.33861164,0.,
 -0.21915901,0.71727275,0.,0.,-0.05731051,0.,0.,0.14054631,-0.04711720,
 0.01027579,0.,-0.36167343,-0.01228243,0.,0.88442862,0.02530961,0.00161
 312,0.,-0.00353526,-0.06813639,0.,0.22946582,0.74165116,0.,0.,0.005119
 54,0.,0.,-0.07338732,0.,0.,0.14037778,-0.06811119,0.01225272,0.,-0.000
 39900,0.02777672,0.,0.00273093,0.00153911,0.,0.71679179,0.00346023,-0.
 36205340,0.,0.01275571,-0.04507843,0.,0.01073006,0.00339065,0.,0.21884
 869,0.90755426,0.,0.,-0.07331926,0.,0.,0.00510770,0.,0.,-0.00469027,0.
 ,0.,0.14061330,0.00094722,-0.00062025,0.,-0.04511270,-0.02783004,0.,-0
 .33910584,-0.27937422,0.,-0.00055457,-0.00337280,0.,0.71752205,0.00002
 160,0.01222832,0.,-0.01277136,-0.00042627,0.,-0.27921124,-0.36902199,0
 .,-0.00336799,-0.01459620,0.,0.22054189,0.90911603,0.,0.,0.00005005,0.
 ,0.,0.00513030,0.,0.,-0.05709063,0.,0.,0.00074829,0.,0.,0.14031195,0.0
 0162422,-0.01029006,0.,0.01222008,0.00063356,0.,-0.01419984,-0.0040992
 4,0.,-0.33822435,-0.27770631,0.,0.00273653,0.01072875,0.,0.88364526,-0
 .02529500,-0.04710694,0.,-0.00002726,0.00095668,0.,-0.00409663,-0.0009
 5316,0.,-0.27795472,-0.36770479,0.,0.00153899,0.00338551,0.,0.22778928
 ,0.74047639,0.,0.,0.00510636,0.,0.,0.00004915,0.,0.,0.00074808,0.,0.,-
 0.05739501,0.,0.,-0.00469477,0.,0.,0.14063349,-0.00095028,0.00408956,0
 .,0.00338559,-0.00153587,0.,0.00160422,-0.02534409,0.,0.00095390,0.000
 03254,0.,-0.06806439,0.00334660,0.,-0.04713450,0.02531518,0.,0.7408529
 8,0.00409623,-0.01419843,0.,-0.01073225,0.00273345,0.,-0.01028291,-0.0
 4715706,0.,-0.00062920,0.01221945,0.,0.01207797,-0.36221151,0.,0.01029
 737,0.00161520,0.,-0.22839400,0.88460951,0.,0.,0.00074840,0.,0.,-0.004
 69476,0.,0.,0.00512571,0.,0.,0.00004916,0.,0.,-0.07333138,0.,0.,0.0051
 1885,0.,0.,0.14048510,0.00338363,-0.01072209,0.,-0.01459693,0.00336541
 ,0.,0.01223005,-0.00002166,0.,-0.04504170,-0.01275163,0.,-0.00040373,0
 .01275839,0.,-0.36178998,-0.00340913,0.,-0.36812996,0.27835164,0.,0.90
 763062,-0.00153909,0.00273232,0.,0.00337021,-0.00055297,0.,0.00062591,
 0.00095350,0.,-0.02776258,-0.00039809,0.,0.02779725,-0.04513064,0.,-0.
 01218953,-0.06811597,0.,0.27857908,-0.33875866,0.,-0.21967343,0.717445
 57,0.,0.,-0.00468972,0.,0.,0.00074796,0.,0.,0.00005006,0.,0.,0.0051022
 0,0.,0.,0.00511704,0.,0.,-0.07334597,0.,0.,-0.05726698,0.,0.,0.1405082
 1,-0.25402543,-0.08811560,0.,-0.04251518,0.00256988,0.,-0.00089460,0.0
 0214651,0.,-0.00555088,-0.01304223,0.,0.00022075,0.00007535,0.,0.00056
 651,0.00011251,0.,-0.00006190,-0.00014142,0.,0.00000483,0.00012115,0.,
 0.30308251,-0.08892458,-0.07009168,0.,0.01913941,0.00504687,0.,0.00139
 106,-0.00131498,0.,-0.02901889,-0.02926021,0.,0.00014620,-0.00027263,0
 .,0.00108690,-0.00325917,0.,-0.00012995,-0.00003607,0.,0.00015997,0.00
 011681,0.,0.09434826,0.10328059,0.,0.,-0.04329011,0.,0.,0.00712962,0.,
 0.,0.00994294,0.,0.,0.00967091,0.,0.,-0.00032651,0.,0.,0.00030567,0.,0
 .,0.00037444,0.,0.,-0.00004280,0.,0.,0.02175841,0.00376680,0.02159886,
 0.,-0.06124134,-0.07875672,0.,-0.02694117,-0.03015423,0.,-0.00150180,0
 .00135860,0.,-0.00331557,0.00087939,0.,-0.00028274,0.00011964,0.,0.000
 10228,0.00016556,0.,-0.00002223,-0.00012805,0.,-0.00097277,0.00223658,
 0.,0.09382788,0.00501887,-0.04122294,0.,-0.07794892,-0.26310315,0.,-0.
 01416414,-0.00784228,0.,0.00211351,-0.00070709,0.,-0.00009405,0.000618
 19,0.,0.00004830,0.00023136,0.,0.00012654,0.00002018,0.,-0.00013986,-0
 .00007666,0.,0.00138368,-0.00078168,0.,0.08330534,0.31272329,0.,0.,0.0
 0712077,0.,0.,-0.04325223,0.,0.,0.00966483,0.,0.,0.00994130,0.,0.,0.00
 030248,0.,0.,-0.00032484,0.,0.,-0.00004225,0.,0.,0.00037380,0.,0.,-0.0
 0423707,0.,0.,0.02173740,-0.00326065,-0.00108678,0.,-0.02926288,0.0290
 1357,0.,-0.07006740,0.08887538,0.,0.00011706,-0.00016008,0.,0.00505124
 ,-0.01913651,0.,-0.00003603,0.00013007,0.,-0.00131367,-0.00139149,0.,-
 0.00027277,-0.00014641,0.,-0.00046591,0.00040386,0.,-0.00303658,0.0003
 6075,0.,0.10325045,-0.00011210,0.00056647,0.,0.01304623,-0.00554933,0.
 ,0.08804460,-0.25395456,0.,-0.00012115,0.00000464,0.,-0.00256277,-0.04
 252938,0.,0.00014146,-0.00006191,0.,-0.00214395,-0.00089248,0.,-0.0000
 7524,0.00022026,0.,0.00001098,-0.00000519,0.,-0.00056105,0.00069848,0.
 ,-0.09429145,0.30302597,0.,0.,0.00030290,0.,0.,0.00967535,0.,0.,-0.043
 31133,0.,0.,-0.00004227,0.,0.,0.00713178,0.,0.,0.00037421,0.,0.,0.0099
 4674,0.,0.,-0.00032551,0.,0.,-0.00055103,0.,0.,0.00053245,0.,0.,0.0217
 7919,-0.00785187,0.01418250,0.,0.00061906,0.00009378,0.,0.00002037,-0.
 00012640,0.,-0.26308799,0.07789365,0.,-0.00007651,0.00013969,0.,-0.041
 20451,-0.00502128,0.,0.00023137,-0.00004840,0.,-0.00070694,-0.00211335
 ,0.,0.00069940,-0.00036186,0.,-0.00002850,0.00003405,0.,-0.00001448,0.
 00003010,0.,0.31269380,0.03016356,-0.02695946,0.,-0.00088066,-0.003312
 80,0.,-0.00016550,0.00010169,0.,0.07870772,-0.06120672,0.,0.00012782,-
 0.00002203,0.,-0.02160202,0.00376245,0.,-0.00011934,-0.00028265,0.,-0.
 00135760,-0.00150262,0.,0.00056114,-0.00304064,0.,0.00042720,-0.000442
 30,0.,0.00005716,-0.00000977,0.,-0.08326807,0.09381579,0.,0.,0.0096721
 6,0.,0.,0.00030549,0.,0.,-0.00004297,0.,0.,-0.04325679,0.,0.,0.0003744
 4,0.,0.,0.00711498,0.,0.,-0.00032572,0.,0.,0.00994106,0.,0.,0.00053252
 ,0.,0.,-0.00055039,0.,0.,0.00013171,0.,0.,0.02173869,0.00023050,-0.000
 04843,0.,-0.00070499,-0.00211261,0.,-0.04126109,-0.00504116,0.,-0.0000
 7616,0.00013916,0.,-0.26289757,0.07784193,0.,0.00001992,-0.00012615,0.
 ,-0.00784954,0.01419211,0.,0.00061948,0.00009410,0.,-0.00006524,-0.000
 01700,0.,-0.00044225,-0.00003395,0.,-0.00078110,-0.00138396,0.,-0.0000
 0718,-0.00000281,0.,0.31255786,-0.00011952,-0.00028280,0.,-0.00135959,
 -0.00150086,0.,-0.02160568,0.00376396,0.,0.00012783,-0.00002185,0.,0.0
 7866028,-0.06119181,0.,-0.00016525,0.00010197,0.,0.03015998,-0.0269783
 3,0.,-0.00088019,-0.00331394,0.,0.00000959,0.00007556,0.,-0.00042691,-
 0.00002837,0.,-0.00224044,-0.00097537,0.,-0.00000287,0.00002210,0.,-0.
 08320176,0.09382565,0.,0.,-0.00032591,0.,0.,0.00994655,0.,0.,0.0071422
 4,0.,0.,0.00037384,0.,0.,-0.04329748,0.,0.,-0.00004258,0.,0.,0.0096795
 6,0.,0.,0.00030358,0.,0.,-0.00088027,0.,0.,-0.00055012,0.,0.,-0.004245
 60,0.,0.,0.00003218,0.,0.,0.02174920,-0.00131610,-0.00139076,0.,-0.000
 27242,-0.00014622,0.,-0.00003648,0.00013000,0.,0.00504579,-0.01914165,
 0.,0.00011728,-0.00016018,0.,-0.07007965,0.08894657,0.,-0.00326102,-0.
 00108669,0.,-0.02925432,0.02901911,0.,-0.00000523,-0.00040402,0.,0.000
 07557,0.00001722,0.,0.00002234,-0.00000130,0.,-0.00077831,-0.00223120,
 0.,-0.00001439,0.00005711,0.,0.10326978,-0.00214650,-0.00089492,0.,-0.
 00007523,0.00022119,0.,0.00014210,-0.00006214,0.,-0.00256281,-0.042490
 00,0.,-0.00012149,0.00000499,0.,0.08813267,-0.25414916,0.,-0.00011157,
 0.00056669,0.,0.01303866,-0.00555268,0.,-0.00001089,-0.00046565,0.,-0.
 00000978,-0.00006552,0.,-0.00000135,-0.00000737,0.,-0.00138008,-0.0009
 7013,0.,0.00003008,-0.00000983,0.,-0.09437410,0.30317944,0.,0.,0.00994
 146,0.,0.,-0.00032519,0.,0.,0.00037423,0.,0.,0.00711653,0.,0.,-0.00004
 255,0.,0.,-0.04326884,0.,0.,0.00030456,0.,0.,0.00967173,0.,0.,-0.00055
 065,0.,0.,-0.00088010,0.,0.,0.00003209,0.,0.,-0.00423641,0.,0.,0.00013
 170,0.,0.,0.02174818,-0.00006217,-0.00014176,0.,0.00000483,0.00012136,
 0.,0.00056644,0.00011157,0.,0.00022093,0.00007524,0.,-0.00556179,-0.01
 304534,0.,-0.00089321,0.00214570,0.,-0.25412687,-0.08808332,0.,-0.0425
 0918,0.00257405,0.,-0.00000736,0.00000132,0.,-0.00000986,-0.00003016,0
 .,-0.00000527,-0.00001097,0.,-0.00006545,0.00000971,0.,0.00070006,0.00
 056017,0.,-0.00046559,0.00001088,0.,0.30318247,-0.00013011,-0.00003623
 ,0.,0.00016012,0.00011725,0.,0.00108469,-0.00326185,0.,0.00014628,-0.0
 0027256,0.,-0.02902653,-0.02924393,0.,0.00139125,-0.00131611,0.,-0.088
 89071,-0.07004946,0.,0.01914793,0.00504783,0.,0.00000132,0.00002234,0.
 ,-0.00005710,-0.00001452,0.,-0.00040346,-0.00046530,0.,-0.00001720,0.0
 0007553,0.,-0.00036379,-0.00304414,0.,0.00040413,-0.00000530,0.,0.0943
 2335,0.10322377,0.,0.,0.00037396,0.,0.,-0.00004289,0.,0.,0.00030335,0.
 ,0.,-0.00032479,0.,0.,0.00967140,0.,0.,0.00994238,0.,0.,-0.04328746,0.
 ,0.,0.00712935,0.,0.,0.00003213,0.,0.,0.00013177,0.,0.,-0.00055015,0.,
 0.,-0.00088011,0.,0.,0.00053377,0.,0.,-0.00055069,0.,0.,0.02175688,0.0
 0010146,0.00016522,0.,-0.00002169,-0.00012765,0.,-0.00028289,0.0001190
 1,0.,-0.00331282,0.00088042,0.,-0.00150247,0.00135861,0.,-0.02696700,-
 0.03016702,0.,0.00376234,0.02160927,0.,-0.06114128,-0.07862896,0.,-0.0
 0000973,-0.00005719,0.,0.00002211,0.00000286,0.,0.00007548,-0.00000958
 ,0.,-0.00044245,-0.00042728,0.,-0.00002848,0.00042706,0.,-0.00304742,-
 0.00056074,0.,-0.00096819,0.00222988,0.,0.09376286,0.00012641,0.000020
 18,0.,-0.00013936,-0.00007642,0.,0.00004804,0.00023085,0.,-0.00009472,
 0.00061994,0.,0.00211228,-0.00070703,0.,-0.01419760,-0.00786183,0.,0.0
 0501926,-0.04119911,0.,-0.07779073,-0.26311412,0.,-0.00003006,-0.00001
 444,0.,0.00000288,-0.00000717,0.,0.00001713,-0.00006538,0.,-0.00003427
 ,-0.00002861,0.,0.00003420,-0.00044210,0.,0.00036194,0.00070015,0.,0.0
 0137836,-0.00077749,0.,0.08318629,0.31272239,0.,0.,-0.00004280,0.,0.,0
 .00037458,0.,0.,-0.00032613,0.,0.,0.00030528,0.,0.,0.00994569,0.,0.,0.
 00967897,0.,0.,0.00711614,0.,0.,-0.04327389,0.,0.,0.00013169,0.,0.,0.0
 0003208,0.,0.,-0.00088065,0.,0.,-0.00055096,0.,0.,-0.00055078,0.,0.,0.
 00053382,0.,0.,-0.00423901,0.,0.,0.02174586\\-0.00014700,0.00040250,0.
 ,0.00022642,-0.00034266,0.,0.00031378,0.00043304,0.,-0.00048977,-0.000
 55732,0.,-0.00039371,-0.00008712,0.,0.00051356,0.00045441,0.,0.0001366
 7,-0.00038418,0.,-0.00008494,0.00012277,0.,-0.00001423,-0.00002881,0.,
 -0.00001982,0.00003554,0.,0.00001583,-0.00005678,0.,0.00001214,-0.0000
 2164,0.,-0.00001482,-0.00000472,0.,0.00000848,0.00001265,0.,0.00001063
 ,0.00001473,0.,-0.00007322,0.00000757,0.\\\@


 CHEMISTRY BEGAN BY SAYING IT WOULD CHANGE THE BASER
 METALS INTO GOLD.  BY NOT DOING THAT IT HAS DONE MUCH
 GREATER THINGS.  --  RALPH WALDO EMERSON
 Job cpu time:       0 days  0 hours  0 minutes  0.6 seconds.
 Elapsed time:       0 days  0 hours  0 minutes  0.5 seconds.
 File lengths (MBytes):  RWF=     14 Int=      0 D2E=      0 Chk=      2 Scr=      1
 Normal termination of Gaussian 16 at Thu Jun 12 23:28:58 2025.
