 Entering Gaussian System, Link 0=g16
 Input=/home/gaussian/Documents/program files/Aromaticity/AM1 HF3-21G*/cyclooctatetraene/opt freq/meth_cyclooctatetraene.com
 Output=/home/gaussian/Documents/program files/Aromaticity/AM1 HF3-21G*/cyclooctatetraene/opt freq/meth_cyclooctatetraene.log
 Initial command:
 /usr/local/g16/l1.exe "/home/gaussian/tmp/Gau-145455.inp" -scrdir="/home/gaussian/tmp/"
 Entering Link 1 = /usr/local/g16/l1.exe PID=    145458.
  
 Copyright (c) 1988-2017, Gaussian, Inc.  All Rights Reserved.
  
 This is part of the Gaussian(R) 16 program.  It is based on
 the Gaussian(R) 09 system (copyright 2009, Gaussian, Inc.),
 the Gaussian(R) 03 system (copyright 2003, Gaussian, Inc.),
 the Gaussian(R) 98 system (copyright 1998, Gaussian, Inc.),
 the Gaussian(R) 94 system (copyright 1995, Gaussian, Inc.),
 the Gaussian 92(TM) system (copyright 1992, Gaussian, Inc.),
 the Gaussian 90(TM) system (copyright 1990, Gaussian, Inc.),
 the Gaussian 88(TM) system (copyright 1988, Gaussian, Inc.),
 the Gaussian 86(TM) system (copyright 1986, Carnegie Mellon
 University), and the Gaussian 82(TM) system (copyright 1983,
 Carnegie Mellon University). Gaussian is a federally registered
 trademark of Gaussian, Inc.
  
 This software contains proprietary and confidential information,
 including trade secrets, belonging to Gaussian, Inc.
  
 This software is provided under written license and may be
 used, copied, transmitted, or stored only in accord with that
 written license.
  
 The following legend is applicable only to US Government
 contracts under FAR:
  
                    RESTRICTED RIGHTS LEGEND
  
 Use, reproduction and disclosure by the US Government is
 subject to restrictions as set forth in subparagraphs (a)
 and (c) of the Commercial Computer Software - Restricted
 Rights clause in FAR 52.227-19.
  
 Gaussian, Inc.
 340 Quinnipiac St., Bldg. 40, Wallingford CT 06492
  
  
 ---------------------------------------------------------------
 Warning -- This program may not be used in any manner that
 competes with the business of Gaussian, Inc. or will provide
 assistance to any competitor of Gaussian, Inc.  The licensee
 of this program is prohibited from giving any competitor of
 Gaussian, Inc. access to this program.  By using this program,
 the user acknowledges that Gaussian, Inc. is engaged in the
 business of creating and licensing software in the field of
 computational chemistry and represents and warrants to the
 licensee that it is not a competitor of Gaussian, Inc. and that
 it will not use this program in any manner prohibited above.
 ---------------------------------------------------------------
  

 Cite this work as:
 Gaussian 16, Revision B.01,
 M. J. Frisch, G. W. Trucks, H. B. Schlegel, G. E. Scuseria, 
 M. A. Robb, J. R. Cheeseman, G. Scalmani, V. Barone, 
 G. A. Petersson, H. Nakatsuji, X. Li, M. Caricato, A. V. Marenich, 
 J. Bloino, B. G. Janesko, R. Gomperts, B. Mennucci, H. P. Hratchian, 
 J. V. Ortiz, A. F. Izmaylov, J. L. Sonnenberg, D. Williams-Young, 
 F. Ding, F. Lipparini, F. Egidi, J. Goings, B. Peng, A. Petrone, 
 T. Henderson, D. Ranasinghe, V. G. Zakrzewski, J. Gao, N. Rega, 
 G. Zheng, W. Liang, M. Hada, M. Ehara, K. Toyota, R. Fukuda, 
 J. Hasegawa, M. Ishida, T. Nakajima, Y. Honda, O. Kitao, H. Nakai, 
 T. Vreven, K. Throssell, J. A. Montgomery, Jr., J. E. Peralta, 
 F. Ogliaro, M. J. Bearpark, J. J. Heyd, E. N. Brothers, K. N. Kudin, 
 V. N. Staroverov, T. A. Keith, R. Kobayashi, J. Normand, 
 K. Raghavachari, A. P. Rendell, J. C. Burant, S. S. Iyengar, 
 J. Tomasi, M. Cossi, J. M. Millam, M. Klene, C. Adamo, R. Cammi, 
 J. W. Ochterski, R. L. Martin, K. Morokuma, O. Farkas, 
 J. B. Foresman, and D. J. Fox, Gaussian, Inc., Wallingford CT, 2016.
 
 ******************************************
 Gaussian 16:  EM64L-G16RevB.01 20-Dec-2017
                12-Jun-2025 
 ******************************************
 %chk=meth_cyclooctatetraene.chk
 --------------------------------
 # opt freq am1 geom=connectivity
 --------------------------------
 1/18=20,19=15,26=1,38=1,57=2/1,3;
 2/9=110,12=2,17=6,18=5,40=1/2;
 3/5=2,25=1,41=700000,71=1/1,2,3;
 4/35=1/1;
 5/5=2,35=1,38=5/2;
 6/7=2,8=2,9=2,10=2,28=1/1;
 7//1,2,3,16;
 1/18=20,19=15,26=1/3(2);
 2/9=110/2;
 99//99;
 2/9=110/2;
 3/5=2,25=1,41=700000,71=1,135=20/1,2,3;
 4/5=5,16=3,35=1/1;
 5/5=2,35=1,38=5/2;
 7//1,2,3,16;
 1/18=20,19=15,26=1/3(-5);
 2/9=110/2;
 6/7=2,8=2,9=2,10=2,19=2,28=1/1;
 99/9=1/99;
 -------------------
 Title Card Required
 -------------------
 Symbolic Z-matrix:
 Charge =  0 Multiplicity = 1
 C                    -1.73736  -1.27668   0.04347 
 C                    -2.27093  -0.05267   0.04642 
 C                    -1.72964   1.28196  -0.03421 
 C                    -0.39374  -1.79705  -0.03693 
 C                    -0.49809   1.79889  -0.03732 
 C                     0.83642  -1.27826  -0.04935 
 C                     0.84467   1.27793   0.02466 
 C                     1.40569   0.05815   0.00619 
 H                    -2.47836  -2.10849   0.11475 
 H                    -3.38437  -0.0267    0.11761 
 H                    -2.54965   2.03614  -0.09623 
 H                    -0.41669  -2.91215  -0.0956 
 H                    -0.47241   2.91396  -0.09936 
 H                     1.64397  -2.04864  -0.11733 
 H                     1.57044   2.12512   0.07721 
 C                     2.90731   0.00258   0.03399 
 H                     3.25109  -0.57161   0.93219 
 H                     3.28197  -0.51638  -0.88251 
 H                     3.36812   1.01967   0.07393 
 

 GradGradGradGradGradGradGradGradGradGradGradGradGradGradGradGradGradGrad
 Berny optimization.
 Initialization pass.
                           ----------------------------
                           !    Initial Parameters    !
                           ! (Angstroms and Degrees)  !
 --------------------------                            --------------------------
 ! Name  Definition              Value          Derivative Info.                !
 --------------------------------------------------------------------------------
 ! R1    R(1,2)                  1.3353         estimate D2E/DX2                !
 ! R2    R(1,4)                  1.4431         estimate D2E/DX2                !
 ! R3    R(1,9)                  1.1163         estimate D2E/DX2                !
 ! R4    R(2,3)                  1.4425         estimate D2E/DX2                !
 ! R5    R(2,10)                 1.116          estimate D2E/DX2                !
 ! R6    R(3,5)                  1.3356         estimate D2E/DX2                !
 ! R7    R(3,11)                 1.1158         estimate D2E/DX2                !
 ! R8    R(4,6)                  1.3351         estimate D2E/DX2                !
 ! R9    R(4,12)                 1.1169         estimate D2E/DX2                !
 ! R10   R(5,7)                  1.4416         estimate D2E/DX2                !
 ! R11   R(5,13)                 1.1171         estimate D2E/DX2                !
 ! R12   R(6,8)                  1.4537         estimate D2E/DX2                !
 ! R13   R(6,14)                 1.1181         estimate D2E/DX2                !
 ! R14   R(7,8)                  1.3427         estimate D2E/DX2                !
 ! R15   R(7,15)                 1.1168         estimate D2E/DX2                !
 ! R16   R(8,16)                 1.5029         estimate D2E/DX2                !
 ! R17   R(16,17)                1.1201         estimate D2E/DX2                !
 ! R18   R(16,18)                1.1179         estimate D2E/DX2                !
 ! R19   R(16,19)                1.1173         estimate D2E/DX2                !
 ! A1    A(2,1,4)              134.6454         estimate D2E/DX2                !
 ! A2    A(2,1,9)              114.6888         estimate D2E/DX2                !
 ! A3    A(4,1,9)              110.6654         estimate D2E/DX2                !
 ! A4    A(1,2,3)              134.2733         estimate D2E/DX2                !
 ! A5    A(1,2,10)             114.8438         estimate D2E/DX2                !
 ! A6    A(3,2,10)             110.8805         estimate D2E/DX2                !
 ! A7    A(2,3,5)              134.7672         estimate D2E/DX2                !
 ! A8    A(2,3,11)             110.6529         estimate D2E/DX2                !
 ! A9    A(5,3,11)             114.5759         estimate D2E/DX2                !
 ! A10   A(1,4,6)              135.9112         estimate D2E/DX2                !
 ! A11   A(1,4,12)             110.1092         estimate D2E/DX2                !
 ! A12   A(6,4,12)             113.9782         estimate D2E/DX2                !
 ! A13   A(3,5,7)              135.9619         estimate D2E/DX2                !
 ! A14   A(3,5,13)             114.0578         estimate D2E/DX2                !
 ! A15   A(7,5,13)             109.9798         estimate D2E/DX2                !
 ! A16   A(4,6,8)              135.8639         estimate D2E/DX2                !
 ! A17   A(4,6,14)             113.4713         estimate D2E/DX2                !
 ! A18   A(8,6,14)             110.6647         estimate D2E/DX2                !
 ! A19   A(5,7,8)              135.7955         estimate D2E/DX2                !
 ! A20   A(5,7,15)             109.4629         estimate D2E/DX2                !
 ! A21   A(8,7,15)             114.7238         estimate D2E/DX2                !
 ! A22   A(6,8,7)              132.2258         estimate D2E/DX2                !
 ! A23   A(6,8,16)             110.9769         estimate D2E/DX2                !
 ! A24   A(7,8,16)             116.7946         estimate D2E/DX2                !
 ! A25   A(8,16,17)            109.9042         estimate D2E/DX2                !
 ! A26   A(8,16,18)            109.6861         estimate D2E/DX2                !
 ! A27   A(8,16,19)            112.2768         estimate D2E/DX2                !
 ! A28   A(17,16,18)           108.4561         estimate D2E/DX2                !
 ! A29   A(17,16,19)           108.1427         estimate D2E/DX2                !
 ! A30   A(18,16,19)           108.2805         estimate D2E/DX2                !
 ! D1    D(4,1,2,3)              0.236          estimate D2E/DX2                !
 ! D2    D(4,1,2,10)           179.6066         estimate D2E/DX2                !
 ! D3    D(9,1,2,3)           -179.4875         estimate D2E/DX2                !
 ! D4    D(9,1,2,10)            -0.1169         estimate D2E/DX2                !
 ! D5    D(2,1,4,6)              5.5138         estimate D2E/DX2                !
 ! D6    D(2,1,4,12)          -174.9794         estimate D2E/DX2                !
 ! D7    D(9,1,4,6)           -174.7547         estimate D2E/DX2                !
 ! D8    D(9,1,4,12)             4.7521         estimate D2E/DX2                !
 ! D9    D(1,2,3,5)             -6.3007         estimate D2E/DX2                !
 ! D10   D(1,2,3,11)           174.4931         estimate D2E/DX2                !
 ! D11   D(10,2,3,5)           174.3106         estimate D2E/DX2                !
 ! D12   D(10,2,3,11)           -4.8956         estimate D2E/DX2                !
 ! D13   D(2,3,5,7)              0.6977         estimate D2E/DX2                !
 ! D14   D(2,3,5,13)          -179.0443         estimate D2E/DX2                !
 ! D15   D(11,3,5,7)           179.8809         estimate D2E/DX2                !
 ! D16   D(11,3,5,13)            0.1389         estimate D2E/DX2                !
 ! D17   D(1,4,6,8)             -0.345          estimate D2E/DX2                !
 ! D18   D(1,4,6,14)           179.5279         estimate D2E/DX2                !
 ! D19   D(12,4,6,8)          -179.8381         estimate D2E/DX2                !
 ! D20   D(12,4,6,14)            0.0349         estimate D2E/DX2                !
 ! D21   D(3,5,7,8)              6.413          estimate D2E/DX2                !
 ! D22   D(3,5,7,15)          -175.2656         estimate D2E/DX2                !
 ! D23   D(13,5,7,8)          -173.8377         estimate D2E/DX2                !
 ! D24   D(13,5,7,15)            4.4837         estimate D2E/DX2                !
 ! D25   D(4,6,8,7)             -3.948          estimate D2E/DX2                !
 ! D26   D(4,6,8,16)           176.6786         estimate D2E/DX2                !
 ! D27   D(14,6,8,7)           176.1766         estimate D2E/DX2                !
 ! D28   D(14,6,8,16)           -3.1969         estimate D2E/DX2                !
 ! D29   D(5,7,8,6)             -2.107          estimate D2E/DX2                !
 ! D30   D(5,7,8,16)           177.2376         estimate D2E/DX2                !
 ! D31   D(15,7,8,6)           179.6354         estimate D2E/DX2                !
 ! D32   D(15,7,8,16)           -1.02           estimate D2E/DX2                !
 ! D33   D(6,8,16,17)          -59.7476         estimate D2E/DX2                !
 ! D34   D(6,8,16,18)           59.4049         estimate D2E/DX2                !
 ! D35   D(6,8,16,19)          179.8409         estimate D2E/DX2                !
 ! D36   D(7,8,16,17)          120.7722         estimate D2E/DX2                !
 ! D37   D(7,8,16,18)         -120.0754         estimate D2E/DX2                !
 ! D38   D(7,8,16,19)            0.3607         estimate D2E/DX2                !
 --------------------------------------------------------------------------------
 Trust Radius=3.00D-01 FncErr=1.00D-07 GrdErr=1.00D-07 EigMax=2.50D+02 EigMin=1.00D-04
 Number of steps in this run=     97 maximum allowed number of steps=    114.
 GradGradGradGradGradGradGradGradGradGradGradGradGradGradGradGradGradGrad

                          Input orientation:                          
 ---------------------------------------------------------------------
 Center     Atomic      Atomic             Coordinates (Angstroms)
 Number     Number       Type             X           Y           Z
 ---------------------------------------------------------------------
      1          6           0       -1.737364   -1.276683    0.043467
      2          6           0       -2.270927   -0.052668    0.046422
      3          6           0       -1.729640    1.281955   -0.034205
      4          6           0       -0.393744   -1.797048   -0.036926
      5          6           0       -0.498090    1.798886   -0.037323
      6          6           0        0.836415   -1.278260   -0.049350
      7          6           0        0.844670    1.277929    0.024660
      8          6           0        1.405688    0.058152    0.006186
      9          1           0       -2.478360   -2.108494    0.114752
     10          1           0       -3.384374   -0.026699    0.117609
     11          1           0       -2.549651    2.036140   -0.096231
     12          1           0       -0.416691   -2.912151   -0.095598
     13          1           0       -0.472405    2.913961   -0.099357
     14          1           0        1.643968   -2.048644   -0.117329
     15          1           0        1.570442    2.125122    0.077205
     16          6           0        2.907305    0.002584    0.033991
     17          1           0        3.251091   -0.571606    0.932190
     18          1           0        3.281972   -0.516384   -0.882505
     19          1           0        3.368124    1.019674    0.073929
 ---------------------------------------------------------------------
                    Distance matrix (angstroms):
                    1          2          3          4          5
     1  C    0.000000
     2  C    1.335257   0.000000
     3  C    2.559828   1.442467   0.000000
     4  C    1.443107   2.563908   3.356320   0.000000
     5  C    3.316844   2.564803   1.335643   3.597448   0.000000
     6  C    2.575453   3.341680   3.624854   1.335135   3.354083
     7  C    3.632258   3.387906   2.574986   3.315561   1.441611
     8  C    3.414960   3.678505   3.365948   2.584875   2.580004
     9  H    1.116273   2.067394   3.475329   2.113203   4.383174
    10  H    2.068961   1.116022   2.115128   3.478776   3.418684
    11  H    3.413813   2.112145   1.115823   4.398270   2.066074
    12  H    2.106721   3.411012   4.395239   1.116881   4.712101
    13  H    4.379728   3.472293   2.061147   4.712079   1.117095
    14  H    3.472058   4.397401   4.741416   2.054759   4.404350
    15  H    4.744997   4.415861   3.407915   4.387992   2.097229
    16  C    4.817631   5.178542   4.810686   3.760403   3.850779
    17  H    5.115823   5.616633   5.401601   3.965566   4.540435
    18  H    5.160350   5.649126   5.391650   3.983214   4.512613
    19  H    5.598231   5.740172   5.105652   4.700836   3.945524
                    6          7          8          9         10
     6  C    0.000000
     7  C    2.557274   0.000000
     8  C    1.453669   1.342735   0.000000
     9  H    3.421104   4.745367   4.448817   0.000000
    10  H    4.405603   4.426681   4.792109   2.270405   0.000000
    11  H    4.738448   3.480074   4.423532   4.150613   2.235575
    12  H    2.059615   4.377472   3.486277   2.222744   4.144687
    13  H    4.392064   2.103965   3.419652   5.412463   4.144167
    14  H    1.118148   3.424197   2.123823   4.129289   5.424729
    15  H    3.483938   1.116800   2.074742   5.858132   5.402052
    16  C    2.436410   2.425089   1.502902   5.785202   6.292303
    17  H    2.700637   3.167847   2.158609   5.988058   6.707448
    18  H    2.693576   3.159580   2.154137   6.058941   6.758712
    19  H    3.421293   2.537113   2.186383   6.630873   6.833230
                   11         12         13         14         15
    11  H    0.000000
    12  H    5.388423   0.000000
    13  H    2.255112   5.826380   0.000000
    14  H    5.854259   2.234375   5.395072   0.000000
    15  H    4.124702   5.417811   2.196967   4.178944   0.000000
    16  C    5.825004   4.422830   4.462772   2.413805   2.508832
    17  H    6.442561   4.470696   5.203623   2.421978   3.290581
    18  H    6.414159   4.476498   5.145477   2.369889   3.290582
    19  H    6.006848   5.460111   4.285792   3.524751   2.110376
                   16         17         18         19
    16  C    0.000000
    17  H    1.120109   0.000000
    18  H    1.117886   1.815798   0.000000
    19  H    1.117328   1.811762   1.811536   0.000000
 Stoichiometry    C9H10
 Framework group  C1[X(C9H10)]
 Deg. of freedom    51
 Full point group                 C1      NOp   1
 Largest Abelian subgroup         C1      NOp   1
 Largest concise Abelian subgroup C1      NOp   1
                         Standard orientation:                         
 ---------------------------------------------------------------------
 Center     Atomic      Atomic             Coordinates (Angstroms)
 Number     Number       Type             X           Y           Z
 ---------------------------------------------------------------------
      1          6           0       -1.737387   -1.276702    0.041877
      2          6           0       -2.270938   -0.052684    0.045737
      3          6           0       -1.729619    1.282001   -0.033634
      4          6           0       -0.393753   -1.797012   -0.038633
      5          6           0       -0.498063    1.798922   -0.036022
      6          6           0        0.836414   -1.278226   -0.050325
      7          6           0        0.844677    1.277899    0.025843
      8          6           0        1.405687    0.058133    0.006475
      9          1           0       -2.478408   -2.108565    0.112283
     10          1           0       -3.384402   -0.026764    0.116679
     11          1           0       -2.549608    2.036246   -0.095220
     12          1           0       -0.416697   -2.912065   -0.098251
     13          1           0       -0.472352    2.914049   -0.097109
     14          1           0        1.643976   -2.048561   -0.118760
     15          1           0        1.570445    2.125040    0.079277
     16          6           0        2.907297    0.002526    0.034592
     17          1           0        3.250862   -0.572425    0.932389
     18          1           0        3.282178   -0.515672   -0.882251
     19          1           0        3.368116    1.019577    0.075499
 ---------------------------------------------------------------------
 Rotational constants (GHZ):           2.6020655           1.4625603           0.9428889
 Standard basis: VSTO-6G (5D, 7F)
 There are    46 symmetry adapted cartesian basis functions of A   symmetry.
 There are    46 symmetry adapted basis functions of A   symmetry.
    46 basis functions,   276 primitive gaussians,    46 cartesian basis functions
    23 alpha electrons       23 beta electrons
       nuclear repulsion energy       226.1194085902 Hartrees.
 Integral buffers will be    131072 words long.
 Regular integral format.
 Two-electron integral symmetry is turned off.
 Do NDO integrals.
 One-electron integrals computed using PRISM.
 NBasis=    46 RedAO= F EigKep=  0.00D+00  NBF=    46
 NBsUse=    46 1.00D-04 EigRej=  0.00D+00 NBFU=    46
 Simple Huckel Guess.
 Keep J ints in memory in canonical form, NReq=864622.
 Overlap will be assumed to be unity.
 Requested convergence on RMS density matrix=1.00D-08 within 128 cycles.
 Requested convergence on MAX density matrix=1.00D-06.
 Requested convergence on             energy=1.00D-06.
 No special actions if energy rises.
 SCF Done:  E(RAM1) =  0.110521455573     A.U. after   14 cycles
            NFock= 13  Conv=0.60D-08     -V/T= 1.0015

 **********************************************************************

            Population analysis using the SCF Density.

 **********************************************************************

 Orbital symmetries:
       Occupied  (A) (A) (A) (A) (A) (A) (A) (A) (A) (A) (A) (A)
                 (A) (A) (A) (A) (A) (A) (A) (A) (A) (A) (A)
       Virtual   (A) (A) (A) (A) (A) (A) (A) (A) (A) (A) (A) (A)
                 (A) (A) (A) (A) (A) (A) (A) (A) (A) (A) (A)
 The electronic state is 1-A.
 Alpha  occ. eigenvalues --   -1.40014  -1.29484  -1.25512  -1.10472  -1.02692
 Alpha  occ. eigenvalues --   -0.92986  -0.77983  -0.76064  -0.63964  -0.58601
 Alpha  occ. eigenvalues --   -0.56903  -0.55478  -0.54299  -0.52948  -0.48011
 Alpha  occ. eigenvalues --   -0.47051  -0.45876  -0.43714  -0.43206  -0.42875
 Alpha  occ. eigenvalues --   -0.40768  -0.39387  -0.29333
 Alpha virt. eigenvalues --   -0.03022   0.05877   0.06249   0.11001   0.13413
 Alpha virt. eigenvalues --    0.13758   0.13993   0.14333   0.14449   0.15527
 Alpha virt. eigenvalues --    0.16074   0.16333   0.16589   0.16756   0.17750
 Alpha virt. eigenvalues --    0.19249   0.19387   0.19523   0.20629   0.21467
 Alpha virt. eigenvalues --    0.22291   0.22338   0.22525
          Condensed to atoms (all electrons):
               1          2          3          4          5          6
     1  C    4.115265   0.000000   0.000000   0.000000   0.000000   0.000000
     2  C    0.000000   4.108835   0.000000   0.000000   0.000000   0.000000
     3  C    0.000000   0.000000   4.118618   0.000000   0.000000   0.000000
     4  C    0.000000   0.000000   0.000000   4.110236   0.000000   0.000000
     5  C    0.000000   0.000000   0.000000   0.000000   4.103830   0.000000
     6  C    0.000000   0.000000   0.000000   0.000000   0.000000   4.110277
     7  C    0.000000   0.000000   0.000000   0.000000   0.000000   0.000000
     8  C    0.000000   0.000000   0.000000   0.000000   0.000000   0.000000
     9  H    0.000000   0.000000   0.000000   0.000000   0.000000   0.000000
    10  H    0.000000   0.000000   0.000000   0.000000   0.000000   0.000000
    11  H    0.000000   0.000000   0.000000   0.000000   0.000000   0.000000
    12  H    0.000000   0.000000   0.000000   0.000000   0.000000   0.000000
    13  H    0.000000   0.000000   0.000000   0.000000   0.000000   0.000000
    14  H    0.000000   0.000000   0.000000   0.000000   0.000000   0.000000
    15  H    0.000000   0.000000   0.000000   0.000000   0.000000   0.000000
    16  C    0.000000   0.000000   0.000000   0.000000   0.000000   0.000000
    17  H    0.000000   0.000000   0.000000   0.000000   0.000000   0.000000
    18  H    0.000000   0.000000   0.000000   0.000000   0.000000   0.000000
    19  H    0.000000   0.000000   0.000000   0.000000   0.000000   0.000000
               7          8          9         10         11         12
     1  C    0.000000   0.000000   0.000000   0.000000   0.000000   0.000000
     2  C    0.000000   0.000000   0.000000   0.000000   0.000000   0.000000
     3  C    0.000000   0.000000   0.000000   0.000000   0.000000   0.000000
     4  C    0.000000   0.000000   0.000000   0.000000   0.000000   0.000000
     5  C    0.000000   0.000000   0.000000   0.000000   0.000000   0.000000
     6  C    0.000000   0.000000   0.000000   0.000000   0.000000   0.000000
     7  C    4.121258   0.000000   0.000000   0.000000   0.000000   0.000000
     8  C    0.000000   4.048683   0.000000   0.000000   0.000000   0.000000
     9  H    0.000000   0.000000   0.888092   0.000000   0.000000   0.000000
    10  H    0.000000   0.000000   0.000000   0.887695   0.000000   0.000000
    11  H    0.000000   0.000000   0.000000   0.000000   0.888294   0.000000
    12  H    0.000000   0.000000   0.000000   0.000000   0.000000   0.889477
    13  H    0.000000   0.000000   0.000000   0.000000   0.000000   0.000000
    14  H    0.000000   0.000000   0.000000   0.000000   0.000000   0.000000
    15  H    0.000000   0.000000   0.000000   0.000000   0.000000   0.000000
    16  C    0.000000   0.000000   0.000000   0.000000   0.000000   0.000000
    17  H    0.000000   0.000000   0.000000   0.000000   0.000000   0.000000
    18  H    0.000000   0.000000   0.000000   0.000000   0.000000   0.000000
    19  H    0.000000   0.000000   0.000000   0.000000   0.000000   0.000000
              13         14         15         16         17         18
     1  C    0.000000   0.000000   0.000000   0.000000   0.000000   0.000000
     2  C    0.000000   0.000000   0.000000   0.000000   0.000000   0.000000
     3  C    0.000000   0.000000   0.000000   0.000000   0.000000   0.000000
     4  C    0.000000   0.000000   0.000000   0.000000   0.000000   0.000000
     5  C    0.000000   0.000000   0.000000   0.000000   0.000000   0.000000
     6  C    0.000000   0.000000   0.000000   0.000000   0.000000   0.000000
     7  C    0.000000   0.000000   0.000000   0.000000   0.000000   0.000000
     8  C    0.000000   0.000000   0.000000   0.000000   0.000000   0.000000
     9  H    0.000000   0.000000   0.000000   0.000000   0.000000   0.000000
    10  H    0.000000   0.000000   0.000000   0.000000   0.000000   0.000000
    11  H    0.000000   0.000000   0.000000   0.000000   0.000000   0.000000
    12  H    0.000000   0.000000   0.000000   0.000000   0.000000   0.000000
    13  H    0.889931   0.000000   0.000000   0.000000   0.000000   0.000000
    14  H    0.000000   0.888089   0.000000   0.000000   0.000000   0.000000
    15  H    0.000000   0.000000   0.887798   0.000000   0.000000   0.000000
    16  C    0.000000   0.000000   0.000000   4.191174   0.000000   0.000000
    17  H    0.000000   0.000000   0.000000   0.000000   0.915945   0.000000
    18  H    0.000000   0.000000   0.000000   0.000000   0.000000   0.915941
    19  H    0.000000   0.000000   0.000000   0.000000   0.000000   0.000000
              19
     1  C    0.000000
     2  C    0.000000
     3  C    0.000000
     4  C    0.000000
     5  C    0.000000
     6  C    0.000000
     7  C    0.000000
     8  C    0.000000
     9  H    0.000000
    10  H    0.000000
    11  H    0.000000
    12  H    0.000000
    13  H    0.000000
    14  H    0.000000
    15  H    0.000000
    16  C    0.000000
    17  H    0.000000
    18  H    0.000000
    19  H    0.920563
 Mulliken charges:
               1
     1  C   -0.115265
     2  C   -0.108835
     3  C   -0.118618
     4  C   -0.110236
     5  C   -0.103830
     6  C   -0.110277
     7  C   -0.121258
     8  C   -0.048683
     9  H    0.111908
    10  H    0.112305
    11  H    0.111706
    12  H    0.110523
    13  H    0.110069
    14  H    0.111911
    15  H    0.112202
    16  C   -0.191174
    17  H    0.084055
    18  H    0.084059
    19  H    0.079437
 Sum of Mulliken charges =   0.00000
 Mulliken charges with hydrogens summed into heavy atoms:
               1
     1  C   -0.003357
     2  C    0.003470
     3  C   -0.006912
     4  C    0.000287
     5  C    0.006239
     6  C    0.001634
     7  C   -0.009056
     8  C   -0.048683
    16  C    0.056378
 Charge=              0.0000 electrons
 Dipole moment (field-independent basis, Debye):
    X=              0.2861    Y=             -0.1072    Z=             -0.0158  Tot=              0.3060
 N-N= 2.261194085902D+02 E-N=-3.483152408929D+02  KE=-7.215008649515D+01
 Calling FoFJK, ICntrl=      2127 FMM=F ISym2X=0 I1Cent= 0 IOpClX= 0 NMat=1 NMatS=1 NMatT=0.
 ***** Axes restored to original set *****
 -------------------------------------------------------------------
 Center     Atomic                   Forces (Hartrees/Bohr)
 Number     Number              X              Y              Z
 -------------------------------------------------------------------
      1        6           0.000940332   -0.001442345    0.000915344
      2        6          -0.000409299    0.001652843    0.000215957
      3        6          -0.001405875   -0.001050680   -0.000117764
      4        6          -0.001722166   -0.000215242   -0.000519574
      5        6           0.000914884    0.000375621   -0.000065689
      6        6           0.000951850    0.000299837   -0.001076826
      7        6          -0.000737127    0.000850527   -0.000360121
      8        6           0.000014839   -0.000857912    0.000392192
      9        1           0.001375006    0.000941139    0.000022993
     10        1           0.001641320    0.000341691    0.000116992
     11        1           0.000682993   -0.001126164   -0.000180143
     12        1          -0.000355517    0.001132910   -0.000063790
     13        1           0.000236939   -0.001218417   -0.000211015
     14        1          -0.000868155    0.001191239    0.000047859
     15        1          -0.000761793   -0.000567347    0.000240200
     16        6          -0.000126241   -0.000187456    0.001821189
     17        1          -0.000400097    0.000440720   -0.000881870
     18        1           0.000261224   -0.000092730   -0.000251695
     19        1          -0.000233118   -0.000468233   -0.000044238
 -------------------------------------------------------------------
 Cartesian Forces:  Max     0.001821189 RMS     0.000805327

 GradGradGradGradGradGradGradGradGradGradGradGradGradGradGradGradGradGrad
 Berny optimization.
 FormGI is forming the generalized inverse of G from B-inverse, IUseBI=4.
 Internal  Forces:  Max     0.002587465 RMS     0.000674705
 Search for a local minimum.
 Step number   1 out of a maximum of   97
 All quantities printed in internal units (Hartrees-Bohrs-Radians)
 Mixed Optimization -- En-DIIS/RFO-DIIS
 Second derivative matrix not updated -- first step.
 ITU=  0
     Eigenvalues ---    0.00728   0.01494   0.01660   0.01863   0.01966
     Eigenvalues ---    0.02189   0.02204   0.02233   0.02257   0.02259
     Eigenvalues ---    0.02261   0.02531   0.02560   0.02922   0.07141
     Eigenvalues ---    0.07430   0.15997   0.15999   0.16000   0.16000
     Eigenvalues ---    0.16000   0.16000   0.16000   0.16000   0.16000
     Eigenvalues ---    0.16000   0.21966   0.21968   0.21981   0.22000
     Eigenvalues ---    0.23830   0.24999   0.31553   0.31752   0.31779
     Eigenvalues ---    0.31836   0.31860   0.31882   0.31891   0.31945
     Eigenvalues ---    0.31971   0.31991   0.32075   0.37137   0.38153
     Eigenvalues ---    0.38876   0.39264   0.55262   0.56285   0.57746
     Eigenvalues ---    0.58252
 RFO step:  Lambda=-3.63486443D-04 EMin= 7.27559129D-03
 Linear search not attempted -- first point.
 Iteration  1 RMS(Cart)=  0.02803645 RMS(Int)=  0.00025787
 Iteration  2 RMS(Cart)=  0.00045271 RMS(Int)=  0.00005363
 Iteration  3 RMS(Cart)=  0.00000006 RMS(Int)=  0.00005363
 Variable       Old X    -DE/DX   Delta X   Delta X   Delta X     New X
                                 (Linear)    (Quad)   (Total)
    R1        2.52327  -0.00041   0.00000  -0.00074  -0.00074   2.52253
    R2        2.72708  -0.00259   0.00000  -0.00664  -0.00664   2.72043
    R3        2.10945  -0.00161   0.00000  -0.00504  -0.00504   2.10441
    R4        2.72587  -0.00256   0.00000  -0.00655  -0.00655   2.71932
    R5        2.10898  -0.00162   0.00000  -0.00507  -0.00507   2.10391
    R6        2.52400  -0.00038   0.00000  -0.00065  -0.00065   2.52335
    R7        2.10860  -0.00125   0.00000  -0.00391  -0.00391   2.10469
    R8        2.52304  -0.00039   0.00000  -0.00068  -0.00069   2.52235
    R9        2.11060  -0.00112   0.00000  -0.00351  -0.00351   2.10709
   R10        2.72425  -0.00161   0.00000  -0.00406  -0.00406   2.72019
   R11        2.11100  -0.00120   0.00000  -0.00376  -0.00376   2.10724
   R12        2.74704  -0.00157   0.00000  -0.00413  -0.00414   2.74290
   R13        2.11299  -0.00145   0.00000  -0.00456  -0.00456   2.10843
   R14        2.53740  -0.00033   0.00000  -0.00055  -0.00056   2.53684
   R15        2.11045  -0.00091   0.00000  -0.00286  -0.00286   2.10758
   R16        2.84007  -0.00047   0.00000  -0.00148  -0.00148   2.83860
   R17        2.11670  -0.00106   0.00000  -0.00334  -0.00334   2.11336
   R18        2.11250   0.00034   0.00000   0.00106   0.00106   2.11356
   R19        2.11144  -0.00052   0.00000  -0.00164  -0.00164   2.10980
    A1        2.35001   0.00010   0.00000  -0.00052  -0.00067   2.34933
    A2        2.00170   0.00037   0.00000   0.00284   0.00290   2.00459
    A3        1.93148  -0.00047   0.00000  -0.00236  -0.00230   1.92917
    A4        2.34351   0.00011   0.00000  -0.00045  -0.00059   2.34292
    A5        2.00440   0.00034   0.00000   0.00264   0.00270   2.00710
    A6        1.93523  -0.00045   0.00000  -0.00224  -0.00218   1.93305
    A7        2.35213  -0.00003   0.00000  -0.00100  -0.00113   2.35100
    A8        1.93126  -0.00036   0.00000  -0.00186  -0.00180   1.92945
    A9        1.99973   0.00039   0.00000   0.00281   0.00287   2.00260
   A10        2.37210  -0.00004   0.00000  -0.00106  -0.00123   2.37087
   A11        1.92177  -0.00037   0.00000  -0.00196  -0.00190   1.91986
   A12        1.98929   0.00041   0.00000   0.00294   0.00300   1.99229
   A13        2.37298  -0.00002   0.00000  -0.00083  -0.00097   2.37201
   A14        1.99068   0.00028   0.00000   0.00210   0.00216   1.99284
   A15        1.91951  -0.00026   0.00000  -0.00129  -0.00123   1.91828
   A16        2.37127   0.00006   0.00000  -0.00042  -0.00062   2.37065
   A17        1.98045   0.00024   0.00000   0.00192   0.00195   1.98240
   A18        1.93146  -0.00031   0.00000  -0.00153  -0.00149   1.92997
   A19        2.37008  -0.00006   0.00000  -0.00081  -0.00096   2.36912
   A20        1.91049  -0.00018   0.00000  -0.00082  -0.00075   1.90973
   A21        2.00231   0.00024   0.00000   0.00176   0.00183   2.00414
   A22        2.30778  -0.00023   0.00000  -0.00139  -0.00156   2.30622
   A23        1.93691  -0.00028   0.00000  -0.00083  -0.00076   1.93615
   A24        2.03845   0.00050   0.00000   0.00229   0.00236   2.04081
   A25        1.91819  -0.00014   0.00000  -0.00093  -0.00093   1.91726
   A26        1.91438   0.00025   0.00000   0.00155   0.00155   1.91593
   A27        1.95960  -0.00004   0.00000  -0.00025  -0.00025   1.95935
   A28        1.89292  -0.00006   0.00000  -0.00041  -0.00041   1.89251
   A29        1.88745   0.00009   0.00000   0.00055   0.00055   1.88800
   A30        1.88985  -0.00010   0.00000  -0.00054  -0.00054   1.88931
    D1        0.00412  -0.00004   0.00000  -0.00249  -0.00249   0.00163
    D2        3.13473  -0.00020   0.00000  -0.00918  -0.00918   3.12554
    D3       -3.13265   0.00020   0.00000   0.00865   0.00867  -3.12398
    D4       -0.00204   0.00004   0.00000   0.00197   0.00197  -0.00007
    D5        0.09623   0.00065   0.00000   0.03638   0.03637   0.13261
    D6       -3.05397   0.00034   0.00000   0.02392   0.02393  -3.03004
    D7       -3.05004   0.00042   0.00000   0.02557   0.02558  -3.02447
    D8        0.08294   0.00011   0.00000   0.01311   0.01313   0.09607
    D9       -0.10997  -0.00051   0.00000  -0.03077  -0.03077  -0.14073
   D10        3.04548  -0.00041   0.00000  -0.02564  -0.02564   3.01983
   D11        3.04229  -0.00036   0.00000  -0.02430  -0.02430   3.01800
   D12       -0.08544  -0.00026   0.00000  -0.01917  -0.01918  -0.10462
   D13        0.01218  -0.00005   0.00000  -0.00164  -0.00165   0.01052
   D14       -3.12491   0.00012   0.00000   0.00627   0.00626  -3.11866
   D15        3.13951  -0.00015   0.00000  -0.00695  -0.00696   3.13255
   D16        0.00243   0.00001   0.00000   0.00095   0.00095   0.00337
   D17       -0.00602  -0.00001   0.00000   0.00167   0.00168  -0.00434
   D18        3.13335  -0.00046   0.00000  -0.01737  -0.01738   3.11598
   D19       -3.13877   0.00031   0.00000   0.01450   0.01452  -3.12424
   D20        0.00061  -0.00013   0.00000  -0.00454  -0.00454  -0.00393
   D21        0.11193   0.00044   0.00000   0.02957   0.02956   0.14148
   D22       -3.05896   0.00056   0.00000   0.03563   0.03562  -3.02334
   D23       -3.03404   0.00029   0.00000   0.02190   0.02189  -3.01215
   D24        0.07826   0.00040   0.00000   0.02796   0.02795   0.10621
   D25       -0.06890  -0.00070   0.00000  -0.04117  -0.04116  -0.11006
   D26        3.08362  -0.00085   0.00000  -0.04956  -0.04954   3.03408
   D27        3.07486  -0.00027   0.00000  -0.02250  -0.02250   3.05236
   D28       -0.05580  -0.00042   0.00000  -0.03090  -0.03089  -0.08669
   D29       -0.03677   0.00023   0.00000   0.00908   0.00908  -0.02769
   D30        3.09338   0.00038   0.00000   0.01785   0.01786   3.11124
   D31        3.13523   0.00011   0.00000   0.00283   0.00282   3.13804
   D32       -0.01780   0.00026   0.00000   0.01159   0.01159  -0.00621
   D33       -1.04279   0.00010   0.00000   0.00915   0.00915  -1.03364
   D34        1.03681   0.00009   0.00000   0.00903   0.00904   1.04585
   D35        3.13882   0.00011   0.00000   0.00925   0.00926  -3.13511
   D36        2.10787  -0.00002   0.00000   0.00221   0.00220   2.11007
   D37       -2.09571  -0.00002   0.00000   0.00209   0.00208  -2.09363
   D38        0.00630  -0.00001   0.00000   0.00231   0.00230   0.00860
         Item               Value     Threshold  Converged?
 Maximum Force            0.002587     0.000450     NO 
 RMS     Force            0.000675     0.000300     NO 
 Maximum Displacement     0.097410     0.001800     NO 
 RMS     Displacement     0.028047     0.001200     NO 
 Predicted change in Energy=-1.843639D-04
 GradGradGradGradGradGradGradGradGradGradGradGradGradGradGradGradGradGrad

                          Input orientation:                          
 ---------------------------------------------------------------------
 Center     Atomic      Atomic             Coordinates (Angstroms)
 Number     Number       Type             X           Y           Z
 ---------------------------------------------------------------------
      1          6           0       -1.731800   -1.274804    0.062550
      2          6           0       -2.265850   -0.051446    0.069974
      3          6           0       -1.729004    1.279028   -0.041231
      4          6           0       -0.394171   -1.793223   -0.057517
      5          6           0       -0.498320    1.796822   -0.059561
      6          6           0        0.835231   -1.274093   -0.083829
      7          6           0        0.842628    1.278242    0.011046
      8          6           0        1.404222    0.059066   -0.008164
      9          1           0       -2.466128   -2.106677    0.156716
     10          1           0       -3.374388   -0.022597    0.169156
     11          1           0       -2.550722    2.027565   -0.111355
     12          1           0       -0.421199   -2.905707   -0.127705
     13          1           0       -0.471732    2.908750   -0.139365
     14          1           0        1.641689   -2.040492   -0.168202
     15          1           0        1.564727    2.125451    0.079384
     16          6           0        2.903826   -0.000256    0.055343
     17          1           0        3.223029   -0.587012    0.952288
     18          1           0        3.301516   -0.507296   -0.858810
     19          1           0        3.364875    1.014445    0.120868
 ---------------------------------------------------------------------
                    Distance matrix (angstroms):
                    1          2          3          4          5
     1  C    0.000000
     2  C    1.334867   0.000000
     3  C    2.555942   1.439003   0.000000
     4  C    1.439592   2.559926   3.349742   0.000000
     5  C    3.312291   2.560670   1.335301   3.591555   0.000000
     6  C    2.571202   3.336949   3.618777   1.334773   3.348054
     7  C    3.626069   3.381446   2.572164   3.311837   1.439463
     8  C    3.408643   3.672567   3.362515   2.582175   2.577228
     9  H    1.113605   2.066788   3.470667   2.106456   4.376796
    10  H    2.068208   1.113341   2.108502   3.473930   3.410918
    11  H    3.406834   2.106257   1.113752   4.387713   2.065980
    12  H    2.100884   3.404206   4.385184   1.115024   4.703654
    13  H    4.373862   3.467771   2.060669   4.703324   1.115105
    14  H    3.466981   4.391115   4.732537   2.053806   4.395045
    15  H    4.735938   4.405937   3.402887   4.383152   2.093673
    16  C    4.807656   5.169950   4.807183   3.755563   3.849324
    17  H    5.080849   5.585078   5.384405   3.944463   4.533756
    18  H    5.174191   5.662685   5.400512   3.994219   4.515143
    19  H    5.587501   5.730949   5.103321   4.695237   3.945751
                    6          7          8          9         10
     6  C    0.000000
     7  C    2.554108   0.000000
     8  C    1.451478   1.342440   0.000000
     9  H    3.413214   4.735690   4.438157   0.000000
    10  H    4.398993   4.415927   4.782597   2.273429   0.000000
    11  H    4.729311   3.477253   4.418961   4.143787   2.227168
    12  H    2.059783   4.372863   3.483723   2.213838   4.137847
    13  H    4.382626   2.099696   3.414252   5.405533   4.136834
    14  H    1.115733   3.418278   2.118997   4.121179   5.417264
    15  H    3.480762   1.115285   2.074458   5.845056   5.386746
    16  C    2.433334   2.425913   1.502120   5.769202   6.279286
    17  H    2.692062   3.167241   2.155909   5.942123   6.667666
    18  H    2.696504   3.160842   2.155015   6.070835   6.771953
    19  H    3.417368   2.538381   2.184848   6.613871   6.818758
                   11         12         13         14         15
    11  H    0.000000
    12  H    5.373295   0.000000
    13  H    2.258200   5.814688   0.000000
    14  H    5.841971   2.237352   5.381670   0.000000
    15  H    4.121028   5.412886   2.192846   4.174004   0.000000
    16  C    5.821678   4.419383   4.460338   2.409466   2.512448
    17  H    6.426783   4.452317   5.202242   2.422548   3.296875
    18  H    6.421284   4.488374   5.140464   2.362765   3.290593
    19  H    6.006215   5.455615   4.286685   3.519315   2.115795
                   16         17         18         19
    16  C    0.000000
    17  H    1.118340   0.000000
    18  H    1.118446   1.814550   0.000000
    19  H    1.116458   1.809985   1.810933   0.000000
 Stoichiometry    C9H10
 Framework group  C1[X(C9H10)]
 Deg. of freedom    51
 Full point group                 C1      NOp   1
 Largest Abelian subgroup         C1      NOp   1
 Largest concise Abelian subgroup C1      NOp   1
                         Standard orientation:                         
 ---------------------------------------------------------------------
 Center     Atomic      Atomic             Coordinates (Angstroms)
 Number     Number       Type             X           Y           Z
 ---------------------------------------------------------------------
      1          6           0       -1.730546   -1.277399    0.060537
      2          6           0       -2.266116   -0.054712    0.069105
      3          6           0       -1.730692    1.276618   -0.038659
      4          6           0       -0.392046   -1.793957   -0.057830
      5          6           0       -0.500614    1.795955   -0.053642
      6          6           0        0.836765   -1.273271   -0.080795
      7          6           0        0.840832    1.278896    0.018670
      8          6           0        1.403964    0.060448   -0.001622
      9          1           0       -2.464032   -2.110340    0.151769
     10          1           0       -3.374882   -0.027403    0.166160
     11          1           0       -2.553192    2.024269   -0.109056
     12          1           0       -0.417565   -2.906345   -0.130065
     13          1           0       -0.475239    2.908056   -0.131401
     14          1           0        1.644331   -2.038526   -0.164957
     15          1           0        1.561750    2.126868    0.089945
     16          6           0        2.903512    0.002854    0.064725
     17          1           0        3.221676   -0.585119    0.961243
     18          1           0        3.303620   -0.502055   -0.849552
     19          1           0        3.363181    1.018002    0.132975
 ---------------------------------------------------------------------
 Rotational constants (GHZ):           2.6076636           1.4661887           0.9460091
 Standard basis: VSTO-6G (5D, 7F)
 There are    46 symmetry adapted cartesian basis functions of A   symmetry.
 There are    46 symmetry adapted basis functions of A   symmetry.
    46 basis functions,   276 primitive gaussians,    46 cartesian basis functions
    23 alpha electrons       23 beta electrons
       nuclear repulsion energy       226.3086977800 Hartrees.
 Integral buffers will be    131072 words long.
 Regular integral format.
 Two-electron integral symmetry is turned off.
 Do NDO integrals.
 One-electron integrals computed using PRISM.
 NBasis=    46 RedAO= F EigKep=  0.00D+00  NBF=    46
 NBsUse=    46 1.00D-04 EigRej=  0.00D+00 NBFU=    46
 Initial guess from the checkpoint file:  "meth_cyclooctatetraene.chk"
 B after Tr=     0.000000    0.000000    0.000000
         Rot=    1.000000   -0.000223    0.000201   -0.000642 Ang=  -0.08 deg.
 Keep J ints in memory in canonical form, NReq=864622.
 Overlap will be assumed to be unity.
 Requested convergence on RMS density matrix=1.00D-08 within 128 cycles.
 Requested convergence on MAX density matrix=1.00D-06.
 Requested convergence on             energy=1.00D-06.
 No special actions if energy rises.
 SCF Done:  E(RAM1) =  0.110217601404     A.U. after   13 cycles
            NFock= 12  Conv=0.60D-08     -V/T= 1.0015
 Calling FoFJK, ICntrl=      2127 FMM=F ISym2X=0 I1Cent= 0 IOpClX= 0 NMat=1 NMatS=1 NMatT=0.
 ***** Axes restored to original set *****
 -------------------------------------------------------------------
 Center     Atomic                   Forces (Hartrees/Bohr)
 Number     Number              X              Y              Z
 -------------------------------------------------------------------
      1        6          -0.000820035   -0.000059705    0.000272420
      2        6          -0.000602733   -0.000550891    0.000186589
      3        6           0.000063114    0.000860047   -0.000116838
      4        6           0.000667579   -0.000562948   -0.000040293
      5        6          -0.000316148    0.000497022   -0.000582015
      6        6           0.000016794   -0.000639618   -0.000528576
      7        6           0.000615568   -0.000032562    0.000196416
      8        6           0.000329267    0.000500479    0.001193179
      9        1          -0.000222401   -0.000108765    0.000504318
     10        1          -0.000232407   -0.000085977    0.000501955
     11        1          -0.000077780    0.000208082   -0.000400232
     12        1           0.000101188   -0.000183111   -0.000539245
     13        1          -0.000044050    0.000134198   -0.000521155
     14        1           0.000032548   -0.000179960   -0.000758476
     15        1           0.000156339    0.000023745    0.000291575
     16        6           0.000189299    0.000173181    0.000376480
     17        1           0.000005910   -0.000139777    0.000067029
     18        1           0.000109693    0.000039153   -0.000070922
     19        1           0.000028255    0.000107408   -0.000032210
 -------------------------------------------------------------------
 Cartesian Forces:  Max     0.001193179 RMS     0.000397270

 GradGradGradGradGradGradGradGradGradGradGradGradGradGradGradGradGradGrad
 Berny optimization.
 Using GEDIIS/GDIIS optimizer.
 FormGI is forming the generalized inverse of G from B-inverse, IUseBI=4.
 Internal  Forces:  Max     0.001491774 RMS     0.000424563
 Search for a local minimum.
 Step number   2 out of a maximum of   97
 All quantities printed in internal units (Hartrees-Bohrs-Radians)
 Mixed Optimization -- En-DIIS/RFO-DIIS
 Swapping is turned off.
 Update second derivatives using D2CorX and points    1    2
 DE= -3.04D-04 DEPred=-1.84D-04 R= 1.65D+00
 TightC=F SS=  1.41D+00  RLast= 1.27D-01 DXNew= 5.0454D-01 3.8241D-01
 Trust test= 1.65D+00 RLast= 1.27D-01 DXMaxT set to 3.82D-01
 ITU=  1  0
     Eigenvalues ---    0.00169   0.00732   0.01739   0.01864   0.01974
     Eigenvalues ---    0.02192   0.02213   0.02236   0.02258   0.02263
     Eigenvalues ---    0.02349   0.02557   0.02718   0.02929   0.07142
     Eigenvalues ---    0.07427   0.15985   0.15998   0.15998   0.15998
     Eigenvalues ---    0.15999   0.15999   0.16000   0.16000   0.16000
     Eigenvalues ---    0.16603   0.21940   0.21953   0.21972   0.22000
     Eigenvalues ---    0.23816   0.25145   0.31571   0.31773   0.31775
     Eigenvalues ---    0.31838   0.31867   0.31887   0.31908   0.31957
     Eigenvalues ---    0.31985   0.32048   0.33344   0.37216   0.38168
     Eigenvalues ---    0.39056   0.55177   0.56100   0.56264   0.58011
     Eigenvalues ---    0.93126
 En-DIIS/RFO-DIIS/Sim-DIIS IScMMF=       -3 using points:     2    1
 RFO step:  Lambda=-1.54403534D-03.
 DidBck=F Rises=F En-DIIS coefs:    1.00000    0.00000
 Iteration  1 RMS(Cart)=  0.14174053 RMS(Int)=  0.00745905
 Iteration  2 RMS(Cart)=  0.01300994 RMS(Int)=  0.00175424
 Iteration  3 RMS(Cart)=  0.00007642 RMS(Int)=  0.00175374
 Iteration  4 RMS(Cart)=  0.00000007 RMS(Int)=  0.00175374
 Variable       Old X    -DE/DX   Delta X   Delta X   Delta X     New X
                                 (Linear)    (Quad)   (Total)
    R1        2.52253   0.00074   0.00000  -0.00016   0.00002   2.52255
    R2        2.72043   0.00149   0.00000  -0.01663  -0.01668   2.70376
    R3        2.10441   0.00027   0.00000  -0.01656  -0.01656   2.08784
    R4        2.71932   0.00147   0.00000  -0.01637  -0.01608   2.70324
    R5        2.10391   0.00027   0.00000  -0.01664  -0.01664   2.08727
    R6        2.52335   0.00060   0.00000  -0.00033  -0.00008   2.52327
    R7        2.10469   0.00022   0.00000  -0.01278  -0.01278   2.09191
    R8        2.52235   0.00062   0.00000  -0.00044  -0.00069   2.52167
    R9        2.10709   0.00021   0.00000  -0.01137  -0.01137   2.09572
   R10        2.72019   0.00103   0.00000  -0.00970  -0.00964   2.71055
   R11        2.10724   0.00017   0.00000  -0.01254  -0.01254   2.09471
   R12        2.74290   0.00124   0.00000  -0.00876  -0.00906   2.73383
   R13        2.10843   0.00020   0.00000  -0.01522  -0.01522   2.09321
   R14        2.53684   0.00040   0.00000  -0.00075  -0.00092   2.53592
   R15        2.10758   0.00014   0.00000  -0.00950  -0.00950   2.09808
   R16        2.83860   0.00034   0.00000  -0.00330  -0.00330   2.83529
   R17        2.11336   0.00013   0.00000  -0.01127  -0.01127   2.10208
   R18        2.11356   0.00008   0.00000   0.00430   0.00430   2.11785
   R19        2.10980   0.00011   0.00000  -0.00528  -0.00528   2.10452
    A1        2.34933  -0.00008   0.00000  -0.00545  -0.01024   2.33909
    A2        2.00459  -0.00009   0.00000   0.01025   0.01226   2.01686
    A3        1.92917   0.00017   0.00000  -0.00532  -0.00331   1.92587
    A4        2.34292  -0.00008   0.00000  -0.00502  -0.00928   2.33365
    A5        2.00710  -0.00008   0.00000   0.00961   0.01157   2.01867
    A6        1.93305   0.00016   0.00000  -0.00498  -0.00303   1.93002
    A7        2.35100  -0.00003   0.00000  -0.00667  -0.01072   2.34028
    A8        1.92945   0.00015   0.00000  -0.00363  -0.00170   1.92775
    A9        2.00260  -0.00012   0.00000   0.00998   0.01191   2.01451
   A10        2.37087  -0.00003   0.00000  -0.00718  -0.01243   2.35844
   A11        1.91986   0.00016   0.00000  -0.00376  -0.00146   1.91840
   A12        1.99229  -0.00013   0.00000   0.01029   0.01259   2.00488
   A13        2.37201  -0.00002   0.00000  -0.00636  -0.01081   2.36121
   A14        1.99284  -0.00005   0.00000   0.00833   0.01030   2.00314
   A15        1.91828   0.00007   0.00000  -0.00230  -0.00035   1.91792
   A16        2.37065  -0.00005   0.00000  -0.00547  -0.01129   2.35937
   A17        1.98240  -0.00011   0.00000   0.00685   0.00904   1.99144
   A18        1.92997   0.00016   0.00000  -0.00233  -0.00017   1.92981
   A19        2.36912   0.00010   0.00000  -0.00549  -0.01028   2.35884
   A20        1.90973   0.00007   0.00000  -0.00035   0.00203   1.91177
   A21        2.00414  -0.00017   0.00000   0.00600   0.00838   2.01252
   A22        2.30622   0.00000   0.00000  -0.00820  -0.01338   2.29284
   A23        1.93615   0.00034   0.00000   0.00107   0.00366   1.93981
   A24        2.04081  -0.00034   0.00000   0.00714   0.00972   2.05053
   A25        1.91726  -0.00004   0.00000  -0.00367  -0.00367   1.91359
   A26        1.91593   0.00012   0.00000   0.00689   0.00689   1.92283
   A27        1.95935  -0.00004   0.00000  -0.00147  -0.00147   1.95788
   A28        1.89251  -0.00003   0.00000  -0.00168  -0.00167   1.89084
   A29        1.88800   0.00007   0.00000   0.00299   0.00299   1.89098
   A30        1.88931  -0.00007   0.00000  -0.00314  -0.00314   1.88618
    D1        0.00163   0.00004   0.00000  -0.00688  -0.00689  -0.00526
    D2        3.12554  -0.00007   0.00000  -0.03861  -0.03857   3.08697
    D3       -3.12398   0.00013   0.00000   0.04016   0.04013  -3.08385
    D4       -0.00007   0.00003   0.00000   0.00843   0.00844   0.00838
    D5        0.13261   0.00067   0.00000   0.19562   0.19503   0.32764
    D6       -3.03004   0.00063   0.00000   0.15295   0.15275  -2.87729
    D7       -3.02447   0.00057   0.00000   0.15015   0.14990  -2.87457
    D8        0.09607   0.00053   0.00000   0.10748   0.10762   0.20369
    D9       -0.14073  -0.00063   0.00000  -0.17175  -0.17126  -0.31199
   D10        3.01983  -0.00055   0.00000  -0.14879  -0.14865   2.87119
   D11        3.01800  -0.00052   0.00000  -0.14110  -0.14087   2.87713
   D12       -0.10462  -0.00045   0.00000  -0.11815  -0.11826  -0.22288
   D13        0.01052  -0.00012   0.00000  -0.01540  -0.01556  -0.00503
   D14       -3.11866   0.00002   0.00000   0.02411   0.02382  -3.09483
   D15        3.13255  -0.00020   0.00000  -0.03919  -0.03913   3.09342
   D16        0.00337  -0.00005   0.00000   0.00032   0.00025   0.00362
   D17       -0.00434   0.00004   0.00000   0.01128   0.01139   0.00706
   D18        3.11598   0.00002   0.00000  -0.05405  -0.05385   3.06212
   D19       -3.12424   0.00008   0.00000   0.05536   0.05535  -3.06890
   D20       -0.00393   0.00005   0.00000  -0.00997  -0.00990  -0.01383
   D21        0.14148   0.00071   0.00000   0.17183   0.17115   0.31263
   D22       -3.02334   0.00055   0.00000   0.18177   0.18138  -2.84196
   D23       -3.01215   0.00057   0.00000   0.13355   0.13318  -2.87897
   D24        0.10621   0.00041   0.00000   0.14349   0.14341   0.24962
   D25       -0.11006  -0.00083   0.00000  -0.22724  -0.22658  -0.33664
   D26        3.03408  -0.00061   0.00000  -0.23384  -0.23341   2.80067
   D27        3.05236  -0.00080   0.00000  -0.16337  -0.16305   2.88931
   D28       -0.08669  -0.00059   0.00000  -0.16997  -0.16988  -0.25657
   D29       -0.02769   0.00013   0.00000   0.04608   0.04605   0.01836
   D30        3.11124  -0.00009   0.00000   0.05298   0.05322  -3.11873
   D31        3.13804   0.00030   0.00000   0.03581   0.03546  -3.10968
   D32       -0.00621   0.00008   0.00000   0.04272   0.04263   0.03642
   D33       -1.03364  -0.00005   0.00000   0.02803   0.02817  -1.00546
   D34        1.04585  -0.00003   0.00000   0.02795   0.02809   1.07394
   D35       -3.13511  -0.00007   0.00000   0.02774   0.02788  -3.10723
   D36        2.11007   0.00013   0.00000   0.02257   0.02243   2.13251
   D37       -2.09363   0.00014   0.00000   0.02249   0.02235  -2.07128
   D38        0.00860   0.00011   0.00000   0.02228   0.02214   0.03074
         Item               Value     Threshold  Converged?
 Maximum Force            0.001492     0.000450     NO 
 RMS     Force            0.000425     0.000300     NO 
 Maximum Displacement     0.536731     0.001800     NO 
 RMS     Displacement     0.147567     0.001200     NO 
 Predicted change in Energy=-1.082807D-03
 GradGradGradGradGradGradGradGradGradGradGradGradGradGradGradGradGradGrad

                          Input orientation:                          
 ---------------------------------------------------------------------
 Center     Atomic      Atomic             Coordinates (Angstroms)
 Number     Number       Type             X           Y           Z
 ---------------------------------------------------------------------
      1          6           0       -1.695696   -1.265856    0.163471
      2          6           0       -2.232779   -0.044115    0.191505
      3          6           0       -1.726069    1.264942   -0.084050
      4          6           0       -0.397276   -1.774023   -0.157410
      5          6           0       -0.500256    1.786391   -0.175620
      6          6           0        0.827240   -1.251344   -0.246921
      7          6           0        0.835163    1.281591   -0.036962
      8          6           0        1.398376    0.063659   -0.053376
      9          1           0       -2.389788   -2.096814    0.383508
     10          1           0       -3.308223    0.000037    0.439439
     11          1           0       -2.558757    1.983257   -0.210858
     12          1           0       -0.448875   -2.870720   -0.313885
     13          1           0       -0.472936    2.878337   -0.364345
     14          1           0        1.622414   -1.994643   -0.452228
     15          1           0        1.539198    2.128211    0.105301
     16          6           0        2.880280   -0.017036    0.167001
     17          1           0        3.092919   -0.666112    1.044989
     18          1           0        3.380751   -0.463432   -0.730926
     19          1           0        3.332743    0.983435    0.352954
 ---------------------------------------------------------------------
                    Distance matrix (angstroms):
                    1          2          3          4          5
     1  C    0.000000
     2  C    1.334876   0.000000
     3  C    2.543055   1.430495   0.000000
     4  C    1.430766   2.546250   3.317587   0.000000
     5  C    3.295492   2.546992   1.335257   3.561949   0.000000
     6  C    2.556137   3.318634   3.588539   1.334408   3.315895
     7  C    3.596513   3.349919   2.561719   3.296997   1.434361
     8  C    3.374599   3.640998   3.347564   2.571432   2.566623
     9  H    1.104840   2.067629   3.458401   2.089710   4.354565
    10  H    2.068547   1.104536   2.092184   3.460798   3.384381
    11  H    3.382563   2.092462   1.106990   4.334975   2.068194
    12  H    2.087586   3.380447   4.334484   1.109005   4.659446
    13  H    4.352938   3.456406   2.062026   4.657574   1.108472
    14  H    3.452545   4.368234   4.687515   2.052983   4.344935
    15  H    4.689095   4.353647   3.382759   4.364215   2.086895
    16  C    4.743324   5.113190   4.788001   3.732911   3.846786
    17  H    4.905874   5.429399   5.312847   3.854178   4.518358
    18  H    5.216717   5.704246   5.430040   4.039809   4.520208
    19  H    5.511843   5.661886   5.085450   4.666593   3.951710
                    6          7          8          9         10
     6  C    0.000000
     7  C    2.541635   0.000000
     8  C    1.446682   1.341953   0.000000
     9  H    3.385488   4.689427   4.382773   0.000000
    10  H    4.374825   4.363139   4.732757   2.289855   0.000000
    11  H    4.682832   3.470053   4.400973   4.126597   2.217599
    12  H    2.062846   4.355127   3.477180   2.202823   4.121239
    13  H    4.331109   2.089952   3.394249   5.383840   4.119409
    14  H    1.107676   3.394985   2.108526   4.099593   5.393051
    15  H    3.471647   1.110256   2.075424   5.776258   5.304551
    16  C    2.431013   2.431160   1.500372   5.669742   6.194520
    17  H    2.672981   3.172007   2.147195   5.704782   6.464136
    18  H    2.715784   3.163338   2.160256   6.099919   6.806388
    19  H    3.410518   2.545356   2.180107   6.498940   6.713939
                   11         12         13         14         15
    11  H    0.000000
    12  H    5.293704   0.000000
    13  H    2.274945   5.749328   0.000000
    14  H    5.776170   2.253196   5.305106   0.000000
    15  H    4.112688   5.396059   2.198168   4.161212   0.000000
    16  C    5.807502   4.411127   4.462015   2.424170   2.530690
    17  H    6.366926   4.387612   5.221558   2.483754   3.332462
    18  H    6.444727   4.542576   5.113971   2.348197   3.287431
    19  H    6.002275   5.440572   4.311423   3.527391   2.142113
                   16         17         18         19
    16  C    0.000000
    17  H    1.112375   0.000000
    18  H    1.120719   1.810470   0.000000
    19  H    1.113662   1.804837   1.808458   0.000000
 Stoichiometry    C9H10
 Framework group  C1[X(C9H10)]
 Deg. of freedom    51
 Full point group                 C1      NOp   1
 Largest Abelian subgroup         C1      NOp   1
 Largest concise Abelian subgroup C1      NOp   1
                         Standard orientation:                         
 ---------------------------------------------------------------------
 Center     Atomic      Atomic             Coordinates (Angstroms)
 Number     Number       Type             X           Y           Z
 ---------------------------------------------------------------------
      1          6           0       -1.687941   -1.284179    0.157266
      2          6           0       -2.235838   -0.067385    0.190703
      3          6           0       -1.738319    1.248181   -0.070214
      4          6           0       -0.382598   -1.778510   -0.157070
      5          6           0       -0.516387    1.780913   -0.147600
      6          6           0        0.838010   -1.244575   -0.232398
      7          6           0        0.822206    1.286555   -0.002099
      8          6           0        1.396105    0.073701   -0.023673
      9          1           0       -2.376538   -2.122847    0.364971
     10          1           0       -3.313596   -0.034522    0.430200
     11          1           0       -2.576170    1.960283   -0.198054
     12          1           0       -0.423391   -2.874311   -0.322740
     13          1           0       -0.497038    2.874543   -0.327343
     14          1           0        1.641253   -1.979300   -0.437158
     15          1           0        1.517678    2.138042    0.152680
     16          6           0        2.876823    0.004021    0.208134
     17          1           0        3.087989   -0.650269    1.082600
     18          1           0        3.388404   -0.430768   -0.689227
     19          1           0        3.319049    1.006825    0.405780
 ---------------------------------------------------------------------
 Rotational constants (GHZ):           2.6121984           1.4826888           0.9643777
 Standard basis: VSTO-6G (5D, 7F)
 There are    46 symmetry adapted cartesian basis functions of A   symmetry.
 There are    46 symmetry adapted basis functions of A   symmetry.
    46 basis functions,   276 primitive gaussians,    46 cartesian basis functions
    23 alpha electrons       23 beta electrons
       nuclear repulsion energy       226.9816992288 Hartrees.
 Integral buffers will be    131072 words long.
 Regular integral format.
 Two-electron integral symmetry is turned off.
 Do NDO integrals.
 One-electron integrals computed using PRISM.
 NBasis=    46 RedAO= F EigKep=  0.00D+00  NBF=    46
 NBsUse=    46 1.00D-04 EigRej=  0.00D+00 NBFU=    46
 Initial guess from the checkpoint file:  "meth_cyclooctatetraene.chk"
 B after Tr=    -0.000000   -0.000000    0.000000
         Rot=    0.999991   -0.001465    0.000658   -0.003812 Ang=  -0.47 deg.
 Keep J ints in memory in canonical form, NReq=864622.
 Overlap will be assumed to be unity.
 Requested convergence on RMS density matrix=1.00D-08 within 128 cycles.
 Requested convergence on MAX density matrix=1.00D-06.
 Requested convergence on             energy=1.00D-06.
 No special actions if energy rises.
 SCF Done:  E(RAM1) =  0.108302432837     A.U. after   14 cycles
            NFock= 13  Conv=0.59D-08     -V/T= 1.0015
 Calling FoFJK, ICntrl=      2127 FMM=F ISym2X=0 I1Cent= 0 IOpClX= 0 NMat=1 NMatS=1 NMatT=0.
 ***** Axes restored to original set *****
 -------------------------------------------------------------------
 Center     Atomic                   Forces (Hartrees/Bohr)
 Number     Number              X              Y              Z
 -------------------------------------------------------------------
      1        6          -0.005696014    0.005299223   -0.000550634
      2        6           0.000228638   -0.007340733    0.000675437
      3        6           0.005323830    0.005785544   -0.001101896
      4        6           0.007777163   -0.000792754   -0.000062744
      5        6          -0.004118919   -0.000015469   -0.002216869
      6        6          -0.002546811   -0.002709364    0.001090674
      7        6           0.004113543   -0.003101423    0.002076553
      8        6           0.000932413    0.003993444    0.003359861
      9        1          -0.004557312   -0.003543501    0.003298902
     10        1          -0.005760699   -0.001023108    0.002955455
     11        1          -0.002664910    0.003882313   -0.001785705
     12        1           0.000916107   -0.003901484   -0.002766354
     13        1          -0.000767410    0.004162030   -0.002210216
     14        1           0.003123333   -0.003548071   -0.003947414
     15        1           0.002634160    0.001980487    0.001229602
     16        6           0.000319933    0.000859379   -0.004296418
     17        1           0.000865206   -0.002397613    0.003181074
     18        1          -0.000830068    0.000458555    0.000687958
     19        1           0.000707817    0.001952544    0.000382735
 -------------------------------------------------------------------
 Cartesian Forces:  Max     0.007777163 RMS     0.003207233

 GradGradGradGradGradGradGradGradGradGradGradGradGradGradGradGradGradGrad
 Berny optimization.
 Using GEDIIS/GDIIS optimizer.
 FormGI is forming the generalized inverse of G from B-inverse, IUseBI=4.
 Internal  Forces:  Max     0.012396355 RMS     0.002857108
 Search for a local minimum.
 Step number   3 out of a maximum of   97
 All quantities printed in internal units (Hartrees-Bohrs-Radians)
 Mixed Optimization -- RFO/linear search
 Update second derivatives using D2CorX and points    2    3
 DE= -1.92D-03 DEPred=-1.08D-03 R= 1.77D+00
 TightC=F SS=  1.41D+00  RLast= 6.86D-01 DXNew= 6.4313D-01 2.0574D+00
 Trust test= 1.77D+00 RLast= 6.86D-01 DXMaxT set to 6.43D-01
 ITU=  1  1  0
 Use linear search instead of GDIIS.
     Eigenvalues ---   -0.06226   0.00609   0.00753   0.01772   0.01891
     Eigenvalues ---    0.02018   0.02197   0.02235   0.02256   0.02272
     Eigenvalues ---    0.02282   0.02435   0.02573   0.02878   0.06441
     Eigenvalues ---    0.07153   0.07426   0.15976   0.15983   0.15989
     Eigenvalues ---    0.15990   0.15995   0.15997   0.15999   0.16000
     Eigenvalues ---    0.16200   0.17510   0.21616   0.21770   0.21897
     Eigenvalues ---    0.22006   0.23813   0.25440   0.31586   0.31775
     Eigenvalues ---    0.31792   0.31839   0.31870   0.31887   0.31908
     Eigenvalues ---    0.31958   0.31986   0.32390   0.36526   0.37758
     Eigenvalues ---    0.38872   0.38921   0.55073   0.56060   0.57938
     Eigenvalues ---    0.59380
 RFO step:  Lambda=-6.86816734D-02 EMin=-6.22583979D-02
 I=     1 Eig=   -6.23D-02 Dot1=  1.25D-02
 I=     1 Stepn=  6.00D-01 RXN=   6.00D-01 EDone=F
 Mixed    1 eigenvectors in step.  Raw Step.Grad=  1.25D-02.
 RFO eigenvector is Hessian eigenvector with negative curvature.
 Taking step of  6.00D-01 in eigenvector direction(s).  Step.Grad=  6.77D-04.
 Skip linear search -- no minimum in search direction.
 Iteration  1 RMS(Cart)=  0.09129869 RMS(Int)=  0.00370578
 Iteration  2 RMS(Cart)=  0.00486949 RMS(Int)=  0.00053644
 Iteration  3 RMS(Cart)=  0.00001599 RMS(Int)=  0.00053624
 Iteration  4 RMS(Cart)=  0.00000001 RMS(Int)=  0.00053624
 Variable       Old X    -DE/DX   Delta X   Delta X   Delta X     New X
                                 (Linear)    (Quad)   (Total)
    R1        2.52255   0.00267   0.00000   0.00161   0.00173   2.52428
    R2        2.70376   0.01240   0.00000   0.15711   0.15744   2.86120
    R3        2.08784   0.00619   0.00000   0.12695   0.12695   2.21480
    R4        2.70324   0.01216   0.00000   0.15173   0.15156   2.85481
    R5        2.08727   0.00623   0.00000   0.12783   0.12783   2.21510
    R6        2.52327   0.00217   0.00000  -0.00183  -0.00220   2.52107
    R7        2.09191   0.00473   0.00000   0.09380   0.09380   2.18571
    R8        2.52167   0.00258   0.00000   0.00674   0.00711   2.52877
    R9        2.09572   0.00421   0.00000   0.08139   0.08139   2.17711
   R10        2.71055   0.00768   0.00000   0.08359   0.08325   2.79380
   R11        2.09471   0.00446   0.00000   0.09222   0.09222   2.18692
   R12        2.73383   0.00730   0.00000   0.05451   0.05470   2.78853
   R13        2.09321   0.00535   0.00000   0.11041   0.11041   2.20361
   R14        2.53592   0.00168   0.00000   0.00095   0.00083   2.53675
   R15        2.09808   0.00334   0.00000   0.06682   0.06682   2.16490
   R16        2.83529   0.00100   0.00000  -0.02792  -0.02792   2.80737
   R17        2.10208   0.00408   0.00000   0.09078   0.09078   2.19287
   R18        2.11785  -0.00110   0.00000  -0.03454  -0.03454   2.08331
   R19        2.10452   0.00211   0.00000   0.04317   0.04317   2.14769
    A1        2.33909  -0.00068   0.00000  -0.01583  -0.01613   2.32296
    A2        2.01686  -0.00128   0.00000  -0.03762  -0.03782   1.97904
    A3        1.92587   0.00197   0.00000   0.05537   0.05520   1.98106
    A4        2.33365  -0.00059   0.00000  -0.01060  -0.01127   2.32238
    A5        2.01867  -0.00121   0.00000  -0.03673  -0.03642   1.98225
    A6        1.93002   0.00180   0.00000   0.04776   0.04806   1.97808
    A7        2.34028   0.00004   0.00000   0.00431   0.00323   2.34351
    A8        1.92775   0.00144   0.00000   0.03633   0.03687   1.96462
    A9        2.01451  -0.00148   0.00000  -0.04060  -0.04006   1.97445
   A10        2.35844  -0.00020   0.00000  -0.00871  -0.00912   2.34932
   A11        1.91840   0.00168   0.00000   0.04666   0.04611   1.96451
   A12        2.00488  -0.00145   0.00000  -0.03497  -0.03552   1.96935
   A13        2.36121  -0.00038   0.00000  -0.02485  -0.02613   2.33508
   A14        2.00314  -0.00079   0.00000  -0.01543  -0.01478   1.98836
   A15        1.91792   0.00116   0.00000   0.04024   0.04087   1.95880
   A16        2.35937  -0.00052   0.00000  -0.02009  -0.02115   2.33821
   A17        1.99144  -0.00036   0.00000   0.02307   0.02213   2.01357
   A18        1.92981   0.00095   0.00000   0.00251   0.00158   1.93139
   A19        2.35884   0.00027   0.00000  -0.00967  -0.01120   2.34764
   A20        1.91177   0.00070   0.00000   0.01874   0.01888   1.93064
   A21        2.01252  -0.00099   0.00000  -0.00962  -0.00943   2.00309
   A22        2.29284   0.00108   0.00000   0.03356   0.03227   2.32510
   A23        1.93981   0.00077   0.00000  -0.02780  -0.02816   1.91165
   A24        2.05053  -0.00184   0.00000  -0.00551  -0.00590   2.04463
   A25        1.91359   0.00028   0.00000   0.01415   0.01418   1.92777
   A26        1.92283  -0.00059   0.00000  -0.04091  -0.04099   1.88184
   A27        1.95788  -0.00016   0.00000  -0.00694  -0.00704   1.95084
   A28        1.89084   0.00016   0.00000   0.00970   0.00978   1.90061
   A29        1.89098   0.00004   0.00000   0.00179   0.00180   1.89278
   A30        1.88618   0.00028   0.00000   0.02350   0.02328   1.90946
    D1       -0.00526   0.00019   0.00000   0.01256   0.01263   0.00737
    D2        3.08697   0.00031   0.00000   0.02602   0.02582   3.11279
    D3       -3.08385  -0.00024   0.00000  -0.03311  -0.03229  -3.11615
    D4        0.00838  -0.00012   0.00000  -0.01965  -0.01910  -0.01072
    D5        0.32764   0.00101   0.00000   0.05431   0.05360   0.38124
    D6       -2.87729   0.00167   0.00000   0.11795   0.11819  -2.75910
    D7       -2.87457   0.00135   0.00000   0.09590   0.09612  -2.77844
    D8        0.20369   0.00201   0.00000   0.15955   0.16071   0.36440
    D9       -0.31199  -0.00131   0.00000  -0.08230  -0.08182  -0.39381
   D10        2.87119  -0.00121   0.00000  -0.08263  -0.08241   2.78877
   D11        2.87713  -0.00137   0.00000  -0.09356  -0.09324   2.78389
   D12       -0.22288  -0.00126   0.00000  -0.09388  -0.09383  -0.31671
   D13       -0.00503  -0.00020   0.00000  -0.00756  -0.00752  -0.01256
   D14       -3.09483  -0.00007   0.00000  -0.00741  -0.00765  -3.10248
   D15        3.09342  -0.00025   0.00000  -0.00581  -0.00555   3.08787
   D16        0.00362  -0.00012   0.00000  -0.00566  -0.00567  -0.00205
   D17        0.00706   0.00008   0.00000   0.01023   0.00954   0.01659
   D18        3.06212   0.00123   0.00000   0.10298   0.10254  -3.11852
   D19       -3.06890  -0.00068   0.00000  -0.05792  -0.05735  -3.12625
   D20       -0.01383   0.00047   0.00000   0.03484   0.03565   0.02182
   D21        0.31263   0.00198   0.00000   0.11652   0.11632   0.42895
   D22       -2.84196   0.00100   0.00000   0.05953   0.05900  -2.78296
   D23       -2.87897   0.00181   0.00000   0.11529   0.11531  -2.76366
   D24        0.24962   0.00084   0.00000   0.05830   0.05799   0.30761
   D25       -0.33664  -0.00156   0.00000  -0.06209  -0.06273  -0.39937
   D26        2.80067  -0.00037   0.00000   0.00999   0.00983   2.81050
   D27        2.88931  -0.00264   0.00000  -0.15330  -0.15334   2.73596
   D28       -0.25657  -0.00145   0.00000  -0.08122  -0.08078  -0.33735
   D29        0.01836  -0.00022   0.00000  -0.04308  -0.04261  -0.02424
   D30       -3.11873  -0.00148   0.00000  -0.11883  -0.11944   3.04502
   D31       -3.10968   0.00079   0.00000   0.01618   0.01633  -3.09335
   D32        0.03642  -0.00047   0.00000  -0.05957  -0.06051  -0.02409
   D33       -1.00546  -0.00042   0.00000  -0.02568  -0.02487  -1.03033
   D34        1.07394  -0.00040   0.00000  -0.03009  -0.02942   1.04452
   D35       -3.10723  -0.00056   0.00000  -0.03306  -0.03219  -3.13942
   D36        2.13251   0.00060   0.00000   0.03542   0.03466   2.16717
   D37       -2.07128   0.00061   0.00000   0.03101   0.03011  -2.04117
   D38        0.03074   0.00046   0.00000   0.02804   0.02734   0.05808
         Item               Value     Threshold  Converged?
 Maximum Force            0.012396     0.000450     NO 
 RMS     Force            0.002857     0.000300     NO 
 Maximum Displacement     0.285636     0.001800     NO 
 RMS     Displacement     0.091939     0.001200     NO 
 Predicted change in Energy=-2.366711D-02
 GradGradGradGradGradGradGradGradGradGradGradGradGradGradGradGradGradGrad

                          Input orientation:                          
 ---------------------------------------------------------------------
 Center     Atomic      Atomic             Coordinates (Angstroms)
 Number     Number       Type             X           Y           Z
 ---------------------------------------------------------------------
      1          6           0       -1.734125   -1.286804    0.207406
      2          6           0       -2.266374   -0.061738    0.223455
      3          6           0       -1.724501    1.303061   -0.131381
      4          6           0       -0.364960   -1.815020   -0.165178
      5          6           0       -0.500162    1.826692   -0.212645
      6          6           0        0.857993   -1.278529   -0.250360
      7          6           0        0.858304    1.293787    0.024612
      8          6           0        1.405727    0.068301    0.001644
      9          1           0       -2.485585   -2.124904    0.533795
     10          1           0       -3.392105   -0.043926    0.549673
     11          1           0       -2.562212    2.070833   -0.347146
     12          1           0       -0.382286   -2.934114   -0.438315
     13          1           0       -0.487857    2.951283   -0.485444
     14          1           0        1.698876   -2.005227   -0.603379
     15          1           0        1.599607    2.147184    0.210662
     16          6           0        2.877349   -0.020304    0.184614
     17          1           0        3.133990   -0.720218    1.073893
     18          1           0        3.307229   -0.443267   -0.738251
     19          1           0        3.339520    0.998675    0.383932
 ---------------------------------------------------------------------
                    Distance matrix (angstroms):
                    1          2          3          4          5
     1  C    0.000000
     2  C    1.335790   0.000000
     3  C    2.611948   1.510699   0.000000
     4  C    1.514082   2.615417   3.401753   0.000000
     5  C    3.375347   2.622185   1.334091   3.644530   0.000000
     6  C    2.632242   3.386260   3.653497   1.338168   3.389455
     7  C    3.662452   3.411832   2.587528   3.346203   1.478414
     8  C    3.425978   3.681092   3.367589   2.590379   2.601974
     9  H    1.172021   2.097861   3.573885   2.254249   4.484884
    10  H    2.100188   1.172180   2.249247   3.579301   3.527560
    11  H    3.502425   2.227322   1.156627   4.467759   2.080804
    12  H    2.226670   3.498325   4.455267   1.152075   4.767609
    13  H    4.471533   3.569868   2.090762   4.778631   1.157271
    14  H    3.599862   4.492662   4.784042   2.118400   4.435318
    15  H    4.786028   4.452562   3.446627   4.438450   2.165857
    16  C    4.782284   5.144036   4.798768   3.722355   3.869986
    17  H    4.976984   5.506430   5.399192   3.869954   4.620497
    18  H    5.198181   5.668818   5.360622   3.961704   4.463766
    19  H    5.567446   5.707563   5.099266   4.684184   3.972993
                    6          7          8          9         10
     6  C    0.000000
     7  C    2.586971   0.000000
     8  C    1.475626   1.342391   0.000000
     9  H    3.537056   4.809190   4.498405   0.000000
    10  H    4.497515   4.486774   4.830334   2.269912   0.000000
    11  H    4.788047   3.527312   4.458287   4.287906   2.442378
    12  H    2.077157   4.430408   3.522081   2.454320   4.288161
    13  H    4.444985   2.195359   3.483461   5.549544   4.298535
    14  H    1.166103   3.461853   2.179796   4.337880   5.576228
    15  H    3.535258   1.145614   2.098340   5.919793   5.461967
[...]
 95758,-0.00028802,0.22223697,0.51718819,0.13126957,-0.05704471,-0.2084
 3844,0.01470104,-0.01889448,-0.00609047,-0.00253831,-0.00251834,-0.001
 01476,-0.24378669,0.14919405,0.42476446,-0.00027126,-0.00033670,-0.003
 84814,-0.01433386,-0.02474454,0.01781309,-0.51848916,-0.20116744,0.094
 89593,-0.00295961,-0.00037519,0.00230110,0.95758201,-0.00033311,-0.000
 91791,0.00055186,-0.03434011,-0.02246897,0.01977340,-0.21135168,-0.165
 70774,0.05269950,-0.00038999,-0.00128447,0.00049133,0.15524621,0.49219
 494,0.00275463,-0.00184720,-0.00153737,0.02403851,0.02585056,-0.009423
 42,0.09749118,0.05151638,-0.08206539,-0.00044099,-0.00008026,0.0019550
 9,0.01545177,-0.23313537,0.34250760,-0.04496716,-0.00779803,0.02683721
 ,-0.00102046,0.00082494,-0.00199985,-0.00227016,-0.00114015,0.00199888
 ,-0.51863330,-0.21602410,0.09918580,0.00129689,-0.00032240,0.00151341,
 0.84854260,0.00167221,0.01052403,0.00203457,0.00006606,0.00011279,-0.0
 0314513,-0.00085432,-0.00205748,0.00120767,-0.20765541,-0.16847107,0.0
 3672584,0.00270308,-0.00081620,0.00177744,0.27423721,0.56011045,0.0369
 9990,0.00354155,-0.01150292,0.00045780,0.00341067,-0.00145678,-0.00029
 738,-0.00057554,0.00193996,0.09984951,0.03920026,-0.08266301,0.0025405
 9,0.00019367,-0.00277206,-0.15422815,0.17328241,0.39309894,-0.00182095
 ,0.00129701,0.00180472,-0.00038668,-0.00208193,0.00182999,-0.06281780,
 -0.00135726,-0.01553935,0.00035598,-0.00077350,-0.00330991,-0.29173374
 ,0.06803878,-0.10437718,0.01070117,-0.00506519,0.00008427,0.66171695,0
 .00075077,-0.00227996,-0.00114489,0.00008648,-0.00034014,-0.00239797,-
 0.00921023,0.01054836,-0.00093370,-0.00002373,-0.00100084,0.00164203,0
 .06572227,-0.08834757,0.02788264,0.00482033,-0.05775189,-0.01769532,-0
 .22089363,0.86918904,-0.00015262,0.00093335,0.00201059,0.00002296,-0.0
 0296689,-0.00243999,-0.00539994,-0.00293990,0.00619563,0.00282482,-0.0
 0054925,-0.00178938,-0.10252909,0.03207880,-0.11790741,-0.00026221,-0.
 02541250,0.00079290,0.19015074,0.07527963,0.26961793,-0.00140815,0.001
 14400,-0.00044879,-0.00104282,-0.00011382,0.00069115,-0.00023981,0.001
 31893,-0.00094076,-0.02655411,-0.03901082,-0.01404200,-0.03095145,0.04
 023452,-0.00747148,-0.10785694,-0.08556812,-0.05029623,-0.16742189,0.2
 1078279,0.00748556,0.64102877,-0.00121981,0.00031262,0.00388032,0.0007
 0087,-0.00312714,0.00126832,-0.00084517,0.00014720,-0.00364866,-0.0305
 7731,-0.02303158,-0.01291824,0.02937552,-0.01939755,0.00919096,-0.0859
 9294,-0.24161471,-0.10142364,0.20505059,-0.51845182,-0.02441212,-0.168
 41120,0.92911600,-0.00263802,0.00238348,-0.00166056,0.00078650,-0.0015
 1903,0.00210113,0.00212943,0.00287911,-0.00184943,-0.00642874,-0.00290
 092,0.00532125,-0.01563442,0.01353283,0.00187345,-0.04739848,-0.101761
 42,-0.13157674,0.00823281,-0.02646286,-0.05979743,0.16855217,0.1399405
 1,0.31041798,-0.05691006,-0.05508630,0.04415637,0.00577328,0.01147902,
 -0.00508813,0.00470529,0.00331146,0.00460700,-0.00944493,-0.00993195,0
 .02453544,-0.00037986,0.00072095,-0.00090774,-0.00018868,0.00145135,0.
 00088851,0.00009082,-0.00020501,0.00022376,0.00039208,0.00022307,0.000
 29712,0.05830402,-0.05064486,-0.17141710,0.11964763,-0.00156327,-0.035
 99105,0.02154566,0.00349697,-0.00142847,0.00100557,-0.00151624,0.00614
 230,0.00215618,0.00009316,0.00032889,-0.00015142,0.00134431,-0.0001871
 6,-0.00072215,0.00003749,-0.00004609,-0.00002161,-0.00012645,-0.000058
 57,-0.00009705,0.04894843,0.20420918,0.04376161,0.12186585,-0.15322999
 ,-0.00043863,0.00902194,0.00220452,0.00450920,0.00145523,0.00380982,0.
 01870010,0.01330770,-0.01971830,-0.00012547,0.00038003,-0.00062630,0.0
 0082941,-0.00063776,-0.00188302,0.00026413,-0.00009667,0.00029308,-0.0
 0007327,0.00029001,-0.00008929,-0.06640721,-0.14325593,0.16981526,-0.0
 1264909,0.01317048,0.01504165,-0.16523512,0.03672746,0.12426357,-0.004
 47186,-0.00580624,0.01645971,0.00481166,0.00338102,0.00405259,0.001248
 36,0.00022129,-0.00004745,0.00043806,-0.00051702,-0.00080376,0.0001615
 6,0.00010779,0.00008467,-0.00007977,0.00010475,0.00016767,-0.00182063,
 -0.00032165,-0.00175241,0.17829208,0.02630290,-0.01413557,-0.02049675,
 0.03221596,-0.04491382,-0.03454227,-0.01412918,0.00025459,0.01990046,0
 .00321051,-0.00167243,0.00222178,0.00037355,-0.00178045,0.00117495,0.0
 0000302,-0.00039059,-0.00059104,0.00034003,0.00019685,0.00024855,-0.00
 003942,0.00001733,0.00018711,-0.00034251,-0.00097940,-0.00099856,-0.04
 750935,0.06381883,0.00974910,-0.00832465,-0.00127382,0.12526676,-0.036
 32405,-0.17150079,0.02034346,0.00776051,-0.01882559,0.00434469,0.00185
 357,0.00391361,0.00000175,0.00108711,-0.00165959,0.00016604,-0.0003134
 3,-0.00069983,0.00015420,-0.00024706,-0.00012266,0.00009221,0.00026353
 ,0.00032975,-0.00190070,-0.00068925,-0.00088975,-0.15773657,0.03359060
 ,0.19032158,-0.00008272,-0.00117418,0.00014768,0.00249578,0.00592507,-
 0.00506740,-0.21601767,0.08142482,-0.09085981,-0.00011138,0.00007458,0
 .00011548,-0.04128456,0.00532246,-0.01120766,0.00002442,0.00003192,0.0
 0009708,-0.00185780,-0.00212041,0.00022605,0.00012807,-0.00014582,-0.0
 0013353,-0.00010561,-0.00015835,-0.00020057,0.00015385,-0.00006319,0.0
 0005605,0.25766857,-0.00127548,-0.00046143,0.00144420,0.01699342,-0.01
 688123,0.02188259,0.08611151,-0.07466265,0.03997846,-0.00001937,0.0003
 5597,0.00034680,-0.01005215,0.00650108,-0.00189152,0.00021367,0.000000
 41,0.00009392,-0.00190282,0.00340394,0.00498391,-0.00081751,-0.0003052
 2,-0.00053375,-0.00063768,-0.00056164,-0.00076732,0.00000229,-0.000146
 04,0.00044827,-0.08910132,0.08382322,0.00008825,0.00142815,-0.00167126
 ,-0.01486806,0.01844412,-0.00878618,-0.09226832,0.04080017,-0.09028815
 ,-0.00029529,-0.00007191,-0.00004371,-0.00085224,-0.00093249,0.0065218
 8,0.00024298,0.00022870,0.00028822,-0.00026602,0.00511691,0.00557874,-
 0.00080635,-0.00005147,-0.00058236,0.00021297,0.00044762,0.00038291,0.
 00014377,0.00042555,-0.00020733,0.10657730,-0.06375318,0.09065795,0.00
 366822,0.01411180,0.01414718,-0.00140006,-0.00018220,0.00114063,0.0002
 0073,-0.00031244,0.00029804,-0.05601258,-0.05728220,-0.03797751,0.0001
 4373,0.00012191,0.00016057,-0.01712695,-0.03057639,-0.01124340,-0.0005
 3732,-0.00021179,-0.00059227,-0.00072283,-0.00334517,0.00383120,-0.000
 02287,0.00012935,0.00037566,-0.00076065,-0.00002767,-0.00067344,0.0000
 2319,0.00006515,0.00005272,0.07342413,0.00441902,-0.01263283,-0.018888
 17,-0.00009981,0.00111693,-0.00052901,-0.00016490,0.00008720,-0.000105
 69,-0.06180341,-0.21496035,-0.10566936,-0.00009260,-0.00011110,-0.0000
 5934,-0.01655448,-0.01723349,-0.00905323,0.00052865,0.00048909,0.00045
 231,-0.00336665,0.00318955,-0.00327596,0.00005651,0.00008189,-0.000231
 90,0.00036400,0.00008544,0.00030288,0.00001369,-0.00004734,-0.00004735
 ,0.07694930,0.24170224,0.00412871,-0.02441320,-0.01415634,0.00107136,-
 0.00052242,-0.00192413,-0.00029446,-0.00017622,-0.00007202,-0.03899447
 ,-0.10752583,-0.10948675,0.00035495,-0.00000556,0.00027591,-0.00204445
 ,-0.00129620,0.00603618,-0.00046019,-0.00035515,-0.00057696,0.00341308
 ,-0.00389648,0.00447652,0.00041199,-0.00012278,-0.00026883,0.00058206,
 -0.00014148,0.00042373,0.00000244,0.00005769,0.00008575,0.03197107,0.1
 3546480,0.11648597,-0.00019500,-0.00001398,0.00043217,-0.00245919,-0.0
 0171590,-0.00086348,-0.00867056,-0.02672980,0.01883174,-0.00002272,0.0
 0009498,-0.00006958,-0.03629861,-0.00946431,0.00712488,0.00009415,-0.0
 0029693,-0.00031424,-0.00591054,0.02145765,-0.01908185,-0.00200137,-0.
 00008298,-0.00127182,0.00024083,0.00002429,0.00009767,0.00004545,-0.00
 020798,0.00023261,-0.00065903,-0.00029829,0.00085189,0.00003587,-0.000
 01263,-0.00003388,0.05685623,0.00033154,0.00051530,-0.00072094,-0.0020
 3314,0.00356044,0.00463857,-0.01112880,-0.01581526,0.01562162,-0.00008
 091,-0.00010829,0.00011829,-0.01445591,-0.20163319,0.12519144,-0.00005
 818,0.00017926,0.00013797,0.01098285,-0.01042139,0.01590367,-0.0001492
 5,0.00120538,0.00044560,-0.00031444,-0.00002030,-0.00014532,-0.0002306
 2,-0.00072613,0.00044087,-0.00022564,-0.00125596,-0.00183809,-0.000004
 38,-0.00003121,0.00002444,0.01690155,0.22447537,0.00028438,0.00036130,
 -0.00097578,-0.00049857,0.00478189,0.00596954,0.00888737,0.01399221,-0
 .00368443,-0.00019922,-0.00001374,0.00045112,0.00824581,0.12511530,-0.
 14235313,0.00020195,0.00032926,-0.00003905,-0.00864555,0.01731317,-0.0
 0697284,-0.00099912,0.00045145,-0.00119960,-0.00039183,-0.00002300,-0.
 00029170,-0.00029297,-0.00081427,0.00037492,0.00050795,-0.00195786,-0.
 00185076,0.00002456,-0.00001589,0.00002551,-0.00658694,-0.15966692,0.1
 5020221,-0.00061002,-0.00386147,0.00279220,0.00038559,-0.00011639,-0.0
 0033130,-0.00006187,-0.00004894,0.00004946,-0.02975061,0.00606073,0.02
 598224,0.00004897,0.00007897,-0.00014714,-0.13328083,0.06413325,0.1064
 5813,-0.00050004,-0.00137118,-0.00055937,0.00812039,-0.00193634,-0.001
 65501,-0.00062007,0.00029239,0.00055077,-0.00005729,-0.00006709,-0.000
 05390,-0.00000725,0.00003421,0.00000303,-0.00135291,0.00045886,-0.0008
 0435,-0.00000738,0.00004150,0.00002769,0.15846302,-0.00360165,0.002871
 89,-0.00388001,-0.00053113,-0.00016834,0.00091561,0.00015678,-0.000007
 96,-0.00018945,-0.00818474,0.00669051,0.00536381,-0.00020278,0.0003157
 2,-0.00030693,0.06881765,-0.08031055,-0.07339953,-0.00162115,-0.000606
 37,-0.00077780,0.00761735,-0.01902655,-0.02667657,0.00045195,-0.000087
 14,-0.00019290,0.00030204,0.00028500,0.00021259,0.00002487,0.00001578,
 -0.00003950,0.00042734,-0.00105327,0.00192887,0.00004685,-0.00005969,-
 0.00006997,-0.06301388,0.09202165,0.00318887,-0.00373763,0.00489945,0.
 00037298,0.00008207,-0.00088490,-0.00010254,-0.00019331,0.00040870,0.0
 1653144,-0.00166918,-0.00513543,0.00035213,-0.00000483,-0.00008067,0.1
 0764982,-0.07224052,-0.16702556,-0.00056575,-0.00076459,-0.00122612,0.
 00768318,-0.01928927,-0.01186475,-0.00073311,0.00025045,0.00040616,-0.
 00023906,-0.00022211,-0.00027458,0.00001057,0.00002447,0.00001704,-0.0
 0111930,0.00175506,-0.00139127,-0.00002447,0.00005284,0.00010133,-0.13
 223757,0.09659137,0.18205797,-0.00006322,-0.00014706,-0.00007462,0.000
 27805,0.00001980,-0.00041414,-0.00100839,0.00151641,-0.00132714,-0.000
 01781,0.00051357,0.00058482,-0.02603817,-0.01613850,-0.02091715,0.0010
 2704,0.00204616,-0.00362505,-0.09695462,-0.09928128,-0.05604745,0.0076
 3963,0.00837251,0.00263043,0.00001646,-0.00003279,-0.00003320,-0.00004
 591,-0.00004555,-0.00003652,-0.00040030,0.00053572,0.00104242,0.000247
 87,-0.00021806,0.00017016,-0.00033713,0.00010096,-0.00043887,-0.000029
 24,-0.00029460,-0.00000756,0.11737057,0.00002877,-0.00003179,0.0000371
 6,-0.00005639,-0.00008178,0.00011486,0.00142728,-0.00011496,0.00003297
 ,0.00011787,0.00025986,0.00001912,-0.00406557,0.00502174,-0.00243619,0
 .00249469,-0.00165995,-0.00155167,-0.09461709,-0.18683139,-0.08686035,
 -0.00842050,-0.03845677,-0.01665435,-0.00003056,-0.00000851,0.00000937
 ,-0.00002045,0.00001578,-0.00000507,0.00014438,-0.00009874,-0.00030865
 ,0.00000431,0.00000190,-0.00000992,0.00014431,0.00011906,0.00007948,-0
 .00029246,-0.00048431,-0.00029645,0.10190076,0.22400847,-0.00012173,0.
 00021794,0.00040775,-0.00002854,-0.00031496,0.00000467,-0.00133552,-0.
 00004760,-0.00099613,-0.00006483,-0.00069765,-0.00089060,-0.01572985,-
 0.00944521,-0.00240046,-0.00357859,-0.00198534,0.00683910,-0.05622784,
 -0.08705757,-0.09566325,-0.00081504,-0.01017658,0.00356443,0.00003467,
 0.00000464,0.00001578,0.00007858,0.00005108,0.00008961,-0.00022339,0.0
 0003437,0.00024026,-0.00030852,0.00021357,-0.00029909,-0.00041192,0.00
 018324,0.00001250,0.00034828,0.00095632,0.00028171,0.07723480,0.106789
 63,0.09121801,-0.00004784,0.00005584,-0.00025652,-0.00015459,0.0001674
 9,-0.00012690,0.00018771,-0.00055327,0.00039758,0.00050256,-0.00029079
 ,-0.00074872,0.00249402,0.00182675,-0.00331683,-0.03301405,-0.01626679
 ,-0.02479506,-0.03718802,0.02956821,-0.01361218,-0.25680742,0.03560417
 ,-0.08297610,-0.00001408,0.00000078,-0.00002282,-0.00000410,0.00000761
 ,-0.00001561,0.00002000,0.00022727,0.00016333,0.00017594,-0.00034393,0
 .00039403,-0.00061484,0.00033792,-0.00008758,-0.00029071,-0.00018865,-
 0.00042717,-0.00076444,0.00034643,0.00146759,0.57468365,0.00029072,0.0
 0021203,-0.00051160,-0.00019889,-0.00008551,0.00008164,0.00047402,-0.0
 0032766,0.00058565,-0.00059954,-0.00228377,-0.00131374,0.00160436,-0.0
 0171286,-0.00288558,-0.02496053,-0.00028373,-0.01477636,0.04104275,-0.
 01919963,0.01307415,0.02932345,-0.06859071,0.01364316,-0.00010102,0.00
 001558,0.00000855,0.00002860,0.00008131,-0.00006027,0.00001846,0.00032
 446,0.00013813,0.00014451,-0.00071301,0.00102731,0.00012452,-0.0000063
 7,0.00010903,-0.00028385,-0.00030383,-0.00017504,0.00092874,-0.0011808
 9,0.00136801,-0.00791186,0.53237033,-0.00014686,0.00014538,0.00000653,
 0.00005903,-0.00012772,0.00033106,-0.00090771,0.00037345,-0.00075338,-
 0.00099030,-0.00102141,-0.00098601,-0.00337860,-0.00265258,0.00780032,
 -0.02672902,-0.00869200,-0.00899493,-0.01069535,0.00941365,0.00357837,
 -0.08471156,0.01498910,-0.10886562,0.00004464,0.00002365,0.00006839,0.
 00000044,0.00001478,-0.00001133,-0.00005374,-0.00038507,-0.00035130,-0
 .00006725,-0.00025010,0.00033188,0.00118137,-0.00041818,0.00024144,-0.
 00031015,-0.00042608,-0.00017319,0.00180166,0.00074463,-0.00247688,0.0
 3941586,0.00829176,0.51613428,-0.00003456,-0.00002550,0.00008485,0.000
 05425,0.00005622,-0.00002316,-0.00020567,0.00015896,-0.00017665,-0.000
 12807,0.00005212,-0.00000672,-0.00066371,-0.00007975,0.00149043,-0.000
 20198,-0.00015988,-0.00012550,-0.00209491,0.00032995,-0.00114322,-0.00
 592083,0.02152726,-0.02286234,-0.00000949,-0.00000206,-0.00002020,-0.0
 0002098,-0.00002217,0.00001269,-0.00000034,-0.00013468,-0.00006392,-0.
 00002752,0.00002595,-0.00006357,0.00011412,-0.00006597,0.00000991,-0.0
 0001035,0.00006453,-0.00000592,0.00016867,-0.00001372,-0.00047040,-0.0
 3948522,-0.01293501,0.01059522,0.04809242,0.00000914,-0.00001808,-0.00
 002748,-0.00000819,0.00005213,-0.00007018,-0.00005121,-0.00006495,0.00
 005481,0.00004693,-0.00005495,0.00000631,0.00041290,0.00002484,-0.0002
 0305,-0.00027614,-0.00012949,-0.00007984,-0.00015294,0.00054645,0.0002
 9662,0.00982410,-0.00606895,0.01183908,-0.00000034,0.00001286,-0.00001
 314,0.00000207,-0.00000472,0.00000277,0.00000999,0.00000949,0.00002345
 ,-0.00000655,-0.00001347,0.00000981,-0.00006243,0.00003197,0.00001208,
 -0.00002414,0.00000545,-0.00003155,-0.00009791,-0.00003350,0.00013386,
 -0.01326014,-0.17132105,0.12070235,0.01223502,0.20047769,-0.00005696,0
 .00000393,0.00004422,0.00003840,0.00002277,-0.00002940,-0.00005133,0.0
 0005325,-0.00006841,-0.00005826,0.00008917,-0.00001326,-0.00027596,-0.
 00004568,0.00047201,-0.00041939,-0.00031643,-0.00019713,-0.00048734,-0
 .00012677,-0.00059869,-0.01078557,0.01547264,-0.01273999,0.00002704,-0
 .00000777,0.00000369,-0.00000844,-0.00001292,0.00001287,-0.00000330,-0
 .00003499,-0.00001642,-0.00001550,-0.00000627,-0.00005795,0.00004459,-
 0.00001495,0.00000286,-0.00001613,0.00006503,-0.00002133,0.00004403,-0
 .00004150,-0.00009497,0.01111882,0.12049419,-0.15213327,-0.00868997,-0
 .14831585,0.18010720,-0.00001244,0.00000271,0.00001137,0.00001511,0.00
 003020,-0.00007725,0.00014229,-0.00004695,0.00008141,0.00010187,0.0001
 2880,0.00008105,0.00055296,0.00069954,-0.00120963,-0.00075030,-0.00050
 778,-0.00039337,-0.00171640,-0.00067707,-0.00060868,-0.03490849,0.0137
 4558,0.01466722,0.00001424,-0.00000725,-0.00001744,-0.00000647,-0.0000
 1277,0.00001111,0.00000783,0.00004250,0.00005609,0.00001819,-0.0000113
 9,-0.00004019,-0.00025607,0.00007343,-0.00005484,-0.00043875,-0.000262
 42,-0.00041220,-0.00023342,-0.00021637,0.00032162,-0.13909379,0.042824
 34,0.11218395,-0.00166618,-0.00122177,0.01018090,0.17226154,-0.0000275
 4,0.00000163,0.00000474,0.00001561,0.00001261,-0.00000499,-0.00007403,
 0.00001096,-0.00004568,-0.00005786,-0.00001669,-0.00002695,-0.00006332
 ,-0.00017438,0.00041697,-0.00033426,-0.00003430,-0.00009858,0.00023948
 ,0.00047596,0.00009766,0.01074397,0.00048547,-0.00250299,0.00001204,-0
 .00000103,0.00000071,-0.00000357,-0.00000645,0.00000421,-0.00000168,-0
 .00002516,-0.00001197,-0.00001251,-0.00000706,-0.00000209,0.00006015,-
 0.00000956,0.00001184,-0.00012809,-0.00008541,-0.00017253,0.00009054,0
 .00005853,-0.00019313,0.04288575,-0.05940481,-0.05014448,-0.01097818,0
 .00503362,0.01635800,-0.05464956,0.06482146,0.00002287,-0.00001222,-0.
 00001150,-0.00001078,0.00003179,-0.00004763,0.00004597,-0.00002795,0.0
 0004674,0.00005115,0.00000123,0.00003410,0.00038277,0.00037368,-0.0005
 4757,-0.00036247,-0.00008259,-0.00017946,-0.00111126,0.00034692,-0.000
 63835,-0.00223519,0.00137528,0.00933309,-0.00000021,0.00000289,-0.0000
 0836,0.00000106,-0.00000548,0.00000082,0.00000936,0.00001119,0.0000287
 6,0.00000890,-0.00000346,0.00001696,-0.00014704,0.00005107,-0.00002411
 ,-0.00011933,-0.00013280,-0.00013969,-0.00015157,-0.00008987,0.0001683
 5,0.11147417,-0.04994012,-0.16381511,0.01695963,0.00142050,-0.02246136
 ,-0.13330736,0.05946667,0.19175530,0.00005941,0.00006014,-0.00010165,-
 0.00003167,-0.00001648,0.00004731,0.00003945,-0.00003915,0.00004502,-0
 .00007490,-0.00047731,-0.00032954,0.00003656,-0.00009169,0.00001791,-0
 .00281392,0.00112615,-0.00125379,-0.00208586,0.00036838,-0.00102976,-0
 .02139261,-0.02214707,-0.02029605,-0.00002084,0.00000582,0.00000266,0.
 00000079,0.00001320,-0.00001404,0.00000494,0.00001350,-0.00001446,0.00
 002587,-0.00014815,0.00023588,0.00004586,-0.00002260,0.00000576,-0.000
 00066,-0.00000826,0.00008554,-0.00085558,0.00112429,-0.00016972,-0.070
 58467,-0.06981390,-0.03729139,0.00204039,-0.00737833,-0.00058571,0.005
 96822,0.01228311,0.00848928,0.08963913,0.00000784,-0.00002015,0.000008
 00,0.00000045,0.00001499,0.00000807,0.00000616,-0.00002201,0.00002286,
 0.00003861,0.00015652,0.00010109,0.00002446,-0.00003388,-0.00000441,0.
 00070453,0.00001372,0.00010592,0.00090841,0.00042675,0.00059186,-0.004
 96491,0.00365563,-0.00246600,-0.00000510,-0.00000426,-0.00000007,-0.00
 000299,0.00000044,-0.00000306,0.00000041,0.00001101,0.00000181,0.00000
 768,0.00004892,-0.00004547,0.00003115,0.00000042,0.00000447,0.00004391
 ,-0.00001247,0.00004052,0.00023067,-0.00050279,-0.00003460,-0.07221289
 ,-0.20758946,-0.09058135,-0.01003299,-0.02848529,-0.00363581,0.0000663
 4,-0.01113543,-0.01278673,0.08514821,0.24347734,0.00002297,0.00001486,
 -0.00002417,-0.00001762,-0.00002509,0.00001643,0.00004030,-0.00002655,
 0.00002325,-0.00006246,-0.00024408,-0.00016968,0.00003415,-0.00005598,
 -0.00003276,-0.00160252,0.00029766,-0.00000468,-0.00083483,0.00028746,
 -0.00033435,-0.01429222,-0.01130553,-0.00719237,-0.00001029,0.00000679
 ,0.00000603,0.00000499,0.00001003,-0.00000156,-0.00000056,0.00001803,-
 0.00000392,-0.00001317,-0.00005321,0.00007504,0.00000824,-0.00000507,0
 .00000998,0.00002250,0.00005784,0.00004527,-0.00043525,0.00042677,-0.0
 0002070,-0.03804607,-0.08915890,-0.08993106,0.00449878,0.01423943,0.00
 778938,-0.00147371,-0.02315747,-0.01351095,0.05215675,0.10867293,0.103
 26083\\0.00002539,0.00001451,-0.00002916,-0.00000142,0.00003169,-0.000
 00848,0.00001833,-0.00001985,0.00001592,-0.00002650,-0.00001104,0.0000
 2202,-0.00000645,-0.00001327,0.00000840,-0.00000151,0.00000933,0.00001
 010,-0.00003754,0.00001393,-0.00000556,0.00001923,-0.00002173,-0.00000
 182,-0.00000122,0.00000426,-0.00000268,0.00000904,-0.00000915,-0.00001
 054,0.00000966,0.00000195,0.00001015,0.00000121,0.00000670,-0.00000421
 ,-0.00000374,-0.00001325,-0.00000375,-0.00000119,0.00000163,-0.0000027
 1,-0.00000555,0.00000333,0.00000240,-0.00000260,0.00000259,0.00000293,
 0.00000203,0.00000599,-0.00000299,0.00000382,-0.00000358,-0.00000135,-
 0.00000098,-0.00000403,0.00000134\\\@


 GOOD SENSE ABOUT TRIVIALITIES IS BETTER THAN NONSENSE
 ABOUT THINGS THAT MATTER

                                       -- MAX BEERBOHM
 Job cpu time:       0 days  0 hours  0 minutes  0.6 seconds.
 Elapsed time:       0 days  0 hours  0 minutes  0.5 seconds.
 File lengths (MBytes):  RWF=     19 Int=      0 D2E=      0 Chk=      2 Scr=      1
 Normal termination of Gaussian 16 at Thu Jun 12 23:32:15 2025.
