 Entering Gaussian System, Link 0=g16
 Input=/home/gaussian/Documents/program files/Aromaticity/AM1 HF3-21G*/cyclooctatetraene/opt freq/meth_cyclooctatetraene_isomer_opt.com
 Output=/home/gaussian/Documents/program files/Aromaticity/AM1 HF3-21G*/cyclooctatetraene/opt freq/meth_cyclooctatetraene_isomer_opt.log
 Initial command:
 /usr/local/g16/l1.exe "/home/gaussian/tmp/Gau-145587.inp" -scrdir="/home/gaussian/tmp/"
 Entering Link 1 = /usr/local/g16/l1.exe PID=    145590.
  
 Copyright (c) 1988-2017, Gaussian, Inc.  All Rights Reserved.
  
 This is part of the Gaussian(R) 16 program.  It is based on
 the Gaussian(R) 09 system (copyright 2009, Gaussian, Inc.),
 the Gaussian(R) 03 system (copyright 2003, Gaussian, Inc.),
 the Gaussian(R) 98 system (copyright 1998, Gaussian, Inc.),
 the Gaussian(R) 94 system (copyright 1995, Gaussian, Inc.),
 the Gaussian 92(TM) system (copyright 1992, Gaussian, Inc.),
 the Gaussian 90(TM) system (copyright 1990, Gaussian, Inc.),
 the Gaussian 88(TM) system (copyright 1988, Gaussian, Inc.),
 the Gaussian 86(TM) system (copyright 1986, Carnegie Mellon
 University), and the Gaussian 82(TM) system (copyright 1983,
 Carnegie Mellon University). Gaussian is a federally registered
 trademark of Gaussian, Inc.
  
 This software contains proprietary and confidential information,
 including trade secrets, belonging to Gaussian, Inc.
  
 This software is provided under written license and may be
 used, copied, transmitted, or stored only in accord with that
 written license.
  
 The following legend is applicable only to US Government
 contracts under FAR:
  
                    RESTRICTED RIGHTS LEGEND
  
 Use, reproduction and disclosure by the US Government is
 subject to restrictions as set forth in subparagraphs (a)
 and (c) of the Commercial Computer Software - Restricted
 Rights clause in FAR 52.227-19.
  
 Gaussian, Inc.
 340 Quinnipiac St., Bldg. 40, Wallingford CT 06492
  
  
 ---------------------------------------------------------------
 Warning -- This program may not be used in any manner that
 competes with the business of Gaussian, Inc. or will provide
 assistance to any competitor of Gaussian, Inc.  The licensee
 of this program is prohibited from giving any competitor of
 Gaussian, Inc. access to this program.  By using this program,
 the user acknowledges that Gaussian, Inc. is engaged in the
 business of creating and licensing software in the field of
 computational chemistry and represents and warrants to the
 licensee that it is not a competitor of Gaussian, Inc. and that
 it will not use this program in any manner prohibited above.
 ---------------------------------------------------------------
  

 Cite this work as:
 Gaussian 16, Revision B.01,
 M. J. Frisch, G. W. Trucks, H. B. Schlegel, G. E. Scuseria, 
 M. A. Robb, J. R. Cheeseman, G. Scalmani, V. Barone, 
 G. A. Petersson, H. Nakatsuji, X. Li, M. Caricato, A. V. Marenich, 
 J. Bloino, B. G. Janesko, R. Gomperts, B. Mennucci, H. P. Hratchian, 
 J. V. Ortiz, A. F. Izmaylov, J. L. Sonnenberg, D. Williams-Young, 
 F. Ding, F. Lipparini, F. Egidi, J. Goings, B. Peng, A. Petrone, 
 T. Henderson, D. Ranasinghe, V. G. Zakrzewski, J. Gao, N. Rega, 
 G. Zheng, W. Liang, M. Hada, M. Ehara, K. Toyota, R. Fukuda, 
 J. Hasegawa, M. Ishida, T. Nakajima, Y. Honda, O. Kitao, H. Nakai, 
 T. Vreven, K. Throssell, J. A. Montgomery, Jr., J. E. Peralta, 
 F. Ogliaro, M. J. Bearpark, J. J. Heyd, E. N. Brothers, K. N. Kudin, 
 V. N. Staroverov, T. A. Keith, R. Kobayashi, J. Normand, 
 K. Raghavachari, A. P. Rendell, J. C. Burant, S. S. Iyengar, 
 J. Tomasi, M. Cossi, J. M. Millam, M. Klene, C. Adamo, R. Cammi, 
 J. W. Ochterski, R. L. Martin, K. Morokuma, O. Farkas, 
 J. B. Foresman, and D. J. Fox, Gaussian, Inc., Wallingford CT, 2016.
 
 ******************************************
 Gaussian 16:  EM64L-G16RevB.01 20-Dec-2017
                12-Jun-2025 
 ******************************************
 %chk=meth_cyclooctatetraene_isomer_opt.chk
 -----------------------------------------
 # opt freq am1 pop=full geom=connectivity
 -----------------------------------------
 1/18=20,19=15,26=1,38=1,57=2/1,3;
 2/9=110,12=2,17=6,18=5,40=1/2;
 3/5=2,25=1,41=700000,71=1/1,2,3;
 4/35=1/1;
 5/5=2,35=1,38=5/2;
 6/7=3,28=1/1;
 7//1,2,3,16;
 1/18=20,19=15,26=1/3(2);
 2/9=110/2;
 99//99;
 2/9=110/2;
 3/5=2,25=1,41=700000,71=1,135=20/1,2,3;
 4/5=5,16=3,35=1/1;
 5/5=2,35=1,38=5/2;
 7//1,2,3,16;
 1/18=20,19=15,26=1/3(-5);
 2/9=110/2;
 6/7=3,19=2,28=1/1;
 99/9=1/99;
 -------------------
 Title Card Required
 -------------------
 Symbolic Z-matrix:
 Charge =  0 Multiplicity = 1
 C                    -1.30342  -1.33639   0.50609 
 C                    -1.95591  -0.17632   0.64463 
 C                    -1.80133   0.99531  -0.19893 
 C                    -0.32112  -1.64622  -0.51768 
 C                    -0.66052   1.65051  -0.44376 
 C                     0.81767  -0.98619  -0.75458 
 C                     0.64978   1.33985   0.09664 
 C                     1.31401   0.17899  -0.02833 
 H                    -1.52626  -2.1773    1.18816 
 H                    -2.71551  -0.06496   1.43999 
 H                    -2.74763   1.36254  -0.63734 
 H                    -0.56834  -2.53997  -1.12053 
 H                    -0.67724   2.55255  -1.08383 
 H                     1.50082  -1.34102  -1.54824 
 C                     2.67746   0.00741   0.54048 
 H                     3.40975  -0.21152  -0.27638 
 H                     3.01482   0.92416   1.08253 
 H                     0.56773   1.50655   1.15038 
 H                     1.3048    2.08489  -0.30431 
 

 GradGradGradGradGradGradGradGradGradGradGradGradGradGradGradGradGradGrad
 Berny optimization.
 Initialization pass.
                           ----------------------------
                           !    Initial Parameters    !
                           ! (Angstroms and Degrees)  !
 --------------------------                            --------------------------
 ! Name  Definition              Value          Derivative Info.                !
 --------------------------------------------------------------------------------
 ! R1    R(1,2)                  1.3382         estimate D2E/DX2                !
 ! R2    R(1,4)                  1.4523         estimate D2E/DX2                !
 ! R3    R(1,9)                  1.1054         estimate D2E/DX2                !
 ! R4    R(2,3)                  1.452          estimate D2E/DX2                !
 ! R5    R(2,10)                 1.1054         estimate D2E/DX2                !
 ! R6    R(3,5)                  1.3382         estimate D2E/DX2                !
 ! R7    R(3,11)                 1.1057         estimate D2E/DX2                !
 ! R8    R(4,6)                  1.3374         estimate D2E/DX2                !
 ! R9    R(4,12)                 1.106          estimate D2E/DX2                !
 ! R10   R(5,7)                  1.451          estimate D2E/DX2                !
 ! R11   R(5,13)                 1.1062         estimate D2E/DX2                !
 ! R12   R(6,8)                  1.4599         estimate D2E/DX2                !
 ! R13   R(6,14)                 1.1057         estimate D2E/DX2                !
 ! R14   R(7,8)                  1.3433         estimate D2E/DX2                !
 ! R15   R(7,18)                 1.07           estimate D2E/DX2                !
 ! R16   R(7,19)                 1.07           estimate D2E/DX2                !
 ! R17   R(8,15)                 1.4873         estimate D2E/DX2                !
 ! R18   R(15,16)                1.1187         estimate D2E/DX2                !
 ! R19   R(15,17)                1.1172         estimate D2E/DX2                !
 ! A1    A(2,1,4)              125.9972         estimate D2E/DX2                !
 ! A2    A(2,1,9)              119.821          estimate D2E/DX2                !
 ! A3    A(4,1,9)              114.1433         estimate D2E/DX2                !
 ! A4    A(1,2,3)              125.9781         estimate D2E/DX2                !
 ! A5    A(1,2,10)             119.7935         estimate D2E/DX2                !
 ! A6    A(3,2,10)             114.1968         estimate D2E/DX2                !
 ! A7    A(2,3,5)              126.3093         estimate D2E/DX2                !
 ! A8    A(2,3,11)             114.0326         estimate D2E/DX2                !
 ! A9    A(5,3,11)             119.6343         estimate D2E/DX2                !
 ! A10   A(1,4,6)              126.5512         estimate D2E/DX2                !
 ! A11   A(1,4,12)             113.919          estimate D2E/DX2                !
 ! A12   A(6,4,12)             119.5099         estimate D2E/DX2                !
 ! A13   A(3,5,7)              126.647          estimate D2E/DX2                !
 ! A14   A(3,5,13)             119.4881         estimate D2E/DX2                !
 ! A15   A(7,5,13)             113.812          estimate D2E/DX2                !
 ! A16   A(4,6,8)              126.5304         estimate D2E/DX2                !
 ! A17   A(4,6,14)             119.6622         estimate D2E/DX2                !
 ! A18   A(8,6,14)             113.7749         estimate D2E/DX2                !
 ! A19   A(5,7,8)              126.6486         estimate D2E/DX2                !
 ! A20   A(5,7,18)             105.3177         estimate D2E/DX2                !
 ! A21   A(5,7,19)             105.3177         estimate D2E/DX2                !
 ! A22   A(8,7,18)             105.3177         estimate D2E/DX2                !
 ! A23   A(8,7,19)             105.3177         estimate D2E/DX2                !
 ! A24   A(18,7,19)            107.908          estimate D2E/DX2                !
 ! A25   A(6,8,7)              124.6027         estimate D2E/DX2                !
 ! A26   A(6,8,15)             114.1951         estimate D2E/DX2                !
 ! A27   A(7,8,15)             121.1601         estimate D2E/DX2                !
 ! A28   A(8,15,16)            110.0854         estimate D2E/DX2                !
 ! A29   A(8,15,17)            111.5761         estimate D2E/DX2                !
 ! A30   A(16,15,17)           108.4943         estimate D2E/DX2                !
 ! D1    D(4,1,2,3)             -0.2918         estimate D2E/DX2                !
 ! D2    D(4,1,2,10)           177.5397         estimate D2E/DX2                !
 ! D3    D(9,1,2,3)           -177.8964         estimate D2E/DX2                !
 ! D4    D(9,1,2,10)            -0.0649         estimate D2E/DX2                !
 ! D5    D(2,1,4,6)             58.0073         estimate D2E/DX2                !
 ! D6    D(2,1,4,12)          -123.6361         estimate D2E/DX2                !
 ! D7    D(9,1,4,6)           -124.2701         estimate D2E/DX2                !
 ! D8    D(9,1,4,12)            54.0865         estimate D2E/DX2                !
 ! D9    D(1,2,3,5)            -56.699          estimate D2E/DX2                !
 ! D10   D(1,2,3,11)           125.0953         estimate D2E/DX2                !
 ! D11   D(10,2,3,5)           125.3642         estimate D2E/DX2                !
 ! D12   D(10,2,3,11)          -52.8416         estimate D2E/DX2                !
 ! D13   D(2,3,5,7)             -1.0061         estimate D2E/DX2                !
 ! D14   D(2,3,5,13)          -178.1878         estimate D2E/DX2                !
 ! D15   D(11,3,5,7)           177.1086         estimate D2E/DX2                !
 ! D16   D(11,3,5,13)           -0.0731         estimate D2E/DX2                !
 ! D17   D(1,4,6,8)              0.3644         estimate D2E/DX2                !
 ! D18   D(1,4,6,14)           178.1546         estimate D2E/DX2                !
 ! D19   D(12,4,6,8)          -177.9094         estimate D2E/DX2                !
 ! D20   D(12,4,6,14)           -0.1192         estimate D2E/DX2                !
 ! D21   D(3,5,7,8)             58.0291         estimate D2E/DX2                !
 ! D22   D(3,5,7,18)           -65.0072         estimate D2E/DX2                !
 ! D23   D(3,5,7,19)          -178.9347         estimate D2E/DX2                !
 ! D24   D(13,5,7,8)          -124.6523         estimate D2E/DX2                !
 ! D25   D(13,5,7,18)          112.3114         estimate D2E/DX2                !
 ! D26   D(13,5,7,19)           -1.6161         estimate D2E/DX2                !
 ! D27   D(4,6,8,7)            -58.1456         estimate D2E/DX2                !
 ! D28   D(4,6,8,15)           124.1987         estimate D2E/DX2                !
 ! D29   D(14,6,8,7)           123.9527         estimate D2E/DX2                !
 ! D30   D(14,6,8,15)          -53.703          estimate D2E/DX2                !
 ! D31   D(5,7,8,6)              0.462          estimate D2E/DX2                !
 ! D32   D(5,7,8,15)           177.9631         estimate D2E/DX2                !
 ! D33   D(18,7,8,6)           123.4983         estimate D2E/DX2                !
 ! D34   D(18,7,8,15)          -59.0007         estimate D2E/DX2                !
 ! D35   D(19,7,8,6)          -122.5742         estimate D2E/DX2                !
 ! D36   D(19,7,8,15)           54.9268         estimate D2E/DX2                !
 ! D37   D(6,8,15,16)           59.28           estimate D2E/DX2                !
 ! D38   D(6,8,15,17)          179.7973         estimate D2E/DX2                !
 ! D39   D(7,8,15,16)         -118.4652         estimate D2E/DX2                !
 ! D40   D(7,8,15,17)            2.0522         estimate D2E/DX2                !
 --------------------------------------------------------------------------------
 Trust Radius=3.00D-01 FncErr=1.00D-07 GrdErr=1.00D-07 EigMax=2.50D+02 EigMin=1.00D-04
 Number of steps in this run=     99 maximum allowed number of steps=    114.
 GradGradGradGradGradGradGradGradGradGradGradGradGradGradGradGradGradGrad

                          Input orientation:                          
 ---------------------------------------------------------------------
 Center     Atomic      Atomic             Coordinates (Angstroms)
 Number     Number       Type             X           Y           Z
 ---------------------------------------------------------------------
      1          6           0       -1.303423   -1.336388    0.506094
      2          6           0       -1.955906   -0.176322    0.644632
      3          6           0       -1.801333    0.995309   -0.198930
      4          6           0       -0.321119   -1.646221   -0.517680
      5          6           0       -0.660516    1.650513   -0.443755
      6          6           0        0.817668   -0.986191   -0.754583
      7          6           0        0.649777    1.339854    0.096637
      8          6           0        1.314008    0.178989   -0.028333
      9          1           0       -1.526261   -2.177302    1.188160
     10          1           0       -2.715510   -0.064957    1.439991
     11          1           0       -2.747634    1.362544   -0.637344
     12          1           0       -0.568342   -2.539973   -1.120531
     13          1           0       -0.677238    2.552550   -1.083829
     14          1           0        1.500821   -1.341021   -1.548244
     15          6           0        2.677458    0.007408    0.540479
     16          1           0        3.409753   -0.211522   -0.276376
     17          1           0        3.014821    0.924158    1.082532
     18          1           0        0.567731    1.506553    1.150383
     19          1           0        1.304798    2.084894   -0.304315
 ---------------------------------------------------------------------
                    Distance matrix (angstroms):
                    1          2          3          4          5
     1  C    0.000000
     2  C    1.338163   0.000000
     3  C    2.486319   1.451967   0.000000
     4  C    1.452250   2.486785   3.044719   0.000000
     5  C    3.199550   2.489969   1.338169   3.314983   0.000000
     6  C    2.492182   3.210359   3.330805   1.337385   3.038725
     7  C    3.338400   3.064094   2.492792   3.199479   1.451000
     8  C    3.071307   3.357300   3.225032   2.498898   2.497339
     9  H    1.105444   2.117531   3.473492   2.155065   4.250274
    10  H    2.117236   1.105439   2.155446   3.473612   3.273276
    11  H    3.267634   2.153695   1.105692   3.867165   2.115766
    12  H    2.152875   3.260058   3.855883   1.106048   4.245786
    13  H    4.247800   3.474091   2.114624   4.251708   1.106185
    14  H    3.476221   4.256077   4.264189   2.115343   3.852343
    15  C    4.201712   4.638175   4.645669   3.584083   3.848452
    16  H    4.908321   5.444244   5.349566   4.004497   4.479094
    17  H    4.908114   5.109886   4.984230   4.505111   4.045398
    18  H    3.463905   3.075158   2.773893   3.675931   2.017570
    19  H    4.377757   4.079925   3.293380   4.075580   2.017570
                    6          7          8          9         10
     6  C    0.000000
     7  C    2.482589   0.000000
     8  C    1.459944   1.343290   0.000000
     9  H    3.269098   4.277493   3.885755   0.000000
    10  H    4.260067   3.886290   4.295637   2.437157   0.000000
    11  H    4.271028   3.475866   4.274182   4.165900   2.520736
    12  H    2.114044   4.244805   3.482656   2.525706   4.158402
    13  H    3.855624   2.150605   3.273060   5.315475   4.168401
    14  H    1.105667   3.258374   2.157651   4.165393   5.323094
    15  C    2.474519   2.466556   1.487274   4.781600   5.467949
    16  H    2.747308   3.188005   2.146199   5.511206   6.362880
    17  H    3.442660   2.595809   2.163807   5.500149   5.826047
    18  H    3.147243   1.070000   1.925805   4.237572   3.651464
    19  H    3.141911   1.070000   1.925805   5.329981   4.881326
                   11         12         13         14         15
    11  H    0.000000
    12  H    4.495823   0.000000
    13  H    2.429404   5.093819   0.000000
    14  H    5.117458   2.429374   4.485479   0.000000
    15  C    5.714480   4.447845   4.513326   2.750545   0.000000
    16  H    6.365642   4.686099   4.999557   2.556841   1.118677
    17  H    6.029597   5.449105   4.579965   3.787376   1.117169
    18  H    3.769397   4.777247   2.763288   4.032607   2.659016
    19  H    4.129758   5.056111   2.180553   3.650025   2.629415
                   16         17         18         19
    16  H    0.000000
    17  H    1.814489   0.000000
    18  H    3.614486   2.516354   0.000000
    19  H    3.115308   2.488942   1.730286   0.000000
 Stoichiometry    C9H10
 Framework group  C1[X(C9H10)]
 Deg. of freedom    51
 Full point group                 C1      NOp   1
 Largest Abelian subgroup         C1      NOp   1
 Largest concise Abelian subgroup C1      NOp   1
                         Standard orientation:                         
 ---------------------------------------------------------------------
 Center     Atomic      Atomic             Coordinates (Angstroms)
 Number     Number       Type             X           Y           Z
 ---------------------------------------------------------------------
      1          6           0        1.359392    1.293898    0.503127
      2          6           0        1.952076    0.098712    0.607706
      3          6           0        1.710930   -1.050622   -0.246161
      4          6           0        0.366777    1.670629   -0.487742
      5          6           0        0.530035   -1.640262   -0.466406
      6          6           0       -0.812128    1.075947   -0.700190
      7          6           0       -0.745889   -1.267845    0.115592
      8          6           0       -1.349875   -0.071430    0.024924
      9          1           0        1.646316    2.111714    1.189318
     10          1           0        2.726664   -0.064635    1.379280
     11          1           0        2.623358   -1.461542   -0.716451
     12          1           0        0.644720    2.558528   -1.085843
     13          1           0        0.480118   -2.532527   -1.118338
     14          1           0       -1.497243    1.478272   -1.469119
     15          6           0       -2.685551    0.164554    0.635060
     16          1           0       -3.427691    0.434152   -0.157394
     17          1           0       -3.056417   -0.740605    1.174699
     18          1           0       -0.643314   -1.453953    1.164278
     19          1           0       -1.451120   -1.970898   -0.275898
 ---------------------------------------------------------------------
 Rotational constants (GHZ):           2.5612259           1.6261179           1.1582159
 Standard basis: VSTO-6G (5D, 7F)
 There are    46 symmetry adapted cartesian basis functions of A   symmetry.
 There are    46 symmetry adapted basis functions of A   symmetry.
    46 basis functions,   276 primitive gaussians,    46 cartesian basis functions
    23 alpha electrons       23 beta electrons
       nuclear repulsion energy       231.7812441193 Hartrees.
 Integral buffers will be    131072 words long.
 Regular integral format.
 Two-electron integral symmetry is turned off.
 Do NDO integrals.
 One-electron integrals computed using PRISM.
 NBasis=    46 RedAO= F EigKep=  0.00D+00  NBF=    46
 NBsUse=    46 1.00D-04 EigRej=  0.00D+00 NBFU=    46
 Simple Huckel Guess.
 Keep J ints in memory in canonical form, NReq=864622.
 Overlap will be assumed to be unity.
 Requested convergence on RMS density matrix=1.00D-08 within 128 cycles.
 Requested convergence on MAX density matrix=1.00D-06.
 Requested convergence on             energy=1.00D-06.
 No special actions if energy rises.
 SCF Done:  E(RAM1) =  0.189285630142     A.U. after   14 cycles
            NFock= 13  Conv=0.20D-08     -V/T= 1.0026

 **********************************************************************

            Population analysis using the SCF Density.

 **********************************************************************

 Orbital symmetries:
       Occupied  (A) (A) (A) (A) (A) (A) (A) (A) (A) (A) (A) (A)
                 (A) (A) (A) (A) (A) (A) (A) (A) (A) (A) (A)
       Virtual   (A) (A) (A) (A) (A) (A) (A) (A) (A) (A) (A) (A)
                 (A) (A) (A) (A) (A) (A) (A) (A) (A) (A) (A)
 The electronic state is 1-A.
 Alpha  occ. eigenvalues --   -1.45116  -1.29452  -1.25831  -1.08222  -1.02438
 Alpha  occ. eigenvalues --   -0.89681  -0.78552  -0.75193  -0.63678  -0.59641
 Alpha  occ. eigenvalues --   -0.58525  -0.57562  -0.56386  -0.54340  -0.49842
 Alpha  occ. eigenvalues --   -0.47924  -0.46683  -0.44360  -0.42543  -0.39835
 Alpha  occ. eigenvalues --   -0.38485  -0.33875  -0.31610
 Alpha virt. eigenvalues --   -0.00585   0.01863   0.05045   0.06847   0.13144
 Alpha virt. eigenvalues --    0.13964   0.14456   0.14752   0.15212   0.16143
 Alpha virt. eigenvalues --    0.16584   0.17043   0.17439   0.17960   0.18169
 Alpha virt. eigenvalues --    0.18679   0.19489   0.19720   0.20405   0.20951
 Alpha virt. eigenvalues --    0.21232   0.21607   0.21711
     Molecular Orbital Coefficients:
                           1         2         3         4         5
                           O         O         O         O         O
     Eigenvalues --    -1.45116  -1.29452  -1.25831  -1.08222  -1.02438
   1 1   C  1S          0.23986   0.45092   0.15527   0.25200   0.29269
   2        1PX        -0.02534   0.01937  -0.08282   0.13481  -0.01660
   3        1PY        -0.05424  -0.08703   0.06148  -0.11740   0.04824
   4        1PZ        -0.03553  -0.03331  -0.05425   0.07963  -0.00913
   5 2   C  1S          0.24606   0.44474  -0.13199   0.36028  -0.06988
   6        1PX        -0.05663  -0.05507  -0.00396  -0.00039  -0.03966
   7        1PY         0.00216   0.06718   0.11333   0.11309   0.19550
   8        1PZ        -0.04231  -0.04458   0.03662   0.03114   0.06071
   9 3   C  1S          0.27728   0.24791  -0.39427  -0.11275  -0.39779
  10        1PX        -0.07847   0.02279   0.08772   0.11274  -0.03079
  11        1PY         0.01911   0.08591   0.04263   0.13586   0.01584
  12        1PZ         0.01981   0.04711  -0.00406   0.07945   0.00220
  13 4   C  1S          0.25747   0.26471   0.40809  -0.30585   0.11660
  14        1PX        -0.02793   0.07533  -0.08465   0.15109   0.13505
  15        1PY        -0.06624  -0.02878  -0.04373   0.01174   0.01960
  16        1PZ         0.02704   0.05712   0.00700   0.07726   0.07134
  17 5   C  1S          0.33789  -0.02160  -0.42078  -0.31813   0.00046
  18        1PX        -0.02717   0.12700  -0.06181  -0.04358  -0.26295
  19        1PY         0.06983   0.02153  -0.03803   0.00012  -0.03444
  20        1PZ         0.04883  -0.00845  -0.03958   0.00708   0.03578
  21 6   C  1S          0.30520  -0.00641   0.42715  -0.30756  -0.22987
  22        1PX         0.03395   0.10275   0.06558  -0.13112   0.09744
  23        1PY        -0.05349   0.08628   0.03163  -0.10069   0.02422
  24        1PZ         0.05409  -0.01480   0.04074   0.03157  -0.00772
  25 7   C  1S          0.43370  -0.33133  -0.17572   0.02369   0.40016
  26        1PX         0.01926   0.07034  -0.10998  -0.15063   0.01305
  27        1PY         0.07403  -0.05651   0.08037   0.07476  -0.06362
  28        1PZ        -0.02444   0.00355   0.02117   0.05694  -0.00252
  29 8   C  1S          0.41297  -0.34363   0.19656   0.21236  -0.13552
  30        1PX         0.05966   0.02542  -0.01890  -0.14852   0.15470
  31        1PY        -0.04418   0.08685   0.12992  -0.07806  -0.21852
  32        1PZ        -0.00924  -0.02116  -0.03145   0.09299   0.01645
  33 9   H  1S          0.06407   0.13838   0.05523   0.09602   0.12681
  34 10  H  1S          0.06614   0.13631  -0.04784   0.14164  -0.03519
  35 11  H  1S          0.07367   0.08071  -0.12566  -0.03895  -0.17156
  36 12  H  1S          0.06842   0.08608   0.13025  -0.11528   0.05141
  37 13  H  1S          0.09504  -0.01570  -0.13624  -0.12392   0.00918
  38 14  H  1S          0.08583  -0.01256   0.13938  -0.10600  -0.11490
  39 15  C  1S          0.16993  -0.21539   0.13448   0.35521  -0.34728
  40        1PX         0.07220  -0.06737   0.04240   0.04695  -0.02619
  41        1PY        -0.02451   0.03733   0.00712  -0.05343  -0.01051
  42        1PZ        -0.03655   0.03793  -0.03357  -0.03613   0.05780
  43 16  H  1S          0.05456  -0.07058   0.05280   0.12790  -0.15338
  44 17  H  1S          0.05974  -0.08124   0.03449   0.14495  -0.11108
  45 18  H  1S          0.15486  -0.11619  -0.07030   0.02628   0.15709
  46 19  H  1S          0.14698  -0.13387  -0.06266   0.02513   0.17121
                           6         7         8         9        10
                           O         O         O         O         O
     Eigenvalues --    -0.89681  -0.78552  -0.75193  -0.63678  -0.59641
   1 1   C  1S          0.19799   0.23812   0.16697   0.06238   0.13962
   2        1PX        -0.10614   0.11421  -0.12783   0.14976   0.07182
   3        1PY         0.17299  -0.04284   0.16582   0.23523   0.11534
   4        1PZ        -0.07706   0.16090  -0.07864   0.13511   0.25065
   5 2   C  1S         -0.28307  -0.04507  -0.26298  -0.03005  -0.14152
   6        1PX        -0.05287  -0.06619  -0.08437   0.24619  -0.07755
   7        1PY         0.08047   0.27948  -0.00925   0.03325   0.07648
   8        1PZ        -0.01797   0.11460  -0.11634   0.11340   0.06604
   9 3   C  1S         -0.00413  -0.22081   0.21014   0.08020   0.11294
  10        1PX        -0.11918  -0.19828  -0.01187   0.29711  -0.09080
  11        1PY        -0.15262  -0.12527  -0.09410  -0.18615  -0.16350
  12        1PZ        -0.10727  -0.08992  -0.12422  -0.14797  -0.01551
  13 4   C  1S          0.23660  -0.30530  -0.00171  -0.01599  -0.15278
  14        1PX         0.16950  -0.00220   0.21796   0.02484  -0.16168
  15        1PY         0.08580  -0.08806  -0.01591   0.21532  -0.00313
  16        1PZ         0.07448   0.09771   0.17874  -0.08370   0.03646
  17 5   C  1S          0.24585   0.31422  -0.10114  -0.04477  -0.11219
  18        1PX         0.06944  -0.02937   0.24696   0.05486   0.20548
  19        1PY        -0.06208  -0.07702   0.10674  -0.24686   0.14056
  20        1PZ        -0.04004  -0.08663  -0.04150  -0.18466   0.24405
  21 6   C  1S         -0.26716   0.17676  -0.16956   0.04624   0.15188
  22        1PX         0.07039  -0.21670  -0.04267  -0.16827  -0.08229
  23        1PY         0.10570  -0.16751  -0.21597   0.08740   0.17296
  24        1PZ         0.00686   0.03228   0.15671  -0.14797  -0.09627
  25 7   C  1S         -0.09706  -0.17255  -0.09619   0.02883   0.09195
  26        1PX         0.05088   0.17176  -0.13024  -0.28643   0.05431
  27        1PY        -0.12090  -0.02304   0.30595  -0.11954  -0.04359
  28        1PZ         0.00094  -0.14889   0.02825  -0.07932   0.41766
  29 8   C  1S         -0.15759   0.08966   0.33650   0.03857  -0.14894
  30        1PX        -0.22794   0.01401   0.10746  -0.13318   0.02289
  31        1PY        -0.01533   0.25369  -0.04418  -0.08339   0.01915
  32        1PZ         0.12632  -0.15023   0.01151  -0.06450   0.14239
  33 9   H  1S          0.10914   0.15558   0.09815   0.22685   0.25150
  34 10  H  1S         -0.14702  -0.02622  -0.19601   0.14972  -0.08807
  35 11  H  1S         -0.00091  -0.14073   0.13621   0.28899   0.05182
  36 12  H  1S          0.13407  -0.20014  -0.03029   0.14169  -0.12197
  37 13  H  1S          0.13702   0.19999  -0.08970   0.18230  -0.24722
  38 14  H  1S         -0.10945   0.10633  -0.17031   0.17846   0.20285
  39 15  C  1S          0.46206  -0.03551  -0.21737  -0.10574   0.01192
  40        1PX        -0.07530   0.02563   0.17355   0.08313  -0.03055
  41        1PY        -0.05099   0.07996   0.00635  -0.01989  -0.01044
  42        1PZ        -0.00312  -0.05910  -0.01770  -0.06011   0.08242
  43 16  H  1S          0.20986   0.01431  -0.16159  -0.06250  -0.01634
  44 17  H  1S          0.22565  -0.07968  -0.14559  -0.07656   0.05858
  45 18  H  1S         -0.01963  -0.14620  -0.07105  -0.04575   0.34931
  46 19  H  1S         -0.00706  -0.09622  -0.12517   0.22082  -0.07352
                          11        12        13        14        15
                           O         O         O         O         O
     Eigenvalues --    -0.58525  -0.57562  -0.56386  -0.54340  -0.49842
   1 1   C  1S         -0.12926  -0.04284   0.00556  -0.01215   0.01237
   2        1PX         0.09919  -0.07660  -0.18315  -0.01495  -0.19773
   3        1PY        -0.03881   0.33127   0.08433  -0.24579   0.13087
   4        1PZ         0.15615  -0.00185   0.02851  -0.19086   0.17537
   5 2   C  1S          0.11733   0.03010  -0.00833   0.04887   0.01251
   6        1PX         0.15217   0.17147   0.12459  -0.17007  -0.10838
   7        1PY         0.06932  -0.30294  -0.12127   0.09491  -0.24911
   8        1PZ         0.32716   0.08609   0.10659  -0.16007   0.12060
   9 3   C  1S         -0.14057  -0.02095  -0.00793  -0.03440   0.04368
  10        1PX        -0.20142  -0.00964   0.28737  -0.04920  -0.30278
  11        1PY        -0.17759   0.08614  -0.08312   0.04230   0.06468
  12        1PZ         0.01287   0.24372   0.02434   0.03467   0.21693
  13 4   C  1S          0.11030   0.05087   0.00974   0.02392   0.00057
  14        1PX        -0.16280   0.21699  -0.15597   0.09902  -0.16321
  15        1PY         0.12123   0.28782  -0.25809   0.05109  -0.07383
  16        1PZ        -0.15125   0.05735   0.29664  -0.01921   0.18491
  17 5   C  1S          0.14380   0.04160  -0.02294   0.01948  -0.00285
  18        1PX         0.18371  -0.17342  -0.10358   0.07081   0.16171
  19        1PY        -0.06017   0.07100  -0.26096  -0.18715   0.09384
  20        1PZ        -0.03605   0.22950  -0.01552  -0.00866   0.04627
  21 6   C  1S         -0.10275  -0.06225   0.03249  -0.02384   0.00634
  22        1PX         0.19609  -0.26271   0.19114  -0.15801   0.06198
  23        1PY         0.09788  -0.09319  -0.06429   0.08166   0.14611
  24        1PZ         0.09986   0.07126   0.35784  -0.01144   0.04800
  25 7   C  1S         -0.10897   0.00441   0.00315  -0.04454  -0.03359
  26        1PX         0.01271   0.30110   0.05417  -0.07486  -0.29991
  27        1PY         0.26432  -0.06324  -0.19596  -0.25677  -0.17376
  28        1PZ         0.14856   0.04111   0.14989   0.26637  -0.23237
  29 8   C  1S          0.15885   0.06975  -0.02674   0.06824  -0.00804
  30        1PX         0.01001  -0.04907   0.04164  -0.32558  -0.23736
  31        1PY        -0.10042   0.24568   0.23676   0.18420  -0.08153
  32        1PZ         0.23913  -0.03115   0.10736   0.19384  -0.02196
  33 9   H  1S         -0.00233   0.14093   0.02457  -0.23615   0.13466
  34 10  H  1S          0.28957   0.17816   0.12971  -0.15830   0.04325
  35 11  H  1S         -0.14805  -0.11116   0.18583  -0.07567  -0.27513
  36 12  H  1S          0.15536   0.21280  -0.29094   0.06925  -0.16337
  37 13  H  1S          0.11593  -0.11180   0.15345   0.12990  -0.08789
  38 14  H  1S         -0.16896   0.02677  -0.26680   0.08598  -0.01331
  39 15  C  1S         -0.01926  -0.00499   0.03299  -0.07112  -0.04308
  40        1PX         0.19989   0.08579   0.04528   0.40067   0.14370
  41        1PY        -0.06790   0.14540   0.04842   0.05987  -0.06063
  42        1PZ         0.08837  -0.11074   0.06103  -0.07763  -0.07138
  43 16  H  1S         -0.16807   0.04352  -0.03096  -0.18963  -0.08256
  44 17  H  1S          0.00603  -0.15196   0.00768  -0.20218  -0.05428
  45 18  H  1S          0.02037   0.06249   0.14705   0.21104  -0.20161
  46 19  H  1S         -0.22957  -0.12895   0.03564   0.07235   0.31280
                          16        17        18        19        20
                           O         O         O         O         O
     Eigenvalues --    -0.47924  -0.46683  -0.44360  -0.42543  -0.39835
   1 1   C  1S          0.03788  -0.00106   0.03534  -0.03837  -0.01253
   2        1PX        -0.03491  -0.24320  -0.11375   0.17465   0.29657
   3        1PY         0.13834  -0.00840   0.08542   0.04716   0.30621
   4        1PZ        -0.01005  -0.24354   0.07923   0.20180  -0.23763
   5 2   C  1S          0.00317   0.04732   0.02576   0.03506  -0.01252
   6        1PX        -0.01847   0.08139  -0.11065  -0.17670   0.40508
   7        1PY        -0.16227  -0.10021  -0.20073  -0.09253  -0.00839
   8        1PZ        -0.16015   0.19936  -0.11850  -0.18234  -0.25248
   9 3   C  1S         -0.01061  -0.06779  -0.02997   0.03467  -0.01376
  10        1PX         0.08519  -0.14019   0.07617  -0.08951  -0.16990
  11        1PY         0.20763  -0.16070   0.20570   0.17095   0.22862
  12        1PZ         0.09231   0.12259   0.12754   0.15608  -0.13971
  13 4   C  1S         -0.06651   0.01782  -0.03630  -0.03243  -0.01500
  14        1PX         0.03596   0.31452  -0.10210  -0.08291   0.07395
  15        1PY         0.00981  -0.10964  -0.03260   0.22525  -0.31030
  16        1PZ         0.06837   0.14308   0.11083  -0.18171  -0.16257
  17 5   C  1S          0.05586  -0.00911   0.03881  -0.04719   0.03704
  18        1PX        -0.17617   0.27641  -0.06161   0.15137   0.07276
  19        1PY        -0.07605  -0.18780  -0.21939  -0.20810   0.13292
  20        1PZ        -0.08276  -0.00968  -0.19034  -0.10849  -0.15932
  21 6   C  1S          0.06496   0.05361  -0.02784   0.03292   0.05009
  22        1PX        -0.11723  -0.18357   0.00801   0.02021   0.21628
  23        1PY         0.06076  -0.17132   0.24964  -0.21033  -0.14011
  24        1PZ        -0.10532  -0.16513  -0.13382   0.22472  -0.14435
  25 7   C  1S         -0.05974  -0.02615  -0.00777  -0.03985  -0.02343
  26        1PX         0.11213  -0.20184  -0.00108  -0.20465  -0.04258
  27        1PY         0.07918   0.03425   0.30992  -0.09620  -0.07634
  28        1PZ        -0.05286   0.20597   0.12893   0.15225   0.13610
  29 8   C  1S          0.00714  -0.04761   0.00731   0.01671  -0.02392
  30        1PX         0.02129   0.15707   0.02432   0.23850  -0.09764
  31        1PY        -0.02585  -0.06624  -0.27508   0.17253   0.02513
  32        1PZ         0.12064  -0.16184   0.13324  -0.12329   0.01903
  33 9   H  1S          0.10004  -0.19365   0.10241   0.17499   0.15418
  34 10  H  1S         -0.08344   0.21814  -0.10252  -0.20925   0.10515
  35 11  H  1S         -0.04506  -0.14049  -0.08287  -0.17691  -0.18589
  36 12  H  1S         -0.05836  -0.06371  -0.12965   0.23063  -0.16162
  37 13  H  1S          0.13769   0.12088   0.29871   0.19095   0.01332
  38 14  H  1S          0.16909   0.18208   0.15691  -0.21538  -0.05058
  39 15  C  1S          0.01469  -0.04990  -0.00580  -0.02352   0.01110
  40        1PX         0.16470  -0.24236  -0.07739  -0.21303   0.07251
  41        1PY        -0.35049  -0.09854   0.19255   0.00894   0.01950
  42        1PZ         0.42368   0.06927  -0.23434   0.09508  -0.06193
  43 16  H  1S         -0.41345   0.04878   0.24661   0.05697   0.00234
  44 17  H  1S          0.38251   0.15023  -0.24263   0.10896  -0.06151
  45 18  H  1S         -0.06844   0.14339   0.04889   0.12078   0.12367
  46 19  H  1S         -0.11934   0.02268  -0.24186   0.12390   0.01209
                          21        22        23        24        25
                           O         O         O         V         V
     Eigenvalues --    -0.38485  -0.33875  -0.31610  -0.00585   0.01863
   1 1   C  1S          0.04838   0.02449   0.01769   0.00974  -0.03094
   2        1PX         0.05761   0.32075  -0.04718   0.12110  -0.34095
   3        1PY         0.00087   0.06626   0.00529   0.03392  -0.09538
   4        1PZ         0.07872  -0.30950   0.03285  -0.10560   0.28893
   5 2   C  1S         -0.05167   0.00571  -0.02188  -0.02921   0.00927
   6        1PX        -0.13766   0.25350  -0.07789  -0.13215   0.26659
   7        1PY        -0.06491   0.16140  -0.07033  -0.09259   0.13804
   8        1PZ         0.02166  -0.29779   0.09431   0.14197  -0.26033
   9 3   C  1S          0.01428  -0.00510   0.01558   0.00437  -0.00475
  10        1PX         0.13594  -0.00405  -0.00172   0.00424  -0.03916
  11        1PY        -0.22247  -0.21864  -0.05049  -0.04414   0.23107
  12        1PZ         0.36956   0.30708   0.05942   0.06043  -0.30666
  13 4   C  1S          0.00618  -0.02141  -0.03236  -0.04435  -0.01706
  14        1PX         0.08900  -0.11370   0.17403   0.19211  -0.02858
  15        1PY        -0.26369   0.09100  -0.14009  -0.17053   0.05490
  16        1PZ        -0.32566   0.17235  -0.19173  -0.22129   0.07292
  17 5   C  1S          0.00422   0.03125  -0.02935  -0.00388   0.04409
  18        1PX        -0.03314   0.10612   0.01881  -0.05837   0.08412
  19        1PY        -0.27293  -0.21570  -0.00885   0.07102  -0.24189
  20        1PZ         0.35507   0.35759  -0.01319  -0.09155   0.37229
  21 6   C  1S         -0.01012   0.02475  -0.00859   0.02692  -0.03032
  22        1PX         0.26305  -0.08610   0.05009  -0.08877   0.06537
  23        1PY        -0.24490   0.24124  -0.08365   0.14846  -0.16295
  24        1PZ        -0.28609   0.20500  -0.18755   0.18987  -0.15678
  25 7   C  1S         -0.05410   0.01484   0.03488  -0.01347  -0.03831
  26        1PX         0.08910  -0.06177  -0.09450   0.00603   0.01983
  27        1PY        -0.00940   0.08465   0.00754  -0.01581  -0.06213
  28        1PZ        -0.02044  -0.12498  -0.12150  -0.00527   0.03131
  29 8   C  1S          0.07301   0.01868  -0.04697   0.01173   0.05666
  30        1PX        -0.16130   0.12494   0.27815   0.20376   0.15007
  31        1PY        -0.09532  -0.06571   0.12749   0.19045   0.03026
  32        1PZ        -0.13781   0.09496   0.39828   0.49268   0.25761
  33 9   H  1S          0.11063  -0.05738   0.03768   0.04454  -0.00131
  34 10  H  1S         -0.12189  -0.06852   0.00788   0.00470   0.06197
  35 11  H  1S          0.05318  -0.07685   0.00513   0.03545  -0.05894
  36 12  H  1S         -0.00964  -0.08645   0.01659   0.00137   0.08657
  37 13  H  1S          0.01477  -0.02680  -0.00549  -0.00139  -0.02986
  38 14  H  1S         -0.07184   0.02538   0.09963   0.07746   0.07368
  39 15  C  1S         -0.01775   0.00804   0.19707  -0.19205  -0.06350
  40        1PX         0.08337  -0.05764   0.10447  -0.08010  -0.01115
  41        1PY        -0.13681   0.08082   0.52527  -0.39467  -0.15293
  42        1PZ        -0.13299   0.07145   0.38929  -0.35143  -0.12697
  43 16  H  1S         -0.03215   0.03302  -0.00633   0.17037   0.09106
  44 17  H  1S         -0.01246  -0.00592  -0.13305   0.07593   0.00765
  45 18  H  1S         -0.04483  -0.17825  -0.14983  -0.12620  -0.17685
  46 19  H  1S         -0.08769   0.04627   0.16475   0.12683   0.08500
                          26        27        28        29        30
                           V         V         V         V         V
     Eigenvalues --     0.05045   0.06847   0.13144   0.13964   0.14456
   1 1   C  1S          0.03802   0.03050   0.04589   0.09117  -0.21343
   2        1PX        -0.02942  -0.32470  -0.09166   0.05519   0.26777
   3        1PY        -0.03277  -0.21093   0.00099   0.06942   0.00371
   4        1PZ         0.06329   0.29828  -0.09489   0.14218   0.24334
   5 2   C  1S          0.03336  -0.04019   0.03228  -0.18550   0.13654
   6        1PX         0.16013   0.36827  -0.06711   0.11186   0.12513
   7        1PY         0.08422   0.07751  -0.06728   0.20737   0.03451
   8        1PZ        -0.12374  -0.28562  -0.07876   0.16429   0.23145
   9 3   C  1S          0.00090   0.00272   0.02693   0.11215   0.12399
  10        1PX         0.08271   0.09192   0.07075  -0.03237   0.08333
  11        1PY        -0.27618  -0.18465  -0.10863   0.26016   0.04061
  12        1PZ         0.36913   0.23130  -0.13726   0.19075  -0.07204
  13 4   C  1S         -0.02223   0.00918   0.01963   0.04471   0.22105
  14        1PX        -0.15776   0.13550  -0.06534   0.04763   0.20186
  15        1PY         0.25541  -0.28932   0.12846  -0.00795  -0.17233
  16        1PZ         0.29544  -0.27484  -0.13438  -0.00933   0.23368
  17 5   C  1S          0.01161   0.03383  -0.21713  -0.18066  -0.10646
  18        1PX        -0.03715   0.02133   0.28846  -0.01324   0.14311
  19        1PY         0.26083   0.14838  -0.15208   0.27197  -0.09147
  20        1PZ        -0.34347  -0.18004  -0.08230   0.21623  -0.02912
  21 6   C  1S          0.00932  -0.05056  -0.14116   0.00535  -0.15548
  22        1PX         0.20200  -0.20343   0.04334  -0.01770   0.08723
  23        1PY        -0.29681   0.19541   0.22981   0.04497  -0.11955
  24        1PZ        -0.30851   0.23137  -0.19332  -0.03333   0.20889
  25 7   C  1S         -0.02872   0.03839   0.09948   0.00274   0.06905
  26        1PX         0.02444  -0.02298   0.37019   0.06431   0.14751
  27        1PY        -0.02591   0.06761   0.18651   0.24670  -0.02205
  28        1PZ         0.00189  -0.04258  -0.22511   0.18487  -0.14430
  29 8   C  1S         -0.04647  -0.03139   0.01023  -0.08422  -0.08002
  30        1PX         0.09344  -0.08309   0.17333  -0.05757   0.04614
  31        1PY         0.10089   0.02682   0.28382   0.11315  -0.05644
  32        1PZ         0.19792  -0.08979  -0.16301  -0.07636  -0.03557
  33 9   H  1S         -0.10629   0.07186   0.04813  -0.24132  -0.04165
  34 10  H  1S         -0.10922  -0.03852   0.07263  -0.00450  -0.36157
  35 11  H  1S         -0.03848  -0.10874  -0.19932   0.11050  -0.18902
  36 12  H  1S          0.03557   0.09876  -0.19457  -0.04785   0.02531
  37 13  H  1S         -0.01342  -0.01784   0.02433   0.50590   0.00720
  38 14  H  1S          0.03388   0.00301  -0.07874  -0.05723   0.38203
  39 15  C  1S         -0.00440  -0.01330   0.05815   0.02711   0.07685
  40        1PX         0.06775  -0.04045   0.14511  -0.00051   0.09069
  41        1PY        -0.12264   0.04605   0.01147   0.04068  -0.03306
  42        1PZ        -0.11914   0.02849  -0.17568  -0.06490  -0.04164
  43 16  H  1S          0.05926  -0.03874  -0.07845  -0.08625  -0.02976
  44 17  H  1S         -0.01207   0.02818   0.12069   0.04352  -0.03531
  45 18  H  1S          0.04776   0.09107   0.16346  -0.13652   0.07360
  46 19  H  1S          0.07127  -0.03138   0.22775   0.26984  -0.02187
                          31        32        33        34        35
                           V         V         V         V         V
     Eigenvalues --     0.14752   0.15212   0.16143   0.16584   0.17043
   1 1   C  1S          0.17699  -0.25932  -0.12484  -0.04398   0.25463
   2        1PX         0.01074  -0.04872   0.01953  -0.04948   0.06193
   3        1PY        -0.01607  -0.11283  -0.17342   0.11715   0.09518
   4        1PZ        -0.06326  -0.15048  -0.10104   0.06125   0.01626
   5 2   C  1S         -0.19119   0.21913  -0.24315   0.10396  -0.07464
   6        1PX        -0.05627  -0.06986  -0.15679   0.04101   0.01747
   7        1PY        -0.04376  -0.10988   0.12120   0.06092  -0.15767
   8        1PZ        -0.02148  -0.13134  -0.16457  -0.00505   0.01688
   9 3   C  1S          0.19165  -0.32850   0.08148  -0.18067  -0.13135
  10        1PX         0.05081  -0.04877  -0.16641  -0.21089   0.07539
  11        1PY        -0.03251  -0.11683   0.00883   0.13542   0.10754
  12        1PZ        -0.06056  -0.05155   0.11657   0.07114   0.02013
  13 4   C  1S         -0.31353  -0.02377   0.02622  -0.05094  -0.26256
  14        1PX        -0.02973  -0.01633  -0.12516   0.10232  -0.11221
  15        1PY        -0.09754  -0.09664  -0.07679   0.01360  -0.17317
  16        1PZ         0.07736   0.13190   0.07930   0.01767   0.06155
  17 5   C  1S         -0.19540   0.02845  -0.18888   0.05229   0.23130
  18        1PX         0.06823   0.13208  -0.09416   0.02550   0.03443
  19        1PY        -0.08188   0.10014   0.07474  -0.04240  -0.07177
  20        1PZ        -0.02545   0.03775   0.04703   0.12461  -0.03582
  21 6   C  1S          0.28157   0.05209  -0.29844   0.11548  -0.12918
  22        1PX        -0.00673  -0.05073   0.14196   0.01617   0.21504
  23        1PY        -0.12643  -0.14214  -0.06404   0.01097   0.08787
  24        1PZ         0.13282   0.08100   0.09917  -0.01419   0.07815
  25 7   C  1S          0.20549   0.04729  -0.07103  -0.02741  -0.26400
  26        1PX         0.07689   0.13271  -0.02569  -0.29244   0.09218
  27        1PY         0.03451   0.26207  -0.11683   0.19137   0.13448
  28        1PZ        -0.13313   0.19994  -0.15022  -0.43379   0.05357
  29 8   C  1S         -0.32425  -0.23064   0.10993  -0.24227   0.12905
  30        1PX        -0.01433  -0.07743   0.06711   0.06055   0.00180
  31        1PY        -0.15751  -0.04068   0.04462   0.14237  -0.00359
  32        1PZ         0.06387  -0.02978  -0.04299   0.05585  -0.07966
  33 9   H  1S         -0.10298   0.39632   0.26372  -0.06538  -0.26887
  34 10  H  1S          0.21023  -0.06042   0.40520  -0.09121   0.01560
  35 11  H  1S         -0.23982   0.24240   0.11021   0.35987   0.08633
  36 12  H  1S          0.39073   0.16729   0.10217   0.01664   0.36251
  37 13  H  1S          0.09128   0.07487   0.21899  -0.00176  -0.23751
  38 14  H  1S         -0.10371   0.03387   0.39570  -0.08776   0.22696
  39 15  C  1S          0.17649   0.12554  -0.04570   0.05687  -0.02259
  40        1PX         0.15116   0.03932   0.02126   0.14189  -0.07643
  41        1PY        -0.12121  -0.02024   0.02962  -0.02436   0.11918
  42        1PZ        -0.05579  -0.07115  -0.00047  -0.14699  -0.05866
  43 16  H  1S         -0.03757  -0.12022   0.03241  -0.02869  -0.10240
  44 17  H  1S         -0.16014  -0.07158   0.06558   0.04760   0.09636
  45 18  H  1S         -0.01991  -0.17408   0.16431   0.43895   0.14183
  46 19  H  1S         -0.12541   0.28239  -0.08529  -0.15805   0.31229
                          36        37        38        39        40
                           V         V         V         V         V
     Eigenvalues --     0.17439   0.17960   0.18169   0.18679   0.19489
   1 1   C  1S          0.02649  -0.03042   0.11560  -0.06658  -0.01228
   2        1PX        -0.04332   0.01847  -0.09561   0.12009  -0.04552
   3        1PY         0.03260  -0.08489   0.15680  -0.01724  -0.29296
   4        1PZ        -0.00294  -0.11196   0.03028   0.16247  -0.20912
   5 2   C  1S          0.01319   0.05747   0.13632  -0.17274  -0.12348
   6        1PX         0.01961   0.08276   0.05442  -0.15501   0.17901
   7        1PY         0.00969  -0.06969  -0.07627   0.10045   0.01177
   8        1PZ        -0.00059   0.12847  -0.06247  -0.12600   0.25646
   9 3   C  1S         -0.08783   0.02631  -0.17164   0.04431   0.10681
  10        1PX        -0.01520   0.07277  -0.21435   0.07620   0.16233
  11        1PY         0.05411  -0.02793  -0.04606   0.07963   0.15053
  12        1PZ         0.04755  -0.09071   0.04172   0.09170   0.03708
  13 4   C  1S         -0.02032  -0.08111  -0.13721   0.16703  -0.08008
  14        1PX         0.01338  -0.09702   0.01579   0.13320   0.00173
  15        1PY         0.01551  -0.16556   0.01948   0.06926   0.02152
  16        1PZ        -0.06792   0.15551  -0.10663   0.00221   0.03423
  17 5   C  1S         -0.03838  -0.05200  -0.12818   0.20055   0.17646
  18        1PX         0.11382   0.01881   0.12591  -0.07602  -0.12141
  19        1PY         0.05712   0.08083   0.04572  -0.15387   0.08488
  20        1PZ         0.01476   0.10019  -0.07770  -0.10759   0.08944
  21 6   C  1S          0.02247   0.02394  -0.04146   0.04533  -0.01054
  22        1PX        -0.02511  -0.06751   0.13345  -0.04099   0.00962
  23        1PY         0.05026   0.02736   0.11550  -0.10645   0.17510
  24        1PZ         0.04448  -0.14196   0.09810   0.11048  -0.08918
  25 7   C  1S         -0.20890   0.01572   0.18358  -0.00480  -0.20159
  26        1PX         0.21773  -0.00614   0.07396  -0.06212  -0.19564
  27        1PY        -0.03103   0.04895  -0.33678   0.23318  -0.09324
  28        1PZ        -0.08972  -0.07630   0.15351   0.17064   0.10788
  29 8   C  1S          0.08150   0.03715   0.01400  -0.27370  -0.02420
  30        1PX         0.04461  -0.16802   0.27353   0.03911   0.41997
  31        1PY        -0.14289   0.04888  -0.11206  -0.04543  -0.04818
  32        1PZ        -0.06857   0.04509  -0.20401  -0.12237  -0.20178
  33 9   H  1S         -0.02695   0.12536  -0.16596  -0.05002   0.27685
  34 10  H  1S         -0.01945  -0.16823  -0.09618   0.27911  -0.14751
  35 11  H  1S          0.10706  -0.10678   0.25871  -0.02420  -0.11295
  36 12  H  1S         -0.02973   0.25364   0.03160  -0.17855   0.05152
  37 13  H  1S          0.07254   0.13699   0.08516  -0.27860  -0.02645
  38 14  H  1S         -0.02082  -0.15253   0.11061   0.03484  -0.08140
  39 15  C  1S         -0.00407  -0.40569   0.01630  -0.07970   0.21613
  40        1PX         0.15897   0.21103   0.34557   0.42606   0.24900
  41        1PY        -0.36538   0.19604   0.06286   0.04564  -0.06877
  42        1PZ         0.45007   0.11927  -0.08806  -0.00858  -0.14405
  43 16  H  1S          0.44405   0.41688   0.11088   0.26156  -0.06708
  44 17  H  1S         -0.40544   0.42039   0.16982   0.19506  -0.06539
  45 18  H  1S          0.18606   0.04744  -0.28502  -0.07932   0.04221
  46 19  H  1S          0.20754  -0.01944  -0.21074   0.13335   0.01178
                          41        42        43        44        45
                           V         V         V         V         V
     Eigenvalues --     0.19720   0.20405   0.20951   0.21232   0.21607
   1 1   C  1S          0.16376   0.15296   0.18254  -0.02544  -0.21843
   2        1PX        -0.08033   0.12182   0.04410  -0.35819  -0.08655
   3        1PY         0.01951  -0.08862  -0.21200   0.19325   0.32589
   4        1PZ        -0.07128  -0.00016  -0.09391  -0.30910  -0.01713
   5 2   C  1S          0.08971  -0.08199  -0.21292   0.10858   0.08986
   6        1PX        -0.02633   0.10114   0.10549   0.08674  -0.27436
   7        1PY        -0.20615  -0.18498  -0.12626   0.37128   0.37214
   8        1PZ        -0.05598   0.05200   0.11951   0.24523  -0.02318
   9 3   C  1S         -0.10980  -0.01374  -0.18746   0.22282  -0.11310
  10        1PX         0.28893  -0.11803   0.18337  -0.10872   0.42086
  11        1PY        -0.16169   0.04054   0.29585   0.11941   0.15642
  12        1PZ        -0.21582  -0.00685   0.14494   0.12039   0.11883
  13 4   C  1S         -0.07679   0.13371   0.14754  -0.14579  -0.03663
  14        1PX        -0.02666  -0.31183  -0.23201  -0.22546  -0.03430
  15        1PY         0.23182  -0.19025   0.08031   0.08927  -0.17624
  16        1PZ        -0.20976   0.02739  -0.15154  -0.24735   0.07246
  17 5   C  1S          0.11860   0.02609   0.10295  -0.04049   0.21018
  18        1PX        -0.01640  -0.02740   0.42889  -0.09796   0.32517
  19        1PY         0.26832  -0.12637   0.06247  -0.20230   0.16536
  20        1PZ         0.25297  -0.04174  -0.02244  -0.12527   0.02471
  21 6   C  1S         -0.05978  -0.30940  -0.03168  -0.06117  -0.07801
  22        1PX         0.23226  -0.16345  -0.22604   0.05353  -0.01691
  23        1PY        -0.12508  -0.01417  -0.27657  -0.16286   0.11056
  24        1PZ         0.22647  -0.15861   0.07799   0.17163  -0.09533
  25 7   C  1S          0.01522   0.29443   0.06386   0.06091   0.13331
  26        1PX        -0.27454  -0.18936   0.13557   0.05175  -0.08848
  27        1PY         0.12760   0.16289  -0.14030   0.13734  -0.09555
  28        1PZ        -0.00147   0.07649  -0.14675   0.03142  -0.01020
  29 8   C  1S         -0.13369  -0.08387  -0.04898  -0.09285   0.05199
  30        1PX        -0.08520  -0.01051  -0.04219  -0.13272   0.04873
  31        1PY         0.12135   0.42544  -0.20316   0.01158   0.14078
  32        1PZ        -0.03909  -0.12279   0.16563   0.01659  -0.04935
  33 9   H  1S         -0.06541  -0.06914   0.03209   0.11052  -0.01207
  34 10  H  1S         -0.03595  -0.04546   0.00507  -0.18275   0.12369
  35 11  H  1S         -0.21880   0.08542   0.12464  -0.00554  -0.09391
  36 12  H  1S         -0.16843   0.09253  -0.14804  -0.01486   0.14675
  37 13  H  1S          0.19247  -0.10195  -0.01953  -0.13819  -0.01106
  38 14  H  1S          0.29474   0.04373   0.02752   0.17956  -0.03174
  39 15  C  1S         -0.01750   0.05268  -0.03212  -0.04329   0.02196
  40        1PX         0.05907   0.01806  -0.02143   0.00468  -0.01942
  41        1PY        -0.04581  -0.22571   0.09126   0.01159  -0.06072
  42        1PZ         0.05121   0.13731  -0.07665   0.03196   0.02751
  43 16  H  1S          0.07405   0.09086  -0.04556   0.03701   0.00399
  44 17  H  1S         -0.02372  -0.20289   0.09502   0.02214  -0.05644
  45 18  H  1S          0.02916  -0.16972   0.02608  -0.03341  -0.07213
  46 19  H  1S         -0.07140  -0.14466  -0.06826   0.05338  -0.14227
                          46
                           V
     Eigenvalues --     0.21711
   1 1   C  1S         -0.02126
   2        1PX         0.01722
   3        1PY        -0.27693
   4        1PZ        -0.02435
   5 2   C  1S         -0.16607
   6        1PX         0.10249
   7        1PY        -0.02129
   8        1PZ         0.07772
   9 3   C  1S         -0.03675
  10        1PX         0.01011
  11        1PY         0.19410
  12        1PZ         0.12601
  13 4   C  1S         -0.19858
  14        1PX         0.36652
  15        1PY         0.22320
  16        1PZ         0.11086
  17 5   C  1S          0.03510
  18        1PX         0.19882
  19        1PY        -0.08412
  20        1PZ        -0.08964
  21 6   C  1S          0.16552
  22        1PX         0.43447
  23        1PY         0.19467
  24        1PZ         0.01881
  25 7   C  1S          0.24021
  26        1PX         0.02869
  27        1PY         0.04421
  28        1PZ         0.00223
  29 8   C  1S          0.06822
  30        1PX        -0.21945
  31        1PY         0.21909
  32        1PZ        -0.03091
  33 9   H  1S          0.15531
  34 10  H  1S          0.01071
  35 11  H  1S          0.09746
  36 12  H  1S         -0.02628
  37 13  H  1S         -0.09028
  38 14  H  1S          0.04474
  39 15  C  1S         -0.08508
  40        1PX        -0.12939
  41        1PY        -0.03134
  42        1PZ         0.12934
  43 16  H  1S          0.05473
  44 17  H  1S         -0.03783
  45 18  H  1S         -0.12060
  46 19  H  1S         -0.09342
     Density Matrix:
                           1         2         3         4         5
   1 1   C  1S          1.21551
   2        1PX         0.00920   0.96664
   3        1PY         0.04924   0.03552   0.96222
   4        1PZ         0.03609  -0.02377   0.01727   0.97833
   5 2   C  1S          0.31438   0.20458  -0.45050   0.02703   1.21492
   6        1PX        -0.23388   0.40864   0.48545  -0.38690   0.04138
   7        1PY         0.43403   0.44918  -0.38082  -0.11176  -0.01687
   8        1PZ        -0.05035  -0.39603  -0.08891   0.46656   0.04241
   9 3   C  1S         -0.01405  -0.01602   0.02882   0.01032   0.26647
  10        1PX         0.00102  -0.01570   0.00532   0.01741   0.05361
  11        1PY        -0.02685  -0.01375   0.03377  -0.01457   0.37122
  12        1PZ        -0.01675  -0.00971   0.04763  -0.00472   0.27914
  13 4   C  1S          0.26644  -0.31937   0.09876  -0.32747  -0.01441
  14        1PX         0.30412  -0.19667   0.11288  -0.40616  -0.01852
  15        1PY        -0.14000   0.13985   0.07211   0.18649   0.01397
  16        1PZ         0.32622  -0.42922   0.11904  -0.18645  -0.02151
  17 5   C  1S         -0.00276   0.03344   0.01428  -0.02957  -0.01410
  18        1PX         0.00605   0.06013   0.00979  -0.04534  -0.02692
  19        1PY        -0.02825  -0.05569   0.01896   0.04159  -0.01334
  20        1PZ         0.03702   0.12182  -0.00426  -0.09249  -0.01959
  21 6   C  1S         -0.01436   0.02226  -0.00160   0.02246  -0.00279
  22        1PX        -0.02586   0.02775  -0.00987   0.05194  -0.02073
  23        1PY        -0.01441   0.01558  -0.01376   0.00965   0.02835
  24        1PZ        -0.01975  -0.00719  -0.02043   0.00323   0.03160
  25 7   C  1S          0.00084  -0.00297  -0.00213  -0.00106  -0.01218
  26        1PX         0.00191  -0.00654  -0.00801   0.00831  -0.01535
  27        1PY         0.00365  -0.00563  -0.00168  -0.00462   0.00536
  28        1PZ        -0.00439  -0.00268   0.00550  -0.00053   0.00563
  29 8   C  1S         -0.00957   0.02225  -0.00380   0.00261   0.00243
  30        1PX        -0.00493   0.01858  -0.00425  -0.00030   0.00339
  31        1PY        -0.01687   0.00962  -0.00390   0.01608   0.00177
  32        1PZ         0.00734  -0.00211  -0.00322  -0.01206   0.00111
  33 9   H  1S          0.54895   0.21761   0.58854   0.49723  -0.05068
  34 10  H  1S         -0.05073  -0.01942   0.06082  -0.00277   0.54915
  35 11  H  1S          0.03339  -0.05210  -0.07053   0.06404  -0.04436
  36 12  H  1S         -0.04487   0.06244  -0.00504   0.03486   0.03290
  37 13  H  1S         -0.00248  -0.01991   0.00055   0.01178   0.05637
  38 14  H  1S          0.05690  -0.05893   0.01474  -0.06354  -0.00185
  39 15  C  1S          0.00279  -0.00104   0.00155   0.00097  -0.00702
  40        1PX         0.00385  -0.00531   0.00087   0.00228  -0.00781
  41        1PY         0.00373   0.00598   0.00529  -0.00812  -0.00837
  42        1PZ         0.00360   0.00572   0.00611  -0.00886  -0.00623
  43 16  H  1S         -0.00102   0.00235  -0.00111  -0.00054   0.00272
  44 17  H  1S         -0.00267   0.00097  -0.00116   0.00158   0.00342
  45 18  H  1S         -0.00829  -0.02532   0.00195   0.02151   0.00580
  46 19  H  1S          0.00020   0.00803  -0.00171  -0.00265   0.00239
                           6         7         8         9        10
   6        1PX         1.00259
   7        1PY         0.01580   0.92570
   8        1PZ        -0.00666  -0.02389   0.98885
   9 3   C  1S         -0.09384  -0.35723  -0.28737   1.21537
  10        1PX         0.11058  -0.06756  -0.07299   0.05277   0.96728
  11        1PY        -0.10094  -0.34069  -0.42400  -0.01812  -0.03087
  12        1PZ        -0.13447  -0.39588  -0.08059  -0.02090  -0.01738
  13 4   C  1S          0.01131  -0.02933   0.01654  -0.01266  -0.00144
  14        1PX         0.00772  -0.03172   0.00412  -0.01213  -0.00440
  15        1PY        -0.01028   0.00519   0.02000   0.00649   0.00379
  16        1PZ         0.03670  -0.03950  -0.00022  -0.00998   0.00266
  17 5   C  1S          0.01259   0.02365   0.01776   0.31294  -0.44390
  18        1PX         0.00256   0.03726   0.03750   0.43060  -0.42365
  19        1PY         0.00166   0.01458   0.03252   0.23373  -0.38350
  20        1PZ        -0.01795   0.01082  -0.00565   0.09351  -0.02389
  21 6   C  1S          0.03422   0.01391  -0.02971   0.00238  -0.00520
  22        1PX         0.00944  -0.02113   0.01248   0.00314   0.00201
  23        1PY         0.05870   0.07030  -0.07961  -0.00423   0.00291
  24        1PZ         0.06606   0.07261  -0.08502  -0.00004  -0.00892
  25 7   C  1S          0.00959   0.01720   0.00364  -0.01386   0.02744
  26        1PX         0.00546   0.01778   0.01246  -0.03466   0.04979
  27        1PY        -0.00023   0.00028  -0.00376  -0.00228  -0.00815
  28        1PZ        -0.00561  -0.00920  -0.00722   0.00461  -0.02887
  29 8   C  1S         -0.00390   0.00149  -0.00352  -0.00521   0.01235
  30        1PX        -0.00736  -0.00094  -0.00257  -0.00529   0.01296
  31        1PY        -0.00553   0.00373   0.00564   0.00163  -0.00934
  32        1PZ         0.00341  -0.00037  -0.00948  -0.00598   0.00236
  33 9   H  1S          0.03558  -0.05256   0.00817   0.05608   0.00654
  34 10  H  1S          0.56405  -0.10895   0.55764  -0.04529  -0.00143
  35 11  H  1S          0.03056   0.05656   0.02953   0.54748   0.65859
  36 12  H  1S         -0.09224   0.00896   0.05794   0.00492  -0.00063
  37 13  H  1S         -0.02128  -0.06636  -0.05372  -0.05153   0.06005
  38 14  H  1S         -0.01175  -0.01291   0.01106  -0.00330   0.00189
  39 15  C  1S         -0.00835  -0.01061   0.01536   0.00047   0.00308
  40        1PX        -0.00683  -0.00942   0.01505   0.00007   0.00175
  41        1PY        -0.01716  -0.01973   0.02382   0.00574  -0.00167
  42        1PZ        -0.01367  -0.01576   0.01852   0.00432  -0.00073
  43 16  H  1S          0.00363   0.00330  -0.00719  -0.00130   0.00092
  44 17  H  1S          0.00408   0.00700  -0.00672  -0.00098  -0.00009
  45 18  H  1S         -0.00589  -0.00811   0.00852  -0.00366  -0.01382
  46 19  H  1S         -0.00832  -0.00126   0.00545   0.04752  -0.05336
                          11        12        13        14        15
  11        1PY         0.96384
  12        1PZ        -0.03048   0.98523
  13 4   C  1S         -0.01508  -0.00774   1.21426
  14        1PX        -0.02035  -0.00334   0.02426   0.93232
  15        1PY         0.00924   0.00507   0.04797  -0.01122   0.99849
  16        1PZ        -0.00990  -0.01089  -0.03107  -0.03277   0.00329
  17 5   C  1S         -0.20299  -0.06848   0.00280  -0.00470  -0.00161
  18        1PX        -0.33947  -0.01068  -0.00243   0.00897  -0.00203
  19        1PY         0.28426  -0.43099   0.00577   0.00148  -0.00326
  20        1PZ        -0.44156   0.63889  -0.00123  -0.00696  -0.00420
  21 6   C  1S          0.00460  -0.00189   0.31680  -0.43231  -0.23983
  22        1PX         0.00533   0.00790   0.44176  -0.28844  -0.51952
  23        1PY        -0.00525   0.00635   0.20111  -0.47398   0.29023
  24        1PZ         0.00250  -0.01070   0.09249  -0.34712   0.26464
  25 7   C  1S          0.01489  -0.01292  -0.00432  -0.00986   0.01989
  26        1PX         0.02945   0.00809  -0.00226   0.01274  -0.00698
  27        1PY        -0.00629   0.01191  -0.00574  -0.01640   0.03243
  28        1PZ         0.01860  -0.03606  -0.00629   0.01726  -0.01344
  29 8   C  1S         -0.03152   0.04413  -0.01206   0.02060   0.02272
  30        1PX        -0.02535   0.03413  -0.01855   0.01261   0.00913
  31        1PY         0.04021  -0.04917  -0.02047   0.03368   0.01955
  32        1PZ         0.00194   0.00116   0.02065  -0.04944  -0.02502
  33 9   H  1S          0.07035   0.05177  -0.04470  -0.05213   0.03569
  34 10  H  1S         -0.06788  -0.02404   0.05622   0.05511  -0.02927
  35 11  H  1S         -0.30785  -0.33890   0.00528   0.00120  -0.00202
  36 12  H  1S          0.00371  -0.00480   0.54879   0.18908   0.64662
  37 13  H  1S          0.02582   0.00217  -0.00337  -0.00175   0.00302
  38 14  H  1S         -0.00857   0.00432  -0.05045   0.04835   0.03869
  39 15  C  1S          0.00088   0.00129   0.00277   0.03554  -0.05603
  40        1PX         0.01074  -0.00929   0.01258   0.02579  -0.06538
  41        1PY        -0.01546   0.01302  -0.03359   0.09106  -0.04163
  42        1PZ        -0.01755   0.01702  -0.04461   0.08459  -0.01643
  43 16  H  1S         -0.00350   0.00413   0.00917  -0.02387   0.00819
  44 17  H  1S          0.00267  -0.00310  -0.00633  -0.01240   0.03464
  45 18  H  1S          0.07821  -0.10548  -0.00416   0.02009  -0.00694
  46 19  H  1S         -0.02516  -0.00067   0.00232   0.00170  -0.00552
                          16        17        18        19        20
  16        1PZ         0.97719
  17 5   C  1S          0.00589   1.22077
  18        1PX         0.00041  -0.01778   0.92301
  19        1PY         0.00610  -0.04693  -0.00672   1.00338
  20        1PZ        -0.00422  -0.03221   0.00693  -0.01212   1.00143
  21 6   C  1S         -0.06640  -0.01217   0.02175  -0.01127   0.00247
  22        1PX        -0.32854   0.00556  -0.01067   0.00804  -0.00274
  23        1PY         0.28290   0.02372  -0.01076  -0.00346   0.03535
  24        1PZ         0.49801  -0.00251   0.02673  -0.02147   0.02696
  25 7   C  1S          0.01954   0.24165  -0.36768   0.13947   0.17890
  26        1PX        -0.01012   0.43087  -0.50004   0.20671   0.29194
  27        1PY         0.02848  -0.06691   0.10186   0.08915  -0.07703
  28        1PZ        -0.01723  -0.20996   0.30635  -0.13870   0.00901
  29 8   C  1S          0.00239  -0.00712   0.01678  -0.01512  -0.00704
  30        1PX         0.01672  -0.02112   0.02372  -0.00004  -0.02672
  31        1PY         0.01098   0.00900  -0.02201   0.00433   0.01699
  32        1PZ         0.00842  -0.00868   0.02384  -0.01748  -0.01487
  33 9   H  1S         -0.03364  -0.00264  -0.00979   0.00970  -0.01660
  34 10  H  1S          0.06154   0.03241   0.02535   0.07984  -0.06991
  35 11  H  1S         -0.00225  -0.04964  -0.05179  -0.03615  -0.01360
  36 12  H  1S         -0.43208  -0.00900  -0.00305   0.00306  -0.01667
  37 13  H  1S         -0.00271   0.54943  -0.03102  -0.64895  -0.47481
  38 14  H  1S          0.01062   0.00331  -0.00319   0.00694  -0.00845
  39 15  C  1S         -0.06367   0.02421  -0.04014   0.02294   0.00740
  40        1PX        -0.07038   0.04011  -0.05899   0.02547   0.02034
  41        1PY        -0.08012  -0.01789   0.00528   0.00817  -0.02440
  42        1PZ        -0.05099  -0.01766   0.01052   0.00230  -0.02466
  43 16  H  1S          0.01866  -0.01309   0.02178  -0.01061  -0.00744
  44 17  H  1S          0.03606   0.00140   0.00133  -0.00160   0.00385
  45 18  H  1S         -0.01397  -0.00693   0.02662  -0.02370   0.02377
  46 19  H  1S         -0.00066  -0.02807   0.02028  -0.01824  -0.02456
                          21        22        23        24        25
  21 6   C  1S          1.21602
  22        1PX        -0.03868   0.95629
  23        1PY         0.01358  -0.04274   0.96056
  24        1PZ        -0.04561   0.00873   0.01700   0.98972
  25 7   C  1S         -0.01573   0.00485   0.02493  -0.01611   1.14600
  26        1PX         0.00646  -0.00220  -0.02555   0.00653  -0.01411
  27        1PY        -0.03593   0.02595   0.03800  -0.04370  -0.04193
  28        1PZ         0.01253  -0.00992  -0.00556   0.00310   0.01356
  29 8   C  1S          0.26414  -0.14752  -0.36191   0.24310   0.27917
  30        1PX         0.17324   0.01534  -0.21654   0.18002   0.23118
  31        1PY         0.35319  -0.20217  -0.33741   0.34837  -0.36971
  32        1PZ        -0.24670   0.12468   0.38136   0.00347   0.06113
  33 9   H  1S          0.03320   0.08204  -0.04192  -0.05763  -0.00565
  34 10  H  1S         -0.00155   0.00197  -0.01733  -0.01269   0.00422
  35 11  H  1S         -0.00866   0.00151  -0.00691  -0.01511   0.05099
  36 12  H  1S         -0.05212  -0.05810  -0.01722  -0.01357  -0.00104
  37 13  H  1S          0.00284   0.00361  -0.00856  -0.00665  -0.04810
  38 14  H  1S          0.54589  -0.49137   0.30785  -0.55371   0.03318
  39 15  C  1S         -0.02596   0.00917   0.02501  -0.01434  -0.02596
  40        1PX        -0.02631  -0.00231   0.04944  -0.01903  -0.03834
  41        1PY         0.00552  -0.02904   0.01401   0.01020   0.02996
  42        1PZ         0.02793  -0.00788  -0.01766  -0.00744   0.01587
  43 16  H  1S         -0.01259   0.00568   0.01709   0.00865   0.03928
  44 17  H  1S          0.04993  -0.02040  -0.05822   0.02678  -0.01508
  45 18  H  1S          0.03608  -0.01994  -0.05889   0.00336   0.45791
  46 19  H  1S          0.03108  -0.01413  -0.02468   0.04852   0.48471
                          26        27        28        29        30
  26        1PX         0.96265
  27        1PY         0.04253   0.96797
  28        1PZ         0.01993  -0.01378   1.02703
  29 8   C  1S         -0.18102   0.48151  -0.05909   1.21428
  30        1PX         0.01282   0.38258  -0.00868  -0.04423   1.02045
  31        1PY         0.25489  -0.46287   0.10224  -0.01630   0.01721
  32        1PZ        -0.00085   0.12666   0.20611  -0.02406   0.02983
  33 9   H  1S         -0.00211  -0.00531   0.00586   0.00160   0.00082
  34 10  H  1S          0.00228   0.00022   0.00363  -0.00965  -0.00819
  35 11  H  1S          0.08407  -0.00817  -0.03791   0.00004  -0.00110
  36 12  H  1S          0.00683  -0.00482   0.00314   0.05365   0.03516
  37 13  H  1S         -0.06165   0.00567   0.03829   0.03503   0.03486
  38 14  H  1S         -0.01083   0.05745   0.00439  -0.04731  -0.03549
  39 15  C  1S          0.01119  -0.01860  -0.02708   0.24141  -0.28010
  40        1PX         0.00780  -0.05547  -0.00344   0.44961  -0.47127
  41        1PY        -0.01026  -0.00152  -0.05512  -0.08116   0.34168
  42        1PZ        -0.02449   0.01168  -0.05314  -0.20241   0.50852
  43 16  H  1S         -0.00818   0.05863   0.01936  -0.04030   0.00537
  44 17  H  1S          0.00272  -0.01918   0.01078  -0.03810   0.02823
  45 18  H  1S          0.08416  -0.18031   0.82289  -0.00227   0.00314
  46 19  H  1S         -0.55585  -0.55389  -0.30602  -0.02567  -0.03602
                          31        32        33        34        35
  31        1PY         0.92387
  32        1PZ        -0.01947   0.88394
  33 9   H  1S          0.00175   0.00033   0.87155
  34 10  H  1S          0.00343  -0.00060  -0.03575   0.87261
  35 11  H  1S          0.00380  -0.00442  -0.02287  -0.00470   0.87344
  36 12  H  1S          0.06641  -0.05153  -0.00352  -0.02261   0.01321
  37 13  H  1S         -0.03085   0.02643   0.01344  -0.02214  -0.03552
  38 14  H  1S         -0.06211   0.01090  -0.02362   0.01199   0.00263
  39 15  C  1S          0.13587   0.35187   0.01088   0.00329   0.00831
  40        1PX         0.14424   0.41572   0.01226   0.00523   0.01168
  41        1PY         0.28657   0.41435   0.01151   0.00383   0.00057
  42        1PZ         0.14887   0.43132   0.00612   0.00233  -0.00062
  43 16  H  1S         -0.04812  -0.14753  -0.00206  -0.00238  -0.00441
  44 17  H  1S         -0.04431  -0.08825  -0.00664  -0.00168  -0.00059
  45 18  H  1S          0.03499   0.07153   0.00724   0.01835   0.00126
  46 19  H  1S         -0.00097  -0.05426  -0.00058   0.00149  -0.02370
                          36        37        38        39        40
  36 12  H  1S          0.87173
  37 13  H  1S          0.00329   0.87788
  38 14  H  1S         -0.03790   0.00454   0.87147
  39 15  C  1S         -0.00387  -0.01246   0.02277   1.32897
  40        1PX        -0.01149  -0.01853   0.01352  -0.04476   0.90593
  41        1PY         0.01517  -0.00264   0.07066   0.10682   0.01077
  42        1PZ         0.02068  -0.00055   0.06469   0.10071   0.03943
  43 16  H  1S         -0.00623   0.01268  -0.00197   0.55129  -0.52509
  44 17  H  1S          0.01215  -0.00141  -0.00901   0.51547  -0.25738
  45 18  H  1S          0.01431   0.03857  -0.00190  -0.05003  -0.03987
  46 19  H  1S          0.00428  -0.03572  -0.01988   0.03149   0.00899
                          41        42        43        44        45
  41        1PY         1.04230
  42        1PZ         0.01447   0.96823
  43 16  H  1S          0.36758  -0.47449   0.87718
  44 17  H  1S         -0.64828   0.45653  -0.09725   0.92155
  45 18  H  1S         -0.10019  -0.09602   0.03403   0.02957   0.88716
  46 19  H  1S          0.11326   0.11055  -0.02120   0.00035  -0.02129
                          46
  46 19  H  1S          0.90387
    Full Mulliken population analysis:
                           1         2         3         4         5
   1 1   C  1S          1.21551
   2        1PX         0.00000   0.96664
   3        1PY         0.00000   0.00000   0.96222
   4        1PZ         0.00000   0.00000   0.00000   0.97833
   5 2   C  1S          0.00000   0.00000   0.00000   0.00000   1.21492
   6        1PX         0.00000   0.00000   0.00000   0.00000   0.00000
   7        1PY         0.00000   0.00000   0.00000   0.00000   0.00000
   8        1PZ         0.00000   0.00000   0.00000   0.00000   0.00000
   9 3   C  1S          0.00000   0.00000   0.00000   0.00000   0.00000
  10        1PX         0.00000   0.00000   0.00000   0.00000   0.00000
  11        1PY         0.00000   0.00000   0.00000   0.00000   0.00000
  12        1PZ         0.00000   0.00000   0.00000   0.00000   0.00000
  13 4   C  1S          0.00000   0.00000   0.00000   0.00000   0.00000
  14        1PX         0.00000   0.00000   0.00000   0.00000   0.00000
  15        1PY         0.00000   0.00000   0.00000   0.00000   0.00000
  16        1PZ         0.00000   0.00000   0.00000   0.00000   0.00000
  17 5   C  1S          0.00000   0.00000   0.00000   0.00000   0.00000
  18        1PX         0.00000   0.00000   0.00000   0.00000   0.00000
  19        1PY         0.00000   0.00000   0.00000   0.00000   0.00000
  20        1PZ         0.00000   0.00000   0.00000   0.00000   0.00000
  21 6   C  1S          0.00000   0.00000   0.00000   0.00000   0.00000
  22        1PX         0.00000   0.00000   0.00000   0.00000   0.00000
  23        1PY         0.00000   0.00000   0.00000   0.00000   0.00000
  24        1PZ         0.00000   0.00000   0.00000   0.00000   0.00000
  25 7   C  1S          0.00000   0.00000   0.00000   0.00000   0.00000
  26        1PX         0.00000   0.00000   0.00000   0.00000   0.00000
  27        1PY         0.00000   0.00000   0.00000   0.00000   0.00000
  28        1PZ         0.00000   0.00000   0.00000   0.00000   0.00000
  29 8   C  1S          0.00000   0.00000   0.00000   0.00000   0.00000
  30        1PX         0.00000   0.00000   0.00000   0.00000   0.00000
  31        1PY         0.00000   0.00000   0.00000   0.00000   0.00000
  32        1PZ         0.00000   0.00000   0.00000   0.00000   0.00000
  33 9   H  1S          0.00000   0.00000   0.00000   0.00000   0.00000
  34 10  H  1S          0.00000   0.00000   0.00000   0.00000   0.00000
  35 11  H  1S          0.00000   0.00000   0.00000   0.00000   0.00000
  36 12  H  1S          0.00000   0.00000   0.00000   0.00000   0.00000
  37 13  H  1S          0.00000   0.00000   0.00000   0.00000   0.00000
  38 14  H  1S          0.00000   0.00000   0.00000   0.00000   0.00000
  39 15  C  1S          0.00000   0.00000   0.00000   0.00000   0.00000
  40        1PX         0.00000   0.00000   0.00000   0.00000   0.00000
  41        1PY         0.00000   0.00000   0.00000   0.00000   0.00000
  42        1PZ         0.00000   0.00000   0.00000   0.00000   0.00000
  43 16  H  1S          0.00000   0.00000   0.00000   0.00000   0.00000
  44 17  H  1S          0.00000   0.00000   0.00000   0.00000   0.00000
  45 18  H  1S          0.00000   0.00000   0.00000   0.00000   0.00000
  46 19  H  1S          0.00000   0.00000   0.00000   0.00000   0.00000
                           6         7         8         9        10
   6        1PX         1.00259
   7        1PY         0.00000   0.92570
   8        1PZ         0.00000   0.00000   0.98885
   9 3   C  1S          0.00000   0.00000   0.00000   1.21537
  10        1PX         0.00000   0.00000   0.00000   0.00000   0.96728
  11        1PY         0.00000   0.00000   0.00000   0.00000   0.00000
  12        1PZ         0.00000   0.00000   0.00000   0.00000   0.00000
  13 4   C  1S          0.00000   0.00000   0.00000   0.00000   0.00000
  14        1PX         0.00000   0.00000   0.00000   0.00000   0.00000
  15        1PY         0.00000   0.00000   0.00000   0.00000   0.00000
  16        1PZ         0.00000   0.00000   0.00000   0.00000   0.00000
  17 5   C  1S          0.00000   0.00000   0.00000   0.00000   0.00000
  18        1PX         0.00000   0.00000   0.00000   0.00000   0.00000
  19        1PY         0.00000   0.00000   0.00000   0.00000   0.00000
  20        1PZ         0.00000   0.00000   0.00000   0.00000   0.00000
  21 6   C  1S          0.00000   0.00000   0.00000   0.00000   0.00000
  22        1PX         0.00000   0.00000   0.00000   0.00000   0.00000
  23        1PY         0.00000   0.00000   0.00000   0.00000   0.00000
  24        1PZ         0.00000   0.00000   0.00000   0.00000   0.00000
  25 7   C  1S          0.00000   0.00000   0.00000   0.00000   0.00000
  26        1PX         0.00000   0.00000   0.00000   0.00000   0.00000
  27        1PY         0.00000   0.00000   0.00000   0.00000   0.00000
  28        1PZ         0.00000   0.00000   0.00000   0.00000   0.00000
  29 8   C  1S          0.00000   0.00000   0.00000   0.00000   0.00000
  30        1PX         0.00000   0.00000   0.00000   0.00000   0.00000
  31        1PY         0.00000   0.00000   0.00000   0.00000   0.00000
  32        1PZ         0.00000   0.00000   0.00000   0.00000   0.00000
  33 9   H  1S          0.00000   0.00000   0.00000   0.00000   0.00000
  34 10  H  1S          0.00000   0.00000   0.00000   0.00000   0.00000
  35 11  H  1S          0.00000   0.00000   0.00000   0.00000   0.00000
  36 12  H  1S          0.00000   0.00000   0.00000   0.00000   0.00000
  37 13  H  1S          0.00000   0.00000   0.00000   0.00000   0.00000
  38 14  H  1S          0.00000   0.00000   0.00000   0.00000   0.00000
  39 15  C  1S          0.00000   0.00000   0.00000   0.00000   0.00000
  40        1PX         0.00000   0.00000   0.00000   0.00000   0.00000
  41        1PY         0.00000   0.00000   0.00000   0.00000   0.00000
  42        1PZ         0.00000   0.00000   0.00000   0.00000   0.00000
  43 16  H  1S          0.00000   0.00000   0.00000   0.00000   0.00000
  44 17  H  1S          0.00000   0.00000   0.00000   0.00000   0.00000
  45 18  H  1S          0.00000   0.00000   0.00000   0.00000   0.00000
  46 19  H  1S          0.00000   0.00000   0.00000   0.00000   0.00000
                          11        12        13        14        15
  11        1PY         0.96384
  12        1PZ         0.00000   0.98523
  13 4   C  1S          0.00000   0.00000   1.21426
  14        1PX         0.00000   0.00000   0.00000   0.93232
  15        1PY         0.00000   0.00000   0.00000   0.00000   0.99849
  16        1PZ         0.00000   0.00000   0.00000   0.00000   0.00000
  17 5   C  1S          0.00000   0.00000   0.00000   0.00000   0.00000
  18        1PX         0.00000   0.00000   0.00000   0.00000   0.00000
  19        1PY         0.00000   0.00000   0.00000   0.00000   0.00000
  20        1PZ         0.00000   0.00000   0.00000   0.00000   0.00000
  21 6   C  1S          0.00000   0.00000   0.00000   0.00000   0.00000
  22        1PX         0.00000   0.00000   0.00000   0.00000   0.00000
  23        1PY         0.00000   0.00000   0.00000   0.00000   0.00000
[...]
 92234,0.03736683,-0.01898452,-0.01416833,-0.00014248,-0.00070135,-0.00
 110826,0.15720537,0.57187560,0.11544589,-0.04255484,-0.14163718,0.0070
 3326,-0.01228651,0.00343139,-0.00052398,0.00033029,-0.00302027,-0.2492
 6975,0.08930144,0.29020904,-0.00527718,0.00378408,-0.00176066,-0.02415
 333,-0.04141040,0.01666256,-0.52677635,-0.21116915,-0.04208669,0.00250
 702,0.00001068,-0.00113774,0.87870066,-0.00042583,-0.00100962,0.000328
 21,-0.04202172,-0.02946879,0.01138349,-0.22473200,-0.17486433,-0.01058
 723,-0.00079475,-0.00091526,0.00020336,0.22017648,0.53151249,0.0015282
 2,-0.00084697,-0.00095325,0.01872686,0.01867879,0.00226097,-0.03506287
 ,-0.00914649,-0.06674515,-0.00041166,-0.00004423,0.00098888,0.13943059
 ,-0.18759849,0.37097349,-0.04962468,-0.00511699,0.01965180,0.00076466,
 -0.00478242,-0.00007950,0.00000014,0.00106646,-0.00068189,-0.50037718,
 -0.20571832,0.09565147,-0.00012860,0.00020577,0.00021442,0.84540705,-0
 .00189836,0.01422677,0.00286169,0.00149762,-0.00551843,-0.00031244,0.0
 0189342,0.00156360,-0.00118836,-0.19566234,-0.17045392,0.03458812,-0.0
 0122439,-0.00054848,0.00036107,0.25076840,0.66766189,0.02622802,0.0015
 1744,-0.00372460,-0.00037653,0.00322059,-0.00062468,-0.00054723,-0.000
 66209,0.00090599,0.09492548,0.03899084,-0.08101497,0.00059105,-0.00059
 001,-0.00034832,-0.17672186,0.11904051,0.26536877,-0.00023005,-0.00111
 427,-0.00046271,-0.00220523,0.00093388,0.00034441,-0.05380951,0.002166
 39,-0.02895374,-0.00003242,-0.00059444,-0.00043328,-0.18397848,0.05969
 943,-0.10357107,0.00694177,0.00103172,0.00024264,0.60785702,-0.0016633
 2,-0.00102592,-0.00038508,-0.00031456,-0.00264076,-0.00174140,-0.00587
 516,0.01084670,-0.00456731,0.00023783,-0.00052342,-0.00017101,0.054402
 52,-0.09578274,0.04763822,0.01289176,-0.03746746,-0.02200110,-0.023265
 27,0.56147170,0.00015063,0.00052151,0.00155697,0.00087654,-0.00207392,
 -0.00219583,-0.02108159,0.00037091,-0.00329066,0.00067407,-0.00002049,
 -0.00072544,-0.10797032,0.05170948,-0.15796465,0.00455463,-0.01844644,
 -0.00302189,0.01563207,0.00707009,0.54209638,0.00206861,-0.00103496,-0
 .00205182,-0.00108569,0.00158371,0.00055892,-0.00127021,0.00055327,-0.
 00056915,-0.02863615,-0.04099281,-0.00341777,-0.03854642,0.03246155,0.
 00027351,-0.09172841,-0.07676986,-0.02640314,-0.13645632,0.08718548,0.
 06448361,0.90996932,0.00297818,-0.00216787,0.00013052,0.00005944,0.001
 92832,-0.00065695,-0.00105636,-0.00084163,-0.00030882,-0.03234218,-0.0
 2526882,-0.00015907,0.03129288,-0.01803296,0.00287216,-0.08205384,-0.2
 9554481,-0.06187767,0.08493302,-0.16387927,-0.07212240,0.11903954,0.65
 965583,-0.00135556,0.00073757,-0.00272968,0.00012312,0.00118112,0.0003
 9166,-0.00170477,0.00009245,-0.00091423,0.00006965,0.00325306,0.006054
 77,-0.00556598,0.00849574,0.01141462,-0.02770721,-0.06337680,-0.090182
 68,0.05948567,-0.06920618,-0.11851529,-0.19412047,0.15038167,0.3027559
 5,-0.07818590,-0.07784424,0.05949914,0.00679686,0.01120092,-0.00519197
 ,0.00166203,0.00281894,0.00416019,-0.02151334,-0.01286962,0.02575886,0
 .00015772,0.00059861,-0.00062531,-0.00052959,0.00201484,0.00139387,-0.
 00018276,0.00004622,0.00014119,-0.00005176,-0.00004249,0.00024914,0.09
 344297,-0.07343014,-0.16713533,0.10426502,-0.00436466,-0.03557749,0.02
 121418,0.00340721,-0.00099828,0.00250938,-0.00206839,0.00596745,0.0019
 7516,0.00025605,0.00041869,-0.00017301,0.00171519,0.00002796,-0.000318
 63,-0.00006467,-0.00000725,-0.00002429,-0.00014001,-0.00026675,0.00001
 368,0.07423910,0.19924627,0.05953641,0.10424707,-0.13005517,0.00037535
 ,0.01388415,-0.00046136,0.00326348,0.00217374,0.00620292,0.01844303,0.
 01011612,-0.00946606,0.00039458,0.00060985,-0.00070262,0.00168341,-0.0
 0016232,-0.00081966,-0.00009445,0.00004524,0.00029521,-0.00027599,-0.0
 0016922,-0.00005651,-0.08301737,-0.12839091,0.13748402,-0.02212805,0.0
 1417685,0.01110230,-0.23724826,0.02841153,0.10756206,-0.01340036,-0.00
 950619,0.01619708,0.00186692,0.00305087,0.00308614,0.00126776,0.000128
 48,0.00075467,0.00052352,-0.00006176,-0.00030023,-0.00015683,0.0001861
 6,0.00015741,-0.00005635,-0.00019388,-0.00011486,-0.00093981,-0.000057
 59,-0.00168063,0.27069728,0.03061573,-0.01118938,-0.01135212,0.0231929
 1,-0.03752086,-0.01430521,-0.02062577,-0.00289533,0.01685295,0.0024538
 2,-0.00105299,0.00341714,0.00044658,-0.00171447,0.00135536,0.00029511,
 -0.00015829,-0.00038580,-0.00001545,0.00027241,0.00035349,-0.00002004,
 -0.00019711,-0.00003317,0.00010489,-0.00130611,-0.00123050,-0.03619666
 ,0.05630838,0.00540225,-0.00472231,0.00468228,0.10860984,-0.01327748,-
 0.10432474,0.02050903,0.00680864,-0.00743534,0.00326100,0.00329317,0.0
 0609856,0.00122618,0.00150097,-0.00108421,0.00069542,0.00002964,-0.000
 60551,-0.00019760,0.00001006,-0.00006785,-0.00001269,-0.00013262,0.000
 18647,-0.00204782,-0.00090667,-0.00196315,-0.13677339,0.00613617,0.104
 39838,0.00002965,-0.00163699,0.00037254,0.00594769,0.00232431,-0.00202
 589,-0.17260617,0.07246536,-0.10954609,-0.00029239,0.00008356,0.000158
 05,-0.03471543,0.00557849,-0.02150311,0.00006515,0.00010396,-0.0000595
 9,-0.00123153,-0.00332538,-0.00171844,0.00032447,-0.00024398,0.0002334
 1,-0.00003550,-0.00026931,-0.00025642,0.00013460,-0.00018694,0.0001408
 0,0.20368548,-0.00184143,-0.00041914,0.00160784,0.01288903,-0.01874976
 ,0.02471291,0.07712688,-0.07615892,0.05981906,0.00046846,0.00021125,0.
 00006314,-0.00974549,0.00706398,-0.00494077,-0.00005604,-0.00027340,0.
 00009221,-0.00282400,0.00240564,0.00380032,-0.00066611,0.00022127,-0.0
 0084510,-0.00032147,-0.00065085,-0.00078132,-0.00011933,-0.00016720,0.
 00040231,-0.07542368,0.08747985,0.00001364,0.00159572,-0.00099703,-0.0
 1143068,0.01732697,-0.01065068,-0.10998148,0.06013748,-0.13604711,0.00
 035444,-0.00009013,-0.00021798,-0.01193131,0.00079457,0.00043280,-0.00
 004807,-0.00023070,0.00009688,-0.00189380,0.00380897,0.00507676,-0.000
 85968,0.00050836,-0.00062297,0.00005515,0.00039332,0.00028530,0.000159
 97,0.00045121,-0.00012804,0.13388840,-0.08263259,0.14366096,-0.0038203
 6,0.02368111,0.01409427,-0.00169200,-0.00048524,0.00155304,0.00027331,
 0.00008086,0.00009579,-0.03746446,-0.02608106,-0.01089023,-0.00014860,
 0.00010905,-0.00001564,-0.01213838,-0.03274458,-0.00523661,-0.00010626
 ,0.00011373,-0.00006186,-0.00122090,-0.00163921,0.00388780,-0.00032647
 ,0.00046121,0.00091469,-0.00057938,0.00000293,-0.00086053,0.00004196,-
 0.00000349,-0.00001887,0.05953445,0.01164693,-0.02001910,-0.01514006,0
 .00005401,0.00111418,-0.00116467,-0.00026059,-0.00022888,-0.00001105,-
 0.03062006,-0.26312184,-0.07496774,0.00011407,-0.00004765,0.00001791,-
 0.01688710,-0.02420552,-0.00536226,0.00003257,0.00003727,0.00009570,-0
 .00214318,0.00103903,-0.00229716,0.00026988,0.00027540,-0.00018063,0.0
 0027441,0.00003851,0.00036323,-0.00000449,0.00003001,0.00001602,0.0377
 8566,0.30556196,0.00636606,-0.01912402,-0.00198613,0.00191153,-0.00141
 858,-0.00050495,0.00018706,0.00041195,-0.00025429,-0.00947213,-0.07580
 967,-0.06945973,-0.00022031,0.00009017,0.00012459,-0.00062287,-0.00006
 561,0.00697982,0.00000740,-0.00000060,-0.00025480,0.00374704,-0.002467
 40,0.00693318,0.00074035,-0.00063443,-0.00057515,0.00029981,-0.0001717
 9,0.00030772,0.00002391,-0.00004722,-0.00001509,-0.00180749,0.09692612
 ,0.06197432,-0.00015155,-0.00017398,0.00047086,-0.00156905,-0.00265090
 ,-0.00302984,-0.01457460,-0.02972118,0.01398468,-0.00014504,-0.0000043
 1,-0.00014059,-0.05164935,-0.04783641,0.03467223,0.00002551,-0.0000139
 2,0.00003875,0.00188808,0.01585732,-0.01540571,0.00009129,-0.00037351,
 -0.00046520,0.00024554,0.00006137,0.00023928,0.00008406,0.00001637,0.0
 0017033,-0.00082368,0.00019822,0.00091644,0.00001294,0.00000083,-0.000
 00575,0.06857783,0.00016014,0.00063383,-0.00053735,-0.00312593,0.00279
 866,0.00411482,-0.01458754,-0.01632841,0.01074034,0.00016009,-0.000066
 33,-0.00001358,-0.05004524,-0.21811050,0.11686507,-0.00001561,0.000017
 41,0.00000445,0.00294804,-0.01097266,0.01683237,-0.00014936,0.00023666
 ,-0.00018614,-0.00024802,-0.00005678,-0.00020087,-0.00025402,-0.000690
 73,0.00038850,0.00022419,-0.00096904,-0.00171241,-0.00000813,-0.000015
 15,0.00000132,0.06375290,0.24316056,0.00009736,0.00044811,-0.00064625,
 -0.00278628,0.00370262,0.00547433,0.00382861,0.00449960,0.00378035,0.0
 0005054,0.00004746,0.00022185,0.03616681,0.11822662,-0.12041015,0.0000
 5069,0.00000329,-0.00000287,-0.00627284,0.02124967,-0.01140828,-0.0003
 2284,0.00004549,-0.00101846,-0.00024258,-0.00005809,-0.00033433,-0.000
 31838,-0.00087601,0.00037791,0.00074286,-0.00172642,-0.00149336,0.0000
 1559,-0.00001026,-0.00001424,-0.02959361,-0.14666700,0.12669830,-0.001
 03978,-0.00275271,0.00314750,0.00035814,-0.00039676,-0.00001975,0.0001
 6986,0.00017498,-0.00013164,-0.03543727,0.01059871,0.02066755,-0.00022
 564,0.00001386,-0.00011958,-0.14868469,0.09653006,0.08233459,-0.000148
 10,-0.00127905,0.00005836,0.00667893,-0.00156213,0.00009160,-0.0006798
 7,0.00023356,0.00035127,-0.00006392,-0.00005397,-0.00007788,-0.0000089
 1,0.00000131,-0.00001829,-0.00199831,-0.00016283,-0.00086886,-0.000013
 40,0.00003591,0.00000960,0.18214255,-0.00203361,0.00061627,-0.00285408
 ,-0.00048701,0.00021127,0.00025397,-0.00013942,-0.00030184,0.00014670,
 -0.00508435,0.00679355,0.00244190,0.00001772,0.00018220,0.00000365,0.0
 9850306,-0.11917769,-0.07113848,-0.00199366,-0.00201600,-0.00078050,0.
 01247358,-0.03098486,-0.02125086,0.00012759,0.00002545,0.00001503,0.00
 015284,0.00020298,0.00016123,0.00001643,0.00004477,-0.00000545,-0.0006
 9148,-0.00023989,0.00185584,0.00002887,-0.00005428,0.00000377,-0.09902
 492,0.14851958,0.00244407,-0.00213529,0.00738151,0.00064852,-0.0008753
 6,-0.00025697,0.00050544,0.00054663,-0.00002638,0.01620600,-0.00282003
 ,-0.00190940,-0.00050862,-0.00001034,-0.00038666,0.08204367,-0.0711128
 1,-0.10483223,0.00025040,-0.00115478,0.00077927,0.00607778,-0.01511384
 ,-0.00028293,-0.00078597,0.00016493,0.00015899,-0.00017325,-0.00027413
 ,-0.00039146,0.00001323,-0.00003985,-0.00004991,-0.00122756,0.00151312
 ,-0.00284864,-0.00000359,0.00002008,0.00003041,-0.10473528,0.09199872,
 0.10281203,-0.00141888,0.00087916,0.00064094,0.00008564,-0.00081653,-0
 .00005839,-0.00005616,0.00035119,-0.00023385,0.00543085,0.00082388,-0.
 00182822,-0.00077688,0.00073780,0.00148155,-0.04567364,-0.04586914,0.0
 0025929,-0.05026954,0.01252085,0.02395179,-0.56199997,-0.11662570,0.12
 265937,0.00014393,0.00011359,0.00011329,0.00004548,0.00000182,0.000027
 11,0.00005993,-0.00012970,-0.00004959,-0.00018589,-0.00000224,-0.00016
 483,-0.00012026,0.00001500,-0.00003216,-0.00033687,-0.00116871,-0.0006
 3256,0.88039026,0.00001939,0.00036780,-0.00009582,-0.00021807,-0.00051
 308,0.00020107,0.00045562,0.00005748,0.00026307,0.00056901,-0.00350796
 ,-0.00185964,0.00074246,-0.00056345,-0.00116170,-0.05037355,-0.0296860
 8,0.00232206,0.02349483,0.00347582,-0.00970704,-0.12208646,-0.10233973
 ,0.02434640,-0.00004765,0.00004381,0.00005199,0.00008267,0.00009007,-0
 .00003954,-0.00001364,0.00014190,0.00001550,-0.00063065,-0.00017519,0.
 00026442,0.00002424,-0.00005140,0.00009624,-0.00198142,-0.00289505,-0.
 00048891,0.13556040,0.55115577,0.00044948,-0.00012084,-0.00010849,-0.0
 0007167,-0.00001920,0.00010663,0.00020624,-0.00012887,0.00026818,-0.00
 133189,-0.00199265,0.00035475,0.00009017,-0.00027890,-0.00105646,-0.00
 245471,0.00057171,0.00839919,0.02918512,-0.00613229,-0.00445844,0.1202
 6197,0.02262732,-0.09251360,-0.00010152,-0.00001887,-0.00003642,0.0000
 0518,0.00002117,-0.00003126,-0.00000396,0.00010283,0.00000814,-0.00024
 967,-0.00002890,0.00006491,0.00019381,-0.00002079,-0.00003088,-0.00081
 779,-0.00071120,-0.00027636,-0.19989562,0.12820689,0.25062318,0.000072
 03,-0.00009867,0.00001640,0.00006441,0.00021818,-0.00012414,-0.0001396
 8,-0.00014958,0.00003455,-0.00014842,0.00022747,0.00014646,0.00043555,
 -0.00024018,-0.00001744,-0.00149315,0.00008156,-0.00078695,-0.00173424
 ,-0.00206929,0.00272958,-0.03169007,0.01797085,0.02004830,0.00001185,-
 0.00002067,-0.00000947,-0.00004017,-0.00002386,-0.00000688,-0.00002367
 ,0.00002745,0.00003600,0.00007832,-0.00009631,0.00005854,-0.00002321,0
 .00004193,0.00002001,-0.00076093,-0.00115391,-0.00015395,-0.14186490,0
 .10651351,0.07826415,0.17099832,-0.00011834,0.00009290,0.00001344,-0.0
 0000878,-0.00018007,0.00009120,0.00008254,0.00020706,-0.00013971,0.000
 12198,-0.00009535,-0.00010743,-0.00056170,0.00049214,0.00047757,-0.000
 55567,-0.00015112,0.00179040,-0.00165165,0.00078008,-0.00281050,-0.000
 54700,0.00650945,0.00063844,0.00001674,0.00001946,0.00000166,0.0000303
 9,0.00000415,0.00002071,0.00003913,-0.00008175,-0.00005364,-0.00006256
 ,0.00009226,-0.00009980,-0.00002788,-0.00004348,-0.00004691,-0.0003724
 0,-0.00060886,-0.00025827,0.11013588,-0.15330106,-0.08373226,-0.118196
 38,0.16860383,0.00033387,-0.00017226,-0.00015721,-0.00009464,0.0002638
 3,-0.00022322,-0.00017303,-0.00034901,0.00027459,-0.00027145,-0.000157
 20,0.00019518,0.00126846,-0.00082529,-0.00061540,-0.00079994,0.0019978
 6,-0.00288897,0.00225196,-0.00233387,0.00686408,0.01245064,-0.00627915
 ,-0.00121094,-0.00002927,0.00001045,-0.00001045,0.00001093,0.00000397,
 -0.00004603,-0.00003903,0.00012287,0.00011819,0.00010512,-0.00006274,0
 .00030079,-0.00001281,0.00001369,0.00006721,0.00021015,-0.00000168,0.0
 0019921,0.07982424,-0.08250410,-0.10331223,-0.09971315,0.10097931,0.09
 806152,0.00005112,0.00002911,0.00002718,0.00000601,-0.00004540,0.00006
 488,0.00007980,0.00002470,0.00000536,-0.00004287,-0.00068521,-0.000287
 36,-0.00021148,0.00003944,-0.00002241,-0.00211396,-0.00113554,0.003403
 32,-0.00138504,-0.00000204,-0.00078752,-0.02210934,-0.03263578,-0.0038
 4077,-0.00000737,-0.00001212,0.00000657,-0.00000456,0.00001050,-0.0000
 0645,-0.00000363,0.00001121,-0.00002970,-0.00024094,0.00001657,-0.0001
 9855,-0.00000892,0.00000631,0.00000629,-0.00005824,0.00013187,0.000031
 25,-0.08214612,-0.09506433,-0.02560678,0.00666239,0.01143675,0.0053466
 1,0.10235948,0.00001579,-0.00007499,0.00000308,0.00005145,0.00014579,-
 0.00005055,-0.00005503,-0.00016311,0.00009159,-0.00018880,0.00004951,0
 .00005981,0.00035524,-0.00022690,-0.00023956,-0.00146949,0.00116085,-0
 .00288541,0.00046894,0.00017716,0.00141935,-0.01414535,-0.00976193,-0.
 00189833,-0.00001521,-0.00001539,-0.00000501,-0.00004473,-0.00001198,-
 0.00000293,-0.00001836,0.00005095,0.00002528,0.00013198,-0.00017270,0.
 00028926,0.00005589,0.00006016,0.00001907,0.00009971,0.00005960,0.0000
 4264,-0.09896391,-0.26014718,-0.05662194,-0.00344421,-0.02214698,-0.01
 150134,0.11735736,0.29105420,-0.00009607,0.00005249,0.00013979,0.00003
 328,-0.00012959,0.00009206,0.00005960,0.00016304,-0.00014439,0.0000402
 0,0.00020164,0.00008446,-0.00046858,0.00016103,0.00018260,0.00321936,-
 0.00309940,0.00683724,-0.00030258,0.00163222,-0.00272433,0.00407228,0.
 00463018,0.00680825,0.00002259,-0.00002311,0.00000461,0.00000699,0.000
 00408,0.00001741,-0.00000219,-0.00003707,-0.00003688,-0.00027671,0.000
 26136,-0.00074368,-0.00004880,0.00001252,0.00001871,0.00000087,0.00005
 478,-0.00010587,-0.02730958,-0.05792211,-0.05648955,-0.00080863,-0.016
 59700,0.00190724,0.02115465,0.07124100,0.04457232,0.00000723,-0.000799
 56,0.00016146,-0.00177495,0.00009255,-0.00084550,-0.00114832,0.0001935
 2,-0.00137395,0.00009487,-0.00012828,-0.00003590,0.00633064,0.01037970
 ,-0.01802900,0.00013623,0.00012425,-0.00009721,-0.07547424,-0.04392212
 ,0.07531333,-0.01283524,0.00034601,0.02260558,-0.00001985,-0.00005545,
 0.00001035,-0.00003061,-0.00003431,-0.00007538,0.00000613,0.00021107,0
 .00036504,-0.00003033,-0.00000175,0.00003735,-0.00184757,0.00106404,-0
 .00100421,-0.00004520,-0.00010017,-0.00006378,-0.00034511,0.00113715,0
 .00064393,-0.00045571,0.00024259,-0.00063509,0.00015232,-0.00009478,0.
 00031242,0.09528839,0.00025830,-0.00050085,0.00054864,-0.00100750,0.00
 067399,-0.00062143,-0.00050347,-0.00028214,0.00018343,0.00012036,-0.00
 027758,-0.00024500,0.00333282,-0.00535633,0.01667394,0.00009191,-0.000
 48379,-0.00048628,-0.04376079,-0.08511145,0.08186008,0.00929194,0.0077
 3106,-0.01401314,-0.00002715,-0.00001307,-0.00003394,-0.00006594,-0.00
 003897,-0.00002377,-0.00001961,-0.00013763,-0.00005151,-0.00001951,0.0
 0003324,-0.00002163,0.00054809,0.00009366,0.00071221,0.00002383,0.0000
 3455,0.00004437,0.00129264,-0.00139333,-0.00080494,0.00054959,-0.00014
 413,0.00070267,-0.00013729,0.00000674,-0.00022076,0.04632264,0.1006761
 0,-0.00064628,-0.00067193,-0.00039286,-0.00129489,-0.00076372,-0.00047
 258,-0.00055624,0.00025625,-0.00061346,-0.00001778,-0.00014378,-0.0001
 4030,-0.00306758,0.01837623,-0.02653470,0.00008971,-0.00036985,-0.0001
 2294,0.07418111,0.08225258,-0.18727541,0.01942737,-0.00102715,-0.02049
 674,0.00003696,0.00001948,0.00004873,0.00003173,0.00002524,0.00001894,
 0.00005620,0.00023303,0.00021438,-0.00000404,0.00001242,-0.00000538,-0
 .00135193,0.00033957,-0.00078623,0.00004136,0.00009971,0.00007348,0.00
 021054,-0.00095163,-0.00064274,0.00035908,-0.00014757,0.00040996,-0.00
 009295,0.00005677,-0.00011970,-0.08879531,-0.09965609,0.23235530,-0.00
 015525,-0.00003246,-0.00004759,0.00008885,-0.00023869,-0.00013184,-0.0
 0104529,0.00125258,-0.00180076,-0.00007173,-0.00006033,0.00001757,-0.0
 2281127,-0.01407791,-0.01770376,-0.00137159,0.00133455,0.00111217,-0.1
 0928592,-0.10172569,-0.04169809,0.00855403,0.01214857,0.00542130,0.000
 01106,-0.00000434,0.00000237,0.00002846,0.00001626,0.00001663,-0.00055
 431,0.00019712,0.00047244,0.00001112,-0.00001637,-0.00001829,0.0000011
 9,0.00002526,-0.00041554,0.00015152,0.00042527,0.00006414,-0.00096186,
 0.00181642,0.00123355,0.00005122,-0.00000351,-0.00003385,-0.00097873,-
 0.00009643,0.00039096,-0.00800878,-0.01629078,0.00139303,0.13634723,-0
 .00002077,0.00000809,-0.00007475,-0.00017625,-0.00010875,0.00007375,0.
 00126799,-0.00059275,0.00071552,0.00009511,0.00008038,-0.00001546,-0.0
 0077507,0.00697209,-0.00079259,0.00149118,-0.00098936,-0.00127086,-0.1
 0042447,-0.18003949,-0.05804791,-0.00389401,-0.02803565,-0.01603332,-0
 .00002184,0.00000271,0.00000981,0.00000584,0.00002684,-0.00000934,0.00
 030697,-0.00004200,-0.00029704,-0.00000049,0.00000387,0.00002202,0.000
 25797,0.00035770,0.00033056,-0.00012552,-0.00041197,-0.00004659,0.0011
 4361,-0.00075909,-0.00091818,-0.00013736,-0.00004858,0.00009193,0.0006
 5374,-0.00004391,-0.00038534,-0.01497705,-0.01551009,0.00206054,0.1153
 3051,0.21912986,0.00012801,0.00006936,0.00012708,0.00017854,0.00012824
 ,-0.00007221,-0.00158228,0.00094522,-0.00135599,0.00011601,0.00007299,
 -0.00004705,-0.02111268,-0.01198932,-0.00957636,0.00126126,-0.00108889
 ,-0.00039879,-0.03939837,-0.05601360,-0.06476586,-0.00331964,-0.020881
 07,-0.00600102,-0.00001556,-0.00001754,0.00000109,-0.00001341,0.000007
 97,-0.00001004,-0.00047474,0.00009404,0.00036587,-0.00001709,0.0000196
 7,-0.00002350,-0.00062851,0.00000545,-0.00052415,-0.00012373,-0.000293
 08,-0.00006810,0.00103697,-0.00103737,-0.00086804,-0.00009258,-0.00001
 965,0.00006613,0.00082635,-0.00004293,-0.00030032,0.01150589,0.0154531
 9,0.00448222,0.05172553,0.07458730,0.07896892\\-0.00000135,-0.00000081
 ,0.00000219,0.00000267,-0.00000956,0.00000114,-0.00000737,0.00000399,-
 0.00000502,-0.00000106,-0.00000067,-0.00000074,0.00000839,-0.00000014,
 0.00000589,-0.00000301,-0.00000132,0.00000251,0.00000003,-0.00000079,-
 0.00001272,0.00000624,0.00000528,0.00000128,0.00000175,0.00000124,-0.0
 0000084,-0.00000104,0.00000009,0.00000026,0.00000009,0.00000008,-0.000
 00100,-0.00000105,0.00000182,0.00000020,0.00000034,0.00000193,-0.00000
 020,-0.00000019,0.00000039,-0.00000025,-0.00000592,-0.00000135,0.00000
 213,-0.00000012,0.00000074,0.00000011,0.00000044,-0.00000074,-0.000000
 84,0.00000001,-0.00000071,0.00000359,0.00000114,0.00000055,0.00000231\
 \\@


 When cryptography is outlawed, bayl bhgynjf jvyy unir cevinpl.
 Job cpu time:       0 days  0 hours  0 minutes  0.6 seconds.
 Elapsed time:       0 days  0 hours  0 minutes  0.6 seconds.
 File lengths (MBytes):  RWF=     20 Int=      0 D2E=      0 Chk=      2 Scr=      1
 Normal termination of Gaussian 16 at Thu Jun 12 23:37:27 2025.
