 Entering Gaussian System, Link 0=g16
 Input=/home/gaussian/Summer_Internship/Acid_Base_adduct/Base/2,6-dimeth-pyridine/26DMP_opt.com
 Output=/home/gaussian/Summer_Internship/Acid_Base_adduct/Base/2,6-dimeth-pyridine/26DMP_opt.log
 Initial command:
 /usr/local/g16/l1.exe "/home/gaussian/tmp/Gau-23805.inp" -scrdir="/home/gaussian/tmp/"
 Entering Link 1 = /usr/local/g16/l1.exe PID=     23808.
  
 Copyright (c) 1988-2017, Gaussian, Inc.  All Rights Reserved.
  
 This is part of the Gaussian(R) 16 program.  It is based on
 the Gaussian(R) 09 system (copyright 2009, Gaussian, Inc.),
 the Gaussian(R) 03 system (copyright 2003, Gaussian, Inc.),
 the Gaussian(R) 98 system (copyright 1998, Gaussian, Inc.),
 the Gaussian(R) 94 system (copyright 1995, Gaussian, Inc.),
 the Gaussian 92(TM) system (copyright 1992, Gaussian, Inc.),
 the Gaussian 90(TM) system (copyright 1990, Gaussian, Inc.),
 the Gaussian 88(TM) system (copyright 1988, Gaussian, Inc.),
 the Gaussian 86(TM) system (copyright 1986, Carnegie Mellon
 University), and the Gaussian 82(TM) system (copyright 1983,
 Carnegie Mellon University). Gaussian is a federally registered
 trademark of Gaussian, Inc.
  
 This software contains proprietary and confidential information,
 including trade secrets, belonging to Gaussian, Inc.
  
 This software is provided under written license and may be
 used, copied, transmitted, or stored only in accord with that
 written license.
  
 The following legend is applicable only to US Government
 contracts under FAR:
  
                    RESTRICTED RIGHTS LEGEND
  
 Use, reproduction and disclosure by the US Government is
 subject to restrictions as set forth in subparagraphs (a)
 and (c) of the Commercial Computer Software - Restricted
 Rights clause in FAR 52.227-19.
  
 Gaussian, Inc.
 340 Quinnipiac St., Bldg. 40, Wallingford CT 06492
  
  
 ---------------------------------------------------------------
 Warning -- This program may not be used in any manner that
 competes with the business of Gaussian, Inc. or will provide
 assistance to any competitor of Gaussian, Inc.  The licensee
 of this program is prohibited from giving any competitor of
 Gaussian, Inc. access to this program.  By using this program,
 the user acknowledges that Gaussian, Inc. is engaged in the
 business of creating and licensing software in the field of
 computational chemistry and represents and warrants to the
 licensee that it is not a competitor of Gaussian, Inc. and that
 it will not use this program in any manner prohibited above.
 ---------------------------------------------------------------
  

 Cite this work as:
 Gaussian 16, Revision B.01,
 M. J. Frisch, G. W. Trucks, H. B. Schlegel, G. E. Scuseria, 
 M. A. Robb, J. R. Cheeseman, G. Scalmani, V. Barone, 
 G. A. Petersson, H. Nakatsuji, X. Li, M. Caricato, A. V. Marenich, 
 J. Bloino, B. G. Janesko, R. Gomperts, B. Mennucci, H. P. Hratchian, 
 J. V. Ortiz, A. F. Izmaylov, J. L. Sonnenberg, D. Williams-Young, 
 F. Ding, F. Lipparini, F. Egidi, J. Goings, B. Peng, A. Petrone, 
 T. Henderson, D. Ranasinghe, V. G. Zakrzewski, J. Gao, N. Rega, 
 G. Zheng, W. Liang, M. Hada, M. Ehara, K. Toyota, R. Fukuda, 
 J. Hasegawa, M. Ishida, T. Nakajima, Y. Honda, O. Kitao, H. Nakai, 
 T. Vreven, K. Throssell, J. A. Montgomery, Jr., J. E. Peralta, 
 F. Ogliaro, M. J. Bearpark, J. J. Heyd, E. N. Brothers, K. N. Kudin, 
 V. N. Staroverov, T. A. Keith, R. Kobayashi, J. Normand, 
 K. Raghavachari, A. P. Rendell, J. C. Burant, S. S. Iyengar, 
 J. Tomasi, M. Cossi, J. M. Millam, M. Klene, C. Adamo, R. Cammi, 
 J. W. Ochterski, R. L. Martin, K. Morokuma, O. Farkas, 
 J. B. Foresman, and D. J. Fox, Gaussian, Inc., Wallingford CT, 2016.
 
 ******************************************
 Gaussian 16:  EM64L-G16RevB.01 20-Dec-2017
                10-Jul-2025 
 ******************************************
 %chk=26DMP_opt.chk
 ----------------------------------------------
 # opt freq hf/3-21g pop=full geom=connectivity
 ----------------------------------------------
 1/18=20,19=15,38=1,57=2/1,3;
 2/9=110,12=2,17=6,18=5,40=1/2;
 3/5=5,11=9,25=1,30=1,71=1/1,2,3;
 4//1;
 5/5=2,38=5/2;
 6/7=3,28=1/1;
 7//1,2,3,16;
 1/18=20,19=15/3(2);
 2/9=110/2;
 99//99;
 2/9=110/2;
 3/5=5,11=9,25=1,30=1,71=1/1,2,3;
 4/5=5,16=3,69=1/1;
 5/5=2,38=5/2;
 7//1,2,3,16;
 1/18=20,19=15/3(-5);
 2/9=110/2;
 6/7=3,19=2,28=1/1;
 99/9=1/99;
 -------------------
 Title Card Required
 -------------------
 Symbolic Z-matrix:
 Charge =  0 Multiplicity = 1
 C                    -3.10093   0.36674   0.01432 
 C                    -1.70242   0.38858  -0.07521 
 C                    -1.03827   1.61516  -0.12065 
 C                    -1.79039   2.78986  -0.07535 
 C                    -3.18674   2.70933   0.01419 
 N                    -3.79892   1.51404   0.05623 
 H                     0.02883   1.65424  -0.18903 
 H                    -1.1491   -0.52664  -0.10841 
 H                    -1.30551   3.74311  -0.10867 
 C                    -4.02532   4.        0.06474 
 H                    -4.15512   4.30134   1.0832 
 H                    -3.5211    4.7743   -0.47481 
 H                    -4.98238   3.82113  -0.37903 
 C                    -3.84283  -0.98182   0.06504 
 H                    -4.746    -0.87108   0.62799 
 H                    -4.07907  -1.29657  -0.92996 
 H                    -3.21889  -1.7148    0.53231 
 

 GradGradGradGradGradGradGradGradGradGradGradGradGradGradGradGradGradGrad
 Berny optimization.
 Initialization pass.
                           ----------------------------
                           !    Initial Parameters    !
                           ! (Angstroms and Degrees)  !
 --------------------------                            --------------------------
 ! Name  Definition              Value          Derivative Info.                !
 --------------------------------------------------------------------------------
 ! R1    R(1,2)                  1.4015         estimate D2E/DX2                !
 ! R2    R(1,6)                  1.3436         estimate D2E/DX2                !
 ! R3    R(1,14)                 1.54           estimate D2E/DX2                !
 ! R4    R(2,3)                  1.3956         estimate D2E/DX2                !
 ! R5    R(2,8)                  1.07           estimate D2E/DX2                !
 ! R6    R(3,4)                  1.3956         estimate D2E/DX2                !
 ! R7    R(3,7)                  1.07           estimate D2E/DX2                !
 ! R8    R(4,5)                  1.4015         estimate D2E/DX2                !
 ! R9    R(4,9)                  1.07           estimate D2E/DX2                !
 ! R10   R(5,6)                  1.3436         estimate D2E/DX2                !
 ! R11   R(5,10)                 1.54           estimate D2E/DX2                !
 ! R12   R(10,11)                1.07           estimate D2E/DX2                !
 ! R13   R(10,12)                1.07           estimate D2E/DX2                !
 ! R14   R(10,13)                1.07           estimate D2E/DX2                !
 ! R15   R(14,15)                1.07           estimate D2E/DX2                !
 ! R16   R(14,16)                1.07           estimate D2E/DX2                !
 ! R17   R(14,17)                1.07           estimate D2E/DX2                !
 ! A1    A(2,1,6)              120.468          estimate D2E/DX2                !
 ! A2    A(2,1,14)             119.766          estimate D2E/DX2                !
 ! A3    A(6,1,14)             119.766          estimate D2E/DX2                !
 ! A4    A(1,2,3)              119.383          estimate D2E/DX2                !
 ! A5    A(1,2,8)              120.3085         estimate D2E/DX2                !
 ! A6    A(3,2,8)              120.3085         estimate D2E/DX2                !
 ! A7    A(2,3,4)              118.8332         estimate D2E/DX2                !
 ! A8    A(2,3,7)              120.5834         estimate D2E/DX2                !
 ! A9    A(4,3,7)              120.5834         estimate D2E/DX2                !
 ! A10   A(3,4,5)              119.383          estimate D2E/DX2                !
 ! A11   A(3,4,9)              120.3085         estimate D2E/DX2                !
 ! A12   A(5,4,9)              120.3085         estimate D2E/DX2                !
 ! A13   A(4,5,6)              120.468          estimate D2E/DX2                !
 ! A14   A(4,5,10)             119.766          estimate D2E/DX2                !
 ! A15   A(6,5,10)             119.766          estimate D2E/DX2                !
 ! A16   A(1,6,5)              121.4649         estimate D2E/DX2                !
 ! A17   A(5,10,11)            109.4712         estimate D2E/DX2                !
 ! A18   A(5,10,12)            109.4712         estimate D2E/DX2                !
 ! A19   A(5,10,13)            109.4712         estimate D2E/DX2                !
 ! A20   A(11,10,12)           109.4712         estimate D2E/DX2                !
 ! A21   A(11,10,13)           109.4712         estimate D2E/DX2                !
 ! A22   A(12,10,13)           109.4712         estimate D2E/DX2                !
 ! A23   A(1,14,15)            109.4712         estimate D2E/DX2                !
 ! A24   A(1,14,16)            109.4712         estimate D2E/DX2                !
 ! A25   A(1,14,17)            109.4712         estimate D2E/DX2                !
 ! A26   A(15,14,16)           109.4712         estimate D2E/DX2                !
 ! A27   A(15,14,17)           109.4712         estimate D2E/DX2                !
 ! A28   A(16,14,17)           109.4712         estimate D2E/DX2                !
 ! D1    D(6,1,2,3)              0.0001         estimate D2E/DX2                !
 ! D2    D(6,1,2,8)           -179.9999         estimate D2E/DX2                !
 ! D3    D(14,1,2,3)          -179.9999         estimate D2E/DX2                !
 ! D4    D(14,1,2,8)             0.0001         estimate D2E/DX2                !
 ! D5    D(2,1,6,5)             -0.0002         estimate D2E/DX2                !
 ! D6    D(14,1,6,5)           179.9998         estimate D2E/DX2                !
 ! D7    D(2,1,14,15)          150.0            estimate D2E/DX2                !
 ! D8    D(2,1,14,16)          -90.0            estimate D2E/DX2                !
 ! D9    D(2,1,14,17)           30.0            estimate D2E/DX2                !
 ! D10   D(6,1,14,15)          -30.0            estimate D2E/DX2                !
 ! D11   D(6,1,14,16)           90.0            estimate D2E/DX2                !
 ! D12   D(6,1,14,17)         -150.0            estimate D2E/DX2                !
 ! D13   D(1,2,3,4)              0.0            estimate D2E/DX2                !
 ! D14   D(1,2,3,7)           -179.9997         estimate D2E/DX2                !
 ! D15   D(8,2,3,4)           -180.0            estimate D2E/DX2                !
 ! D16   D(8,2,3,7)              0.0003         estimate D2E/DX2                !
 ! D17   D(2,3,4,5)              0.0            estimate D2E/DX2                !
 ! D18   D(2,3,4,9)            180.0            estimate D2E/DX2                !
 ! D19   D(7,3,4,5)            179.9997         estimate D2E/DX2                !
 ! D20   D(7,3,4,9)             -0.0003         estimate D2E/DX2                !
 ! D21   D(3,4,5,6)             -0.0001         estimate D2E/DX2                !
 ! D22   D(3,4,5,10)           179.9999         estimate D2E/DX2                !
 ! D23   D(9,4,5,6)            179.9999         estimate D2E/DX2                !
 ! D24   D(9,4,5,10)            -0.0001         estimate D2E/DX2                !
 ! D25   D(4,5,6,1)              0.0002         estimate D2E/DX2                !
 ! D26   D(10,5,6,1)          -179.9997         estimate D2E/DX2                !
 ! D27   D(4,5,10,11)          -90.0            estimate D2E/DX2                !
 ! D28   D(4,5,10,12)           30.0            estimate D2E/DX2                !
 ! D29   D(4,5,10,13)          150.0            estimate D2E/DX2                !
 ! D30   D(6,5,10,11)           90.0            estimate D2E/DX2                !
 ! D31   D(6,5,10,12)         -150.0            estimate D2E/DX2                !
 ! D32   D(6,5,10,13)          -30.0            estimate D2E/DX2                !
 --------------------------------------------------------------------------------
 Trust Radius=3.00D-01 FncErr=1.00D-07 GrdErr=1.00D-07 EigMax=2.50D+02 EigMin=1.00D-04
 Number of steps in this run=     87 maximum allowed number of steps=    102.
 GradGradGradGradGradGradGradGradGradGradGradGradGradGradGradGradGradGrad

                          Input orientation:                          
 ---------------------------------------------------------------------
 Center     Atomic      Atomic             Coordinates (Angstroms)
 Number     Number       Type             X           Y           Z
 ---------------------------------------------------------------------
      1          6           0       -3.100931    0.366741    0.014325
      2          6           0       -1.702423    0.388583   -0.075209
      3          6           0       -1.038268    1.615158   -0.120652
      4          6           0       -1.790386    2.789857   -0.075351
      5          6           0       -3.186744    2.709330    0.014186
      6          7           0       -3.798924    1.514041    0.056225
      7          1           0        0.028829    1.654243   -0.189026
      8          1           0       -1.149102   -0.526640   -0.108413
      9          1           0       -1.305509    3.743107   -0.108666
     10          6           0       -4.025320    4.000002    0.064742
     11          1           0       -4.155120    4.301341    1.083195
     12          1           0       -3.521102    4.774303   -0.474814
     13          1           0       -4.982384    3.821127   -0.379028
     14          6           0       -3.842828   -0.981820    0.065036
     15          1           0       -4.745998   -0.871080    0.627993
     16          1           0       -4.079067   -1.296570   -0.929963
     17          1           0       -3.218893   -1.714798    0.532313
 ---------------------------------------------------------------------
                    Distance matrix (angstroms):
                    1          2          3          4          5
     1  C    0.000000
     2  C    1.401542   0.000000
     3  C    2.414817   1.395583   0.000000
     4  C    2.756277   2.402885   1.395583   0.000000
     5  C    2.344160   2.756277   2.414817   1.401542   0.000000
     6  N    1.343595   2.383117   2.768164   2.383117   1.343595
     7  H    3.390341   2.147576   1.070000   2.147576   3.390341
     8  H    2.150077   1.070000   2.144698   3.378090   3.826031
     9  H    3.826031   3.378090   2.144698   1.070000   2.150077
    10  C    3.749349   4.296252   3.826791   2.545390   1.540000
    11  H    4.211279   4.761018   4.287143   3.036245   2.148263
    12  H    4.454482   4.764643   4.033621   2.663264   2.148263
    13  H    3.953147   4.757395   4.526489   3.368173   2.148263
    14  C    1.540000   2.545390   3.826791   4.296252   3.749349
    15  H    2.148263   3.368173   4.526489   4.757394   3.953146
    16  H    2.148263   3.036245   4.287144   4.761020   4.211281
    17  H    2.148263   2.663264   4.033620   4.764642   4.454481
                    6          7          8          9         10
     6  N    0.000000
     7  H    3.838164   0.000000
     8  H    3.348588   2.479974   0.000000
     9  H    3.348588   2.479974   4.272611   0.000000
    10  C    2.496263   4.690747   5.365920   2.737414   0.000000
    11  H    2.991753   5.111859   5.810807   3.138860   1.070000
    12  H    3.314891   4.734814   5.818989   2.471089   1.070000
    13  H    2.629195   5.462943   5.802617   3.687627   1.070000
    14  C    2.496263   4.690747   2.737414   5.365920   4.985163
    15  H    2.629195   5.462943   3.687627   5.802616   4.956215
    16  H    2.991753   5.111859   3.138859   5.810809   5.389434
    17  H    3.314891   4.734814   2.471090   5.818988   5.790327
                   11         12         13         14         15
    11  H    0.000000
    12  H    1.747303   0.000000
    13  H    1.747303   1.747303   0.000000
    14  C    5.389431   5.790329   4.956216   0.000000
    15  H    5.225924   5.881063   4.804869   1.070000   0.000000
    16  H    5.949386   6.113427   5.225929   1.070000   1.747303
    17  H    6.113422   6.573742   5.881064   1.070000   1.747303
                   16         17
    16  H    0.000000
    17  H    1.747303   0.000000
 Stoichiometry    C7H9N
 Framework group  C1[X(C7H9N)]
 Deg. of freedom    45
 Full point group                 C1      NOp   1
 Largest Abelian subgroup         C1      NOp   1
 Largest concise Abelian subgroup C1      NOp   1
                         Standard orientation:                         
 ---------------------------------------------------------------------
 Center     Atomic      Atomic             Coordinates (Angstroms)
 Number     Number       Type             X           Y           Z
 ---------------------------------------------------------------------
      1          6           0        1.172080   -0.285263   -0.000000
      2          6           0        1.201442    1.115971    0.000000
      3          6           0        0.000000    1.826033    0.000001
      4          6           0       -1.201442    1.115971    0.000000
      5          6           0       -1.172080   -0.285263   -0.000001
      6          7           0        0.000000   -0.942131   -0.000003
      7          1           0       -0.000000    2.896033   -0.000003
      8          1           0        2.136305    1.636482    0.000001
      9          1           0       -2.136305    1.636482    0.000000
     10          6           0       -2.492582   -1.077648    0.000001
     11          1           0       -2.798410   -1.261167    1.008808
     12          1           0       -3.247938   -0.512037   -0.504400
     13          1           0       -2.348888   -2.010295   -0.504402
     14          6           0        2.492582   -1.077648    0.000001
     15          1           0        2.348886   -2.010295    0.504403
     16          1           0        2.798414   -1.261165   -1.008804
     17          1           0        3.247936   -0.512038    0.504406
 ---------------------------------------------------------------------
 Rotational constants (GHZ):           3.5856149           1.8233559           1.2267611
 Standard basis: 3-21G (6D, 7F)
 There are    90 symmetry adapted cartesian basis functions of A   symmetry.
 There are    90 symmetry adapted basis functions of A   symmetry.
    90 basis functions,   147 primitive gaussians,    90 cartesian basis functions
    29 alpha electrons       29 beta electrons
       nuclear repulsion energy       343.9951240105 Hartrees.
 NAtoms=   17 NActive=   17 NUniq=   17 SFac= 1.00D+00 NAtFMM=   60 NAOKFM=F Big=F
 Integral buffers will be    131072 words long.
 Raffenetti 1 integral format.
 Two-electron integral symmetry is turned on.
 One-electron integrals computed using PRISM.
 NBasis=    90 RedAO= T EigKep=  2.91D-03  NBF=    90
 NBsUse=    90 1.00D-06 EigRej= -1.00D+00 NBFU=    90
 ExpMin= 1.83D-01 ExpMax= 2.43D+02 ExpMxC= 2.43D+02 IAcc=3 IRadAn=         5 AccDes= 0.00D+00
 Harris functional with IExCor=  205 and IRadAn=       5 diagonalized for initial guess.
 HarFok:  IExCor=  205 AccDes= 0.00D+00 IRadAn=         5 IDoV= 1 UseB2=F ITyADJ=14
 ICtDFT=  3500011 ScaDFX=  1.000000  1.000000  1.000000  1.000000
 FoFCou: FMM=F IPFlag=           0 FMFlag=      100000 FMFlg1=           0
         NFxFlg=           0 DoJE=T BraDBF=F KetDBF=T FulRan=T
         wScrn=  0.000000 ICntrl=       500 IOpCl=  0 I1Cent=   200000004 NGrid=           0
         NMat0=    1 NMatS0=      1 NMatT0=    0 NMatD0=    1 NMtDS0=    0 NMtDT0=    0
 Petite list used in FoFCou.
 Keep R1 ints in memory in canonical form, NReq=9230549.
 Requested convergence on RMS density matrix=1.00D-08 within 128 cycles.
 Requested convergence on MAX density matrix=1.00D-06.
 Requested convergence on             energy=1.00D-06.
 No special actions if energy rises.
 SCF Done:  E(RHF) =  -322.957634875     A.U. after   13 cycles
            NFock= 13  Conv=0.68D-08     -V/T= 2.0024

 **********************************************************************

            Population analysis using the SCF Density.

 **********************************************************************

 Orbital symmetries:
       Occupied  (A) (A) (A) (A) (A) (A) (A) (A) (A) (A) (A) (A)
                 (A) (A) (A) (A) (A) (A) (A) (A) (A) (A) (A) (A)
                 (A) (A) (A) (A) (A)
       Virtual   (A) (A) (A) (A) (A) (A) (A) (A) (A) (A) (A) (A)
                 (A) (A) (A) (A) (A) (A) (A) (A) (A) (A) (A) (A)
                 (A) (A) (A) (A) (A) (A) (A) (A) (A) (A) (A) (A)
                 (A) (A) (A) (A) (A) (A) (A) (A) (A) (A) (A) (A)
                 (A) (A) (A) (A) (A) (A) (A) (A) (A) (A) (A) (A)
                 (A)
 The electronic state is 1-A.
 Alpha  occ. eigenvalues --  -15.47956 -11.22744 -11.22720 -11.19616 -11.17713
 Alpha  occ. eigenvalues --  -11.17704 -11.15880 -11.15875  -1.25972  -1.07866
 Alpha  occ. eigenvalues --   -1.06645  -0.98126  -0.93538  -0.83190  -0.81500
 Alpha  occ. eigenvalues --   -0.69110  -0.66962  -0.61500  -0.59662  -0.57840
 Alpha  occ. eigenvalues --   -0.57678  -0.57021  -0.53922  -0.53538  -0.50408
 Alpha  occ. eigenvalues --   -0.49485  -0.38388  -0.37173  -0.33062
 Alpha virt. eigenvalues --    0.13548   0.14446   0.26944   0.30243   0.31096
 Alpha virt. eigenvalues --    0.32099   0.34049   0.34089   0.35696   0.36156
 Alpha virt. eigenvalues --    0.39031   0.40894   0.41906   0.43542   0.48595
 Alpha virt. eigenvalues --    0.53791   0.56736   0.57346   0.75677   0.80680
 Alpha virt. eigenvalues --    0.87942   0.92950   0.94117   0.95168   0.96140
 Alpha virt. eigenvalues --    0.98340   0.98783   1.01872   1.05732   1.08257
 Alpha virt. eigenvalues --    1.09002   1.09019   1.13038   1.15603   1.18137
 Alpha virt. eigenvalues --    1.18978   1.21309   1.22672   1.29380   1.34890
 Alpha virt. eigenvalues --    1.36234   1.36904   1.38188   1.38307   1.44597
 Alpha virt. eigenvalues --    1.45188   1.46123   1.56601   1.59346   1.66407
 Alpha virt. eigenvalues --    1.71612   1.72249   1.73838   1.85052   1.90541
 Alpha virt. eigenvalues --    2.01306   2.19152   2.25250   2.31194   2.38186
 Alpha virt. eigenvalues --    3.31246
     Molecular Orbital Coefficients:
                           1         2         3         4         5
                           O         O         O         O         O
     Eigenvalues --   -15.47956 -11.22744 -11.22720 -11.19616 -11.17713
   1 1   C  1S         -0.00015   0.69812   0.69784   0.00284   0.00184
   2        2S         -0.00030   0.07018   0.06835   0.00015  -0.00215
   3        2PX        -0.00046  -0.00119   0.00085   0.00050   0.00014
   4        2PY        -0.00067   0.00086  -0.00020  -0.00098  -0.00092
   5        2PZ         0.00001  -0.00000   0.00002  -0.00000  -0.00000
   6        3S          0.02975  -0.05196  -0.04288  -0.00964   0.01814
   7        3PX        -0.03450  -0.00196  -0.01897   0.00062  -0.00558
   8        3PY         0.00137  -0.01785  -0.00078  -0.00296   0.01138
   9        3PZ        -0.00002  -0.00026  -0.00032   0.00006   0.00005
  10 2   C  1S          0.00046  -0.00225  -0.00163  -0.01106   0.69808
  11        2S          0.00219  -0.00271  -0.00151  -0.00523   0.07045
  12        2PX        -0.00071  -0.00019  -0.00030   0.00143  -0.00161
  13        2PY         0.00039   0.00081   0.00116  -0.00019  -0.00013
  14        2PZ        -0.00003  -0.00003  -0.00002  -0.00001  -0.00001
  15        3S         -0.02081   0.02173   0.00713   0.03553  -0.05651
  16        3PX         0.02464   0.00268   0.01221  -0.02036   0.01150
  17        3PY         0.00570  -0.01788  -0.00704  -0.00048   0.00521
  18        3PZ         0.00007   0.00015   0.00012   0.00000  -0.00002
  19 3   C  1S         -0.00033  -0.00000  -0.00414   0.98718   0.00000
  20        2S         -0.00134  -0.00000  -0.00184   0.09955  -0.00000
  21        2PX        -0.00000  -0.00108   0.00000   0.00000  -0.00122
  22        2PY        -0.00050   0.00000   0.00037  -0.00141   0.00000
  23        2PZ        -0.00000   0.00001  -0.00000  -0.00000  -0.00000
  24        3S          0.03182   0.00000   0.01578  -0.08982   0.00000
  25        3PX        -0.00000   0.00815  -0.00000   0.00000   0.01477
  26        3PY        -0.01601  -0.00000  -0.00688   0.02392  -0.00000
  27        3PZ        -0.00000  -0.00008   0.00000   0.00000   0.00001
  28 4   C  1S          0.00046   0.00225  -0.00163  -0.01106  -0.69799
  29        2S          0.00219   0.00271  -0.00151  -0.00523  -0.07044
  30        2PX         0.00071  -0.00019   0.00030  -0.00143  -0.00161
  31        2PY         0.00039  -0.00081   0.00116  -0.00019   0.00013
  32        2PZ         0.00003  -0.00003   0.00002   0.00001  -0.00001
  33        3S         -0.02081  -0.02173   0.00713   0.03553   0.05650
  34        3PX        -0.02464   0.00268  -0.01221   0.02036   0.01150
  35        3PY         0.00570   0.01788  -0.00704  -0.00048  -0.00521
  36        3PZ        -0.00007   0.00015  -0.00012  -0.00000  -0.00002
  37 5   C  1S         -0.00015  -0.69811   0.69785   0.00284  -0.00184
  38        2S         -0.00030  -0.07017   0.06835   0.00015   0.00214
  39        2PX         0.00046  -0.00119  -0.00085  -0.00050   0.00014
  40        2PY        -0.00067  -0.00086  -0.00020  -0.00098   0.00092
  41        2PZ        -0.00001  -0.00000  -0.00002   0.00000  -0.00000
  42        3S          0.02975   0.05196  -0.04288  -0.00964  -0.01814
  43        3PX         0.03450  -0.00196   0.01897  -0.00062  -0.00558
  44        3PY         0.00137   0.01785  -0.00078  -0.00296  -0.01138
  45        3PZ         0.00002  -0.00026   0.00032  -0.00006   0.00005
  46 6   N  1S          0.98684   0.00000   0.00040  -0.00003   0.00000
  47        2S          0.10681   0.00000   0.00238  -0.00027   0.00000
  48        2PX        -0.00000   0.00005  -0.00000  -0.00000  -0.00048
  49        2PY         0.00539   0.00000   0.00022  -0.00011   0.00000
  50        2PZ         0.00000   0.00000   0.00000  -0.00000   0.00001
  51        3S         -0.09610  -0.00000  -0.00790   0.00216  -0.00000
  52        3PX         0.00000  -0.00470   0.00000  -0.00000  -0.00078
  53        3PY        -0.02614  -0.00000  -0.00650   0.00087  -0.00000
  54        3PZ        -0.00000   0.00007  -0.00000   0.00000  -0.00003
  55 7   H  1S          0.00018  -0.00000  -0.00016  -0.00251   0.00000
  56        2S          0.00317   0.00000   0.00230   0.00604   0.00000
  57 8   H  1S         -0.00188  -0.00072  -0.00161  -0.00014  -0.00157
  58        2S         -0.00758   0.00043  -0.00362   0.00390   0.00461
  59 9   H  1S         -0.00188   0.00072  -0.00161  -0.00014   0.00157
  60        2S         -0.00758  -0.00043  -0.00362   0.00390  -0.00461
  61 10  C  1S         -0.00015   0.00031  -0.00150  -0.00182   0.00347
  62        2S         -0.00077   0.00031  -0.00194  -0.00099   0.00083
  63        2PX         0.00041   0.00039   0.00029  -0.00002   0.00013
  64        2PY         0.00029   0.00008   0.00011  -0.00025   0.00019
  65        2PZ        -0.00004  -0.00022   0.00026  -0.00005   0.00003
  66        3S          0.01157  -0.00408   0.01822   0.00247  -0.00315
  67        3PX         0.00189  -0.00219   0.00797   0.00061  -0.00187
  68        3PY         0.00601  -0.00469   0.00754   0.00232  -0.00024
  69        3PZ         0.00016   0.00133  -0.00151   0.00033  -0.00020
  70 11  H  1S         -0.00023   0.00058  -0.00120  -0.00023   0.00014
  71        2S         -0.00063  -0.00248   0.00239  -0.00021   0.00010
  72 12  H  1S         -0.00080   0.00061  -0.00122  -0.00048   0.00008
  73        2S         -0.00133   0.00066  -0.00083  -0.00006  -0.00020
  74 13  H  1S          0.00008   0.00026  -0.00080   0.00001   0.00021
  75        2S          0.00082  -0.00131   0.00074   0.00064  -0.00023
  76 14  C  1S         -0.00015  -0.00031  -0.00150  -0.00182  -0.00347
  77        2S         -0.00077  -0.00031  -0.00194  -0.00099  -0.00083
  78        2PX        -0.00041   0.00039  -0.00029   0.00002   0.00013
  79        2PY         0.00029  -0.00008   0.00011  -0.00025  -0.00019
  80        2PZ         0.00004  -0.00022  -0.00026   0.00005   0.00003
  81        3S          0.01157   0.00408   0.01822   0.00247   0.00315
  82        3PX        -0.00189  -0.00219  -0.00797  -0.00061  -0.00187
  83        3PY         0.00601   0.00469   0.00754   0.00232   0.00024
  84        3PZ        -0.00016   0.00133   0.00151  -0.00033  -0.00020
  85 15  H  1S          0.00008  -0.00026  -0.00080   0.00001  -0.00021
  86        2S          0.00082   0.00131   0.00074   0.00064   0.00023
  87 16  H  1S         -0.00023  -0.00058  -0.00120  -0.00023  -0.00014
  88        2S         -0.00063   0.00248   0.00239  -0.00021  -0.00010
  89 17  H  1S         -0.00080  -0.00061  -0.00122  -0.00048  -0.00008
  90        2S         -0.00133  -0.00066  -0.00083  -0.00006   0.00020
                           6         7         8         9        10
                           O         O         O         O         O
     Eigenvalues --   -11.17704 -11.15880 -11.15875  -1.25972  -1.07866
   1 1   C  1S          0.00144  -0.00018   0.00094  -0.10258   0.00539
   2        2S         -0.00225   0.00061  -0.00138   0.11534  -0.00310
   3        2PX         0.00012   0.00070  -0.00004  -0.08580   0.04490
   4        2PY        -0.00154  -0.00042   0.00020  -0.01245   0.08820
   5        2PZ        -0.00000   0.00006  -0.00003  -0.00012   0.00002
   6        3S          0.02864  -0.01080   0.01394   0.10982  -0.00291
   7        3PX        -0.01193  -0.01274   0.00695   0.09297  -0.01500
   8        3PY         0.01955   0.01010  -0.00625  -0.00609   0.01116
   9        3PZ         0.00003  -0.00036   0.00012   0.00042  -0.00023
  10 2   C  1S          0.69812  -0.00339   0.00476  -0.05061  -0.10969
  11        2S          0.07091   0.00011  -0.00004   0.05066   0.12091
  12        2PX        -0.00026   0.00054  -0.00031  -0.02327  -0.06675
  13        2PY        -0.00084  -0.00034   0.00045  -0.03268   0.02830
  14        2PZ        -0.00000  -0.00008   0.00006   0.00000  -0.00002
  15        3S         -0.07616  -0.00234  -0.00118   0.13516   0.22231
  16        3PX         0.02149   0.00035   0.00184  -0.08883   0.00664
  17        3PY         0.01317   0.00412  -0.00154  -0.01832  -0.00208
  18        3PZ        -0.00001   0.00038  -0.00020  -0.00020   0.00005
  19 3   C  1S          0.01448   0.00000   0.00234  -0.03769  -0.15439
  20        2S         -0.00450  -0.00000  -0.00088   0.04827   0.16833
  21        2PX         0.00000   0.00040  -0.00000  -0.00000  -0.00000
  22        2PY         0.00156   0.00000   0.00038  -0.03006  -0.05952
  23        2PZ        -0.00000   0.00004  -0.00000  -0.00000  -0.00000
  24        3S          0.05172   0.00000   0.00542  -0.04011   0.35699
  25        3PX        -0.00000  -0.00314   0.00000   0.00000   0.00000
  26        3PY        -0.02987  -0.00000  -0.00418   0.04532  -0.02911
  27        3PZ         0.00000  -0.00030   0.00000  -0.00000  -0.00000
  28 4   C  1S          0.69821   0.00339   0.00476  -0.05061  -0.10969
  29        2S          0.07092  -0.00011  -0.00004   0.05066   0.12091
  30        2PX         0.00026   0.00054   0.00031   0.02327   0.06675
  31        2PY        -0.00084   0.00034   0.00045  -0.03268   0.02830
  32        2PZ         0.00000  -0.00008  -0.00006  -0.00000   0.00002
  33        3S         -0.07617   0.00234  -0.00118   0.13516   0.22231
  34        3PX        -0.02149   0.00035  -0.00184   0.08883  -0.00664
  35        3PY         0.01317  -0.00412  -0.00154  -0.01832  -0.00208
  36        3PZ         0.00001   0.00038   0.00020   0.00020  -0.00005
  37 5   C  1S          0.00144   0.00018   0.00094  -0.10258   0.00539
  38        2S         -0.00225  -0.00061  -0.00138   0.11534  -0.00310
  39        2PX        -0.00012   0.00070   0.00004   0.08580  -0.04490
  40        2PY        -0.00154   0.00042   0.00020  -0.01245   0.08820
  41        2PZ         0.00000   0.00006   0.00003   0.00012  -0.00002
  42        3S          0.02864   0.01080   0.01394   0.10982  -0.00291
  43        3PX         0.01193  -0.01274  -0.00694  -0.09297   0.01500
  44        3PY         0.01955  -0.01010  -0.00625  -0.00609   0.01116
  45        3PZ        -0.00003  -0.00036  -0.00012  -0.00042   0.00023
  46 6   N  1S          0.00031   0.00000   0.00006  -0.17224   0.09513
  47        2S          0.00177  -0.00000  -0.00013   0.14369  -0.08394
  48        2PX         0.00000   0.00052  -0.00000   0.00000  -0.00000
  49        2PY         0.00005   0.00000   0.00005   0.09294  -0.02118
  50        2PZ        -0.00000  -0.00012   0.00000   0.00000  -0.00000
  51        3S         -0.01346  -0.00000  -0.00205   0.59267  -0.32633
  52        3PX         0.00000   0.00054   0.00000  -0.00000  -0.00000
  53        3PY        -0.00830   0.00000   0.00083   0.13943  -0.04549
  54        3PZ        -0.00000   0.00046  -0.00000   0.00000  -0.00000
  55 7   H  1S          0.00003  -0.00000   0.00004   0.01024   0.07004
  56        2S          0.00746   0.00000   0.00169  -0.01468   0.00718
  57 8   H  1S         -0.00220  -0.00010  -0.00018   0.01858   0.04749
  58        2S          0.00280  -0.00049  -0.00015   0.02465  -0.00362
  59 9   H  1S         -0.00220   0.00010  -0.00018   0.01858   0.04749
  60        2S          0.00280   0.00049  -0.00015   0.02465  -0.00362
  61 10  C  1S         -0.00492   0.69836   0.69825  -0.02130   0.00453
  62        2S         -0.00138   0.07275   0.07222   0.02392  -0.00347
  63        2PX        -0.00001  -0.00005   0.00004   0.01658  -0.00611
  64        2PY        -0.00009   0.00007   0.00013   0.00770   0.00684
  65        2PZ        -0.00002   0.00003   0.00002  -0.00035   0.00008
  66        3S          0.00741  -0.06315  -0.05904   0.00203  -0.00635
  67        3PX         0.00377  -0.00522  -0.00346  -0.00729  -0.00528
  68        3PY         0.00037  -0.00284  -0.00180  -0.02437   0.00633
  69        3PZ         0.00011   0.00001   0.00000   0.00268  -0.00118
  70 11  H  1S         -0.00028   0.00019   0.00003   0.00918  -0.00180
  71        2S         -0.00018   0.01069   0.01059  -0.00538   0.00023
  72 12  H  1S         -0.00012   0.00022   0.00002   0.01020   0.00097
  73        2S          0.00021   0.01046   0.01047   0.00298  -0.00038
  74 13  H  1S         -0.00040   0.00026   0.00005   0.00819  -0.00425
  75        2S         -0.00027   0.01060   0.01064  -0.00446  -0.00275
  76 14  C  1S         -0.00492  -0.69835   0.69826  -0.02130   0.00453
  77        2S         -0.00138  -0.07275   0.07222   0.02392  -0.00347
  78        2PX         0.00001  -0.00005  -0.00004  -0.01658   0.00611
  79        2PY        -0.00009  -0.00007   0.00013   0.00770   0.00684
  80        2PZ         0.00002   0.00003  -0.00002   0.00035  -0.00008
  81        3S          0.00741   0.06314  -0.05904   0.00203  -0.00635
  82        3PX        -0.00377  -0.00522   0.00346   0.00729   0.00528
  83        3PY         0.00037   0.00284  -0.00180  -0.02437   0.00633
  84        3PZ        -0.00011   0.00001  -0.00000  -0.00268   0.00118
  85 15  H  1S         -0.00040  -0.00026   0.00005   0.00819  -0.00425
  86        2S         -0.00027  -0.01060   0.01064  -0.00446  -0.00275
  87 16  H  1S         -0.00028  -0.00019   0.00003   0.00918  -0.00180
  88        2S         -0.00018  -0.01069   0.01059  -0.00538   0.00023
  89 17  H  1S         -0.00012  -0.00022   0.00002   0.01020   0.00097
  90        2S          0.00021  -0.01045   0.01047   0.00298  -0.00038
                          11        12        13        14        15
                           O         O         O         O         O
     Eigenvalues --    -1.06645  -0.98126  -0.93538  -0.83190  -0.81500
   1 1   C  1S         -0.11626  -0.03344  -0.02031   0.05670  -0.09379
   2        2S          0.12712   0.03849   0.02262  -0.06279   0.09952
   3        2PX         0.01825   0.11498  -0.04200  -0.03887  -0.10265
   4        2PY         0.01368  -0.00688   0.10625  -0.14525  -0.08274
   5        2PZ        -0.00007  -0.00003  -0.00003   0.00002  -0.00014
   6        3S          0.24715   0.07671   0.04711  -0.16894   0.29267
   7        3PX         0.01697   0.02446   0.00730  -0.02052  -0.02372
   8        3PY         0.06342   0.00909   0.02004  -0.07146   0.04017
   9        3PZ        -0.00048  -0.00041   0.00071  -0.00002   0.00004
  10 2   C  1S         -0.08094  -0.00485  -0.10951   0.05249   0.06083
  11        2S          0.08882   0.00648   0.11402  -0.05519  -0.05915
  12        2PX         0.00742   0.03987  -0.00749  -0.08245  -0.01894
  13        2PY        -0.05239  -0.02886  -0.00576   0.14741  -0.09164
  14        2PZ        -0.00008  -0.00011   0.00014  -0.00007  -0.00003
  15        3S          0.15510   0.01178   0.29701  -0.16325  -0.23171
  16        3PX        -0.02377   0.01086  -0.01785  -0.01442  -0.01959
  17        3PY         0.02757   0.00154  -0.00955   0.05146   0.00769
  18        3PZ         0.00050   0.00065  -0.00075   0.00004  -0.00052
  19 3   C  1S         -0.00000   0.03154  -0.00000  -0.12371   0.00000
  20        2S          0.00000  -0.03142   0.00000   0.12783  -0.00000
  21        2PX         0.06120   0.00000   0.13085  -0.00000  -0.12314
  22        2PY        -0.00000   0.00742   0.00000   0.08479  -0.00000
  23        2PZ         0.00004   0.00000  -0.00009  -0.00000  -0.00007
  24        3S          0.00000  -0.09100   0.00000   0.40499  -0.00000
  25        3PX        -0.02593  -0.00000   0.03282  -0.00000  -0.07349
  26        3PY         0.00000   0.01677  -0.00000   0.02309  -0.00000
  27        3PZ        -0.00038   0.00000   0.00052  -0.00000   0.00034
  28 4   C  1S          0.08094  -0.00485   0.10951   0.05249  -0.06083
  29        2S         -0.08882   0.00648  -0.11402  -0.05519   0.05915
  30        2PX         0.00742  -0.03987  -0.00749   0.08245  -0.01894
  31        2PY         0.05239  -0.02886   0.00576   0.14741   0.09164
  32        2PZ        -0.00008   0.00011   0.00014   0.00007  -0.00003
  33        3S         -0.15510   0.01178  -0.29701  -0.16325   0.23171
  34        3PX        -0.02377  -0.01086  -0.01785   0.01442  -0.01959
  35        3PY        -0.02757   0.00154   0.00955   0.05146  -0.00769
  36        3PZ         0.00050  -0.00065  -0.00075  -0.00004  -0.00052
  37 5   C  1S          0.11626  -0.03344   0.02031   0.05670   0.09379
  38        2S         -0.12712   0.03849  -0.02262  -0.06279  -0.09952
  39        2PX         0.01825  -0.11498  -0.04200   0.03887  -0.10265
  40        2PY        -0.01368  -0.00688  -0.10625  -0.14525   0.08274
  41        2PZ        -0.00007   0.00003  -0.00003  -0.00002  -0.00014
  42        3S         -0.24715   0.07671  -0.04711  -0.16894  -0.29267
  43        3PX         0.01697  -0.02446   0.00730   0.02052  -0.02372
  44        3PY        -0.06342   0.00909  -0.02004  -0.07146  -0.04017
  45        3PZ        -0.00048   0.00041   0.00071   0.00002   0.00004
  46 6   N  1S          0.00000   0.05704   0.00000  -0.06055   0.00000
  47        2S         -0.00000  -0.05106   0.00000   0.05746  -0.00000
  48        2PX         0.10944  -0.00000  -0.00190   0.00000   0.25139
  49        2PY        -0.00000  -0.04096   0.00000  -0.03740   0.00000
  50        2PZ        -0.00013  -0.00000   0.00014   0.00000   0.00001
  51        3S         -0.00000  -0.19842  -0.00000   0.22083  -0.00000
  52        3PX         0.08870  -0.00000   0.00452   0.00000   0.20694
  53        3PY        -0.00000  -0.04488  -0.00000  -0.01177   0.00000
  54        3PZ         0.00074  -0.00000  -0.00075   0.00000  -0.00011
  55 7   H  1S          0.00000  -0.01672   0.00000   0.13611  -0.00000
  56        2S         -0.00000  -0.00951   0.00000   0.06459  -0.00000
  57 8   H  1S          0.04189   0.01253   0.06932  -0.04048  -0.07680
  58        2S          0.00903   0.00514   0.02325  -0.01838  -0.04192
  59 9   H  1S         -0.04189   0.01253  -0.06932  -0.04048   0.07680
  60        2S         -0.00903   0.00514  -0.02325  -0.01838   0.04192
  61 10  C  1S          0.08689  -0.13774  -0.10684  -0.04224  -0.05486
  62        2S         -0.08278   0.13144   0.09965   0.03945   0.05190
  63        2PX        -0.02986   0.00494  -0.01012  -0.02146  -0.07839
  64        2PY        -0.02251   0.01228  -0.01645  -0.04704  -0.01422
  65        2PZ         0.00017   0.00022   0.00057   0.00042  -0.00004
  66        3S         -0.24141   0.40671   0.33868   0.14298   0.17782
  67        3PX        -0.01570   0.00113   0.00243  -0.00682  -0.04795
  68        3PY        -0.00054   0.01059   0.00061  -0.02136   0.00706
  69        3PZ        -0.00143   0.00052  -0.00017  -0.00046   0.00009
  70 11  H  1S         -0.04185   0.07863   0.06686   0.03505   0.05028
  71        2S          0.00575   0.00480   0.01081   0.01450   0.02104
  72 12  H  1S         -0.04424   0.08150   0.06254   0.02200   0.06316
  73        2S         -0.00160   0.00723   0.00730   0.00402   0.02627
  74 13  H  1S         -0.03960   0.07497   0.06914   0.04740   0.03840
  75        2S          0.00751   0.00355   0.01191   0.02119   0.01699
  76 14  C  1S         -0.08689  -0.13774   0.10684  -0.04224   0.05486
  77        2S          0.08278   0.13144  -0.09965   0.03945  -0.05190
  78        2PX        -0.02986  -0.00494  -0.01012   0.02146  -0.07839
  79        2PY         0.02251   0.01228   0.01645  -0.04704   0.01422
  80        2PZ         0.00017  -0.00022   0.00057  -0.00042  -0.00004
  81        3S          0.24141   0.40671  -0.33868   0.14298  -0.17782
  82        3PX        -0.01570  -0.00113   0.00243   0.00682  -0.04795
  83        3PY         0.00054   0.01059  -0.00061  -0.02136  -0.00706
  84        3PZ        -0.00143  -0.00052  -0.00017   0.00046   0.00009
  85 15  H  1S          0.03960   0.07497  -0.06914   0.04740  -0.03840
  86        2S         -0.00751   0.00355  -0.01191   0.02119  -0.01699
  87 16  H  1S          0.04185   0.07863  -0.06686   0.03505  -0.05028
  88        2S         -0.00575   0.00480  -0.01081   0.01450  -0.02104
  89 17  H  1S          0.04424   0.08150  -0.06254   0.02200  -0.06316
  90        2S          0.00160   0.00723  -0.00730   0.00402  -0.02627
                          16        17        18        19        20
                           O         O         O         O         O
     Eigenvalues --    -0.69110  -0.66962  -0.61500  -0.59662  -0.57840
   1 1   C  1S         -0.00858   0.02141  -0.07042   0.00061  -0.00765
   2        2S          0.00318  -0.02145   0.07288   0.00022   0.00341
   3        2PX         0.06696  -0.12357   0.11658   0.00282   0.09598
   4        2PY        -0.06343  -0.18022  -0.00031  -0.00943  -0.08626
   5        2PZ         0.00074   0.00023  -0.00225   0.13084  -0.01443
   6        3S          0.04628  -0.08373   0.24804  -0.00878   0.05775
   7        3PX         0.04976  -0.07278   0.12115   0.00047   0.07740
   8        3PY        -0.05683  -0.08210  -0.00784  -0.00589  -0.09159
   9        3PZ         0.00097   0.00007  -0.00229   0.11350  -0.01073
  10 2   C  1S         -0.02307  -0.01579   0.04984   0.00165  -0.01913
  11        2S          0.01821   0.01639  -0.05116  -0.00210   0.01926
  12        2PX         0.20522  -0.08342  -0.06404   0.01338  -0.04373
  13        2PY         0.07971   0.20924  -0.11057   0.00679   0.05270
  14        2PZ         0.00044  -0.00009  -0.00112   0.07349  -0.00692
  15        3S          0.11561   0.05186  -0.16806  -0.00569   0.07156
  16        3PX         0.13574  -0.03867  -0.11262   0.01639  -0.02113
  17        3PY         0.05560   0.12154  -0.08357  -0.00086   0.03676
  18        3PZ         0.00035  -0.00048  -0.00076   0.06529  -0.00798
  19 3   C  1S          0.01604  -0.00000  -0.04517   0.00000  -0.00289
  20        2S         -0.02193   0.00000   0.04886  -0.00000   0.00543
  21        2PX         0.00000   0.23194   0.00000  -0.01017  -0.00000
  22        2PY         0.20982  -0.00000   0.16059  -0.00000  -0.17401
  23        2PZ        -0.00000  -0.00034  -0.00000   0.05792   0.00000
  24        3S         -0.02884   0.00000   0.12292  -0.00000  -0.01428
  25        3PX         0.00000   0.12487   0.00000   0.00175  -0.00000
  26        3PY         0.14292  -0.00000   0.18123  -0.00000  -0.15443
  27        3PZ        -0.00000  -0.00001  -0.00000   0.05051   0.00000
  28 4   C  1S         -0.02307   0.01579   0.04984  -0.00165  -0.01913
  29        2S          0.01821  -0.01639  -0.05116   0.00210   0.01926
  30        2PX        -0.20522  -0.08342   0.06404   0.01338   0.04373
  31        2PY         0.07971  -0.20924  -0.11057  -0.00679   0.05270
  32        2PZ        -0.00044  -0.00009   0.00112   0.07349   0.00692
  33        3S          0.11561  -0.05186  -0.16806   0.00569   0.07156
  34        3PX        -0.13574  -0.03867   0.11262   0.01639   0.02113
  35        3PY         0.05560  -0.12154  -0.08357   0.00086   0.03676
  36        3PZ        -0.00035  -0.00048   0.00076   0.06529   0.00798
  37 5   C  1S         -0.00858  -0.02141  -0.07042  -0.00061  -0.00765
  38        2S          0.00318   0.02145   0.07288  -0.00022   0.00341
  39        2PX        -0.06696  -0.12357  -0.11658   0.00282  -0.09598
  40        2PY        -0.06343   0.18022  -0.00031   0.00943  -0.08626
  41        2PZ        -0.00074   0.00023   0.00225   0.13084   0.01443
  42        3S          0.04628   0.08373   0.24804   0.00878   0.05775
  43        3PX        -0.04976  -0.07278  -0.12115   0.00047  -0.07740
  44        3PY        -0.05683   0.08210  -0.00784   0.00589  -0.09159
  45        3PZ        -0.00097   0.00007   0.00229   0.11350   0.01073
  46 6   N  1S         -0.03656   0.00000   0.04536  -0.00000   0.00253
  47        2S          0.03344  -0.00000  -0.04479   0.00000   0.00287
  48        2PX         0.00000   0.18925   0.00000   0.00485   0.00000
  49        2PY        -0.08286   0.00000  -0.00917  -0.00000  -0.14372
  50        2PZ        -0.00000   0.00046   0.00000   0.13140  -0.00000
  51        3S          0.13746  -0.00000  -0.16250  -0.00000  -0.02460
  52        3PX         0.00000   0.15305   0.00000   0.00772  -0.00000
  53        3PY        -0.06323   0.00000   0.00382  -0.00000  -0.13581
  54        3PZ        -0.00000   0.00074   0.00000   0.13139  -0.00000
  55 7   H  1S          0.10809  -0.00000   0.15583  -0.00000  -0.12044
  56        2S          0.07204   0.00000   0.09328  -0.00000  -0.08972
  57 8   H  1S          0.14839   0.03124  -0.12448   0.00932   0.00668
  58        2S          0.09427   0.01711  -0.07170   0.00770  -0.00606
  59 9   H  1S          0.14839  -0.03124  -0.12448  -0.00932   0.00668
  60        2S          0.09427  -0.01711  -0.07170  -0.00769  -0.00606
  61 10  C  1S          0.02110   0.00760   0.01044  -0.00030   0.00315
  62        2S         -0.01630  -0.00626  -0.00691   0.00030   0.00133
  63        2PX         0.05843  -0.02167   0.12739  -0.00312   0.18792
  64        2PY         0.04434   0.10289   0.09507  -0.00508  -0.10545
  65        2PZ        -0.00442  -0.00032   0.00889   0.21851   0.05138
  66        3S         -0.09903  -0.04317  -0.07251  -0.00066  -0.04175
  67        3PX         0.02897  -0.02154   0.07118  -0.00349   0.12961
  68        3PY         0.02714   0.06699   0.05431  -0.00285  -0.09636
  69        3PZ        -0.00042   0.00205   0.00558   0.17152   0.04140
  70 11  H  1S         -0.03316  -0.01252  -0.03665   0.14356   0.00797
  71        2S         -0.01995  -0.01107  -0.03462   0.11879   0.00501
  72 12  H  1S         -0.02232   0.03893  -0.04029  -0.07253  -0.15451
  73        2S         -0.00924   0.03014  -0.04014  -0.06139  -0.13620
  74 13  H  1S         -0.03215  -0.06340  -0.05453  -0.06701   0.06461
  75        2S         -0.01396  -0.04253  -0.04834  -0.05320   0.05381
  76 14  C  1S          0.02110  -0.00760   0.01044   0.00030   0.00315
  77        2S         -0.01630   0.00626  -0.00691  -0.00030   0.00133
  78        2PX        -0.05843  -0.02167  -0.12739  -0.00312  -0.18792
  79        2PY         0.04434  -0.10289   0.09507   0.00508  -0.10545
  80        2PZ         0.00442  -0.00032  -0.00889   0.21851  -0.05138
  81        3S         -0.09903   0.04317  -0.07251   0.00066  -0.04175
  82        3PX        -0.02897  -0.02154  -0.07118  -0.00349  -0.12961
  83        3PY         0.02714  -0.06699   0.05431   0.00285  -0.09636
  84        3PZ         0.00042   0.00205  -0.00558   0.17152  -0.04140
  85 15  H  1S         -0.03215   0.06340  -0.05453   0.06701   0.06461
  86        2S         -0.01396   0.04253  -0.04834   0.05320   0.05381
  87 16  H  1S         -0.03316   0.01252  -0.03665  -0.14356   0.00797
  88        2S         -0.01995   0.01107  -0.03462  -0.11879   0.00501
  89 17  H  1S         -0.02232  -0.03893  -0.04029   0.07253  -0.15451
  90        2S         -0.00924  -0.03014  -0.04014   0.06139  -0.13620
                          21        22        23        24        25
                           O         O         O         O         O
     Eigenvalues --    -0.57678  -0.57021  -0.53922  -0.53538  -0.50408
   1 1   C  1S          0.00300   0.00185   0.00112   0.01145  -0.00148
   2        2S         -0.00314  -0.00619  -0.00204  -0.01736   0.00026
   3        2PX        -0.02620   0.10534   0.06407   0.08508   0.02118
   4        2PY         0.01888  -0.15234   0.07673  -0.10236  -0.00941
   5        2PZ        -0.07014  -0.01076   0.00462  -0.00299   0.13576
   6        3S         -0.01091   0.03157   0.00893  -0.02607   0.01603
   7        3PX        -0.01898   0.08371   0.04017   0.07419   0.02275
   8        3PY         0.02389  -0.09697   0.03137  -0.12119  -0.01242
   9        3PZ        -0.05193  -0.00980   0.00418  -0.00157   0.15528
  10 2   C  1S          0.00141   0.02034  -0.01202  -0.00024   0.00076
  11        2S         -0.00106  -0.02330   0.01069   0.00010  -0.00060
  12        2PX         0.01931   0.21928   0.05986  -0.07299  -0.01156
  13        2PY        -0.00680   0.11524  -0.07958   0.09310   0.00923
  14        2PZ        -0.03128  -0.00682   0.00208  -0.00095   0.14628
  15        3S         -0.00625  -0.04676   0.05599   0.00787   0.00121
  16        3PX         0.00700   0.18759   0.03914  -0.03079  -0.01801
  17        3PY         0.00303   0.10867  -0.05161   0.04796   0.01130
  18        3PZ        -0.03206  -0.00598   0.00009   0.00009   0.13948
  19 3   C  1S          0.00387  -0.00000  -0.00000  -0.02138   0.00000
  20        2S         -0.00377   0.00000   0.00000   0.02335  -0.00000
  21        2PX        -0.00000  -0.14082  -0.09670   0.00000   0.01956
  22        2PY         0.04010  -0.00000   0.00000  -0.19491   0.00000
  23        2PZ        -0.00000  -0.00561   0.00156   0.00000   0.14867
  24        3S         -0.01833   0.00000   0.00000   0.07409  -0.00000
  25        3PX        -0.00000  -0.08851  -0.06473  -0.00000   0.00475
  26        3PY         0.03566  -0.00000  -0.00000  -0.18857   0.00000
  27        3PZ        -0.00000  -0.00525   0.00296   0.00000   0.15133
  28 4   C  1S          0.00141  -0.02034   0.01202  -0.00024  -0.00076
  29        2S         -0.00106   0.02330  -0.01069   0.00010   0.00060
  30        2PX        -0.01930   0.21928   0.05986   0.07299  -0.01156
  31        2PY        -0.00680  -0.11524   0.07958   0.09310  -0.00923
  32        2PZ         0.03128  -0.00682   0.00208   0.00095   0.14628
  33        3S         -0.00625   0.04676  -0.05599   0.00787  -0.00121
  34        3PX        -0.00700   0.18759   0.03914   0.03079  -0.01801
  35        3PY         0.00303  -0.10867   0.05161   0.04796  -0.01130
  36        3PZ         0.03206  -0.00598   0.00009  -0.00009   0.13948
  37 5   C  1S          0.00300  -0.00185  -0.00112   0.01145   0.00147
  38        2S         -0.00314   0.00619   0.00204  -0.01736  -0.00026
  39        2PX         0.02620   0.10534   0.06407  -0.08508   0.02118
  40        2PY         0.01888   0.15234  -0.07673  -0.10236   0.00941
  41        2PZ         0.07014  -0.01076   0.00462   0.00299   0.13576
  42        3S         -0.01091  -0.03157  -0.00893  -0.02607  -0.01603
  43        3PX         0.01899   0.08371   0.04017  -0.07419   0.02276
  44        3PY         0.02389   0.09697  -0.03137  -0.12119   0.01243
  45        3PZ         0.05193  -0.00980   0.00418   0.00157   0.15528
  46 6   N  1S         -0.00118   0.00000   0.00000  -0.03869   0.00000
  47        2S          0.00034  -0.00000  -0.00000   0.03585  -0.00000
  48        2PX         0.00000   0.01835  -0.12012  -0.00000  -0.01362
  49        2PY         0.03663  -0.00000   0.00000  -0.15205   0.00000
  50        2PZ         0.00000  -0.01192   0.00717   0.00000   0.18415
  51        3S          0.00762  -0.00000  -0.00000   0.15935  -0.00000
  52        3PX         0.00000   0.00766  -0.11683  -0.00000  -0.01898
  53        3PY         0.03457  -0.00000   0.00000  -0.13272   0.00000
  54        3PZ         0.00000  -0.01220   0.00921   0.00000   0.19304
  55 7   H  1S          0.02464  -0.00000   0.00000  -0.12487   0.00000
  56        2S          0.01904  -0.00000   0.00000  -0.10136   0.00000
  57 8   H  1S          0.00819   0.15415   0.01704  -0.00961  -0.00643
  58        2S          0.00753   0.11974   0.00760  -0.00978  -0.00597
  59 9   H  1S          0.00819  -0.15415  -0.01704  -0.00961   0.00643
  60        2S          0.00753  -0.11974  -0.00760  -0.00978   0.00597
  61 10  C  1S         -0.00043  -0.00602   0.00129   0.00110   0.00074
  62        2S         -0.00046   0.00282  -0.00288   0.00177  -0.00157
  63        2PX        -0.04112  -0.10846  -0.13698  -0.02059  -0.01674
  64        2PY         0.01219  -0.07960   0.20958   0.20980  -0.01575
  65        2PZ         0.25596  -0.01023  -0.00002   0.00990  -0.15242
  66        3S          0.00714   0.04409   0.00171  -0.03876   0.00617
  67        3PX        -0.02991  -0.07164  -0.10929  -0.03391  -0.00787
  68        3PY         0.01595  -0.06048   0.18703   0.17923  -0.01560
  69        3PZ         0.21340  -0.00998   0.00405   0.01543  -0.15110
  70 11  H  1S          0.17807   0.02948   0.00004  -0.01593  -0.10874
  71        2S          0.14963   0.02666   0.00038  -0.01728  -0.09533
  72 12  H  1S         -0.06088   0.02869   0.15479   0.09080   0.05898
  73        2S         -0.05235   0.02212   0.14402   0.08400   0.05699
  74 13  H  1S         -0.09557   0.04659  -0.14930  -0.13891   0.06320
  75        2S         -0.07507   0.03968  -0.12528  -0.11044   0.05207
  76 14  C  1S         -0.00043   0.00602  -0.00129   0.00110  -0.00074
  77        2S         -0.00046  -0.00282   0.00288   0.00177   0.00157
  78        2PX         0.04112  -0.10846  -0.13698   0.02059  -0.01674
  79        2PY         0.01219   0.07960  -0.20958   0.20980   0.01575
  80        2PZ        -0.25596  -0.01023  -0.00002  -0.00990  -0.15242
  81        3S          0.00714  -0.04409  -0.00171  -0.03876  -0.00617
  82        3PX         0.02991  -0.07164  -0.10929   0.03391  -0.00787
  83        3PY         0.01595   0.06048  -0.18703   0.17923   0.01560
  84        3PZ        -0.21340  -0.00997   0.00405  -0.01543  -0.15110
  85 15  H  1S         -0.09557  -0.04659   0.14930  -0.13891  -0.06320
  86        2S         -0.07507  -0.03968   0.12527  -0.11044  -0.05207
  87 16  H  1S          0.17807  -0.02948  -0.00004  -0.01593   0.10874
  88        2S          0.14963  -0.02666  -0.00038  -0.01728   0.09533
  89 17  H  1S         -0.06088  -0.02869  -0.15479   0.09080  -0.05898
  90        2S         -0.05235  -0.02212  -0.14402   0.08400  -0.05699
                          26        27        28        29        30
                           O         O         O         O         V
     Eigenvalues --    -0.49485  -0.38388  -0.37173  -0.33062   0.13548
   1 1   C  1S         -0.01031  -0.02396  -0.00013   0.00019   0.00055
   2        2S          0.00782   0.02974   0.00009  -0.00088   0.00110
   3        2PX         0.20648  -0.04130  -0.00101   0.00079   0.00055
   4        2PY        -0.05330  -0.16895  -0.00049   0.00261   0.00113
   5        2PZ        -0.01099   0.00495   0.09815   0.22197  -0.15455
   6        3S          0.05551   0.09008   0.00220   0.00421  -0.01431
   7        3PX         0.22197   0.01883  -0.00558   0.00195  -0.01624
   8        3PY        -0.10202   0.00133  -0.00846   0.00534  -0.03862
   9        3PZ        -0.01441   0.00244   0.14117   0.26143  -0.23766
  10 2   C  1S          0.00395   0.02321   0.00018  -0.00086   0.00072
  11        2S         -0.00442  -0.01980  -0.00039   0.00112  -0.00116
  12        2PX        -0.16113   0.00685   0.00099   0.00090  -0.00187
  13        2PY         0.05633   0.15957   0.00081  -0.00235   0.00066
  14        2PZ        -0.01418   0.00365  -0.15674   0.24034  -0.12829
  15        3S          0.00339  -0.18060   0.00348   0.00178   0.00953
  16        3PX        -0.18748  -0.00321   0.00145   0.00008   0.00423
  17        3PY         0.00737   0.19769  -0.00152   0.00263  -0.02647
  18        3PZ        -0.01289   0.00520  -0.19425   0.30235  -0.31448
  19 3   C  1S          0.00000  -0.00420   0.00000   0.00048  -0.00000
  20        2S         -0.00000   0.00478  -0.00000  -0.00029   0.00000
  21        2PX         0.21196  -0.00000  -0.00053  -0.00000   0.00315
  22        2PY        -0.00000  -0.05594  -0.00000   0.00125   0.00000
  23        2PZ        -0.01484  -0.00000  -0.26733  -0.00000   0.28249
  24        3S         -0.00000  -0.01269  -0.00000  -0.00524   0.00000
  25        3PX         0.13407   0.00000   0.00021  -0.00000   0.02086
  26        3PY        -0.00000  -0.12000   0.00000   0.00092   0.00000
  27        3PZ        -0.01579  -0.00000  -0.30361  -0.00000   0.63375
  28 4   C  1S         -0.00395   0.02321  -0.00018  -0.00086  -0.00072
  29        2S          0.00442  -0.01980   0.00039   0.00112   0.00116
  30        2PX        -0.16113  -0.00685   0.00099  -0.00090  -0.00187
  31        2PY        -0.05633   0.15957  -0.00081  -0.00235  -0.00066
  32        2PZ        -0.01418  -0.00365  -0.15674  -0.24034  -0.12829
  33        3S         -0.00339  -0.18060  -0.00347   0.00178  -0.00953
  34        3PX        -0.18748   0.00321   0.00145  -0.00008   0.00423
  35        3PY        -0.00737   0.19769   0.00152   0.00263   0.02646
  36        3PZ        -0.01289  -0.00520  -0.19425  -0.30235  -0.31448
  37 5   C  1S          0.01031  -0.02396   0.00013   0.00019  -0.00056
  38        2S         -0.00782   0.02974  -0.00009  -0.00088  -0.00110
  39        2PX         0.20648   0.04130  -0.00101  -0.00080   0.00055
  40        2PY         0.05330  -0.16895   0.00049   0.00261  -0.00113
  41        2PZ        -0.01099  -0.00495   0.09815  -0.22197  -0.15455
  42        3S         -0.05551   0.09008  -0.00220   0.00421   0.01431
  43        3PX         0.22197  -0.01884  -0.00557  -0.00195  -0.01624
  44        3PY         0.10202   0.00133   0.00846   0.00534   0.03862
  45        3PZ        -0.01441  -0.00243   0.14117  -0.26143  -0.23766
  46 6   N  1S         -0.00000   0.06948  -0.00000  -0.00143   0.00000
  47        2S          0.00000  -0.06761   0.00000   0.00120  -0.00000
  48        2PX        -0.16467   0.00000   0.00228   0.00000   0.00469
  49        2PY        -0.00000   0.39586  -0.00000  -0.00801  -0.00000
  50        2PZ        -0.01611   0.00000   0.27338   0.00000   0.25720
  51        3S          0.00000  -0.26608   0.00000   0.00833  -0.00000
  52        3PX        -0.17034  -0.00000  -0.00467   0.00000  -0.01340
  53        3PY        -0.00000   0.49443  -0.00001  -0.01032  -0.00000
  54        3PZ        -0.01597   0.00000   0.33274   0.00000   0.47168
  55 7   H  1S         -0.00000  -0.05289   0.00000   0.00077  -0.00000
  56        2S         -0.00000  -0.03703   0.00000   0.00135  -0.00000
  57 8   H  1S         -0.10060   0.05203   0.00065   0.00005  -0.00185
  58        2S         -0.07621   0.06816   0.00078  -0.00289   0.00563
  59 9   H  1S          0.10060   0.05203  -0.00065   0.00005   0.00185
  60        2S          0.07621   0.06816  -0.00078  -0.00289  -0.00563
  61 10  C  1S          0.01322  -0.01880  -0.00027   0.00075  -0.00012
  62        2S         -0.01668   0.01235  -0.00022  -0.00018  -0.00024
  63        2PX        -0.17488   0.09540   0.00240  -0.00094   0.00476
  64        2PY        -0.09966   0.05188  -0.00323  -0.00191  -0.00814
  65        2PZ         0.01961  -0.00286  -0.03215   0.06420   0.00771
  66        3S          0.00367   0.12112   0.00345  -0.00667   0.00232
  67        3PX        -0.11133   0.09125   0.01046   0.00459   0.05122
  68        3PY        -0.06757   0.04375  -0.01721  -0.00957  -0.08395
  69        3PZ         0.02134  -0.01687  -0.04173   0.06693  -0.05792
  70 11  H  1S          0.05180  -0.01508  -0.02978   0.06322   0.03828
  71        2S          0.06207  -0.02804  -0.03161   0.07832   0.13408
  72 12  H  1S          0.03919  -0.01373   0.01323  -0.03136  -0.01747
  73        2S          0.05580  -0.02940   0.02595  -0.02916   0.01929
  74 13  H  1S          0.02789  -0.01698   0.01607  -0.03070  -0.02105
  75        2S          0.03774  -0.06975   0.00232  -0.04259  -0.15356
  76 14  C  1S         -0.01322  -0.01880   0.00027   0.00075   0.00012
  77        2S          0.01668   0.01235   0.00022  -0.00018   0.00024
  78        2PX        -0.17488  -0.09540   0.00240   0.00095   0.00476
  79        2PY         0.09966   0.05188   0.00323  -0.00191   0.00814
  80        2PZ         0.01960   0.00286  -0.03215  -0.06420   0.00771
  81        3S         -0.00367   0.12112  -0.00345  -0.00667  -0.00233
  82        3PX        -0.11133  -0.09125   0.01046  -0.00458   0.05122
  83        3PY         0.06757   0.04375   0.01721  -0.00957   0.08394
  84        3PZ         0.02134   0.01687  -0.04173  -0.06693  -0.05792
  85 15  H  1S         -0.02789  -0.01698  -0.01607  -0.03070   0.02105
  86        2S         -0.03774  -0.06975  -0.00232  -0.04259   0.15356
  87 16  H  1S         -0.05180  -0.01508   0.02978   0.06322  -0.03828
  88        2S         -0.06207  -0.02804   0.03161   0.07832  -0.13408
  89 17  H  1S         -0.03919  -0.01373  -0.01323  -0.03136   0.01747
  90        2S         -0.05580  -0.02940  -0.02595  -0.02916  -0.01929
                          31        32        33        34        35
                           V         V         V         V         V
     Eigenvalues --     0.14446   0.26944   0.30243   0.31096   0.32099
   1 1   C  1S          0.00004   0.01679   0.00708   0.01822   0.00676
   2        2S         -0.00143  -0.01162  -0.00891  -0.00302   0.01533
   3        2PX         0.00240  -0.03906  -0.00533  -0.00276  -0.01541
   4        2PY         0.00251  -0.01233   0.01608   0.01615   0.00640
   5        2PZ         0.25571   0.01589  -0.03997   0.00246  -0.11491
   6        3S          0.00611  -0.22562  -0.20631  -0.06880  -0.16459
   7        3PX        -0.00779  -0.09435   0.05372  -0.06411  -0.00094
   8        3PY        -0.01366  -0.04804  -0.09202   0.14562   0.07284
   9        3PZ         0.50316   0.04676  -0.06767   0.01842  -0.16736
  10 2   C  1S         -0.00153   0.04612   0.02738  -0.01168   0.00122
  11        2S         -0.00001  -0.02442  -0.01450   0.02128   0.00771
  12        2PX         0.00248  -0.09828  -0.08918  -0.01642  -0.02926
  13        2PY         0.00330  -0.07554  -0.03291  -0.01846  -0.02737
  14        2PZ        -0.21898  -0.01398   0.03521   0.00201   0.11407
  15        3S          0.02680  -0.56666  -0.41866  -0.02471  -0.08615
  16        3PX         0.01001  -0.43014  -0.31240  -0.03591  -0.15379
  17        3PY         0.00658  -0.29173  -0.36653   0.18710  -0.06705
  18        3PZ        -0.49321  -0.03253   0.10358  -0.00118   0.31587
  19 3   C  1S          0.00032   0.04831   0.00000   0.06229   0.00000
  20        2S         -0.00009  -0.01360  -0.00000  -0.02913  -0.00000
  21        2PX        -0.00000   0.00000   0.03310   0.00000  -0.00760
  22        2PY         0.00142  -0.14458  -0.00000  -0.08555  -0.00000
  23        2PZ         0.00000   0.00000  -0.04072   0.00000  -0.13069
  24        3S         -0.00164  -0.74894  -0.00000  -0.87131   0.00000
  25        3PX        -0.00000   0.00000   0.22452   0.00000  -0.04329
  26        3PY         0.00639  -0.43782  -0.00000  -0.50964  -0.00000
  27        3PZ         0.00000   0.00000  -0.11572   0.00000  -0.35467
  28 4   C  1S         -0.00153   0.04612  -0.02738  -0.01168  -0.00123
  29        2S         -0.00001  -0.02442   0.01450   0.02128  -0.00771
  30        2PX        -0.00248   0.09828  -0.08918   0.01642  -0.02926
  31        2PY         0.00330  -0.07554   0.03291  -0.01846   0.02737
  32        2PZ         0.21898   0.01398   0.03521  -0.00201   0.11407
  33        3S          0.02680  -0.56666   0.41866  -0.02471   0.08615
  34        3PX        -0.01001   0.43014  -0.31240   0.03591  -0.15379
  35        3PY         0.00658  -0.29173   0.36653   0.18710   0.06705
  36        3PZ         0.49321   0.03253   0.10358   0.00118   0.31587
  37 5   C  1S          0.00004   0.01679  -0.00708   0.01822  -0.00676
  38        2S         -0.00143  -0.01162   0.00891  -0.00302  -0.01533
  39        2PX        -0.00240   0.03906  -0.00533   0.00276  -0.01541
  40        2PY         0.00251  -0.01233  -0.01608   0.01615  -0.00640
  41        2PZ        -0.25571  -0.01589  -0.03997  -0.00246  -0.11491
  42        3S          0.00611  -0.22562   0.20631  -0.06880   0.16459
  43        3PX         0.00779   0.09435   0.05372   0.06411  -0.00094
  44        3PY        -0.01366  -0.04804   0.09202   0.14562  -0.07284
  45        3PZ        -0.50316  -0.04677  -0.06767  -0.01842  -0.16736
  46 6   N  1S         -0.00191   0.02577   0.00000  -0.01724   0.00000
  47        2S          0.00361  -0.02190   0.00000   0.01509  -0.00000
  48        2PX        -0.00000   0.00000  -0.03684   0.00000  -0.00467
  49        2PY        -0.00344  -0.04775  -0.00000  -0.04149  -0.00000
  50        2PZ         0.00000   0.00000   0.04340   0.00000   0.11855
  51        3S         -0.00710  -0.17181  -0.00000   0.12400  -0.00000
  52        3PX        -0.00000   0.00000  -0.03283   0.00000   0.06697
  53        3PY        -0.00501  -0.10254  -0.00000  -0.05984   0.00000
  54        3PZ         0.00000   0.00000   0.07885   0.00000   0.21661
  55 7   H  1S         -0.00168   0.04511   0.00000   0.01872   0.00000
  56        2S         -0.00933   1.01668   0.00000   0.96312   0.00000
  57 8   H  1S          0.00010   0.03336  -0.02207   0.02595   0.00573
  58        2S         -0.02104   0.95766   0.65246   0.00847   0.22171
  59 9   H  1S          0.00010   0.03336   0.02207   0.02595  -0.00573
  60        2S         -0.02104   0.95766  -0.65247   0.00847  -0.22172
  61 10  C  1S         -0.00053   0.02171  -0.08784  -0.10848   0.05272
  62        2S         -0.00047  -0.00284   0.01735   0.02842  -0.01390
  63        2PX        -0.00637   0.07971  -0.10325  -0.05399   0.00200
  64        2PY         0.00615  -0.00145  -0.00891  -0.01313   0.04059
  65        2PZ         0.00089   0.01685  -0.03436   0.01462  -0.12485
  66        3S          0.00950  -0.36739   1.32732   1.54351  -0.75109
  67        3PX        -0.03968   0.33617  -0.43520  -0.22769  -0.01140
  68        3PY         0.04904   0.02084  -0.07577  -0.12475   0.21520
  69        3PZ        -0.07356   0.09958  -0.18799   0.08651  -0.67649
  70 11  H  1S          0.05427   0.00016   0.01474  -0.00001   0.04838
  71        2S          0.21054   0.14428  -0.42658  -0.80431   1.18507
  72 12  H  1S         -0.02937   0.00621  -0.00840   0.00672  -0.03335
  73        2S         -0.16820   0.47632  -0.95390  -0.68310  -0.27235
  74 13  H  1S         -0.02663  -0.00289  -0.01392  -0.00417  -0.02018
  75        2S         -0.05908   0.11478  -0.60596  -0.62279   0.09646
  76 14  C  1S         -0.00053   0.02171   0.08784  -0.10848  -0.05272
  77        2S         -0.00047  -0.00284  -0.01735   0.02842   0.01390
  78        2PX         0.00637  -0.07971  -0.10325   0.05399   0.00200
  79        2PY         0.00615  -0.00145   0.00891  -0.01313  -0.04059
  80        2PZ        -0.00089  -0.01685  -0.03436  -0.01462  -0.12485
  81        3S          0.00950  -0.36739  -1.32732   1.54351   0.75109
  82        3PX         0.03968  -0.33617  -0.43520   0.22769  -0.01139
  83        3PY         0.04904   0.02084   0.07577  -0.12475  -0.21520
  84        3PZ         0.07357  -0.09959  -0.18800  -0.08651  -0.67649
  85 15  H  1S         -0.02663  -0.00289   0.01392  -0.00417   0.02018
  86        2S         -0.05908   0.11478   0.60596  -0.62279  -0.09646
  87 16  H  1S          0.05427   0.00016  -0.01474  -0.00001  -0.04838
  88        2S          0.21054   0.14428   0.42658  -0.80431  -1.18507
  89 17  H  1S         -0.02937   0.00621   0.00840   0.00672   0.03335
  90        2S         -0.16820   0.47632   0.95390  -0.68310   0.27235
                          36        37        38        39        40
                           V         V         V         V         V
     Eigenvalues --     0.34049   0.34089   0.35696   0.36156   0.39031
   1 1   C  1S         -0.00453   0.03971  -0.00161   0.01843  -0.00507
   2        2S          0.01388  -0.01929  -0.03123  -0.02235  -0.00468
   3        2PX        -0.07203   0.02279   0.01010   0.04474   0.00646
   4        2PY         0.02995   0.06772  -0.01884  -0.06018  -0.07224
   5        2PZ         0.06028   0.00586  -0.05296  -0.03029   0.04543
   6        3S         -0.01749  -0.47659   0.34412  -0.13458   0.26205
   7        3PX        -0.13656  -0.09747  -0.11473   0.10576  -0.05544
   8        3PY         0.19412   0.14954   0.09683  -0.17149  -0.03549
   9        3PZ         0.11746   0.05339  -0.20816  -0.08499   0.18507
  10 2   C  1S          0.03049   0.03077  -0.02998  -0.06389  -0.05143
  11        2S         -0.00140  -0.01479   0.02629   0.01932   0.04021
  12        2PX        -0.11502  -0.01704   0.00212   0.08907   0.03956
  13        2PY        -0.05847   0.00234   0.05744   0.01762   0.06101
  14        2PZ        -0.08272   0.02141   0.03223  -0.01048  -0.02443
  15        3S         -0.58705  -0.37536   0.16668   0.99619   0.44292
  16        3PX        -0.58667   0.06811   0.32341   0.35681   0.60147
  17        3PY        -0.11336  -0.13490   0.49145   0.12629   0.40295
  18        3PZ        -0.19922  -0.00430   0.09699   0.02923  -0.08156
  19 3   C  1S         -0.00000  -0.02767   0.07458   0.00000   0.05650
  20        2S          0.00000   0.01165  -0.04132  -0.00000  -0.04251
  21        2PX        -0.04382   0.00000   0.00000  -0.02634  -0.00000
  22        2PY        -0.00000  -0.03334  -0.10879  -0.00000  -0.09352
  23        2PZ         0.08475  -0.00000   0.00000   0.00954  -0.00000
  24        3S          0.00002   0.45960  -0.92945  -0.00000  -0.53211
  25        3PX        -0.14175   0.00001   0.00000  -0.30693  -0.00000
  26        3PY        -0.00000  -0.11519  -0.85613  -0.00000  -0.92974
  27        3PZ         0.22312  -0.00001   0.00000  -0.00878   0.00000
  28 4   C  1S         -0.03048   0.03077  -0.02998   0.06389  -0.05143
  29        2S          0.00140  -0.01479   0.02629  -0.01932   0.04021
  30        2PX        -0.11502   0.01705  -0.00212   0.08907  -0.03956
  31        2PY         0.05847   0.00234   0.05744  -0.01762   0.06100
  32        2PZ        -0.08272  -0.02140  -0.03223  -0.01048   0.02443
  33        3S          0.58702  -0.37541   0.16668  -0.99619   0.44293
  34        3PX        -0.58667  -0.06807  -0.32341   0.35681  -0.60147
  35        3PY         0.11335  -0.13491   0.49145  -0.12629   0.40294
  36        3PZ        -0.19922   0.00431  -0.09700   0.02923   0.08157
  37 5   C  1S          0.00453   0.03971  -0.00161  -0.01843  -0.00507
  38        2S         -0.01388  -0.01929  -0.03123   0.02235  -0.00468
  39        2PX        -0.07203  -0.02278  -0.01010   0.04474  -0.00647
  40        2PY        -0.02994   0.06772  -0.01884   0.06018  -0.07224
  41        2PZ         0.06028  -0.00587   0.05296  -0.03029  -0.04543
  42        3S          0.01745  -0.47659   0.34412   0.13458   0.26204
  43        3PX        -0.13655   0.09748   0.11473   0.10576   0.05543
  44        3PY        -0.19411   0.14956   0.09683   0.17149  -0.03549
  45        3PZ         0.11745  -0.05340   0.20816  -0.08499  -0.18507
  46 6   N  1S         -0.00000  -0.04629   0.00401  -0.00000   0.01454
  47        2S          0.00000   0.02360   0.01415   0.00000   0.00007
  48        2PX        -0.07885   0.00000  -0.00000  -0.00845  -0.00000
  49        2PY         0.00000   0.05212   0.00053   0.00000   0.06186
  50        2PZ        -0.03868   0.00000  -0.00000   0.06236   0.00000
  51        3S          0.00002   0.38387  -0.17835   0.00000  -0.20262
  52        3PX        -0.11727   0.00000  -0.00000   0.00363  -0.00000
  53        3PY         0.00000   0.07850  -0.07674  -0.00000   0.03218
  54        3PZ        -0.10240   0.00001  -0.00000   0.09773   0.00000
  55 7   H  1S         -0.00000  -0.00175  -0.00463  -0.00000  -0.00346
  56        2S         -0.00000  -0.04292   1.27828   0.00000   1.18297
  57 8   H  1S          0.02772  -0.00021  -0.00563  -0.00532  -0.02953
  58        2S          0.96667   0.21571  -0.58315  -0.88518  -0.98361
  59 9   H  1S         -0.02772  -0.00021  -0.00563   0.00532  -0.02953
  60        2S         -0.96664   0.21578  -0.58316   0.88518  -0.98361
  61 10  C  1S          0.05253  -0.01246   0.02582  -0.02191   0.03610
  62        2S         -0.01767  -0.00062  -0.00478   0.00300  -0.01016
  63        2PX        -0.07038  -0.03068  -0.01706  -0.07312   0.01490
  64        2PY         0.08985   0.15963   0.07688   0.12384   0.01216
  65        2PZ         0.04187   0.04782  -0.14212   0.01355   0.14886
  66        3S         -0.71005   0.14889  -0.36105   0.32819  -0.49074
  67        3PX        -0.34283  -0.17894  -0.06488  -0.36927   0.04117
  68        3PY         0.43606   0.90646   0.29904   0.70215  -0.03733
  69        3PZ         0.21142   0.27705  -0.73129   0.08911   0.70478
  70 11  H  1S         -0.02657  -0.00763   0.01790   0.00273  -0.02039
  71        2S         -0.02496  -0.25782   1.02892  -0.19555  -0.61802
  72 12  H  1S         -0.00892  -0.04451  -0.00655  -0.04636   0.02489
  73        2S         -0.17129  -0.70946  -0.53560  -0.90835   0.69232
  74 13  H  1S          0.02482   0.06750  -0.01085   0.04675  -0.00960
  75        2S          0.96922   1.14074   0.08068   0.76910   0.57025
  76 14  C  1S         -0.05254  -0.01245   0.02582   0.02191   0.03610
  77        2S          0.01767  -0.00062  -0.00478  -0.00300  -0.01016
  78        2PX        -0.07038   0.03069   0.01706  -0.07312  -0.01490
  79        2PY        -0.08984   0.15964   0.07688  -0.12384   0.01216
  80        2PZ         0.04187  -0.04782   0.14212   0.01355  -0.14885
  81        3S          0.71006   0.14883  -0.36105  -0.32819  -0.49073
  82        3PX        -0.34282   0.17898   0.06488  -0.36927  -0.04116
  83        3PY        -0.43599   0.90650   0.29904  -0.70214  -0.03732
  84        3PZ         0.21139  -0.27707   0.73129   0.08910  -0.70477
  85 15  H  1S         -0.02481   0.06750  -0.01085  -0.04675  -0.00960
  86        2S         -0.96913   1.14082   0.08068  -0.76909   0.57024
  87 16  H  1S          0.02657  -0.00763   0.01790  -0.00273  -0.02039
  88        2S          0.02493  -0.25783   1.02892   0.19555  -0.61801
  89 17  H  1S          0.00892  -0.04451  -0.00655   0.04636   0.02489
  90        2S          0.17123  -0.70948  -0.53560   0.90834   0.69231
                          41        42        43        44        45
                           V         V         V         V         V
     Eigenvalues --     0.40894   0.41906   0.43542   0.48595   0.53791
   1 1   C  1S         -0.02539  -0.11718  -0.10001   0.02702   0.00286
   2        2S          0.00054   0.05459   0.03105   0.01499  -0.01817
   3        2PX        -0.01937   0.08109   0.17262   0.10872   0.14099
   4        2PY         0.01527  -0.09626  -0.01084  -0.11459  -0.17601
   5        2PZ        -0.18934   0.00079   0.01280  -0.00563  -0.00492
   6        3S          0.44897   1.44556   1.52656  -0.60358   0.08310
   7        3PX        -0.06540   0.75624   0.90999   0.72209   0.84666
   8        3PY         0.16559  -0.47809   0.05932  -0.38650  -1.33438
   9        3PZ        -0.58631   0.01687   0.04932  -0.02634  -0.01229
  10 2   C  1S          0.02046   0.02905   0.07561   0.02711  -0.07956
  11        2S         -0.00735  -0.02898  -0.02566   0.00235  -0.00043
  12        2PX        -0.00276  -0.05006   0.06430   0.07831  -0.15571
  13        2PY         0.01233   0.02877   0.01289  -0.07831   0.01941
  14        2PZ         0.15818   0.00924  -0.01913   0.00165   0.01516
  15        3S         -0.31847  -0.14347  -1.25004  -0.55666   1.94016
  16        3PX        -0.08728  -0.73139   0.00847   0.80393  -1.23601
  17        3PY         0.24409   0.15092   0.20956  -0.81907  -0.30947
  18        3PZ         0.46871  -0.00204  -0.04185   0.00917   0.01180
  19 3   C  1S         -0.00000   0.01075   0.00000  -0.10684   0.00000
  20        2S          0.00000   0.03667  -0.00000   0.03740  -0.00000
  21        2PX        -0.02263   0.00000   0.10218   0.00000  -0.08263
  22        2PY        -0.00000  -0.05066   0.00000  -0.20810   0.00000
  23        2PZ        -0.12632   0.00000   0.01387   0.00000  -0.00928
  24        3S          0.00000  -0.88675  -0.00000   1.94231  -0.00000
  25        3PX        -0.07836   0.00000   0.72106   0.00000  -1.74165
  26        3PY         0.00000   0.29963   0.00000  -1.25598   0.00000
  27        3PZ        -0.42395   0.00000   0.03981   0.00000  -0.01359
  28 4   C  1S         -0.02046   0.02905  -0.07561   0.02711   0.07956
  29        2S          0.00735  -0.02898   0.02566   0.00235   0.00043
  30        2PX        -0.00276   0.05006   0.06430  -0.07831  -0.15571
  31        2PY        -0.01233   0.02877  -0.01289  -0.07831  -0.01941
  32        2PZ         0.15818  -0.00924  -0.01913  -0.00165   0.01516
  33        3S          0.31847  -0.14348   1.25004  -0.55666  -1.94016
  34        3PX        -0.08727   0.73139   0.00847  -0.80393  -1.23601
  35        3PY        -0.24410   0.15092  -0.20956  -0.81907   0.30947
  36        3PZ         0.46871   0.00203  -0.04185  -0.00918   0.01180
  37 5   C  1S          0.02539  -0.11718   0.10001   0.02702  -0.00286
  38        2S         -0.00054   0.05459  -0.03105   0.01499   0.01817
  39        2PX        -0.01937  -0.08109   0.17262  -0.10872   0.14099
  40        2PY        -0.01527  -0.09626   0.01084  -0.11459   0.17601
  41        2PZ        -0.18934  -0.00079   0.01280   0.00563  -0.00492
  42        3S         -0.44897   1.44556  -1.52656  -0.60358  -0.08310
  43        3PX        -0.06541  -0.75624   0.90999  -0.72209   0.84667
  44        3PY        -0.16560  -0.47808  -0.05932  -0.38650   1.33438
  45        3PZ        -0.58631  -0.01687   0.04932   0.02635  -0.01229
  46 6   N  1S          0.00000   0.05290   0.00000  -0.07984   0.00000
  47        2S         -0.00000  -0.04549   0.00000   0.02634  -0.00000
  48        2PX        -0.03547   0.00000  -0.04780   0.00000  -0.04740
  49        2PY        -0.00000  -0.06594  -0.00000   0.12306  -0.00000
  50        2PZ         0.20448  -0.00000  -0.00629  -0.00000  -0.00344
  51        3S          0.00000  -0.31964  -0.00000   1.04180  -0.00000
[...]
 673451,0.3858476,3.0535754,2.6625967,3.5173207,-0.1457096,-0.4925086,-
 0.1637647,-2.3294218,2.3550231,-0.0702244,0.1494093,-0.2397162,0.14902
 48,0.1334514,-0.3986149,-0.4144706,2.0850786,-3.5090543,-0.0631123,-0.
 1373136,0.1015423,2.0902814,0.1649634,-0.0656112,-0.3319622,0.3681132,
 -4.7524808,-0.2723569,0.1831225,0.3097001,-0.0363828,0.356091,0.207222
 5,-0.1187383,2.8070063,0.0945266,-0.3412125,3.3024351,-2.8563589,3.107
 8179,-0.0271729,0.3233255,-0.1926594,2.2176606,2.3021114,0.6550322,-0.
 1636227,-0.0664266,-0.1596554,-0.0409176,0.3995695,-0.01153,1.7983168,
 3.6636358,-0.4123216,-2.7361431,1.400507,-4.348,-0.0398904,0.1074354,-
 0.0893202,1.1360218,-3.3025288,3.0443287,-0.1178322,0.1322592,-0.99645
 49,-0.1948858,0.0092941,0.2593075,-2.6475952,1.2615801,0.2993257,-7.58
 04381,-0.3653221,-2.0129249,0.4075732,0.0777326,0.0822674,-0.6057265,4
 .2141583,0.2364016,-0.1145645,-0.2735346,0.0209539,0.3204424,-0.133174
 ,0.117723,-1.3981836,-0.0455915,0.1712299,10.8086225,0.337621,0.166304
 1,-0.5544902,-0.0098456,0.4678103,0.2898559,1.4695355,0.1129793,-0.010
 2964,-0.0936069,0.016287,-0.4721804,-0.0103169,-0.010122,1.7521993,0.0
 633008,-0.2508609,2.9108437,-2.8309726,2.720652,-0.0477937,0.0443604,0
 .2111802,-1.7730518,3.1483405,-6.8340107,0.0252261,-0.0485937,-0.31735
 81,-0.0448791,0.0463539,-0.0411888,0.7149546,-1.0401299,-0.0376343,2.3
 710159,2.5912134,2.5776108,-0.168893,-0.1603115,0.1962896,1.5052168,2.
 9244321,7.4742016,-0.136775,-0.3501908,0.347454,-0.1111096,-0.1576459,
 -0.3078063,0.6424146,1.1053113,-0.1613828,3.567692,-2.9168504,-2.50362
 28,0.4455575,0.2073701,3.5673925,-0.2835081,-1.8594058,-1.7023291,0.26
 25081,0.1167638,0.5434628,0.5066279,0.2474268,0.0788506,5.6752231,-2.3
 263524,-0.8396617,-4.7818236,2.0513293,-0.6123917,2.7084435,-0.8580124
 ,-1.608081,0.256342,-1.1334883,1.2763944,-0.458836,2.2547961,0.0894294
 ,1.8327641,-1.2725214,1.4661998,-3.671046,1.7790097,5.5847322,1.943659
 2,1.7645583,1.9449109,-0.1915812,-0.0245105,-0.3627599,0.1715832,1.539
 8165,7.7963246,-0.0360831,-0.2393822,0.2534505,-0.1208545,-0.0018283,-
 0.2061735,0.0615824,2.3904269,-0.1216798,-5.7357806,2.148616,-0.696782
 9,-2.8405553,0.741004,-1.6376044,0.2421643,-1.3216221,0.9638014,0.2902
 99,-2.0719708,-0.0476665,-2.13039,1.0708319,-1.268384,-3.7975125,1.442
 7287,-4.6062379,3.0324372,3.5033332,-2.1297901,0.2913943,0.1094514,3.6
 059404,0.8348883,-1.6891776,1.2706744,0.1267184,0.1375762,-0.3284085,0
 .4831493,0.1489139,0.2479127,5.489555,2.6922374,-1.0625026,-4.4412023,
 -2.1299431,-0.7532932,2.7167445,0.8420051,-1.6836026,-0.3483443,-1.141
 1594,-1.1977343,0.3658721,2.3126182,-0.1597424,1.6622083,1.165441,1.52
 67032,-3.6098934,-1.9617518,5.7738669,-5.3435347,-2.5347992,-1.0392558
 ,-2.6346852,-0.8251309,-1.5576776,-0.5512513,-1.5131572,-1.5295774,-0.
 4517889,-2.1812791,-0.0886581,-1.9330948,-1.2340071,-1.5452575,-3.5980
 713,-1.7764209,-4.4479297,2.2412036,-1.9066931,2.2419816,-0.0958756,-0
 .1006479,-0.3393894,-0.2858667,1.9614115,-7.3857428,-0.0465719,0.00686
 42,-0.2688278,-0.1036477,-0.0769477,-0.0685856,0.2452258,-2.3661113,0.
 1295338\HyperPolar=11.6000304,-5.8945335,80.1076721,8.8268086,-7.24884
 65,-3.3935818,-5.4002145,-52.1827215,-1.484551,10.1166044\Quadrupole=-
 0.1377883,3.6484549,-3.5106665,-0.1503522,-0.2097789,-0.1866792\PG=C01
  [X(C7H9N1)]\NImag=0\\0.72225663,0.01849538,0.74936295,-0.02945240,-0.
 01444954,0.26551325,-0.32430625,-0.05646471,0.01522842,0.74755554,0.04
 267634,-0.17230253,-0.00091513,-0.05797627,0.84020037,0.01251665,0.005
 33822,-0.10827331,-0.03369061,-0.01418036,0.19064106,-0.02964313,-0.04
 991098,0.00417258,-0.20997316,-0.12100253,0.01060378,0.85748001,-0.121
 33779,0.06266116,0.00634671,-0.03449240,-0.31420490,0.00818750,0.00381
 563,0.73033933,0.00612602,0.00184301,0.01446035,0.00823887,0.01364287,
 -0.09518511,-0.04155253,-0.01473164,0.20333566,-0.09431733,0.06005076,
 0.00338311,0.09911801,0.03798985,-0.00641852,-0.22244651,0.04192710,0.
 00693685,0.73940249,0.04217610,-0.02669735,-0.00233028,-0.02516376,-0.
 07198124,0.00393342,0.12843711,-0.30225266,-0.00241628,0.04849475,0.84
 801091,0.00387038,-0.00345831,-0.01480043,-0.00469087,-0.00004970,0.01
 412477,0.00457187,0.00304092,-0.09466400,-0.03610238,-0.02110971,0.190
 98359,0.10204807,-0.03654246,-0.00488695,-0.08616000,-0.04649959,0.005
 78263,-0.04215292,0.11349596,0.00049569,-0.32452281,-0.05363510,0.0151
 6538,0.72534173,0.05383933,-0.12778615,0.00033583,-0.06437433,-0.03451
 371,0.00460308,0.04206931,0.07464843,-0.00428597,0.04550601,-0.1720949
 5,-0.00109877,-0.02181168,0.74640608,-0.00735924,0.00603625,0.00901304
 ,0.00626984,0.00347625,-0.01514140,0.00244921,-0.00879212,0.01498288,0
 .01245362,0.00515363,-0.10826434,-0.02855061,-0.01182673,0.26538503,-0
 .20625147,0.10894439,0.00373216,-0.04054708,0.04409089,0.00355331,0.00
 199670,0.00495968,-0.00110594,-0.02678211,-0.04981119,0.00525560,-0.19
 443451,-0.10192488,0.00874902,0.45186499,0.05243746,-0.28217541,0.0016
 7559,0.12998351,0.05051276,-0.00862481,0.00495946,-0.12821012,0.002825
 17,-0.13570367,0.03732332,0.00849304,-0.04541789,-0.29349915,0.0081569
 0,-0.01067708,0.71719213,0.00527880,-0.00188878,-0.10015814,0.00120529
 ,-0.00320859,0.03494058,-0.00110607,0.00282865,-0.01339660,0.00760372,
 0.00307460,0.03436504,0.00720240,0.01172029,-0.10065134,-0.02025157,-0
 .01548131,0.12784777,0.00106827,-0.00273174,0.00065131,-0.01163396,0.0
 0349373,0.00119981,-0.37462910,-0.01092678,0.02035379,-0.01398081,-0.0
 0494316,0.00157843,0.00061654,0.00328972,0.00051521,0.00086338,0.00005
 193,-0.00031906,0.39726575,-0.00260983,-0.00627130,0.00061502,-0.03559
 965,0.00590706,0.00232722,-0.01092688,-0.07588655,0.00121481,0.0341502
 9,0.00815597,-0.00213346,0.00316782,-0.00583852,0.00023879,0.00005189,
 -0.00070261,-0.00009807,0.01186145,0.07225664,0.00064862,0.00062270,0.
 01015298,0.00226756,-0.00013901,0.00876392,0.02035373,0.00121626,-0.05
 797030,0.00051072,0.00033170,0.00886186,0.00051790,0.00023104,0.010171
 93,-0.00031908,-0.00009756,-0.00415002,-0.02317423,-0.00176704,0.03648
 651,-0.01147288,0.03705783,0.00001696,-0.15542938,0.13390769,0.0028998
 1,0.01483030,-0.01925537,-0.00003075,-0.00139436,-0.00398800,0.0007882
 2,-0.00115186,-0.00208827,0.00013417,-0.00744165,0.00051767,0.00097252
 ,0.00100141,0.00066215,-0.00042276,0.15936984,-0.00422119,0.00233797,0
 .00033592,0.13629002,-0.29849286,-0.00182925,0.02096350,-0.02180664,-0
 .00056135,-0.00443694,-0.00327051,0.00062599,-0.00104127,0.00043766,0.
 00005570,-0.00115980,0.00216109,0.00023856,-0.00049538,0.00105237,-0.0
 0014586,-0.14564687,0.31718220,0.00114779,-0.00226775,0.00486786,0.002
 83279,-0.00167624,-0.05145759,-0.00113070,0.00197329,0.00601054,0.0008
 0035,0.00059724,0.00931163,0.00010569,0.00012191,0.00006030,0.00101879
 ,0.00013225,0.00813481,-0.00039122,-0.00021857,-0.00538577,-0.00392529
 ,0.00143091,0.03411094,-0.00138116,0.00195370,0.00003814,-0.00204923,0
 .00411804,0.00060841,0.01474897,0.02202581,-0.00115465,-0.13571712,-0.
 12117455,0.00864005,-0.00889652,-0.03787385,0.00190539,-0.00743842,-0.
 00120258,0.00101939,0.00101595,-0.00068551,-0.00038706,0.00050155,0.00
 092888,-0.00004350,0.13814270,0.00090668,0.00065736,-0.00007316,0.0045
 6703,-0.00264293,0.00004096,-0.01819282,-0.02172870,0.00190613,-0.1235
 5723,-0.31738004,0.01507631,0.00340521,-0.00013073,-0.00007751,0.00047
 495,0.00215796,0.00013555,0.00047198,0.00103842,-0.00020650,-0.0008091
 6,-0.00107434,0.00008625,0.13160532,0.33752096,0.00006660,-0.00013904,
 0.00006990,0.00059630,0.00006886,0.00933892,-0.00005456,-0.00063246,0.
 00601394,0.00870686,0.01492892,-0.05228267,0.00077458,0.00252568,0.004
 76020,0.00097316,0.00024081,0.00813471,-0.00041862,-0.00013319,-0.0053
 8636,0.00000400,-0.00002337,0.00021470,-0.01017789,-0.01661216,0.03499
 932,-0.00111080,-0.00561844,0.00088147,-0.00003256,0.00133895,-0.00003
 419,-0.00421174,-0.00330776,0.00093469,-0.01965569,0.03470549,0.001151
 43,-0.14445302,0.05530354,0.00165168,0.01297930,-0.01934268,-0.0003862
 8,-0.00058792,0.00100541,-0.00004550,0.00008391,0.00001508,-0.00011347
 ,0.00098274,0.00053371,-0.00039549,0.60553340,-0.00413856,0.00067664,0
 .00052749,0.00185713,0.00073661,-0.00013717,-0.00279568,-0.00190491,0.
 00047951,-0.00159031,0.00512663,0.00033237,0.05564989,-0.16419148,-0.0
 0160119,0.01939883,-0.04839124,0.00005690,-0.00046726,0.00055115,-0.00
 000950,0.00019966,0.00003526,-0.00006032,-0.00116841,0.00047746,-0.000
 07788,0.07139311,0.58325834,0.00084194,0.00062268,0.01037372,-0.000048
 22,-0.00010547,0.00001122,0.00091897,0.00051214,0.00909212,0.00214197,
 -0.00195608,0.01353448,0.00164263,-0.00157936,-0.09435082,-0.00144623,
 0.00250178,-0.00151044,-0.00000527,-0.00010223,-0.00086994,-0.00011850
 ,-0.00004865,-0.00169997,-0.00034840,-0.00018474,-0.00502222,-0.001363
 72,-0.00365545,0.61478905,-0.00121124,0.00080032,-0.00126599,0.0007799
 5,0.00027776,0.00002074,-0.00064600,-0.00061113,-0.00126574,-0.0011857
 0,0.00308749,-0.00079578,-0.01714676,0.00237934,0.02127891,0.00163124,
 -0.00337447,-0.00021290,-0.00014036,0.00019555,0.00012491,0.00005292,0
 .00006133,0.00024909,0.00024977,0.00009271,0.00072571,-0.13421690,0.00
 114181,0.12921639,0.14817386,0.00011908,0.00064164,0.00111074,0.000166
 18,-0.00049959,-0.00029184,0.00040329,0.00015668,0.00111109,0.00080814
 ,-0.00279131,0.00083018,0.02125737,-0.00300099,-0.03141614,-0.00059169
 ,0.00205382,0.00128742,0.00014426,-0.00018672,-0.00004387,-0.00005937,
 -0.00001217,-0.00008986,0.00020426,0.00014155,-0.00026937,-0.00127405,
 -0.05878182,-0.00030083,-0.00474019,0.06100713,0.00042609,-0.00060328,
 0.00016215,-0.00045148,-0.00015468,-0.00001099,-0.00005012,0.00041974,
 -0.00028983,-0.00013243,-0.00027197,-0.00041555,-0.00141194,0.00073868
 ,0.00270080,-0.00066141,0.00055306,0.00102408,0.00000910,-0.00002242,0
 .00003696,-0.00001450,-0.00002283,-0.00002566,-0.00008423,0.00000271,0
 .00014561,0.12956958,-0.00203423,-0.25939813,-0.14342901,0.00016724,0.
 28304168,0.00058600,0.00089080,-0.00003582,-0.00007701,-0.00012851,0.0
 0000591,0.00046112,0.00019344,-0.00004915,0.00071490,0.00030126,-0.000
 06189,0.01374135,0.02188641,-0.00166653,-0.00211428,0.00501223,0.00011
 978,0.00004267,-0.00009320,0.00000070,-0.00000661,-0.00003500,0.000000
 19,-0.00050506,0.00053782,0.00005176,-0.14734274,-0.13311524,0.0092345
 2,-0.01124867,-0.01695805,-0.00061503,0.15899400,-0.00112836,0.0001871
 3,0.00007637,0.00067256,0.00009178,-0.00004604,0.00013733,-0.00032835,
 -0.00000638,-0.00158006,0.00116255,0.00006372,-0.02201945,-0.02173596,
 0.00190412,0.00396935,-0.00815922,0.00002696,0.00004071,0.00000897,-0.
 00000240,0.00015531,0.00004025,-0.00001132,0.00127363,0.00077526,-0.00
 008634,-0.12466071,-0.25752958,0.01333423,0.00108278,0.00166849,0.0009
 1547,0.14174204,0.28405191,0.00001927,-0.00005100,0.00039557,-0.000016
 23,0.00000454,-0.00003794,-0.00004751,-0.00000952,-0.00022885,-0.00001
 063,-0.00005445,-0.00013427,-0.00046119,-0.00087428,-0.00304371,0.0001
 4847,-0.00004030,0.00194663,-0.00000295,0.00000602,0.00001371,-0.00000
 501,0.00000058,-0.00001844,0.00003134,-0.00004021,0.00054544,0.0090025
 0,0.01386898,-0.06005716,0.01747969,0.02968576,-0.00009091,-0.01038711
 ,-0.01521900,0.05737794,-0.00108705,0.00094011,0.00137829,0.00081923,0
 .00029171,-0.00014309,-0.00047567,-0.00058959,0.00132674,-0.00107122,0
 .00314783,0.00070880,-0.01940908,0.00118942,-0.01867424,0.00174601,-0.
 00340715,0.00031410,-0.00015548,0.00019128,-0.00011124,0.00002247,0.00
 004984,-0.00025859,0.00016737,0.00005195,-0.00073286,-0.16855187,-0.00
 667969,-0.14060529,0.01484835,0.00050493,0.01685257,-0.01311058,0.0000
 4836,-0.01574823,0.18620253,-0.00004177,0.00060908,-0.00114227,0.00022
 404,-0.00047537,0.00029132,0.00026282,0.00007333,-0.00117750,0.0007155
 6,-0.00283068,-0.00079714,0.02517893,-0.00138716,0.02876614,-0.0007176
 5,0.00196611,-0.00125954,0.00014939,-0.00018373,0.00003778,-0.00004703
 ,-0.00000605,0.00009624,0.00024073,0.00015518,0.00024297,-0.00931341,-
 0.05920698,-0.00910401,-0.00042807,-0.00041292,0.00035345,-0.02045764,
 0.00005271,-0.02726924,0.00422343,0.06163048,-0.00026811,0.00046567,0.
 00007088,0.00033426,0.00014346,-0.00007453,0.00006134,-0.00036936,-0.0
 0037683,0.00017492,0.00000695,-0.00049330,0.00284150,-0.00067678,0.003
 35016,0.00061245,-0.00017962,0.00099970,0.00000704,0.00001043,0.000048
 87,0.00001094,0.00001555,-0.00000120,0.00006828,-0.00001026,0.00021486
 ,-0.14082197,-0.00768647,-0.22465158,-0.02216228,-0.00182177,-0.026893
 38,0.00340390,-0.00093887,0.00338880,0.15573656,0.01100480,0.24439968,
 -0.13613339,-0.05302194,0.00408900,-0.01699854,-0.03630130,0.00292158,
 -0.00466616,0.00314073,0.00078576,0.00021522,-0.00137967,0.00002446,-0
 .00184590,0.00546479,0.00062665,0.01262946,0.02396905,-0.00154873,-0.0
 0054023,-0.00109002,0.00000884,0.00093300,-0.00051797,-0.00036265,0.00
 010040,-0.00001588,-0.00011368,0.00074584,0.00047421,-0.00007219,-0.00
 000182,0.00004397,0.00001278,-0.00019361,0.00032484,-0.00000039,-0.000
 01000,0.00003966,-0.00001381,0.61626774,-0.05336829,-0.17216347,0.0054
 9264,-0.00000560,0.00258028,0.00030190,0.00262859,-0.00146942,0.000125
 44,-0.00189773,0.00049917,0.00010615,0.00398469,0.00138112,-0.00000404
 ,-0.01477264,-0.04805599,0.00220294,0.00038264,0.00050547,-0.00006186,
 0.00118408,0.00052518,-0.00022752,-0.00020047,0.00001945,-0.00003465,-
 0.00038003,-0.00052341,0.00003310,0.00001038,-0.00003056,-0.00000588,0
 .00015096,-0.00022875,-0.00000487,0.00000839,-0.00003170,0.00000659,-0
 .06887248,0.57296869,0.00409803,0.00547074,-0.09469846,0.00193100,0.00
 259200,0.01342367,0.00080145,0.00009360,0.00911106,0.00003856,0.000072
 48,0.00000089,0.00066604,-0.00009561,0.01040433,-0.00048888,-0.0002390
 6,-0.00149586,-0.00003141,0.00003119,-0.00087194,-0.00040978,-0.000119
 72,-0.00502018,-0.00010866,-0.00004627,-0.00170066,-0.00004861,-0.0000
 2077,-0.00018772,0.00005163,0.00002572,-0.00000068,0.00000434,-0.00001
 579,-0.00005882,-0.00005092,-0.00002907,0.00000869,0.00176269,0.005471
 37,0.61434436,-0.01530819,-0.00237170,0.01891963,-0.00089681,-0.002977
 17,-0.00058247,-0.00065534,0.00048996,-0.00120319,0.00080687,-0.000177
 35,0.00000888,-0.00112817,-0.00099452,-0.00113192,0.00133433,0.0033114
 5,-0.00027931,-0.00011507,-0.00018397,0.00013010,0.00027079,-0.0000477
 0,0.00070608,0.00005232,-0.00004432,0.00024416,0.00000202,-0.00000527,
 0.00005380,0.00004255,-0.00002914,-0.00000699,-0.00000340,-0.00000507,
 0.00000224,0.00002191,0.00001011,-0.00000816,-0.13440008,-0.00045562,0
 .12930064,0.14762381,-0.02231238,-0.00326260,0.03319562,-0.00066973,-0
 .00310600,-0.00075526,-0.00046439,0.00008647,-0.00122400,-0.00008917,-
 0.00050401,0.00031692,-0.00023328,0.00053126,-0.00122204,0.00050767,0.
 00225763,-0.00136075,-0.00013838,-0.00020807,0.00006515,-0.00019892,0.
 00013528,0.00032409,0.00006329,-0.00000550,0.00010765,-0.00004065,-0.0
 0003515,-0.00002007,0.00003379,-0.00002449,-0.00002652,0.00000490,0.00
 003967,0.00000571,-0.00001062,0.00003267,0.00000250,0.00197491,-0.0586
 1136,0.00013893,0.00417227,0.06167848,-0.00028154,-0.00055337,0.001124
 70,-0.00011995,0.00038900,-0.00039239,0.00000393,-0.00044105,-0.000210
 32,-0.00045674,0.00014452,-0.00003354,0.00038835,0.00061358,0.00018982
 ,-0.00064300,-0.00065705,0.00111985,0.00001393,0.00003482,0.00003280,-
 0.00007360,-0.00000883,0.00013133,-0.00001923,0.00002054,-0.00003160,0
 .00001434,0.00000853,0.00000014,-0.00001063,0.00002856,0.00003042,-0.0
 0001551,0.00000156,0.00000564,0.00000223,0.00000155,-0.00002308,0.1294
 0116,0.00189257,-0.25939900,-0.14370993,-0.00005053,0.28293040,-0.0172
 6554,-0.00323109,-0.01633299,-0.00078912,-0.00295441,0.00079457,-0.000
 49925,0.00060620,0.00120478,0.00085076,-0.00019609,-0.00010905,-0.0010
 1167,-0.00099790,0.00133652,0.00143091,0.00337178,0.00004961,-0.000129
 52,-0.00019217,-0.00009905,0.00019051,-0.00008471,-0.00070934,0.000022
 91,-0.00006002,-0.00024778,-0.00000634,-0.00000903,-0.00005260,0.00002
 196,0.00000992,0.00000194,-0.00000162,-0.00000543,-0.00000103,0.000044
 54,-0.00003189,0.00000684,-0.16846261,-0.00874741,-0.14049060,0.014777
 87,0.00150050,0.01687468,0.18537945,-0.02615902,-0.00494309,-0.0297559
 9,-0.00055011,-0.00306289,0.00097639,-0.00030614,0.00017509,0.00124738
 ,-0.00010512,-0.00052698,-0.00027904,-0.00009587,0.00056763,0.00122031
 ,0.00070322,0.00234862,0.00121359,-0.00014457,-0.00021152,-0.00003354,
 -0.00023381,0.00011908,-0.00029400,0.00004992,-0.00001258,-0.00011513,
 -0.00003850,-0.00003429,0.00002718,-0.00001131,0.00003236,-0.00000413,
 0.00000489,0.00003914,-0.00000824,0.00003757,-0.00002445,0.00002493,-0
 .00612872,-0.05927591,-0.00994893,0.00048001,-0.00034310,-0.00039050,0
 .01308067,0.06226269,0.00404267,0.00129766,0.00476168,0.00020264,0.000
 12835,-0.00054055,0.00004751,0.00034567,-0.00045497,0.00035138,-0.0000
 9475,-0.00005441,-0.00022934,-0.00051160,0.00003658,0.00056341,0.00016
 521,0.00092961,0.00001464,0.00000265,0.00005091,0.00007913,0.00001992,
 0.00022733,0.00000966,-0.00001424,0.00000475,-0.00001141,-0.00000553,0
 .00000757,-0.00000731,-0.00000582,-0.00002269,0.00001619,-0.00000281,0
 .00000435,0.00000693,-0.00002180,0.00002840,-0.14072783,-0.01138138,-0
 .22465831,-0.02219018,-0.00120034,-0.02689272,0.15551876,0.01006254,0.
 24458050,0.01352946,-0.01924024,-0.00051691,0.00062038,-0.00034518,-0.
 00003830,0.00048190,-0.00013368,-0.00004122,-0.00003459,0.00011883,-0.
 00000350,0.00056552,-0.00086244,0.00001234,-0.00146680,-0.00448902,0.0
 0033832,0.00003848,0.00009538,-0.00000416,-0.00035995,-0.00062183,0.00
 007399,0.00000282,0.00003206,-0.00000224,-0.00015763,-0.00014520,0.000
 01021,-0.00000316,-0.00000893,-0.00001493,0.00006357,-0.00004784,-0.00
 000322,-0.00000143,-0.00000721,0.00001629,-0.16763932,0.14035054,0.002
 97447,-0.01242541,0.01590020,-0.00136849,-0.01455325,0.01941688,0.0023
 1314,0.18133941,0.02466682,-0.02153204,-0.00104556,0.00153608,0.001253
 14,-0.00013529,-0.00007763,-0.00034824,0.00000773,-0.00068225,0.000051
 16,0.00004052,0.00115672,0.00020663,-0.00006833,-0.00344594,-0.0087797
 0,0.00051160,-0.00003852,0.00001298,0.00000249,-0.00135761,0.00063621,
 0.00008340,-0.00015823,0.00003121,0.00000871,-0.00031907,-0.00026323,0
 .00002576,0.00000192,0.00003890,-0.00000442,0.00006288,-0.00013599,-0.
 00000048,0.00000223,0.00003949,0.00000226,0.13189582,-0.23808879,-0.00
 338081,-0.00117195,0.00133881,-0.00103388,-0.00205892,0.00289019,0.001
 21626,-0.15001233,0.26264927,-0.00172156,0.00171413,-0.00303575,-0.000
 08960,-0.00001615,-0.00013033,-0.00004289,0.00001166,-0.00022974,0.000
 01864,-0.00000993,-0.00003975,-0.00004275,0.00005901,0.00039655,0.0003
 0974,0.00057589,0.00191964,-0.00000050,-0.00000598,0.00001388,0.000094
 44,0.00003674,0.00053938,0.00000297,-0.00000340,-0.00001883,0.00001495
 ,0.00001476,-0.00006032,0.00000259,-0.00000723,0.00000612,-0.00000625,
 0.00000650,-0.00000799,-0.00000175,0.00000634,0.00000385,0.00320638,-0
 .00391249,-0.05920137,0.01974664,-0.02829705,0.00141753,-0.01774524,0.
 02605717,0.00199198,-0.00374579,0.00377002,0.05643516\\0.00000232,0.00
 001259,0.00000115,-0.00000109,-0.00000115,-0.00000714,-0.00000182,-0.0
 0000006,0.00000012,-0.00000025,0.00000110,0.00000720,0.00000308,-0.000
 01239,-0.00000142,0.00000861,0.00000031,-0.00000058,0.00000178,0.00000
 007,-0.00000011,-0.00000091,0.00000024,0.00000317,-0.00000129,-0.00000
 032,-0.00000303,-0.00000200,0.00000861,-0.00000258,-0.00000146,-0.0000
 0137,0.00000248,0.00000104,-0.00000012,0.00000040,-0.00000317,0.000000
 62,-0.00000119,-0.00000102,-0.00000872,0.00000275,-0.00000293,-0.00000
 083,0.00000158,-0.00000186,0.00000124,-0.00000227,0.00000097,0.0000001
 9,-0.00000053\\\@


 HE THAT RISETH LATE MUST TROT ALL DAY.

                  -- BENJAMIN FRANKLIN
 Job cpu time:       0 days  0 hours  0 minutes  4.7 seconds.
 Elapsed time:       0 days  0 hours  0 minutes  4.7 seconds.
 File lengths (MBytes):  RWF=     25 Int=      0 D2E=      0 Chk=      2 Scr=      1
 Normal termination of Gaussian 16 at Thu Jul 10 20:47:38 2025.
