 Entering Gaussian System, Link 0=g16
 Input=/home/gaussian/Documents/program files/Aromaticity/AM1 HF3-21G*/Toluene/toluene_isomer_sp.com
 Output=/home/gaussian/Documents/program files/Aromaticity/AM1 HF3-21G*/Toluene/toluene_isomer_sp.log
 Initial command:
 /usr/local/g16/l1.exe "/home/gaussian/tmp/Gau-142197.inp" -scrdir="/home/gaussian/tmp/"
 Entering Link 1 = /usr/local/g16/l1.exe PID=    142200.
  
 Copyright (c) 1988-2017, Gaussian, Inc.  All Rights Reserved.
  
 This is part of the Gaussian(R) 16 program.  It is based on
 the Gaussian(R) 09 system (copyright 2009, Gaussian, Inc.),
 the Gaussian(R) 03 system (copyright 2003, Gaussian, Inc.),
 the Gaussian(R) 98 system (copyright 1998, Gaussian, Inc.),
 the Gaussian(R) 94 system (copyright 1995, Gaussian, Inc.),
 the Gaussian 92(TM) system (copyright 1992, Gaussian, Inc.),
 the Gaussian 90(TM) system (copyright 1990, Gaussian, Inc.),
 the Gaussian 88(TM) system (copyright 1988, Gaussian, Inc.),
 the Gaussian 86(TM) system (copyright 1986, Carnegie Mellon
 University), and the Gaussian 82(TM) system (copyright 1983,
 Carnegie Mellon University). Gaussian is a federally registered
 trademark of Gaussian, Inc.
  
 This software contains proprietary and confidential information,
 including trade secrets, belonging to Gaussian, Inc.
  
 This software is provided under written license and may be
 used, copied, transmitted, or stored only in accord with that
 written license.
  
 The following legend is applicable only to US Government
 contracts under FAR:
  
                    RESTRICTED RIGHTS LEGEND
  
 Use, reproduction and disclosure by the US Government is
 subject to restrictions as set forth in subparagraphs (a)
 and (c) of the Commercial Computer Software - Restricted
 Rights clause in FAR 52.227-19.
  
 Gaussian, Inc.
 340 Quinnipiac St., Bldg. 40, Wallingford CT 06492
  
  
 ---------------------------------------------------------------
 Warning -- This program may not be used in any manner that
 competes with the business of Gaussian, Inc. or will provide
 assistance to any competitor of Gaussian, Inc.  The licensee
 of this program is prohibited from giving any competitor of
 Gaussian, Inc. access to this program.  By using this program,
 the user acknowledges that Gaussian, Inc. is engaged in the
 business of creating and licensing software in the field of
 computational chemistry and represents and warrants to the
 licensee that it is not a competitor of Gaussian, Inc. and that
 it will not use this program in any manner prohibited above.
 ---------------------------------------------------------------
  

 Cite this work as:
 Gaussian 16, Revision B.01,
 M. J. Frisch, G. W. Trucks, H. B. Schlegel, G. E. Scuseria, 
 M. A. Robb, J. R. Cheeseman, G. Scalmani, V. Barone, 
 G. A. Petersson, H. Nakatsuji, X. Li, M. Caricato, A. V. Marenich, 
 J. Bloino, B. G. Janesko, R. Gomperts, B. Mennucci, H. P. Hratchian, 
 J. V. Ortiz, A. F. Izmaylov, J. L. Sonnenberg, D. Williams-Young, 
 F. Ding, F. Lipparini, F. Egidi, J. Goings, B. Peng, A. Petrone, 
 T. Henderson, D. Ranasinghe, V. G. Zakrzewski, J. Gao, N. Rega, 
 G. Zheng, W. Liang, M. Hada, M. Ehara, K. Toyota, R. Fukuda, 
 J. Hasegawa, M. Ishida, T. Nakajima, Y. Honda, O. Kitao, H. Nakai, 
 T. Vreven, K. Throssell, J. A. Montgomery, Jr., J. E. Peralta, 
 F. Ogliaro, M. J. Bearpark, J. J. Heyd, E. N. Brothers, K. N. Kudin, 
 V. N. Staroverov, T. A. Keith, R. Kobayashi, J. Normand, 
 K. Raghavachari, A. P. Rendell, J. C. Burant, S. S. Iyengar, 
 J. Tomasi, M. Cossi, J. M. Millam, M. Klene, C. Adamo, R. Cammi, 
 J. W. Ochterski, R. L. Martin, K. Morokuma, O. Farkas, 
 J. B. Foresman, and D. J. Fox, Gaussian, Inc., Wallingford CT, 2016.
 
 ******************************************
 Gaussian 16:  EM64L-G16RevB.01 20-Dec-2017
                12-Jun-2025 
 ******************************************
 %chk=toluene_isomer_sp.chk
 --------------------------------------
 # hf/3-21g* pop=full geom=connectivity
 --------------------------------------
 1/38=1,57=2,172=1/1;
 2/12=2,17=6,18=5,40=1/2;
 3/5=5,7=1,11=9,25=1,30=1/1,2,3;
 4//1;
 5/5=2,38=5/2;
 6/7=3,28=1/1;
 99/5=1,9=1/99;
 ------------
 Optimisation
 ------------
 Symbolic Z-matrix:
 Charge =  0 Multiplicity = 1
 C                    -1.20002  -1.1573   -0.00022 
 C                    -1.84416   0.02179  -0.00048 
 C                    -1.10457   1.26472   0.00008 
 C                     0.24289   1.26367   0.00043 
 C                     1.01658   0.03156   0.00013 
 C                     0.27792  -1.26886   0.00064 
 H                    -1.74595  -2.11301  -0.0005 
 H                    -2.94247   0.08309  -0.00111 
 H                    -1.68074   2.20171   0.00016 
 H                     0.81483   2.20516   0.00088 
 C                     2.35867   0.05065  -0.0006 
 H                     2.9326    0.98531  -0.0009 
 H                     2.95542  -0.86962  -0.00097 
 H                     0.59072  -1.86427   0.90514 
 H                     0.59174  -1.86569  -0.90255 
 
                          Input orientation:                          
 ---------------------------------------------------------------------
 Center     Atomic      Atomic             Coordinates (Angstroms)
 Number     Number       Type             X           Y           Z
 ---------------------------------------------------------------------
      1          6           0       -1.200015   -1.157296   -0.000220
      2          6           0       -1.844163    0.021786   -0.000477
      3          6           0       -1.104571    1.264717    0.000077
      4          6           0        0.242889    1.263666    0.000431
      5          6           0        1.016581    0.031559    0.000127
      6          6           0        0.277921   -1.268860    0.000636
      7          1           0       -1.745951   -2.113015   -0.000498
      8          1           0       -2.942473    0.083090   -0.001108
      9          1           0       -1.680742    2.201706    0.000163
     10          1           0        0.814829    2.205160    0.000884
     11          6           0        2.358668    0.050651   -0.000601
     12          1           0        2.932598    0.985311   -0.000895
     13          1           0        2.955421   -0.869624   -0.000972
     14          1           0        0.590719   -1.864274    0.905142
     15          1           0        0.591735   -1.865694   -0.902553
 ---------------------------------------------------------------------
                    Distance matrix (angstroms):
                    1          2          3          4          5
     1  C    0.000000
     2  C    1.343563   0.000000
     3  C    2.423893   1.446331   0.000000
     4  C    2.818338   2.428591   1.347460   0.000000
     5  C    2.515288   2.860761   2.453562   1.454884   0.000000
     6  C    1.482141   2.483749   2.886225   2.532768   1.495563
     7  H    1.100657   2.137059   3.438087   3.918860   3.497253
     8  H    2.138859   1.100020   2.184978   3.397101   3.959390
     9  H    3.393228   2.186037   1.099964   2.140158   3.461949
    10  H    3.919912   3.440547   2.137412   1.101602   2.182944
    11  C    3.758106   4.202930   3.669875   2.438837   1.342223
    12  H    4.655025   4.872969   4.046826   2.704074   2.140272
    13  H    4.165382   4.881661   4.586823   3.450907   2.138044
    14  H    2.127493   3.210299   3.672021   3.274675   2.143500
    15  H    2.127534   3.210907   3.673101   3.275663   2.143570
                    6          7          8          9         10
     6  C    0.000000
     7  H    2.192865   0.000000
     8  H    3.492665   2.500908   0.000000
     9  H    3.985121   4.315214   2.465867   0.000000
    10  H    3.515265   5.020382   4.315148   2.495573   0.000000
    11  C    2.463863   4.639973   5.301240   4.576447   2.650538
    12  H    3.482614   5.611457   5.943943   4.771009   2.443968
    13  H    2.707101   4.863016   5.974347   5.561212   3.746523
    14  H    1.127161   2.518349   4.134847   4.744546   4.174710
    15  H    1.127138   2.517866   4.135334   4.745818   4.175862
                   11         12         13         14         15
    11  C    0.000000
    12  H    1.096807   0.000000
    13  H    1.096823   1.855075   0.000000
    14  H    2.759158   3.798083   2.720696   0.000000
    15  H    2.758251   3.797480   2.718826   1.807696   0.000000
 Stoichiometry    C7H8
 Framework group  C1[X(C7H8)]
 Deg. of freedom    39
 Full point group                 C1      NOp   1
 Largest Abelian subgroup         C1      NOp   1
 Largest concise Abelian subgroup C1      NOp   1
                         Standard orientation:                         
 ---------------------------------------------------------------------
 Center     Atomic      Atomic             Coordinates (Angstroms)
 Number     Number       Type             X           Y           Z
 ---------------------------------------------------------------------
      1          6           0       -1.200015   -1.157296   -0.000220
      2          6           0       -1.844163    0.021786   -0.000477
      3          6           0       -1.104571    1.264717    0.000077
      4          6           0        0.242889    1.263666    0.000431
      5          6           0        1.016581    0.031559    0.000127
      6          6           0        0.277921   -1.268860    0.000636
      7          1           0       -1.745951   -2.113015   -0.000498
      8          1           0       -2.942473    0.083090   -0.001108
      9          1           0       -1.680742    2.201706    0.000163
     10          1           0        0.814829    2.205160    0.000884
     11          6           0        2.358668    0.050651   -0.000601
     12          1           0        2.932598    0.985311   -0.000895
     13          1           0        2.955421   -0.869624   -0.000972
     14          1           0        0.590719   -1.864274    0.905142
     15          1           0        0.591735   -1.865694   -0.902553
 ---------------------------------------------------------------------
 Rotational constants (GHZ):           5.1323136           2.6790503           1.7806463
 Standard basis: 3-21G* (6D, 7F)
 There are    79 symmetry adapted cartesian basis functions of A   symmetry.
 There are    79 symmetry adapted basis functions of A   symmetry.
    79 basis functions,   129 primitive gaussians,    79 cartesian basis functions
    25 alpha electrons       25 beta electrons
       nuclear repulsion energy       269.0108279795 Hartrees.
 NAtoms=   15 NActive=   15 NUniq=   15 SFac= 1.00D+00 NAtFMM=   60 NAOKFM=F Big=F
 Integral buffers will be    131072 words long.
 Raffenetti 1 integral format.
 Two-electron integral symmetry is turned on.
 One-electron integrals computed using PRISM.
 NBasis=    79 RedAO= T EigKep=  2.54D-03  NBF=    79
 NBsUse=    79 1.00D-06 EigRej= -1.00D+00 NBFU=    79
 ExpMin= 1.83D-01 ExpMax= 1.72D+02 ExpMxC= 1.72D+02 IAcc=3 IRadAn=         5 AccDes= 0.00D+00
 Harris functional with IExCor=  205 and IRadAn=       5 diagonalized for initial guess.
 HarFok:  IExCor=  205 AccDes= 0.00D+00 IRadAn=         5 IDoV= 1 UseB2=F ITyADJ=14
 ICtDFT=  3500011 ScaDFX=  1.000000  1.000000  1.000000  1.000000
 FoFCou: FMM=F IPFlag=           0 FMFlag=      100000 FMFlg1=           0
         NFxFlg=           0 DoJE=T BraDBF=F KetDBF=T FulRan=T
         wScrn=  0.000000 ICntrl=       500 IOpCl=  0 I1Cent=   200000004 NGrid=           0
         NMat0=    1 NMatS0=      1 NMatT0=    0 NMatD0=    1 NMtDS0=    0 NMtDT0=    0
 Petite list used in FoFCou.
 Keep R1 ints in memory in canonical form, NReq=5830700.
 Requested convergence on RMS density matrix=1.00D-08 within 128 cycles.
 Requested convergence on MAX density matrix=1.00D-06.
 Requested convergence on             energy=1.00D-06.
 No special actions if energy rises.
 SCF Done:  E(RHF) =  -268.173790191     A.U. after   14 cycles
            NFock= 14  Conv=0.34D-08     -V/T= 2.0029

 **********************************************************************

            Population analysis using the SCF Density.

 **********************************************************************

 Orbital symmetries:
       Occupied  (A) (A) (A) (A) (A) (A) (A) (A) (A) (A) (A) (A)
                 (A) (A) (A) (A) (A) (A) (A) (A) (A) (A) (A) (A)
                 (A)
       Virtual   (A) (A) (A) (A) (A) (A) (A) (A) (A) (A) (A) (A)
                 (A) (A) (A) (A) (A) (A) (A) (A) (A) (A) (A) (A)
                 (A) (A) (A) (A) (A) (A) (A) (A) (A) (A) (A) (A)
                 (A) (A) (A) (A) (A) (A) (A) (A) (A) (A) (A) (A)
                 (A) (A) (A) (A) (A) (A)
 The electronic state is 1-A.
 Alpha  occ. eigenvalues --  -11.18879 -11.18344 -11.18219 -11.18129 -11.17921
 Alpha  occ. eigenvalues --  -11.17630 -11.16102  -1.14773  -1.04857  -1.01991
 Alpha  occ. eigenvalues --   -0.91771  -0.82663  -0.77347  -0.68742  -0.64135
 Alpha  occ. eigenvalues --   -0.63636  -0.59389  -0.58483  -0.56390  -0.53568
 Alpha  occ. eigenvalues --   -0.48986  -0.45946  -0.44628  -0.39142  -0.27359
 Alpha virt. eigenvalues --    0.09462   0.20704   0.25861   0.28538   0.29319
 Alpha virt. eigenvalues --    0.30498   0.32770   0.35406   0.36125   0.37158
 Alpha virt. eigenvalues --    0.39266   0.44278   0.47066   0.52742   0.54274
 Alpha virt. eigenvalues --    0.58473   0.73805   0.76953   0.88359   0.91079
 Alpha virt. eigenvalues --    0.94819   0.97392   0.99667   1.00890   1.05577
 Alpha virt. eigenvalues --    1.05638   1.09758   1.10489   1.10786   1.11703
 Alpha virt. eigenvalues --    1.13095   1.14219   1.16580   1.26900   1.28811
 Alpha virt. eigenvalues --    1.29872   1.32316   1.35763   1.38211   1.38827
 Alpha virt. eigenvalues --    1.42628   1.45239   1.56151   1.57702   1.63470
 Alpha virt. eigenvalues --    1.69917   1.73682   1.76980   1.82664   1.85003
 Alpha virt. eigenvalues --    2.03008   2.16097   2.33603   2.78506
     Molecular Orbital Coefficients:
                           1         2         3         4         5
                           O         O         O         O         O
     Eigenvalues --   -11.18879 -11.18344 -11.18219 -11.18129 -11.17921
   1 1   C  1S         -0.00249   0.97391   0.15603   0.03661   0.01900
   2        2S          0.00029   0.09850   0.01246   0.00367   0.00111
   3        2PX        -0.00051   0.00093  -0.00024   0.00039  -0.00029
   4        2PY        -0.00018   0.00100  -0.00013  -0.00099  -0.00007
   5        2PZ         0.00000   0.00000  -0.00000  -0.00000  -0.00000
   6        3S         -0.00910  -0.09151   0.01887  -0.01406   0.00789
   7        3PX        -0.00264  -0.01147   0.01965  -0.00308   0.00377
   8        3PY        -0.00497  -0.01938   0.00464  -0.00573   0.00309
   9        3PZ        -0.00000  -0.00001   0.00001  -0.00000   0.00000
  10 2   C  1S         -0.00484  -0.01046  -0.00696  -0.05539  -0.02803
  11        2S         -0.00124  -0.00581  -0.00094  -0.00940  -0.00286
  12        2PX        -0.00029  -0.00153  -0.00056  -0.00104  -0.00071
  13        2PY         0.00001   0.00150   0.00108  -0.00025  -0.00085
  14        2PZ         0.00000  -0.00000  -0.00000  -0.00000  -0.00000
  15        3S          0.00939   0.03750  -0.00554   0.03741  -0.00678
  16        3PX         0.00611   0.02056  -0.00757   0.02002  -0.00626
  17        3PY         0.00021  -0.01239  -0.00534   0.00785   0.00090
  18        3PZ         0.00000   0.00001  -0.00000   0.00001  -0.00000
  19 3   C  1S         -0.00577  -0.02699  -0.07143   0.98153   0.04988
  20        2S         -0.00029  -0.00234  -0.00798   0.09929   0.00016
  21        2PX        -0.00066   0.00042   0.00003   0.00080  -0.00195
  22        2PY         0.00010   0.00102   0.00032  -0.00129   0.00059
  23        2PZ         0.00000   0.00000  -0.00000  -0.00000  -0.00000
  24        3S         -0.00864  -0.01197   0.01928  -0.09385   0.03384
  25        3PX        -0.00204  -0.00587   0.00452  -0.01481   0.02009
  26        3PY         0.00687   0.00543  -0.00595   0.02096  -0.01117
  27        3PZ        -0.00000  -0.00000   0.00000   0.00000   0.00000
  28 4   C  1S         -0.02658  -0.01415  -0.02298  -0.05457   0.98478
  29        2S         -0.00591  -0.00200  -0.00202  -0.01050   0.09900
  30        2PX        -0.00023   0.00008  -0.00047   0.00207  -0.00069
  31        2PY         0.00102   0.00040   0.00064   0.00072  -0.00119
  32        2PZ         0.00000   0.00000  -0.00000   0.00000  -0.00000
  33        3S          0.02884   0.00783  -0.00673   0.04551  -0.09077
  34        3PX         0.00307  -0.00630   0.01151  -0.01994   0.01234
  35        3PY        -0.01637  -0.00394   0.00476  -0.01316   0.01960
  36        3PZ        -0.00000  -0.00000   0.00000  -0.00001   0.00001
  37 5   C  1S          0.98676  -0.00164   0.02288   0.00603   0.02665
  38        2S          0.10033   0.00091  -0.00014   0.00113  -0.00046
  39        2PX        -0.00012   0.00071   0.00100   0.00081   0.00126
  40        2PY        -0.00010  -0.00007   0.00086  -0.00038  -0.00075
  41        2PZ         0.00000   0.00000  -0.00000   0.00000  -0.00000
  42        3S         -0.09192  -0.01540   0.02045  -0.01312   0.02274
  43        3PX         0.00431   0.00466  -0.02197   0.00402  -0.02220
  44        3PY        -0.00085   0.00806  -0.02055  -0.00450   0.01240
  45        3PZ        -0.00000  -0.00000   0.00001  -0.00000   0.00001
  46 6   C  1S         -0.02463  -0.15981   0.97255   0.06418   0.02329
  47        2S         -0.00507  -0.02025   0.10444   0.00597   0.00268
  48        2PX         0.00018   0.00048  -0.00015  -0.00004  -0.00015
  49        2PY        -0.00060  -0.00041  -0.00010  -0.00006  -0.00099
  50        2PZ         0.00000   0.00000   0.00000   0.00000  -0.00000
  51        3S          0.02429   0.04513  -0.10603   0.00135  -0.00965
  52        3PX         0.00188  -0.01310   0.00421  -0.00286   0.00466
  53        3PY         0.01446   0.01200  -0.01271   0.00242  -0.00327
  54        3PZ        -0.00001  -0.00001   0.00001  -0.00000   0.00001
  55 7   H  1S         -0.00025  -0.00174  -0.00047  -0.00032  -0.00004
  56        2S         -0.00052   0.00635   0.00490   0.00009   0.00128
  57 8   H  1S          0.00020   0.00014  -0.00077   0.00009  -0.00046
  58        2S          0.00154   0.00494  -0.00131   0.00407  -0.00087
  59 9   H  1S         -0.00045  -0.00030   0.00007  -0.00209  -0.00008
  60        2S         -0.00110  -0.00107   0.00098   0.00539   0.00535
  61 10  H  1S         -0.00035   0.00042  -0.00085   0.00000  -0.00205
  62        2S          0.00208   0.00165  -0.00272   0.00397   0.00601
  63 11  C  1S         -0.00061  -0.00154  -0.00464  -0.00337  -0.00567
  64        2S         -0.00385  -0.00067  -0.00144  -0.00114  -0.00155
  65        2PX         0.00187   0.00001   0.00028   0.00021   0.00025
  66        2PY         0.00001   0.00010   0.00043  -0.00027  -0.00016
  67        2PZ        -0.00000  -0.00000  -0.00000  -0.00000   0.00000
  68        3S          0.02362   0.00181   0.01091   0.00231   0.01058
  69        3PX        -0.01228  -0.00190  -0.00588  -0.00261  -0.00490
  70        3PY         0.00003  -0.00337   0.00364   0.00327  -0.00272
  71        3PZ         0.00001   0.00000   0.00000   0.00000   0.00000
  72 12  H  1S         -0.00097   0.00028  -0.00061  -0.00059   0.00012
  73        2S          0.00001   0.00142  -0.00030  -0.00043   0.00059
  74 13  H  1S         -0.00092  -0.00055   0.00015   0.00025  -0.00051
  75        2S          0.00012  -0.00055   0.00141   0.00169  -0.00031
  76 14  H  1S         -0.00126  -0.00160   0.00164  -0.00015   0.00018
  77        2S          0.00244   0.00078   0.01333   0.00121   0.00013
  78 15  H  1S         -0.00126  -0.00160   0.00164  -0.00015   0.00018
  79        2S          0.00243   0.00077   0.01333   0.00121   0.00014
                           6         7         8         9        10
                           O         O         O         O         O
     Eigenvalues --   -11.17630 -11.16102  -1.14773  -1.04857  -1.01991
   1 1   C  1S          0.01318   0.00228  -0.09008   0.07996  -0.10800
   2        2S         -0.00363  -0.00051   0.10221  -0.08538   0.11664
   3        2PX         0.00044  -0.00023   0.01981   0.04401   0.03902
   4        2PY        -0.00204  -0.00010   0.04901  -0.06145  -0.00113
   5        2PZ         0.00000  -0.00000   0.00001   0.00001   0.00003
   6        3S          0.03723   0.00432   0.15252  -0.18696   0.23422
   7        3PX         0.00023   0.00261  -0.00676  -0.00891  -0.00491
   8        3PY         0.02240   0.00214   0.00240  -0.01231  -0.00055
   9        3PZ         0.00000   0.00000  -0.00000  -0.00001   0.00000
  10 2   C  1S          0.98524   0.00113  -0.08980   0.11736  -0.01248
  11        2S          0.09893   0.00009   0.09975  -0.12741   0.01269
  12        2PX         0.00136  -0.00014   0.05475  -0.04089   0.00178
  13        2PY        -0.00007  -0.00004  -0.00983   0.01660  -0.09522
  14        2PZ         0.00000  -0.00000   0.00003  -0.00002  -0.00000
  15        3S         -0.08866  -0.00249   0.17532  -0.25596   0.03870
  16        3PX        -0.02245  -0.00228   0.01989  -0.00784   0.00929
  17        3PY         0.00316   0.00036   0.00137   0.00123  -0.00374
  18        3PZ        -0.00001  -0.00000   0.00001  -0.00001   0.00000
  19 3   C  1S          0.05495   0.00310  -0.09144   0.07207   0.11675
  20        2S          0.00170  -0.00056   0.10346  -0.07724  -0.12524
  21        2PX         0.00005  -0.00019   0.03692   0.02566  -0.07561
  22        2PY         0.00095   0.00013  -0.04307   0.04405  -0.00789
  23        2PZ         0.00000  -0.00000  -0.00000   0.00002  -0.00002
  24        3S          0.02894   0.00607   0.15542  -0.17064  -0.28441
  25        3PX         0.00175   0.00401  -0.00096  -0.01010  -0.01265
  26        3PY        -0.01946  -0.00230  -0.00454   0.01239   0.01322
  27        3PZ        -0.00000   0.00000  -0.00000   0.00000   0.00000
  28 4   C  1S          0.02476   0.00528  -0.09659  -0.01950   0.12388
  29        2S          0.00224   0.00003   0.10782   0.02075  -0.13417
  30        2PX         0.00108  -0.00091  -0.02897   0.07756   0.06717
  31        2PY         0.00013   0.00017  -0.04544  -0.03236  -0.00262
  32        2PZ         0.00000   0.00000  -0.00002   0.00000   0.00002
  33        3S         -0.01155  -0.00304   0.18997   0.04779  -0.27754
  34        3PX         0.00372   0.00455  -0.01880  -0.00281   0.00335
  35        3PY         0.00656   0.00001  -0.01686  -0.00280   0.00025
  36        3PZ         0.00000   0.00000  -0.00001  -0.00001   0.00000
  37 5   C  1S          0.00582   0.00045  -0.10793  -0.12919   0.00522
  38        2S         -0.00030  -0.00369   0.11933   0.13846  -0.00452
  39        2PX         0.00051  -0.00265  -0.02093   0.07516   0.00284
  40        2PY         0.00015   0.00005   0.00179  -0.00138  -0.09360
  41        2PZ        -0.00000   0.00000   0.00000  -0.00003   0.00001
  42        3S          0.00744   0.02505   0.21058   0.29325  -0.02026
  43        3PX        -0.00802   0.01528   0.02201   0.01631   0.01582
  44        3PY        -0.00184  -0.00069   0.01099   0.00442  -0.00654
  45        3PZ         0.00000  -0.00001  -0.00000  -0.00000  -0.00000
  46 6   C  1S          0.00970   0.00459  -0.09520  -0.03577  -0.11992
  47        2S          0.00168   0.00006   0.09119   0.03299   0.10998
  48        2PX         0.00102  -0.00077  -0.01649   0.06380  -0.04071
  49        2PY        -0.00037  -0.00037   0.04222   0.02885  -0.00610
  50        2PZ         0.00000   0.00000  -0.00003  -0.00000  -0.00003
  51        3S         -0.01234  -0.00250   0.24700   0.10687   0.35625
  52        3PX         0.00174   0.00209  -0.00803   0.00385  -0.01083
  53        3PY        -0.00632   0.00030   0.01146   0.00189   0.00354
  54        3PZ         0.00000   0.00000  -0.00000   0.00000   0.00001
  55 7   H  1S         -0.00019   0.00006   0.03089  -0.03400   0.05638
  56        2S          0.00456   0.00108  -0.00721  -0.00562   0.00866
  57 8   H  1S         -0.00210  -0.00022   0.03031  -0.05151   0.00502
  58        2S          0.00614  -0.00037  -0.00165  -0.00533   0.00253
  59 9   H  1S         -0.00015   0.00007   0.03062  -0.03243  -0.05628
  60        2S          0.00479   0.00132  -0.00585  -0.00674  -0.01175
  61 10  H  1S         -0.00057  -0.00033   0.03442   0.01632  -0.05966
  62        2S         -0.00069  -0.00071   0.00158   0.00809  -0.00799
  63 11  C  1S         -0.00153   0.98681  -0.04960  -0.11354   0.00276
  64        2S         -0.00040   0.09645   0.05842   0.12417  -0.00275
  65        2PX         0.00000  -0.00033  -0.04773  -0.08187   0.00222
  66        2PY         0.00002  -0.00000  -0.00093  -0.00237  -0.01771
  67        2PZ         0.00000   0.00000   0.00003   0.00005   0.00000
  68        3S          0.00396  -0.06957   0.06722   0.23932  -0.01305
  69        3PX        -0.00175   0.00910   0.01198  -0.01115   0.00434
  70        3PY         0.00049   0.00026  -0.00313  -0.00081  -0.00529
  71        3PZ         0.00000  -0.00000  -0.00001   0.00001  -0.00001
  72 12  H  1S         -0.00011  -0.00118   0.01887   0.04885  -0.00655
  73        2S         -0.00018   0.01158  -0.00188   0.00346  -0.00515
  74 13  H  1S         -0.00000  -0.00116   0.01865   0.04955   0.00448
  75        2S          0.00018   0.01164  -0.00434   0.00398   0.00383
  76 14  H  1S          0.00030  -0.00019   0.03503   0.01922   0.05805
  77        2S         -0.00004   0.00023  -0.01145   0.00004  -0.00041
  78 15  H  1S          0.00030  -0.00019   0.03502   0.01923   0.05805
  79        2S         -0.00004   0.00023  -0.01143   0.00006  -0.00039
                          11        12        13        14        15
                           O         O         O         O         O
     Eigenvalues --    -0.91771  -0.82663  -0.77347  -0.68742  -0.64135
   1 1   C  1S          0.02653   0.09059   0.07074  -0.01477  -0.05516
   2        2S         -0.02743  -0.09226  -0.06995   0.01879   0.05506
   3        2PX         0.12003   0.06895  -0.02908   0.07234  -0.08478
   4        2PY        -0.07651  -0.00979   0.12112   0.12657  -0.08635
   5        2PZ         0.00006   0.00004  -0.00002   0.00003  -0.00013
   6        3S         -0.08091  -0.29577  -0.23633   0.03849   0.20062
   7        3PX         0.02114   0.00480  -0.01302   0.05486  -0.06013
   8        3PY        -0.01877  -0.01101   0.06122   0.08680  -0.07859
   9        3PZ         0.00001  -0.00000  -0.00001   0.00003  -0.00009
  10 2   C  1S          0.10908  -0.01956  -0.06818   0.02880   0.05461
  11        2S         -0.11439   0.01904   0.06964  -0.02372  -0.05610
  12        2PX         0.01029  -0.01460  -0.01768   0.21653   0.05183
  13        2PY         0.03849   0.18139   0.03718  -0.02932  -0.05688
  14        2PZ         0.00001   0.00001  -0.00001   0.00011  -0.00001
  15        3S         -0.29631   0.06329   0.22732  -0.13070  -0.18970
  16        3PX        -0.00055   0.00007   0.00309   0.14056   0.06106
  17        3PY         0.00828   0.06776   0.02087  -0.01948  -0.03774
  18        3PZ        -0.00000   0.00001   0.00000   0.00007  -0.00001
  19 3   C  1S         -0.01964  -0.10225   0.04486  -0.01335  -0.05105
  20        2S          0.02012   0.10513  -0.04607   0.01840   0.05264
  21        2PX         0.09865  -0.11440  -0.08263   0.11878   0.00435
  22        2PY         0.04925  -0.00441  -0.11601  -0.12238   0.12379
  23        2PZ         0.00004  -0.00003  -0.00006   0.00001   0.00001
  24        3S          0.05457   0.31780  -0.14566   0.03245   0.17355
  25        3PX         0.02675  -0.04211  -0.02607   0.07674  -0.02519
  26        3PY         0.00622  -0.00639  -0.05574  -0.08555   0.10317
  27        3PZ         0.00001  -0.00002  -0.00002   0.00001  -0.00000
  28 4   C  1S         -0.06823   0.09341   0.02518   0.02272   0.04601
  29        2S          0.07149  -0.09703  -0.02409  -0.01844  -0.04663
  30        2PX        -0.05387  -0.10922   0.09659  -0.14964  -0.10426
  31        2PY         0.00136   0.02769  -0.14067  -0.11226  -0.03226
  32        2PZ         0.00001  -0.00001  -0.00001  -0.00006  -0.00008
  33        3S          0.18787  -0.28606  -0.09679  -0.10304  -0.15672
  34        3PX        -0.02342  -0.03676   0.03665  -0.08244  -0.08245
  35        3PY        -0.01213   0.01430  -0.05368  -0.08289  -0.04505
  36        3PZ        -0.00000   0.00000  -0.00000  -0.00005  -0.00007
  37 5   C  1S          0.01913   0.02265  -0.09594   0.01771  -0.07015
  38        2S         -0.01870  -0.02351   0.09822  -0.01754   0.07236
  39        2PX        -0.16296   0.05321  -0.09695  -0.07814   0.11820
  40        2PY        -0.02789  -0.15446  -0.01061  -0.03733  -0.08368
  41        2PZ         0.00009  -0.00002   0.00007  -0.00002  -0.00017
  42        3S         -0.07195  -0.07429   0.32039  -0.06309   0.25862
  43        3PX        -0.02528   0.03396  -0.07507  -0.05566   0.08317
  44        3PY         0.00106  -0.06312  -0.00800  -0.02723  -0.06856
  45        3PZ         0.00002  -0.00002   0.00005  -0.00000  -0.00011
  46 6   C  1S         -0.10795  -0.06896   0.00583   0.01865   0.04800
  47        2S          0.09589   0.05888  -0.00243  -0.01133  -0.03930
  48        2PX        -0.01205   0.08243   0.09914  -0.06710   0.01383
  49        2PY        -0.00712  -0.02223   0.11871   0.10181   0.09800
  50        2PZ         0.00002   0.00003   0.00003  -0.00006  -0.00032
  51        3S          0.37259   0.27167  -0.03790  -0.09324  -0.21409
  52        3PX        -0.01329   0.02489   0.04397  -0.03875  -0.00722
  53        3PY         0.00960  -0.00173   0.05330   0.06804   0.06827
  54        3PZ         0.00001   0.00001   0.00002  -0.00004  -0.00026
  55 7   H  1S         -0.01421  -0.07757  -0.10131  -0.07043   0.12468
  56        2S         -0.00514  -0.04046  -0.05555  -0.04881   0.08533
  57 8   H  1S         -0.07392   0.02631   0.06282  -0.14970  -0.08561
  58        2S         -0.02630   0.01555   0.03511  -0.10164  -0.05022
  59 9   H  1S          0.00834   0.10079  -0.06277  -0.08346   0.11238
  60        2S          0.00414   0.04970  -0.03270  -0.05923   0.07026
  61 10  H  1S          0.03224  -0.08314  -0.05617  -0.11798  -0.09729
  62        2S          0.00987  -0.03815  -0.03911  -0.07679  -0.06527
  63 11  C  1S          0.13130  -0.03515   0.08787  -0.03642   0.01755
  64        2S         -0.13823   0.03699  -0.08862   0.03269  -0.01027
  65        2PX         0.03257   0.01539  -0.10421   0.11257  -0.21424
  66        2PY        -0.00635  -0.05232  -0.00760  -0.02659  -0.08243
  67        2PZ        -0.00002  -0.00001   0.00006  -0.00009   0.00007
  68        3S         -0.35056   0.09798  -0.27455   0.14885  -0.11841
  69        3PX         0.01259   0.01088  -0.05051   0.05768  -0.10542
  70        3PY        -0.00562  -0.02733  -0.00289  -0.01727  -0.05147
  71        3PZ        -0.00001  -0.00000   0.00003  -0.00005   0.00002
  72 12  H  1S         -0.07957   0.00785  -0.09935   0.04848  -0.12978
  73        2S         -0.02223  -0.00223  -0.05569   0.03015  -0.10998
  74 13  H  1S         -0.07498   0.05091  -0.09352   0.07713  -0.04580
  75        2S         -0.02133   0.02644  -0.05092   0.05259  -0.04063
  76 14  H  1S          0.05936   0.05828  -0.02228  -0.05546  -0.06517
  77        2S          0.01186   0.02625  -0.01657  -0.03826  -0.04785
  78 15  H  1S          0.05935   0.05832  -0.02234  -0.05551  -0.06492
  79        2S          0.01186   0.02628  -0.01661  -0.03830  -0.04766
                          16        17        18        19        20
                           O         O         O         O         O
     Eigenvalues --    -0.63636  -0.59389  -0.58483  -0.56390  -0.53568
   1 1   C  1S          0.01813  -0.00007  -0.01758   0.01419   0.00969
   2        2S         -0.01522   0.00007   0.02325  -0.01390  -0.00614
   3        2PX        -0.16498  -0.00017   0.07866  -0.05170  -0.11269
   4        2PY         0.12926   0.00034   0.24598  -0.01915   0.09213
   5        2PZ        -0.00012   0.11348  -0.00010   0.00008  -0.00015
   6        3S         -0.06891   0.00018   0.01707  -0.06626  -0.05572
   7        3PX        -0.09630  -0.00011   0.07049  -0.04473  -0.08184
   8        3PY         0.08683   0.00023   0.19242  -0.03050   0.07393
   9        3PZ        -0.00007   0.08286  -0.00007   0.00005  -0.00012
  10 2   C  1S         -0.02577   0.00004  -0.01076  -0.02018   0.00594
  11        2S          0.02779  -0.00004   0.01558   0.02251  -0.00546
  12        2PX        -0.05083   0.00020   0.18040   0.11215  -0.05094
  13        2PY        -0.19719  -0.00035  -0.09912   0.05657  -0.17533
  14        2PZ        -0.00007   0.07069   0.00001   0.00012  -0.00012
  15        3S          0.07877  -0.00021   0.00016   0.06052  -0.01837
  16        3PX        -0.04833   0.00018   0.14159   0.08965  -0.03586
  17        3PY        -0.10140  -0.00020  -0.05549   0.03101  -0.10670
  18        3PZ        -0.00005   0.06436   0.00000   0.00011  -0.00010
  19 3   C  1S          0.02729  -0.00004   0.00456  -0.01666  -0.01014
  20        2S         -0.02587   0.00003  -0.00723   0.02221   0.01253
  21        2PX         0.20108  -0.00018  -0.10817   0.11975   0.11152
  22        2PY         0.05637   0.00040   0.08090  -0.20269   0.14314
  23        2PZ         0.00008   0.05177  -0.00005  -0.00000   0.00001
  24        3S         -0.10342   0.00019   0.00513   0.01460   0.02440
  25        3PX         0.13117  -0.00016  -0.07472   0.09426   0.05512
  26        3PY         0.02219   0.00035   0.07275  -0.17378   0.13743
  27        3PZ         0.00005   0.04356  -0.00005  -0.00001  -0.00001
  28 4   C  1S         -0.03673   0.00008   0.01946  -0.00645   0.02056
  29        2S          0.03755  -0.00009  -0.02416   0.00924  -0.01903
  30        2PX        -0.13607   0.00006   0.11470  -0.10618  -0.14162
  31        2PY         0.13478   0.00021   0.20186   0.00607  -0.05694
  32        2PZ         0.00004   0.06038   0.00001  -0.00003  -0.00012
  33        3S          0.13321  -0.00020  -0.02681   0.00681  -0.06109
  34        3PX        -0.04977   0.00005   0.08939  -0.08001  -0.10160
  35        3PY         0.08510   0.00013   0.15887   0.00170  -0.09832
  36        3PZ         0.00003   0.05391   0.00000  -0.00000  -0.00013
  37 5   C  1S          0.01895  -0.00004   0.01076   0.01757  -0.00756
  38        2S         -0.02126   0.00004  -0.00881  -0.01398   0.00740
  39        2PX         0.00380   0.00020   0.14019   0.24146  -0.03244
  40        2PY        -0.17924  -0.00015  -0.04212   0.06654  -0.02674
  41        2PZ         0.00002   0.12303  -0.00022  -0.00005  -0.00006
  42        3S         -0.06904   0.00018  -0.03086  -0.05265   0.01817
  43        3PX        -0.00339   0.00017   0.09832   0.20513   0.00064
  44        3PY        -0.14051  -0.00017  -0.03575   0.05955  -0.06786
  45        3PZ         0.00002   0.08667  -0.00016  -0.00004  -0.00005
  46 6   C  1S         -0.00596   0.00001  -0.01325   0.00853  -0.01799
  47        2S          0.00613  -0.00001   0.01267  -0.01409   0.01382
  48        2PX         0.18273  -0.00009  -0.04961   0.05554   0.11336
  49        2PY         0.03189   0.00037   0.01892  -0.22969   0.00598
  50        2PZ        -0.00001   0.33122  -0.00049   0.00033  -0.00009
  51        3S          0.01586  -0.00009   0.04336   0.02063   0.07598
  52        3PX         0.11662  -0.00013  -0.03882   0.03819   0.06748
  53        3PY         0.00424   0.00031   0.00987  -0.17313  -0.01061
  54        3PZ        -0.00002   0.29756  -0.00043   0.00028  -0.00009
  55 7   H  1S         -0.03573  -0.00009  -0.15297   0.01684  -0.02838
  56        2S         -0.02336  -0.00009  -0.12622   0.01179  -0.02316
  57 8   H  1S          0.04940  -0.00021  -0.11237  -0.05564   0.02469
  58        2S          0.03093  -0.00016  -0.09186  -0.05108   0.02457
  59 9   H  1S         -0.06148   0.00033   0.07878  -0.14761   0.05981
  60        2S         -0.04032   0.00024   0.06255  -0.12369   0.04216
  61 10  H  1S          0.05894   0.00007   0.13664  -0.02634  -0.10450
  62        2S          0.03407   0.00007   0.11084  -0.02513  -0.07344
  63 11  C  1S          0.00135  -0.00001   0.00301  -0.00580  -0.00036
  64        2S         -0.00195   0.00002   0.00184   0.01547   0.00040
  65        2PX         0.02824  -0.00014  -0.11794  -0.20502   0.01702
  66        2PY        -0.17150   0.00004   0.04322   0.04778   0.28611
  67        2PZ        -0.00001   0.05829  -0.00000   0.00016  -0.00004
  68        3S          0.00628  -0.00004  -0.04294  -0.05567  -0.00576
  69        3PX         0.01133  -0.00003  -0.07078  -0.11135   0.02016
  70        3PY        -0.11047   0.00008   0.04482   0.03099   0.27560
  71        3PZ        -0.00000   0.05614  -0.00003   0.00010  -0.00004
  72 12  H  1S         -0.08196  -0.00002  -0.01352  -0.03920   0.18340
  73        2S         -0.06422  -0.00004  -0.01185  -0.04028   0.15072
  74 13  H  1S          0.09993  -0.00009  -0.07094  -0.09389  -0.16890
  75        2S          0.08336  -0.00008  -0.05995  -0.08719  -0.14367
  76 14  H  1S          0.02777   0.17787  -0.00619   0.08583   0.03391
  77        2S          0.02265   0.14774  -0.01200   0.08346   0.02612
  78 15  H  1S          0.02787  -0.17794  -0.00571   0.08570   0.03406
  79        2S          0.02273  -0.14781  -0.01160   0.08333   0.02625
                          21        22        23        24        25
                           O         O         O         O         O
     Eigenvalues --    -0.48986  -0.45946  -0.44628  -0.39142  -0.27359
   1 1   C  1S          0.00522  -0.00547  -0.00001  -0.00003  -0.00002
   2        2S         -0.00056   0.00701   0.00001   0.00003   0.00001
   3        2PX        -0.24850   0.06236   0.00021   0.00026  -0.00005
   4        2PY         0.02993   0.14145   0.00018   0.00005   0.00001
   5        2PZ        -0.00017   0.00004   0.07363  -0.21406   0.20264
   6        3S         -0.05209   0.00785   0.00001   0.00017   0.00012
   7        3PX        -0.20728   0.09085   0.00023   0.00032  -0.00004
   8        3PY        -0.04857   0.15540   0.00023   0.00010   0.00003
   9        3PZ        -0.00013   0.00003   0.09060  -0.24465   0.27038
  10 2   C  1S         -0.00201   0.00295   0.00000   0.00001   0.00000
  11        2S          0.00278  -0.00131  -0.00000  -0.00000   0.00000
  12        2PX         0.19665  -0.06060  -0.00030   0.00008  -0.00009
  13        2PY        -0.04217  -0.16339  -0.00024  -0.00002  -0.00003
  14        2PZ         0.00014  -0.00020   0.17159  -0.22694   0.15397
  15        3S          0.02380  -0.01212   0.00000  -0.00005  -0.00001
  16        3PX         0.25342  -0.07271  -0.00034   0.00004  -0.00016
  17        3PY        -0.03269  -0.12122  -0.00020  -0.00001  -0.00003
  18        3PZ         0.00016  -0.00020   0.17484  -0.25707   0.21705
  19 3   C  1S         -0.00906   0.00775   0.00001  -0.00001  -0.00000
  20        2S          0.00777  -0.00625  -0.00001   0.00001   0.00000
  21        2PX        -0.17653   0.03484   0.00010   0.00009   0.00009
  22        2PY        -0.01139   0.16313   0.00017   0.00007   0.00006
  23        2PZ         0.00004  -0.00028   0.24757  -0.05055  -0.19641
  24        3S          0.02630  -0.06343  -0.00011   0.00007   0.00004
  25        3PX        -0.14994  -0.03014  -0.00003   0.00007   0.00014
  26        3PY         0.05116   0.17705   0.00017   0.00005   0.00008
  27        3PZ         0.00006  -0.00031   0.25856  -0.04908  -0.27299
  28 4   C  1S         -0.00004  -0.01613  -0.00003   0.00000  -0.00000
  29        2S         -0.00303   0.01669   0.00003   0.00001   0.00001
  30        2PX         0.17610   0.00559  -0.00016  -0.00006   0.00003
  31        2PY        -0.08915  -0.19379  -0.00036  -0.00010   0.00005
  32        2PZ         0.00013  -0.00045   0.23317   0.08675  -0.20564
  33        3S          0.01599   0.05914   0.00012  -0.00007  -0.00003
  34        3PX         0.12164  -0.08344  -0.00028  -0.00007   0.00009
  35        3PY        -0.05980  -0.21258  -0.00044  -0.00012   0.00005
  36        3PZ         0.00012  -0.00046   0.24390   0.08752  -0.27169
  37 5   C  1S         -0.00344   0.00292  -0.00000   0.00001  -0.00001
  38        2S          0.00027   0.00048   0.00002  -0.00002   0.00002
  39        2PX        -0.14256   0.03466   0.00015   0.00021   0.00001
  40        2PY         0.07562   0.24943   0.00033   0.00013  -0.00004
  41        2PZ         0.00021  -0.00031   0.11634   0.24100   0.13174
  42        3S          0.00788  -0.01619  -0.00006  -0.00001   0.00000
  43        3PX        -0.14358   0.07902   0.00025   0.00020   0.00001
  44        3PY         0.06805   0.26663   0.00037   0.00014  -0.00006
  45        3PZ         0.00019  -0.00034   0.13187   0.27294   0.19623
  46 6   C  1S          0.01473   0.00809   0.00001   0.00001  -0.00001
  47        2S         -0.01809  -0.01139  -0.00002  -0.00000   0.00002
  48        2PX         0.22657  -0.11397  -0.00023  -0.00014   0.00002
  49        2PY        -0.09365  -0.19967  -0.00032  -0.00009   0.00003
  50        2PZ        -0.00003   0.00027  -0.14788  -0.01150  -0.07776
  51        3S         -0.02560   0.01234   0.00001  -0.00009  -0.00002
  52        3PX         0.19932  -0.05932  -0.00014  -0.00007   0.00011
  53        3PY        -0.09319  -0.17021  -0.00025  -0.00012  -0.00006
  54        3PZ        -0.00007   0.00026  -0.15202  -0.02478  -0.12101
  55 7   H  1S          0.07647  -0.12633  -0.00024  -0.00008  -0.00002
  56        2S          0.05998  -0.12004  -0.00023  -0.00007  -0.00002
  57 8   H  1S         -0.15906   0.04351   0.00016   0.00004   0.00000
  58        2S         -0.13115   0.03957   0.00016   0.00003  -0.00000
  59 9   H  1S          0.07688   0.09675   0.00009   0.00003  -0.00001
  60        2S          0.05724   0.08500   0.00008   0.00003  -0.00001
  61 10  H  1S          0.01125  -0.12575  -0.00023  -0.00009  -0.00002
  62        2S          0.01035  -0.11466  -0.00021  -0.00008  -0.00001
  63 11  C  1S          0.02205  -0.00752  -0.00002  -0.00002   0.00002
  64        2S         -0.02790   0.00981   0.00003   0.00002  -0.00002
  65        2PX         0.13530  -0.03367  -0.00007   0.00006   0.00018
  66        2PY        -0.02651  -0.11532  -0.00006  -0.00004   0.00000
  67        2PZ         0.00001  -0.00019   0.08375   0.21725   0.23204
  68        3S         -0.02949  -0.00996   0.00002   0.00006  -0.00005
  69        3PX         0.07394  -0.00401  -0.00001   0.00010   0.00017
  70        3PY        -0.03503  -0.15515  -0.00013  -0.00006   0.00000
  71        3PZ         0.00004  -0.00022   0.08342   0.24959   0.30224
  72 12  H  1S          0.01119  -0.09719  -0.00009  -0.00005   0.00001
  73        2S          0.02220  -0.10113  -0.00010  -0.00007   0.00004
  74 13  H  1S          0.05552   0.08193   0.00003   0.00002  -0.00000
  75        2S          0.06673   0.07450   0.00002   0.00002   0.00003
  76 14  H  1S          0.07452   0.05326  -0.10112  -0.00720  -0.07643
  77        2S          0.08720   0.06512  -0.11312   0.00235  -0.10025
  78 15  H  1S          0.07483   0.05304   0.10114   0.00718   0.07633
  79        2S          0.08751   0.06487   0.11318  -0.00239   0.09999
                          26        27        28        29        30
                           V         V         V         V         V
     Eigenvalues --     0.09462   0.20704   0.25861   0.28538   0.29319
   1 1   C  1S         -0.00001  -0.00005   0.03878   0.00007  -0.03536
   2        2S          0.00003   0.00006  -0.02860  -0.00009   0.02824
   3        2PX        -0.00008   0.00018   0.06697  -0.00005  -0.01049
   4        2PY         0.00002  -0.00001   0.08405   0.00012  -0.08621
   5        2PZ         0.20553  -0.20984  -0.00004  -0.10351  -0.00022
   6        3S         -0.00003   0.00030  -0.43553  -0.00077   0.44478
   7        3PX        -0.00028   0.00037   0.23392  -0.00016  -0.10231
   8        3PY        -0.00003  -0.00040   0.34326   0.00050  -0.32912
   9        3PZ         0.40855  -0.53834  -0.00019  -0.16535  -0.00045
  10 2   C  1S         -0.00001  -0.00002   0.04771  -0.00001   0.01149
  11        2S          0.00001   0.00000  -0.02262  -0.00000  -0.00188
  12        2PX         0.00008  -0.00014   0.11213  -0.00013   0.01546
  13        2PY        -0.00000   0.00001  -0.00265   0.00003  -0.04544
  14        2PZ        -0.12354   0.20998   0.00010   0.19995   0.00035
  15        3S          0.00007   0.00043  -0.61571  -0.00006  -0.10398
  16        3PX         0.00017  -0.00027   0.37616  -0.00037   0.08545
  17        3PY         0.00008  -0.00010  -0.00991   0.00011  -0.05736
  18        3PZ        -0.23435   0.54243   0.00044   0.48922   0.00088
  19 3   C  1S         -0.00000  -0.00004   0.04559   0.00004   0.02546
  20        2S          0.00000   0.00005  -0.01923  -0.00003  -0.00197
  21        2PX         0.00007   0.00005   0.07089  -0.00002   0.04089
  22        2PY         0.00006   0.00007  -0.08538   0.00010  -0.11137
  23        2PZ        -0.20921  -0.06899   0.00000  -0.22605  -0.00033
  24        3S          0.00002   0.00029  -0.58507  -0.00051  -0.44816
  25        3PX         0.00019  -0.00011   0.21911  -0.00008   0.13398
  26        3PY         0.00020   0.00030  -0.30785   0.00009  -0.31819
  27        3PZ        -0.40442  -0.13472   0.00001  -0.63632  -0.00094
  28 4   C  1S          0.00000  -0.00003   0.04432  -0.00002   0.00659
  29        2S         -0.00001   0.00001  -0.02381   0.00001   0.00976
  30        2PX        -0.00005   0.00002  -0.04687  -0.00006  -0.02536
  31        2PY        -0.00006   0.00012  -0.07073   0.00006  -0.15618
  32        2PZ         0.19982  -0.10136  -0.00015   0.21390   0.00025
  33        3S          0.00007   0.00049  -0.53388   0.00020  -0.25118
  34        3PX         0.00001   0.00012  -0.19454  -0.00053  -0.16124
  35        3PY        -0.00018   0.00028  -0.24637   0.00052  -0.50248
  36        3PZ         0.39885  -0.26364  -0.00039   0.55589   0.00047
  37 5   C  1S         -0.00001   0.00002   0.01628  -0.00002   0.00308
  38        2S          0.00001   0.00000  -0.01712  -0.00012   0.02054
  39        2PX         0.00006   0.00017   0.01104  -0.00012   0.01042
  40        2PY        -0.00004   0.00008  -0.00264   0.00001  -0.07210
  41        2PZ         0.12749   0.26278   0.00012  -0.11112  -0.00007
  42        3S          0.00004  -0.00030  -0.21274   0.00131  -0.17369
  43        3PX         0.00015   0.00057  -0.12900  -0.00030   0.06280
  44        3PY        -0.00019   0.00024   0.00380   0.00009  -0.04257
  45        3PZ         0.22446   0.59958   0.00039  -0.18027  -0.00004
  46 6   C  1S          0.00001  -0.00003   0.06884   0.00022  -0.05210
  47        2S         -0.00000   0.00001  -0.02604  -0.00006  -0.00383
  48        2PX        -0.00002   0.00001  -0.02783  -0.00012   0.05446
  49        2PY        -0.00002   0.00007   0.05554   0.00011  -0.17672
  50        2PZ        -0.00227   0.03781   0.00012  -0.14781  -0.00011
  51        3S         -0.00008   0.00030  -0.82346  -0.00287   0.90889
  52        3PX        -0.00023   0.00008  -0.09667  -0.00094   0.32301
  53        3PY         0.00005   0.00056   0.19470   0.00047  -0.57042
  54        3PZ         0.06845   0.17967   0.00050  -0.73742  -0.00072
  55 7   H  1S         -0.00001  -0.00004   0.03209  -0.00003  -0.01437
  56        2S         -0.00007  -0.00044   0.77422   0.00070  -0.64884
  57 8   H  1S         -0.00001  -0.00001   0.04810  -0.00004   0.00464
  58        2S         -0.00002  -0.00019   0.85239  -0.00024   0.16094
  59 9   H  1S          0.00001  -0.00007   0.04191  -0.00002   0.03098
  60        2S         -0.00001  -0.00059   0.81175  -0.00004   0.70111
  61 10  H  1S         -0.00002  -0.00007   0.03386   0.00006   0.01662
  62        2S         -0.00007  -0.00065   0.68481  -0.00041   0.74102
  63 11  C  1S         -0.00001   0.00001   0.00895  -0.00020   0.02142
  64        2S          0.00002  -0.00000  -0.00686   0.00008  -0.00183
  65        2PX        -0.00014  -0.00009  -0.06463   0.00020  -0.02899
  66        2PY         0.00003   0.00005  -0.00852   0.00001  -0.12146
  67        2PZ        -0.19034  -0.19706  -0.00002   0.00710  -0.00009
  68        3S          0.00002  -0.00014  -0.08446   0.00232  -0.28284
  69        3PX        -0.00023  -0.00020  -0.33196   0.00130  -0.12698
  70        3PY         0.00004   0.00019  -0.04942  -0.00016  -0.50398
  71        3PZ        -0.38790  -0.52474  -0.00003   0.11594  -0.00003
  72 12  H  1S          0.00003  -0.00002  -0.00035  -0.00003   0.01978
  73        2S          0.00003  -0.00022   0.26959  -0.00166   0.73153
  74 13  H  1S         -0.00003   0.00003  -0.00644  -0.00008  -0.00050
  75        2S         -0.00005   0.00020   0.19181  -0.00190  -0.32888
  76 14  H  1S         -0.06889  -0.00741   0.01096   0.07800  -0.02679
  77        2S         -0.24827  -0.18277   0.52422   0.82070  -0.81808
  78 15  H  1S          0.06884   0.00739   0.01107  -0.07777  -0.02703
  79        2S          0.24819   0.18267   0.52580  -0.81601  -0.82114
                          31        32        33        34        35
                           V         V         V         V         V
     Eigenvalues --     0.30498   0.32770   0.35406   0.36125   0.37158
   1 1   C  1S          0.04469  -0.00176  -0.09190   0.05806   0.01940
   2        2S         -0.01145   0.01381   0.03656  -0.00866  -0.03555
   3        2PX         0.00710   0.07336   0.02328   0.09123   0.07897
   4        2PY         0.07040   0.06818  -0.04697   0.14207   0.00789
   5        2PZ         0.00006  -0.00007   0.00020   0.00001   0.00004
   6        3S         -0.58551   0.00267   1.14870  -0.98955   0.21231
   7        3PX        -0.00418   0.18341  -0.02231   0.51855   0.63713
   8        3PY         0.38463   0.35401  -0.46029   0.57480   0.37432
   9        3PZ         0.00002   0.00001   0.00077   0.00021   0.00041
  10 2   C  1S          0.01084   0.04498   0.05569  -0.01921  -0.09611
  11        2S          0.01525  -0.00444  -0.02819   0.01296   0.06438
  12        2PX         0.10554   0.11466   0.08903   0.00705  -0.06891
  13        2PY        -0.00550   0.00241   0.03468  -0.04345   0.05983
  14        2PZ        -0.00004   0.00031  -0.00020   0.00001  -0.00003
  15        3S         -0.43755  -0.75659  -0.68082   0.22661   0.98615
  16        3PX         0.24363   0.34086   0.54457  -0.06692  -0.90896
  17        3PY        -0.01627  -0.01154   0.15674  -0.29408   0.33555
  18        3PZ        -0.00008   0.00077  -0.00046  -0.00007  -0.00044
  19 3   C  1S          0.03684  -0.02876   0.02133  -0.03283   0.10192
  20        2S         -0.02449   0.01108  -0.00422  -0.00358  -0.06860
  21        2PX         0.00681   0.02348  -0.02535  -0.07064   0.09637
  22        2PY        -0.04683   0.02694  -0.01648   0.13363  -0.03991
  23        2PZ         0.00013  -0.00029   0.00025   0.00004   0.00002
  24        3S         -0.40274   0.51356  -0.38985   0.68937  -0.96516
  25        3PX         0.06899   0.03043  -0.25628  -0.32798   0.76474
  26        3PY        -0.35474   0.06193  -0.10164   0.50768  -0.67770
  27        3PZ         0.00031  -0.00094   0.00067   0.00011   0.00010
  28 4   C  1S         -0.03080  -0.02241  -0.09135  -0.01784  -0.05847
  29        2S          0.02058   0.00740   0.03141   0.00741   0.05487
  30        2PX         0.05130   0.06249   0.09485   0.05795   0.00364
  31        2PY         0.04456   0.05985   0.06454  -0.01673   0.06429
  32        2PZ        -0.00014   0.00043  -0.00021  -0.00002   0.00005
  33        3S          0.31535   0.34747   1.32708   0.23028   0.30062
  34        3PX         0.08681   0.46527   0.25895   0.12396   0.34625
  35        3PY         0.43882   0.17631   0.30102  -0.14383   0.70680
  36        3PZ        -0.00028   0.00119  -0.00060  -0.00019   0.00026
  37 5   C  1S          0.01188   0.03256   0.02099  -0.01683  -0.00472
  38        2S         -0.02705   0.00791  -0.01747   0.00773  -0.01610
  39        2PX        -0.00555   0.09185   0.03624  -0.00277   0.04372
  40        2PY        -0.00236   0.05630  -0.07429  -0.04255  -0.03567
  41        2PZ         0.00013  -0.00028   0.00021   0.00007   0.00001
  42        3S          0.32437  -0.57261  -0.26613   0.23613   0.30387
  43        3PX        -0.11639   0.17210   0.22236  -0.05654  -0.27979
  44        3PY        -0.01006   0.08760  -0.13858  -0.14291  -0.12843
  45        3PZ         0.00026  -0.00070   0.00057   0.00026   0.00014
  46 6   C  1S         -0.05693  -0.07708   0.07726   0.01268   0.02054
  47        2S          0.02208   0.02902  -0.03578   0.00172   0.02939
  48        2PX         0.05086   0.09597   0.05526  -0.05772   0.00337
  49        2PY        -0.05817   0.00293   0.03109  -0.06218   0.01695
  50        2PZ         0.00012  -0.00020  -0.00029  -0.00000  -0.00008
  51        3S          0.69427   0.96723  -0.90752  -0.21296  -0.65200
  52        3PX        -0.00403   0.55613   0.25207  -0.12626   0.28234
  53        3PY        -0.42390  -0.13762   0.39978  -0.44268  -0.26587
  54        3PZ         0.00064  -0.00083  -0.00124   0.00001  -0.00007
  55 7   H  1S          0.02949   0.03552  -0.01135  -0.01505   0.02074
  56        2S          0.64762   0.51830  -0.87709   1.21130   0.60207
  57 8   H  1S          0.00163   0.01731   0.01060   0.00413  -0.00436
  58        2S          0.48999   0.80153   0.89702  -0.12432  -1.30288
  59 9   H  1S          0.01573  -0.00268  -0.00320   0.01424   0.01158
  60        2S          0.54760  -0.24683   0.12155  -0.93484   1.40174
  61 10  H  1S          0.02193  -0.04356  -0.00841  -0.01402  -0.04061
  62        2S         -0.52041  -0.68432  -1.05332  -0.09233  -0.98793
  63 11  C  1S         -0.10613   0.07600   0.00615   0.01993   0.03987
  64        2S          0.05073  -0.02804  -0.01418  -0.00548  -0.01511
  65        2PX         0.12233  -0.07212   0.04046  -0.01499  -0.04508
  66        2PY         0.00340   0.09959  -0.09007  -0.22240   0.01026
  67        2PZ        -0.00009   0.00004  -0.00011  -0.00003   0.00001
  68        3S          1.34356  -0.91825  -0.07503  -0.25129  -0.38089
  69        3PX         0.64843  -0.37256   0.12539  -0.03592  -0.20346
  70        3PY         0.03700   0.45540  -0.54353  -0.96206  -0.01775
  71        3PZ        -0.00052   0.00051  -0.00045  -0.00014   0.00008
  72 12  H  1S         -0.02450   0.00600   0.05450   0.02399   0.03914
  73        2S         -1.02813   0.17237   0.54828   1.17402   0.38842
  74 13  H  1S         -0.01640   0.04109  -0.05809  -0.01316  -0.01730
  75        2S         -0.98295   1.13202  -0.63793  -0.85486   0.30239
  76 14  H  1S          0.01343  -0.02183  -0.00376  -0.01507  -0.02426
  77        2S         -0.47562  -0.62162   0.45602  -0.12870  -0.03330
  78 15  H  1S          0.01360  -0.02214  -0.00366  -0.01507  -0.02435
  79        2S         -0.47467  -0.62449   0.45412  -0.12912  -0.03406
                          36        37        38        39        40
                           V         V         V         V         V
     Eigenvalues --     0.39266   0.44278   0.47066   0.52742   0.54274
   1 1   C  1S         -0.00011  -0.01487  -0.09266  -0.00679  -0.05226
   2        2S          0.00004   0.02437   0.01091   0.00260   0.01568
   3        2PX        -0.00007   0.03245   0.16558  -0.11011  -0.06475
   4        2PY        -0.00004  -0.02037   0.03467   0.04155   0.16338
   5        2PZ        -0.08641  -0.00001   0.00010  -0.00000  -0.00003
   6        3S          0.00165  -0.06438   1.87882   0.45373   1.14035
   7        3PX        -0.00026   0.41987   1.08782  -1.34071  -0.35655
   8        3PY        -0.00022  -0.60469   0.34247   0.44241   1.37855
   9        3PZ        -0.51994  -0.00015   0.00075  -0.00049   0.00004
  10 2   C  1S          0.00008  -0.06280  -0.01915   0.00158   0.07345
  11        2S         -0.00002   0.00831  -0.01188   0.00345   0.00769
  12        2PX        -0.00007   0.16778  -0.06088   0.04049  -0.05481
  13        2PY         0.00003   0.04121   0.08944   0.17839  -0.02622
  14        2PZ         0.11222   0.00019  -0.00001  -0.00001  -0.00007
  15        3S         -0.00141   1.27917   0.56991  -0.33879  -1.98919
  16        3PX        -0.00015   1.14301  -0.29114   0.27189  -0.67899
  17        3PY         0.00032   0.29792   0.85653   1.42949   0.63370
  18        3PZ         0.39705   0.00088  -0.00008   0.00018  -0.00057
  19 3   C  1S          0.00006   0.04852   0.03219   0.04914   0.06480
  20        2S         -0.00005   0.00594  -0.01076   0.02023  -0.01032
  21        2PX        -0.00013   0.01171   0.04287   0.05257  -0.14213
  22        2PY         0.00002   0.10769   0.16244   0.01624   0.01193
  23        2PZ        -0.12480   0.00002   0.00002   0.00004   0.00003
  24        3S         -0.00076  -1.11701  -0.48477  -1.71117  -1.59222
  25        3PX        -0.00073   0.07256   0.22372   0.13662  -1.87079
  26        3PY        -0.00045   0.95058   0.88315   0.40775  -0.33073
  27        3PZ        -0.40444   0.00006   0.00024   0.00016  -0.00029
  28 4   C  1S         -0.00019   0.05041   0.00134   0.03718  -0.08790
  29        2S          0.00007  -0.03008   0.01632   0.00742   0.01284
  30        2PX         0.00007  -0.02790  -0.02824  -0.05878  -0.18970
  31        2PY         0.00010   0.08403  -0.14366   0.06297  -0.00223
  32        2PZ         0.12923   0.00009   0.00003  -0.00005  -0.00010
  33        3S          0.00283  -0.54590  -0.36731  -0.84802   2.07644
  34        3PX         0.00013  -0.60463  -0.18284  -1.28330  -1.60632
  35        3PY         0.00063   0.41633  -0.67649   0.46696   0.02642
  36        3PZ         0.47071   0.00019  -0.00004   0.00010  -0.00084
  37 5   C  1S          0.00007  -0.14907   0.07462  -0.02990  -0.01439
  38        2S         -0.00001   0.04815  -0.00775   0.00709   0.00114
  39        2PX        -0.00004  -0.10262  -0.04054   0.06977  -0.01812
  40        2PY        -0.00013  -0.02711   0.09919   0.27411  -0.08501
  41        2PZ        -0.19669  -0.00001  -0.00010  -0.00002   0.00018
  42        3S         -0.00097   2.34280  -1.59123   0.92605   0.50732
  43        3PX        -0.00035  -0.37287  -0.30798   1.01888  -0.36523
  44        3PY        -0.00041  -0.18853   0.49881   2.03939  -0.50915
  45        3PZ        -0.70612  -0.00014  -0.00028  -0.00033   0.00093
  46 6   C  1S          0.00002   0.08288   0.03638  -0.08742   0.02444
  47        2S         -0.00004  -0.02382  -0.00668  -0.03735  -0.00081
  48        2PX        -0.00013   0.07159   0.19496  -0.00978  -0.06704
  49        2PY         0.00015  -0.13877   0.03097   0.01021  -0.09518
  50        2PZ         0.31044   0.00024   0.00012  -0.00004  -0.00016
  51        3S         -0.00007  -1.16422  -0.59889   2.24423  -0.35966
  52        3PX        -0.00050   0.02926   1.69299  -0.16363  -0.20613
  53        3PY         0.00094  -0.89415   0.20752   1.00666  -0.88529
  54        3PZ         1.32323   0.00103   0.00062  -0.00097  -0.00037
  55 7   H  1S          0.00002  -0.00528   0.07160   0.08154  -0.03648
  56        2S         -0.00119  -0.28098   0.29085  -0.20532   0.48206
  57 8   H  1S         -0.00005   0.02062   0.07126  -0.04559  -0.08943
  58        2S          0.00049   0.71233  -0.41754   0.17974  -0.14194
  59 9   H  1S         -0.00001  -0.03479   0.00660  -0.10898  -0.04964
  60        2S          0.00023  -0.39417  -0.50133   0.15910  -0.23907
  61 10  H  1S          0.00005  -0.01301  -0.04509  -0.07759   0.05167
  62        2S         -0.00199   0.12088   0.72648   0.28838   0.17175
  63 11  C  1S         -0.00003   0.04476  -0.05504   0.03430  -0.00963
  64        2S          0.00005  -0.01505  -0.01689   0.03409   0.03180
  65        2PX        -0.00008   0.04047   0.08530  -0.05025  -0.11166
  66        2PY        -0.00015   0.06910   0.04483  -0.11007   0.09458
  67        2PZ         0.10147  -0.00002  -0.00011   0.00008   0.00004
  68        3S          0.00024  -0.57781   1.15264  -1.16369   0.02637
  69        3PX        -0.00024   0.48173  -0.41302   0.78934  -0.30237
  70        3PY        -0.00094   0.31623  -0.10146  -1.08152   0.44352
  71        3PZ         0.37175  -0.00010   0.00037  -0.00053  -0.00014
  72 12  H  1S          0.00013   0.01897   0.01923  -0.08067   0.06997
  73        2S          0.00120  -0.22053  -0.33076   0.82876  -0.16152
  74 13  H  1S         -0.00013  -0.02408  -0.02385   0.05811  -0.05960
  75        2S         -0.00093   0.33548  -0.35306  -0.71601   0.57520
  76 14  H  1S          0.03032  -0.03613  -0.01589   0.09113  -0.01174
  77        2S         -1.14303  -0.12678  -0.12609  -0.00565  -0.18444
  78 15  H  1S         -0.03026  -0.03617  -0.01586   0.09128  -0.01158
  79        2S          1.14305  -0.12619  -0.12618  -0.00565  -0.18577
                          41        42        43        44        45
                           V         V         V         V         V
     Eigenvalues --     0.58473   0.73805   0.76953   0.88359   0.91079
   1 1   C  1S         -0.03009  -0.06940  -0.08578  -0.03112  -0.00666
   2        2S          0.03967   0.00078   0.02388  -0.08283   0.00162
   3        2PX         0.14028   0.22025  -0.09705   0.02926  -0.31043
   4        2PY         0.07201  -0.04184   0.17410  -0.20954   0.00499
   5        2PZ         0.00014   0.00019  -0.00011  -0.00019  -0.00023
   6        3S         -0.02643   1.42449   2.49637   0.78605   0.11438
   7        3PX         0.44272   1.39172  -1.22185  -0.63839   0.93765
   8        3PY         0.20491   0.67733   2.41374   1.21058  -0.15420
   9        3PZ        -0.00007   0.00091  -0.00077  -0.00029   0.00047
  10 2   C  1S          0.02214   0.09363   0.08104   0.03334   0.02418
  11        2S         -0.00666  -0.02797   0.00598  -0.09349  -0.01534
  12        2PX        -0.06283  -0.12814  -0.05832  -0.22844  -0.20655
  13        2PY        -0.06899  -0.02386   0.09863   0.32274  -0.33323
  14        2PZ        -0.00005  -0.00002   0.00007  -0.00007  -0.00021
  15        3S         -0.26628  -2.04288  -2.27582  -0.73302  -0.17241
  16        3PX        -0.40364  -1.69282  -1.48922  -0.23211  -0.03796
  17        3PY        -0.34345  -1.45337   2.57097   0.67053  -0.14834
  18        3PZ        -0.00017  -0.00110  -0.00043   0.00005   0.00003
  19 3   C  1S         -0.02414  -0.10179  -0.06813  -0.01389  -0.01466
  20        2S          0.04360   0.01463   0.02508  -0.10033   0.00153
  21        2PX         0.05041  -0.08955   0.27383  -0.30704   0.08826
  22        2PY        -0.05034  -0.21974   0.02917   0.07844   0.18005
  23        2PZ         0.00001  -0.00006   0.00018  -0.00015  -0.00005
  24        3S         -0.11511   2.02259   1.98601   0.49165   0.27427
  25        3PX        -0.58183  -0.19491   2.52661   1.36104  -0.32783
  26        3PY        -0.18017  -2.25612  -0.09343   0.07442  -0.66785
  27        3PZ        -0.00039  -0.00076   0.00084   0.00051  -0.00019
  28 4   C  1S         -0.02386   0.10795   0.07287   0.00180   0.03009
  29        2S         -0.01042  -0.01229  -0.01611  -0.05425  -0.03636
  30        2PX         0.00804   0.00932  -0.02889   0.42409  -0.14706
  31        2PY        -0.09889   0.18703   0.06023  -0.04594   0.31306
  32        2PZ        -0.00009   0.00017   0.00004  -0.00016   0.00006
  33        3S          1.00463  -2.33818  -1.86673  -0.83291  -0.23221
  34        3PX        -0.54930  -0.50636   2.80548   0.40010   0.09210
  35        3PY        -1.15167   2.37775  -0.16675  -0.09040   0.21836
  36        3PZ         0.00000   0.00078   0.00037   0.00002   0.00002
  37 5   C  1S         -0.05928  -0.08944  -0.05925   0.01289   0.00201
  38        2S         -0.00070   0.02690   0.02425  -0.01845  -0.00311
  39        2PX         0.26390  -0.11175  -0.09068   0.26131   0.17134
  40        2PY        -0.03410   0.23330  -0.22936  -0.06343   0.02506
  41        2PZ        -0.00021   0.00001   0.00014   0.00005  -0.00010
  42        3S          1.99794   1.65663   0.63366   0.35130   0.25481
  43        3PX         3.15014  -1.66971  -0.76271  -0.52305  -0.69842
  44        3PY        -0.33185   1.91988  -1.77025  -0.55705   0.22079
  45        3PZ        -0.00180   0.00031   0.00020   0.00022   0.00029
  46 6   C  1S          0.01930   0.05313   0.05196   0.02540   0.01319
  47        2S         -0.01098  -0.02666  -0.00246  -0.07661  -0.01494
  48        2PX         0.10519  -0.01141  -0.03772  -0.05684   0.45653
  49        2PY        -0.00982  -0.01009  -0.03870  -0.28223   0.02602
  50        2PZ         0.00021   0.00006   0.00015  -0.00015  -0.00010
  51        3S         -0.12093  -0.92146  -0.97010  -0.17407  -0.64634
  52        3PX        -0.05607   1.71882  -0.94075  -0.25343   0.04357
  53        3PY         0.56837  -0.45909  -1.60891  -0.39479  -0.12910
  54        3PZ         0.00085   0.00065   0.00045   0.00032   0.00042
  55 7   H  1S         -0.05944  -0.09768  -0.05252   0.12076   0.21661
  56        2S          0.41163   0.51269   0.45359   0.13752  -0.03383
  57 8   H  1S          0.01929   0.05082   0.05028   0.23633   0.27310
  58        2S         -0.28212  -0.63468  -0.56037  -0.22294  -0.19185
  59 9   H  1S          0.00563  -0.10821  -0.10080   0.16904   0.15871
  60        2S         -0.00588   0.77786   0.53349   0.07892   0.05022
  61 10  H  1S          0.01319   0.09844  -0.01011   0.17742   0.24297
  62        2S          0.83009  -0.69862  -0.42474  -0.10939  -0.30684
  63 11  C  1S          0.09034   0.00653   0.01224   0.00130  -0.00205
  64        2S          0.03232  -0.05122  -0.07126   0.07771   0.07071
  65        2PX         0.06790   0.09411   0.16781  -0.29274  -0.25924
  66        2PY         0.04421   0.05724  -0.14580   0.12641  -0.19411
  67        2PZ        -0.00001  -0.00026  -0.00018   0.00012   0.00010
  68        3S         -2.79185   0.70292   0.39869   0.16117   0.29576
  69        3PX         2.70631  -0.36584  -0.18709   0.34526   0.11594
  70        3PY         0.33600  -0.85399   0.65560   0.00116   0.20124
  71        3PZ        -0.00142   0.00044   0.00021  -0.00020  -0.00000
  72 12  H  1S         -0.06075   0.01898  -0.06597   0.12445  -0.20658
  73        2S         -0.63846   0.48282  -0.32828  -0.19309   0.12328
  74 13  H  1S         -0.09710  -0.00077   0.07430  -0.19525   0.19363
  75        2S         -0.15801  -0.47820   0.19259   0.14116  -0.10730
  76 14  H  1S          0.00580  -0.06464  -0.02793   0.07389   0.12204
  77        2S          0.21218  -0.16947  -0.09225  -0.08764  -0.07389
  78 15  H  1S          0.00570  -0.06444  -0.02796   0.07449   0.12267
  79        2S          0.21394  -0.16992  -0.09210  -0.08806  -0.07414
                          46        47        48        49        50
                           V         V         V         V         V
     Eigenvalues --     0.94819   0.97392   0.99667   1.00890   1.05577
   1 1   C  1S         -0.00001  -0.00942  -0.06317   0.00008  -0.00042
   2        2S         -0.00003   0.10419  -0.05804   0.00018  -0.00308
   3        2PX        -0.00049  -0.32867   0.26224   0.00001  -0.00120
   4        2PY         0.00006   0.27466  -0.02195   0.00029  -0.01032
   5        2PZ         0.44078  -0.00050  -0.00061  -0.44165  -0.60384
   6        3S          0.00044   0.54680  -0.09875  -0.00059   0.03391
   7        3PX         0.00044   0.34927  -0.31595   0.00005   0.00161
   8        3PY         0.00034   0.03667   0.20452  -0.00108   0.04110
   9        3PZ        -0.21848   0.00045   0.00038   0.40487   0.50970
  10 2   C  1S          0.00004   0.05603   0.00956   0.00002  -0.00133
  11        2S         -0.00002   0.04092  -0.09821   0.00007   0.00096
  12        2PX        -0.00039  -0.05817  -0.03374   0.00011   0.00636
  13        2PY        -0.00020  -0.34378   0.43963  -0.00083   0.00813
  14        2PZ         0.40854  -0.00029  -0.00045  -0.36837  -0.08184
  15        3S         -0.00033  -0.06605  -0.16197   0.00083  -0.03666
  16        3PX        -0.00003  -0.26876  -0.06943   0.00033  -0.02524
  17        3PY         0.00037   0.70917  -0.46497   0.00064   0.00565
  18        3PZ        -0.28096   0.00007   0.00020   0.22427   0.12790
  19 3   C  1S         -0.00003  -0.06276   0.03185  -0.00008  -0.00030
  20        2S         -0.00001  -0.00677  -0.06621   0.00011   0.00334
  21        2PX        -0.00032  -0.23561  -0.24034   0.00031   0.02047
  22        2PY        -0.00021  -0.33907  -0.05723  -0.00009   0.01221
  23        2PZ         0.43474  -0.00034  -0.00043  -0.25238   0.64720
  24        3S          0.00020   0.21526   0.11767  -0.00070   0.03220
  25        3PX         0.00052   0.76472   0.01357  -0.00029   0.00562
  26        3PY        -0.00008   0.24373  -0.00076   0.00028  -0.02247
  27        3PZ        -0.25701   0.00044   0.00038   0.22496  -0.59336
  28 4   C  1S          0.00000  -0.00738  -0.04176   0.00008   0.00214
  29        2S          0.00002  -0.00708   0.00124  -0.00022   0.01045
  30        2PX         0.00015   0.40184  -0.09834   0.00028   0.00199
  31        2PY        -0.00035  -0.35073  -0.13042   0.00015  -0.00620
  32        2PZ         0.45947  -0.00027   0.00068   0.22962   0.50675
  33        3S         -0.00049  -0.67931   0.11796   0.00069  -0.04148
  34        3PX         0.00003  -0.00566  -0.00016  -0.00052   0.02493
  35        3PY         0.00056   0.53828   0.28285  -0.00074   0.01985
  36        3PZ        -0.32456   0.00033  -0.00067  -0.23892  -0.41731
  37 5   C  1S          0.00004   0.04505   0.03241  -0.00009   0.00115
  38        2S         -0.00013  -0.00261  -0.01947   0.00011   0.00520
  39        2PX         0.00038   0.10414   0.04179  -0.00022   0.00191
  40        2PY         0.00017  -0.00326  -0.20366   0.00038   0.01326
  41        2PZ         0.45150  -0.00014   0.00028   0.24395  -0.15889
  42        3S          0.00043   0.39552   0.28291  -0.00106   0.02637
  43        3PX        -0.00077  -0.54518  -0.38579   0.00184  -0.04954
  44        3PY        -0.00025  -0.01028  -0.08740  -0.00001  -0.01544
  45        3PZ        -0.18137   0.00024   0.00021  -0.03611   0.16176
  46 6   C  1S          0.00000  -0.02663   0.02525  -0.00001  -0.00090
  47        2S          0.00004   0.12119  -0.03701  -0.00007   0.00498
  48        2PX         0.00006   0.03035   0.61655  -0.00051  -0.00417
  49        2PY         0.00021   0.43820   0.26443  -0.00108   0.02911
  50        2PZ         0.21422  -0.00030  -0.00004  -0.01428  -0.02260
  51        3S         -0.00061  -0.39082  -0.09320   0.00054  -0.02108
  52        3PX         0.00011   0.08658  -0.60423   0.00024   0.01358
  53        3PY        -0.00054  -0.64883  -0.53736   0.00219  -0.06626
  54        3PZ        -0.36711   0.00031   0.00015  -0.11909   0.09217
  55 7   H  1S          0.00010   0.00614  -0.41823   0.00063  -0.00598
  56        2S          0.00009   0.04842   0.19204  -0.00046   0.01287
  57 8   H  1S          0.00023   0.19510  -0.12654   0.00038  -0.01063
  58        2S         -0.00020  -0.19752   0.05486  -0.00016  -0.00062
  59 9   H  1S         -0.00001  -0.34974   0.01551  -0.00027   0.00610
  60        2S          0.00010   0.23486  -0.01207   0.00007   0.00218
  61 10  H  1S          0.00009  -0.17345  -0.25508   0.00029   0.01987
  62        2S         -0.00014  -0.05536  -0.01488   0.00028  -0.01714
  63 11  C  1S         -0.00001  -0.01300  -0.01493   0.00004  -0.00117
  64        2S          0.00006   0.08640   0.07837  -0.00019   0.00342
  65        2PX        -0.00003  -0.19476  -0.17574   0.00116  -0.01777
  66        2PY        -0.00000   0.02306  -0.20684   0.00034   0.00296
  67        2PZ         0.27254  -0.00012   0.00136   0.82897  -0.23850
  68        3S          0.00031   0.24369   0.17596  -0.00104   0.03118
  69        3PX        -0.00011   0.02007  -0.05379  -0.00075   0.01212
  70        3PY         0.00008  -0.06475   0.45296  -0.00061  -0.01050
  71        3PZ        -0.21418   0.00018  -0.00105  -0.73359   0.19644
  72 12  H  1S          0.00002   0.05355  -0.20401   0.00047  -0.00159
  73        2S         -0.00006  -0.01403  -0.01235   0.00006   0.00077
  74 13  H  1S         -0.00003  -0.04931   0.23328  -0.00019  -0.01173
  75        2S          0.00002   0.00199   0.06309   0.00008  -0.00581
  76 14  H  1S          0.20021  -0.07129  -0.00097   0.03569  -0.22565
  77        2S          0.03077  -0.09370   0.00174   0.03326   0.04837
  78 15  H  1S         -0.19995  -0.07150  -0.00059  -0.03539   0.21212
  79        2S         -0.03083  -0.09365   0.00157  -0.03281  -0.07070
                          51        52        53        54        55
                           V         V         V         V         V
     Eigenvalues --     1.05638   1.09758   1.10489   1.10786   1.11703
   1 1   C  1S          0.01005  -0.00002  -0.01488  -0.01589  -0.00013
   2        2S          0.06671   0.00002   0.15803   0.06229   0.00018
   3        2PX         0.03308  -0.00054  -0.18932  -0.18488  -0.00051
   4        2PY         0.21097   0.00021   0.11036   0.17777   0.00208
   5        2PZ        -0.02821   0.35430   0.00072  -0.00159  -0.37945
   6        3S         -0.70954   0.00012   0.34052  -0.03760  -0.00305
   7        3PX        -0.03128   0.00059   0.46327   0.07556  -0.00047
   8        3PY        -0.85876   0.00006   0.28983  -0.03900  -0.00472
   9        3PZ         0.02383  -0.50155  -0.00084   0.00211   0.54816
  10 2   C  1S          0.02727   0.00005   0.02782   0.01949   0.00015
  11        2S         -0.01786   0.00013   0.24658   0.13638   0.00039
  12        2PX        -0.13109   0.00050   0.16349   0.04775   0.00025
  13        2PY        -0.17628   0.00047   0.25448   0.28861   0.00109
  14        2PZ        -0.00359  -0.83539   0.00131  -0.00023  -0.14865
  15        3S          0.77047  -0.00019  -0.41065  -0.10756   0.00304
  16        3PX         0.53132  -0.00061  -0.32661   0.04280   0.00101
  17        3PY        -0.12166  -0.00035  -0.25413  -0.17532  -0.00126
  18        3PZ         0.00610   0.96053  -0.00169   0.00022   0.15263
  19 3   C  1S          0.00686   0.00004   0.03617   0.02845   0.00000
  20        2S         -0.07228   0.00013   0.17237   0.16402   0.00091
  21        2PX        -0.43882  -0.00040  -0.33155  -0.06070  -0.00034
  22        2PY        -0.25983  -0.00013  -0.21892  -0.13850  -0.00123
  23        2PZ         0.03094  -0.11639  -0.00188   0.00113   0.36367
  24        3S         -0.68270  -0.00002   0.13727  -0.10917  -0.00083
  25        3PX        -0.11848   0.00047   0.29309   0.01262   0.00067
  26        3PY         0.47503  -0.00002  -0.06565   0.12216   0.00195
  27        3PZ        -0.02856  -0.00910   0.00268  -0.00181  -0.61487
  28 4   C  1S         -0.04581  -0.00004  -0.02985  -0.00876   0.00001
  29        2S         -0.22155   0.00012   0.09436   0.15125   0.00045
  30        2PX        -0.04709  -0.00041  -0.40958  -0.19138  -0.00049
  31        2PY         0.13033  -0.00010   0.10376  -0.07414   0.00062
  32        2PZ         0.02376   0.39632   0.00149  -0.00190  -0.62851
  33        3S          0.87008  -0.00005  -0.30317  -0.05189   0.00254
  34        3PX        -0.53091   0.00034   0.27937   0.10571   0.00081
  35        3PY        -0.41531   0.00014   0.10370   0.00443  -0.00267
  36        3PZ        -0.01969  -0.36870  -0.00230   0.00266   0.92455
  37 5   C  1S         -0.02452  -0.00001   0.00336  -0.04096   0.00025
  38        2S         -0.11034  -0.00008  -0.08249   0.19022  -0.00090
  39        2PX        -0.03748   0.00001  -0.17024   0.39734  -0.00394
  40        2PY        -0.28763  -0.00002  -0.07640   0.17943   0.00123
  41        2PZ        -0.00819   0.20770  -0.00116   0.00134   0.53781
  42        3S         -0.54868   0.00014   0.27287  -0.00075  -0.00242
  43        3PX         1.04051  -0.00004  -0.16039  -0.32679   0.00647
  44        3PY         0.34511  -0.00022   0.26139  -0.28108  -0.00169
  45        3PZ         0.00790  -0.16947   0.00145  -0.00168  -0.66303
  46 6   C  1S          0.01875   0.00000  -0.00555  -0.01413  -0.00008
  47        2S         -0.10235  -0.00002   0.06021   0.04670  -0.00004
  48        2PX         0.07191  -0.00020  -0.32370  -0.02447   0.00168
  49        2PY        -0.60586  -0.00017   0.18858   0.21475  -0.00218
  50        2PZ        -0.00066   0.09763  -0.00130   0.00098   0.33763
  51        3S          0.44533  -0.00029  -0.17673  -0.19076   0.00133
  52        3PX        -0.26051   0.00015   0.66586  -0.08343  -0.00316
  53        3PY         1.39027   0.00002  -0.45653  -0.34637   0.00558
  54        3PZ         0.00371  -0.12132   0.00247  -0.00203  -0.67057
  55 7   H  1S          0.13601   0.00004   0.15486  -0.00985  -0.00114
  56        2S         -0.27286   0.00005   0.09655  -0.02034  -0.00073
  57 8   H  1S          0.22365   0.00052   0.43917   0.28474   0.00119
  58        2S          0.01514  -0.00026  -0.30681  -0.10603  -0.00055
  59 9   H  1S         -0.12673   0.00040   0.43489   0.39166   0.00063
  60        2S         -0.04782  -0.00011  -0.14853  -0.26789  -0.00046
  61 10  H  1S         -0.42376  -0.00005  -0.10043   0.16732   0.00043
  62        2S          0.36655  -0.00007  -0.04268  -0.05243  -0.00019
  63 11  C  1S          0.02482  -0.00001  -0.03292   0.06924  -0.00048
  64        2S         -0.07530  -0.00013  -0.15562   0.15191  -0.00094
  65        2PX         0.37285  -0.00019  -0.11006   0.33549  -0.00225
  66        2PY        -0.06313  -0.00008  -0.04244   0.04196   0.00044
  67        2PZ        -0.01184  -0.40642   0.00111  -0.00078  -0.18170
  68        3S         -0.65092   0.00013   0.39709  -0.32260  -0.00043
  69        3PX        -0.24224   0.00043   0.35028  -0.50368   0.00326
  70        3PY         0.21930   0.00029   0.01535  -0.06776  -0.00066
  71        3PZ         0.00961   0.42823  -0.00150   0.00124   0.31511
  72 12  H  1S          0.02460  -0.00029  -0.48994   0.61843  -0.00305
  73        2S         -0.01560  -0.00007   0.12398  -0.14295   0.00133
  74 13  H  1S          0.24295  -0.00014  -0.35159   0.52872  -0.00386
  75        2S          0.11853   0.00010  -0.00400  -0.15818   0.00131
  76 14  H  1S          0.13224   0.16721  -0.04395  -0.00503   0.27613
  77        2S          0.23464  -0.05732  -0.14853  -0.06124   0.02443
  78 15  H  1S          0.15322  -0.16711  -0.04227  -0.00664  -0.27625
  79        2S          0.22929   0.05737  -0.14866  -0.06141  -0.02174
                          56        57        58        59        60
                           V         V         V         V         V
     Eigenvalues --     1.13095   1.14219   1.16580   1.26900   1.28811
   1 1   C  1S         -0.02217  -0.00006   0.00388   0.00001  -0.00463
   2        2S          0.03810  -0.00029   0.27830   0.00012   0.03315
   3        2PX        -0.07463  -0.00051   0.54325   0.00047   0.10920
   4        2PY         0.50633   0.00237   0.05443   0.00066   0.04541
   5        2PZ         0.00306  -0.37034  -0.00022   0.02508   0.00031
   6        3S         -0.83885  -0.00485  -0.09913  -0.00227  -0.60357
   7        3PX        -0.37167  -0.00210  -0.46132  -0.00200  -0.64284
   8        3PY        -1.26132  -0.00695  -0.04500  -0.00233  -0.24333
   9        3PZ        -0.00469   0.56452   0.00068  -0.49234  -0.00012
  10 2   C  1S          0.02197   0.00009  -0.01479  -0.00004  -0.02273
  11        2S          0.04966  -0.00013   0.17179   0.00000   0.00826
  12        2PX        -0.00298  -0.00063   0.17705  -0.00122  -0.64931
[...]
  65        2PX        -0.00148  -0.00306  -0.00156  -0.00000  -0.00000
  66        2PY        -0.00070  -0.00014  -0.00009  -0.00000  -0.00000
  67        2PZ        -0.00000   0.00000  -0.00000  -0.00101  -0.00000
  68        3S         -0.01144  -0.00616  -0.00028  -0.00000  -0.00000
  69        3PX        -0.01031  -0.00600  -0.00293  -0.00000  -0.00000
  70        3PY        -0.00547  -0.00359  -0.00085  -0.00000  -0.00000
  71        3PZ        -0.00000   0.00000  -0.00000  -0.00927  -0.00000
  72 12  H  1S          0.00002   0.00003   0.00004   0.00000   0.00000
  73        2S          0.00064   0.00068   0.00069   0.00000   0.00000
  74 13  H  1S         -0.00027   0.00008  -0.00005  -0.00000  -0.00000
  75        2S         -0.00156   0.00178  -0.00026  -0.00000  -0.00000
  76 14  H  1S          0.05963   0.00612   0.02070   0.06199  -0.00000
  77        2S          0.03097   0.00766   0.02555   0.06969  -0.00017
  78 15  H  1S          0.05964   0.00617   0.02081   0.06183  -0.00000
  79        2S          0.03100   0.00772   0.02568   0.06949  -0.00017
                          56        57        58        59        60
  56        2S          0.09964
  57 8   H  1S         -0.00031   0.17882
  58        2S         -0.00118   0.08033   0.09303
  59 9   H  1S         -0.00000  -0.00000  -0.00022   0.17909
  60        2S         -0.00003  -0.00022  -0.00047   0.07936   0.09084
  61 10  H  1S          0.00000  -0.00000  -0.00000  -0.00000  -0.00030
  62        2S          0.00000  -0.00000  -0.00003  -0.00029  -0.00108
  63 11  C  1S          0.00000   0.00000  -0.00000   0.00000   0.00000
  64        2S         -0.00000   0.00000   0.00000  -0.00000  -0.00000
  65        2PX        -0.00000   0.00000   0.00000  -0.00000  -0.00000
  66        2PY        -0.00000  -0.00000   0.00000  -0.00000  -0.00000
  67        2PZ        -0.00000  -0.00000   0.00000  -0.00000  -0.00000
  68        3S         -0.00000   0.00000   0.00000  -0.00000  -0.00001
  69        3PX        -0.00001  -0.00000  -0.00000  -0.00000  -0.00003
  70        3PY        -0.00001  -0.00000   0.00000  -0.00000  -0.00001
  71        3PZ        -0.00000  -0.00000   0.00000  -0.00000  -0.00000
  72 12  H  1S          0.00000   0.00000  -0.00000  -0.00000  -0.00000
  73        2S          0.00000  -0.00000  -0.00000  -0.00000  -0.00000
  74 13  H  1S         -0.00000   0.00000  -0.00000   0.00000   0.00000
  75        2S         -0.00000  -0.00000  -0.00000   0.00000   0.00000
  76 14  H  1S         -0.00024  -0.00000  -0.00000   0.00000  -0.00000
  77        2S         -0.00087  -0.00000  -0.00004   0.00000   0.00000
  78 15  H  1S         -0.00024  -0.00000  -0.00000   0.00000  -0.00000
  79        2S         -0.00088  -0.00000  -0.00004   0.00000   0.00000
                          61        62        63        64        65
  61 10  H  1S          0.17841
  62        2S          0.07980   0.09232
  63 11  C  1S          0.00000   0.00000   2.03528
  64        2S         -0.00000  -0.00007   0.01869   0.11757
  65        2PX        -0.00000  -0.00016   0.00000   0.00000   0.31237
  66        2PY        -0.00000  -0.00002   0.00000   0.00000   0.00000
  67        2PZ        -0.00000  -0.00000   0.00000   0.00000   0.00000
  68        3S         -0.00014   0.00004  -0.06520   0.16614   0.00000
  69        3PX         0.00005   0.00022   0.00000   0.00000   0.08169
  70        3PY        -0.00010   0.00110   0.00000   0.00000   0.00000
  71        3PZ        -0.00000  -0.00000   0.00000   0.00000   0.00000
  72 12  H  1S         -0.00000   0.00013  -0.00110   0.01084   0.01555
  73        2S          0.00015   0.00148   0.00027   0.00750   0.01193
  74 13  H  1S          0.00000  -0.00000  -0.00109   0.01069   0.01696
  75        2S          0.00000   0.00001   0.00029   0.00726   0.01299
  76 14  H  1S         -0.00000  -0.00000   0.00000  -0.00000  -0.00000
  77        2S         -0.00000  -0.00004   0.00000  -0.00003  -0.00010
  78 15  H  1S         -0.00000  -0.00000   0.00000  -0.00000  -0.00000
  79        2S         -0.00000  -0.00004   0.00000  -0.00003  -0.00010
                          66        67        68        69        70
  66        2PY         0.28017
  67        2PZ         0.00000   0.22290
  68        3S          0.00000   0.00000   0.63530
  69        3PX         0.00000   0.00000   0.00000   0.08258
  70        3PY         0.13364   0.00000   0.00000   0.00000   0.24048
  71        3PZ         0.00000   0.14241   0.00000   0.00000   0.00000
  72 12  H  1S          0.04195   0.00000   0.06276   0.01553   0.06741
  73        2S          0.02869   0.00000   0.05612   0.01577   0.06764
  74 13  H  1S          0.04066   0.00000   0.06338   0.01655   0.06584
  75        2S          0.02813   0.00000   0.05665   0.01705   0.06667
  76 14  H  1S         -0.00000  -0.00000  -0.00019  -0.00016   0.00001
  77        2S         -0.00002  -0.00030  -0.00076  -0.00052   0.00092
  78 15  H  1S         -0.00000  -0.00000  -0.00019  -0.00016   0.00001
  79        2S         -0.00003  -0.00030  -0.00076  -0.00052   0.00092
                          71        72        73        74        75
  71        3PZ         0.32751
  72 12  H  1S          0.00000   0.17978
  73        2S          0.00000   0.08771   0.11222
  74 13  H  1S          0.00000  -0.00014  -0.00405   0.17998
  75        2S          0.00000  -0.00415  -0.01259   0.08860   0.11428
  76 14  H  1S         -0.00050   0.00000   0.00000  -0.00000   0.00001
  77        2S         -0.00344  -0.00000  -0.00001   0.00005   0.00062
  78 15  H  1S         -0.00050   0.00000   0.00000  -0.00000   0.00001
  79        2S         -0.00343  -0.00000  -0.00001   0.00005   0.00063
                          76        77        78        79
  76 14  H  1S          0.17037
  77        2S          0.09239   0.14001
  78 15  H  1S         -0.00014  -0.00426   0.17038
  79        2S         -0.00426  -0.01329   0.09238   0.13994
     Gross orbital populations:
                           1
   1 1   C  1S          1.98815
   2        2S          0.39389
   3        2PX         0.57820
   4        2PY         0.60614
   5        2PZ         0.39846
   6        3S          0.88684
   7        3PX         0.31972
   8        3PY         0.42884
   9        3PZ         0.57124
  10 2   C  1S          1.98807
  11        2S          0.39361
  12        2PX         0.57355
  13        2PY         0.61453
  14        2PZ         0.41775
  15        3S          0.89511
  16        3PX         0.50752
  17        3PY         0.25021
  18        3PZ         0.61403
  19 3   C  1S          1.98817
  20        2S          0.39605
  21        2PX         0.62385
  22        2PY         0.57193
  23        2PZ         0.40156
  24        3S          0.89351
  25        3PX         0.31356
  26        3PY         0.45771
  27        3PZ         0.59703
  28 4   C  1S          1.98825
  29        2S          0.39580
  30        2PX         0.62426
  31        2PY         0.56213
  32        2PZ         0.40912
  33        3S          0.89188
  34        3PX         0.29364
  35        3PY         0.44287
  36        3PZ         0.59218
  37 5   C  1S          1.98851
  38        2S          0.39624
  39        2PX         0.63289
  40        2PY         0.57256
  41        2PZ         0.39765
  42        3S          0.85457
  43        3PX         0.30536
  44        3PY         0.34760
  45        3PZ         0.56418
  46 6   C  1S          1.98996
  47        2S          0.34607
  48        2PX         0.55350
  49        2PY         0.54157
  50        2PZ         0.53371
  51        3S          1.16633
  52        3PX         0.33939
  53        3PY         0.41262
  54        3PZ         0.60386
  55 7   H  1S          0.46514
  56        2S          0.30653
  57 8   H  1S          0.46387
  58        2S          0.30322
  59 9   H  1S          0.46414
  60        2S          0.29883
  61 10  H  1S          0.46315
  62        2S          0.30284
  63 11  C  1S          1.98709
  64        2S          0.38947
  65        2PX         0.60610
  66        2PY         0.54655
  67        2PZ         0.42237
  68        3S          0.95287
  69        3PX         0.28575
  70        3PY         0.57040
  71        3PZ         0.63879
  72 12  H  1S          0.46504
  73        2S          0.33140
  74 13  H  1S          0.46554
  75        2S          0.33331
  76 14  H  1S          0.44568
  77        2S          0.31514
  78 15  H  1S          0.44571
  79        2S          0.31516
          Condensed to atoms (all electrons):
               1          2          3          4          5          6
     1  C    5.246482   0.560814  -0.108188  -0.003464  -0.079436   0.278178
     2  C    0.560814   5.215216   0.338125  -0.108883   0.007431  -0.094357
     3  C   -0.108188   0.338125   5.226493   0.550886  -0.104106   0.004316
     4  C   -0.003464  -0.108883   0.550886   5.171646   0.337331  -0.055009
     5  C   -0.079436   0.007431  -0.104106   0.337331   5.353507   0.252745
     6  C    0.278178  -0.094357   0.004316  -0.055009   0.252745   5.433402
     7  H    0.400231  -0.034192   0.002538  -0.000264   0.002864  -0.040040
     8  H   -0.030132   0.397132  -0.033903   0.002231  -0.000021   0.002088
     9  H    0.002006  -0.032864   0.394923  -0.029177   0.002031   0.000050
    10  H   -0.000044   0.002161  -0.028772   0.399271  -0.039604   0.001709
    11  C    0.003510   0.000039   0.001604  -0.073878   0.540177  -0.074472
    12  H   -0.000070   0.000009   0.000123   0.000741  -0.055607   0.002183
    13  H    0.000062   0.000004  -0.000071   0.002159  -0.056753  -0.000494
    14  H   -0.049257   0.001871  -0.000304   0.003272  -0.050513   0.388329
    15  H   -0.049213   0.001879  -0.000306   0.003270  -0.050498   0.388372
               7          8          9         10         11         12
     1  C    0.400231  -0.030132   0.002006  -0.000044   0.003510  -0.000070
     2  C   -0.034192   0.397132  -0.032864   0.002161   0.000039   0.000009
     3  C    0.002538  -0.033903   0.394923  -0.028772   0.001604   0.000123
     4  C   -0.000264   0.002231  -0.029177   0.399271  -0.073878   0.000741
     5  C    0.002864  -0.000021   0.002031  -0.039604   0.540177  -0.055607
     6  C   -0.040040   0.002088   0.000050   0.001709  -0.074472   0.002183
     7  H    0.444968  -0.001799  -0.000035   0.000001  -0.000026   0.000000
     8  H   -0.001799   0.432510  -0.000913  -0.000031  -0.000000  -0.000000
     9  H   -0.000035  -0.000913   0.428658  -0.001663  -0.000049  -0.000002
    10  H    0.000001  -0.000031  -0.001663   0.430333   0.000930   0.001764
    11  C   -0.000026  -0.000000  -0.000049   0.000930   5.208879   0.400848
    12  H    0.000000  -0.000000  -0.000002   0.001764   0.400848   0.467408
    13  H   -0.000001  -0.000000   0.000000   0.000011   0.402028  -0.020935
    14  H   -0.001286  -0.000037   0.000001  -0.000036  -0.005096  -0.000011
    15  H   -0.001293  -0.000037   0.000001  -0.000036  -0.005088  -0.000011
              13         14         15
     1  C    0.000062  -0.049257  -0.049213
     2  C    0.000004   0.001871   0.001879
     3  C   -0.000071  -0.000304  -0.000306
     4  C    0.002159   0.003272   0.003270
     5  C   -0.056753  -0.050513  -0.050498
     6  C   -0.000494   0.388329   0.388372
     7  H   -0.000001  -0.001286  -0.001293
     8  H   -0.000000  -0.000037  -0.000037
     9  H    0.000000   0.000001   0.000001
    10  H    0.000011  -0.000036  -0.000036
    11  C    0.402028  -0.005096  -0.005088
    12  H   -0.020935  -0.000011  -0.000011
    13  H    0.471462   0.000687   0.000691
    14  H    0.000687   0.495150  -0.021940
    15  H    0.000691  -0.021940   0.495078
 Mulliken charges:
               1
     1  C   -0.171480
     2  C   -0.254383
     3  C   -0.243357
     4  C   -0.200128
     5  C   -0.059548
     6  C   -0.487000
     7  H    0.228334
     8  H    0.232913
     9  H    0.237032
    10  H    0.234006
    11  C   -0.399406
    12  H    0.203561
    13  H    0.201151
    14  H    0.239171
    15  H    0.239134
 Sum of Mulliken charges =  -0.00000
 Mulliken charges with hydrogens summed into heavy atoms:
               1
     1  C    0.056853
     2  C   -0.021470
     3  C   -0.006325
     4  C    0.033878
     5  C   -0.059548
     6  C   -0.008695
    11  C    0.005307
 Electronic spatial extent (au):  <R**2>=            705.4270
 Charge=             -0.0000 electrons
 Dipole moment (field-independent basis, Debye):
    X=             -0.2791    Y=             -0.4294    Z=              0.0005  Tot=              0.5121
 Quadrupole moment (field-independent basis, Debye-Ang):
   XX=            -39.8039   YY=            -38.0595   ZZ=            -47.7340
   XY=             -0.4072   XZ=              0.0009   YZ=              0.0007
 Traceless Quadrupole moment (field-independent basis, Debye-Ang):
   XX=              2.0619   YY=              3.8063   ZZ=             -5.8682
   XY=             -0.4072   XZ=              0.0009   YZ=              0.0007
 Octapole moment (field-independent basis, Debye-Ang**2):
  XXX=             -4.1154  YYY=              0.6409  ZZZ=              0.0064  XYY=             -0.4638
  XXY=              2.4351  XXZ=             -0.0134  XZZ=              0.5358  YZZ=             -2.9816
  YYZ=              0.0009  XYZ=              0.0011
 Hexadecapole moment (field-independent basis, Debye-Ang**3):
 XXXX=           -544.6107 YYYY=           -306.1925 ZZZZ=            -57.3140 XXXY=             -3.6812
 XXXZ=              0.0003 YYYX=              3.2740 YYYZ=              0.0164 ZZZX=              0.0038
 ZZZY=             -0.0087 XXYY=           -136.0185 XXZZ=           -122.9431 YYZZ=            -67.9241
 XXYZ=              0.0043 YYXZ=             -0.0013 ZZXY=             -2.0230
 N-N= 2.690108279795D+02 E-N=-1.161183904482D+03  KE= 2.673952566831D+02
 Orbital energies and kinetic energies (alpha):
                                 1                 2
   1         O               -11.188787         15.877174
   2         O               -11.183442         15.877465
   3         O               -11.182193         15.882670
   4         O               -11.181294         15.876423
   5         O               -11.179208         15.876320
   6         O               -11.176299         15.875446
   7         O               -11.161015         15.871736
   8         O                -1.147732          1.438863
   9         O                -1.048571          1.557006
  10         O                -1.019912          1.537033
  11         O                -0.917709          1.521347
  12         O                -0.826631          1.385604
  13         O                -0.773468          1.336969
  14         O                -0.687421          0.992482
  15         O                -0.641348          1.276017
  16         O                -0.636357          1.253817
  17         O                -0.593887          0.867522
  18         O                -0.584833          1.183721
  19         O                -0.563895          1.256096
  20         O                -0.535680          1.180096
  21         O                -0.489862          1.378909
  22         O                -0.459456          1.322315
  23         O                -0.446282          0.953874
  24         O                -0.391420          0.996905
  25         O                -0.273591          1.121820
  26         V                 0.094620          1.113673
  27         V                 0.207038          1.228025
  28         V                 0.258606          0.931068
  29         V                 0.285381          1.174704
  30         V                 0.293192          0.946108
  31         V                 0.304976          1.020700
  32         V                 0.327696          1.087013
  33         V                 0.354060          1.265186
  34         V                 0.361249          1.031611
  35         V                 0.371584          1.232539
  36         V                 0.392657          1.226334
  37         V                 0.442775          1.813594
  38         V                 0.470665          1.563415
  39         V                 0.527418          1.524369
  40         V                 0.542737          1.617157
  41         V                 0.584731          1.509889
  42         V                 0.738053          2.433692
  43         V                 0.769531          2.102953
  44         V                 0.883589          2.137216
  45         V                 0.910785          2.157727
  46         V                 0.948191          2.495617
  47         V                 0.973920          2.754472
  48         V                 0.996674          2.714976
  49         V                 1.008900          2.637585
  50         V                 1.055771          2.632286
  51         V                 1.056380          2.745720
  52         V                 1.097582          2.757430
  53         V                 1.104888          2.595432
  54         V                 1.107855          2.662888
  55         V                 1.117029          2.671807
  56         V                 1.130947          2.857755
  57         V                 1.142187          2.821414
  58         V                 1.165798          2.896130
  59         V                 1.269005          3.028874
  60         V                 1.288114          3.303596
  61         V                 1.298719          3.228507
  62         V                 1.323164          3.215016
  63         V                 1.357626          2.451589
  64         V                 1.382107          3.036953
  65         V                 1.388274          3.123780
  66         V                 1.426279          3.233839
  67         V                 1.452387          3.335691
  68         V                 1.561512          2.920157
  69         V                 1.577025          2.959119
  70         V                 1.634700          2.818120
  71         V                 1.699172          2.743548
  72         V                 1.736823          2.799803
  73         V                 1.769796          3.212195
  74         V                 1.826642          3.115010
  75         V                 1.850025          3.246386
  76         V                 2.030080          3.350257
  77         V                 2.160970          3.414162
  78         V                 2.336025          3.446242
  79         V                 2.785063          3.688621
 Total kinetic energy from orbitals= 2.673952566831D+02
 1\1\GINC-IISERK51\SP\RHF\3-21G*\C7H8\GAUSSIAN\12-Jun-2025\0\\# hf/3-21
 g* pop=full geom=connectivity\\Optimisation\\0,1\C,0,-1.200015,-1.1572
 96,-0.00022\C,0,-1.844163,0.021786,-0.000477\C,0,-1.104571,1.264717,0.
 000077\C,0,0.242889,1.263666,0.000431\C,0,1.016581,0.031559,0.000127\C
 ,0,0.277921,-1.26886,0.000636\H,0,-1.745951,-2.113015,-0.000498\H,0,-2
 .942473,0.08309,-0.001108\H,0,-1.680742,2.201706,0.000163\H,0,0.814829
 ,2.20516,0.000884\C,0,2.358668,0.050651,-0.000601\H,0,2.932598,0.98531
 1,-0.000895\H,0,2.955421,-0.869624,-0.000972\H,0,0.590719,-1.864274,0.
 905142\H,0,0.591735,-1.865694,-0.902553\\Version=EM64L-G16RevB.01\Stat
 e=1-A\HF=-268.1737902\RMSD=3.446e-09\Dipole=-0.1098026,-0.1689376,0.00
 02052\Quadrupole=1.5329921,2.829896,-4.3628881,-0.3027652,0.0006902,0.
 000521\PG=C01 [X(C7H8)]\\@


 ADVERTISING--  HE WHO HAS SOMETHING TO SELL AND GOES AND WHISPERS
                IN A WELL, IS NOT SO APT TO GET THE DOLLARS AS HE
                WHO CLIMBS A TREE AND HOLLERS.

                   -- FROM THE BACK OF A SUGAR PACKET
 Job cpu time:       0 days  0 hours  0 minutes  1.1 seconds.
 Elapsed time:       0 days  0 hours  0 minutes  1.1 seconds.
 File lengths (MBytes):  RWF=      6 Int=      0 D2E=      0 Chk=      1 Scr=      1
 Normal termination of Gaussian 16 at Thu Jun 12 22:00:48 2025.
