 Entering Gaussian System, Link 0=g16
 Input=/home/gaussian/Documents/program files/Aromaticity/AM1 HF3-21G*/Toluene/toluene_sp.com
 Output=/home/gaussian/Documents/program files/Aromaticity/AM1 HF3-21G*/Toluene/toluene_sp.log
 Initial command:
 /usr/local/g16/l1.exe "/home/gaussian/tmp/Gau-142022.inp" -scrdir="/home/gaussian/tmp/"
 Entering Link 1 = /usr/local/g16/l1.exe PID=    142025.
  
 Copyright (c) 1988-2017, Gaussian, Inc.  All Rights Reserved.
  
 This is part of the Gaussian(R) 16 program.  It is based on
 the Gaussian(R) 09 system (copyright 2009, Gaussian, Inc.),
 the Gaussian(R) 03 system (copyright 2003, Gaussian, Inc.),
 the Gaussian(R) 98 system (copyright 1998, Gaussian, Inc.),
 the Gaussian(R) 94 system (copyright 1995, Gaussian, Inc.),
 the Gaussian 92(TM) system (copyright 1992, Gaussian, Inc.),
 the Gaussian 90(TM) system (copyright 1990, Gaussian, Inc.),
 the Gaussian 88(TM) system (copyright 1988, Gaussian, Inc.),
 the Gaussian 86(TM) system (copyright 1986, Carnegie Mellon
 University), and the Gaussian 82(TM) system (copyright 1983,
 Carnegie Mellon University). Gaussian is a federally registered
 trademark of Gaussian, Inc.
  
 This software contains proprietary and confidential information,
 including trade secrets, belonging to Gaussian, Inc.
  
 This software is provided under written license and may be
 used, copied, transmitted, or stored only in accord with that
 written license.
  
 The following legend is applicable only to US Government
 contracts under FAR:
  
                    RESTRICTED RIGHTS LEGEND
  
 Use, reproduction and disclosure by the US Government is
 subject to restrictions as set forth in subparagraphs (a)
 and (c) of the Commercial Computer Software - Restricted
 Rights clause in FAR 52.227-19.
  
 Gaussian, Inc.
 340 Quinnipiac St., Bldg. 40, Wallingford CT 06492
  
  
 ---------------------------------------------------------------
 Warning -- This program may not be used in any manner that
 competes with the business of Gaussian, Inc. or will provide
 assistance to any competitor of Gaussian, Inc.  The licensee
 of this program is prohibited from giving any competitor of
 Gaussian, Inc. access to this program.  By using this program,
 the user acknowledges that Gaussian, Inc. is engaged in the
 business of creating and licensing software in the field of
 computational chemistry and represents and warrants to the
 licensee that it is not a competitor of Gaussian, Inc. and that
 it will not use this program in any manner prohibited above.
 ---------------------------------------------------------------
  

 Cite this work as:
 Gaussian 16, Revision B.01,
 M. J. Frisch, G. W. Trucks, H. B. Schlegel, G. E. Scuseria, 
 M. A. Robb, J. R. Cheeseman, G. Scalmani, V. Barone, 
 G. A. Petersson, H. Nakatsuji, X. Li, M. Caricato, A. V. Marenich, 
 J. Bloino, B. G. Janesko, R. Gomperts, B. Mennucci, H. P. Hratchian, 
 J. V. Ortiz, A. F. Izmaylov, J. L. Sonnenberg, D. Williams-Young, 
 F. Ding, F. Lipparini, F. Egidi, J. Goings, B. Peng, A. Petrone, 
 T. Henderson, D. Ranasinghe, V. G. Zakrzewski, J. Gao, N. Rega, 
 G. Zheng, W. Liang, M. Hada, M. Ehara, K. Toyota, R. Fukuda, 
 J. Hasegawa, M. Ishida, T. Nakajima, Y. Honda, O. Kitao, H. Nakai, 
 T. Vreven, K. Throssell, J. A. Montgomery, Jr., J. E. Peralta, 
 F. Ogliaro, M. J. Bearpark, J. J. Heyd, E. N. Brothers, K. N. Kudin, 
 V. N. Staroverov, T. A. Keith, R. Kobayashi, J. Normand, 
 K. Raghavachari, A. P. Rendell, J. C. Burant, S. S. Iyengar, 
 J. Tomasi, M. Cossi, J. M. Millam, M. Klene, C. Adamo, R. Cammi, 
 J. W. Ochterski, R. L. Martin, K. Morokuma, O. Farkas, 
 J. B. Foresman, and D. J. Fox, Gaussian, Inc., Wallingford CT, 2016.
 
 ******************************************
 Gaussian 16:  EM64L-G16RevB.01 20-Dec-2017
                12-Jun-2025 
 ******************************************
 %chk=toluene_sp.chk
 --------------------------------------
 # hf/3-21g* pop=full geom=connectivity
 --------------------------------------
 1/38=1,57=2,172=1/1;
 2/12=2,17=6,18=5,40=1/2;
 3/5=5,7=1,11=9,25=1,30=1/1,2,3;
 4//1;
 5/5=2,38=5/2;
 6/7=3,28=1/1;
 99/5=1,9=1/99;
 -------------------
 Title Card Required
 -------------------
 Symbolic Z-matrix:
 Charge =  0 Multiplicity = 1
 C                    -1.89059  -0.00047   0.00348 
 C                    -1.19064  -1.20712   0.00078 
 C                     0.20311  -1.20767  -0.00434 
 C                     0.91077   0.00058  -0.00622 
 C                     0.20233   1.2082   -0.00434 
 C                    -1.19154   1.20659   0.00078 
 H                    -2.99004  -0.00091   0.00697 
 H                    -1.73882  -2.16062   0.00213 
 H                     0.75222  -2.16087  -0.00762 
 H                     0.75042   2.16201  -0.0076 
 H                    -1.74033   2.15974   0.00213 
 C                     2.3915    0.00019   0.00392 
 H                     2.76548  -0.02496   1.05879 
 H                     2.79511  -0.89461  -0.53089 
 H                     2.79643   0.91841  -0.48833 
 
                          Input orientation:                          
 ---------------------------------------------------------------------
 Center     Atomic      Atomic             Coordinates (Angstroms)
 Number     Number       Type             X           Y           Z
 ---------------------------------------------------------------------
      1          6           0       -1.890593   -0.000467    0.003484
      2          6           0       -1.190638   -1.207121    0.000782
      3          6           0        0.203105   -1.207668   -0.004338
      4          6           0        0.910771    0.000580   -0.006223
      5          6           0        0.202325    1.208201   -0.004335
      6          6           0       -1.191544    1.206591    0.000777
      7          1           0       -2.990043   -0.000908    0.006972
      8          1           0       -1.738821   -2.160618    0.002128
      9          1           0        0.752219   -2.160875   -0.007622
     10          1           0        0.750419    2.162009   -0.007595
     11          1           0       -1.740332    2.159743    0.002127
     12          6           0        2.391499    0.000185    0.003924
     13          1           0        2.765475   -0.024957    1.058788
     14          1           0        2.795114   -0.894605   -0.530887
     15          1           0        2.796425    0.918409   -0.488332
 ---------------------------------------------------------------------
                    Distance matrix (angstroms):
                    1          2          3          4          5
     1  C    0.000000
     2  C    1.394976   0.000000
     3  C    2.416809   1.393753   0.000000
     4  C    2.801381   2.423739   1.400235   0.000000
     5  C    2.416867   2.788217   2.415869   1.400088   0.000000
     6  C    1.394871   2.413712   2.788139   2.423683   1.393879
     7  H    1.099456   2.166298   3.413589   3.900837   3.413691
     8  H    2.165477   1.099847   2.163153   3.419237   3.888063
     9  H    3.413494   2.164350   1.100064   2.167263   3.413659
    10  H    3.413410   3.888291   3.413837   2.167369   1.100076
    11  H    2.165430   3.411442   3.887987   3.419123   2.163190
    12  C    4.282092   3.780119   2.499609   1.480763   2.500371
    13  H    4.774226   4.262361   3.015756   2.138885   3.036552
    14  H    4.800092   4.033182   2.663414   2.151134   3.379586
    15  H    4.801495   4.544643   3.388180   2.151867   2.654729
                    6          7          8          9         10
     6  C    0.000000
     7  H    2.166262   0.000000
     8  H    3.411394   2.495982   0.000000
     9  H    3.888202   4.320902   2.491059   0.000000
    10  H    2.164281   4.320819   4.988137   4.322884   0.000000
    11  H    1.099849   2.496040   4.320361   4.988050   2.490771
    12  C    3.780691   5.381543   4.661396   2.712481   2.714177
    13  H    4.277160   5.850887   5.095710   3.122911   3.159184
    14  H    4.537745   5.878438   4.737453   2.459810   3.714499
    15  H    4.028172   5.879939   5.503582   3.727177   2.442087
                   11         12         13         14         15
    11  H    0.000000
    12  C    4.662158   0.000000
    13  H    5.117787   1.119477   0.000000
    14  H    5.493944   1.117845   1.812245   0.000000
    15  H    4.729019   1.117773   1.812313   1.813514   0.000000
 Stoichiometry    C7H8
 Framework group  C1[X(C7H8)]
 Deg. of freedom    39
 Full point group                 C1      NOp   1
 Largest Abelian subgroup         C1      NOp   1
 Largest concise Abelian subgroup C1      NOp   1
                         Standard orientation:                         
 ---------------------------------------------------------------------
 Center     Atomic      Atomic             Coordinates (Angstroms)
 Number     Number       Type             X           Y           Z
 ---------------------------------------------------------------------
      1          6           0       -1.890593   -0.000467    0.003484
      2          6           0       -1.190638   -1.207121    0.000782
      3          6           0        0.203105   -1.207668   -0.004338
      4          6           0        0.910771    0.000580   -0.006223
      5          6           0        0.202325    1.208201   -0.004335
      6          6           0       -1.191544    1.206591    0.000777
      7          1           0       -2.990043   -0.000908    0.006972
      8          1           0       -1.738821   -2.160618    0.002128
      9          1           0        0.752219   -2.160875   -0.007622
     10          1           0        0.750419    2.162009   -0.007595
     11          1           0       -1.740332    2.159743    0.002127
     12          6           0        2.391499    0.000185    0.003924
     13          1           0        2.765475   -0.024957    1.058788
     14          1           0        2.795114   -0.894605   -0.530887
     15          1           0        2.796425    0.918409   -0.488332
 ---------------------------------------------------------------------
 Rotational constants (GHZ):           5.4866880           2.5555756           1.7636414
 Standard basis: 3-21G* (6D, 7F)
 There are    79 symmetry adapted cartesian basis functions of A   symmetry.
 There are    79 symmetry adapted basis functions of A   symmetry.
    79 basis functions,   129 primitive gaussians,    79 cartesian basis functions
    25 alpha electrons       25 beta electrons
       nuclear repulsion energy       269.1304925413 Hartrees.
 NAtoms=   15 NActive=   15 NUniq=   15 SFac= 1.00D+00 NAtFMM=   60 NAOKFM=F Big=F
 Integral buffers will be    131072 words long.
 Raffenetti 1 integral format.
 Two-electron integral symmetry is turned on.
 One-electron integrals computed using PRISM.
 NBasis=    79 RedAO= T EigKep=  1.65D-03  NBF=    79
 NBsUse=    79 1.00D-06 EigRej= -1.00D+00 NBFU=    79
 ExpMin= 1.83D-01 ExpMax= 1.72D+02 ExpMxC= 1.72D+02 IAcc=3 IRadAn=         5 AccDes= 0.00D+00
 Harris functional with IExCor=  205 and IRadAn=       5 diagonalized for initial guess.
 HarFok:  IExCor=  205 AccDes= 0.00D+00 IRadAn=         5 IDoV= 1 UseB2=F ITyADJ=14
 ICtDFT=  3500011 ScaDFX=  1.000000  1.000000  1.000000  1.000000
 FoFCou: FMM=F IPFlag=           0 FMFlag=      100000 FMFlg1=           0
         NFxFlg=           0 DoJE=T BraDBF=F KetDBF=T FulRan=T
         wScrn=  0.000000 ICntrl=       500 IOpCl=  0 I1Cent=   200000004 NGrid=           0
         NMat0=    1 NMatS0=      1 NMatT0=    0 NMatD0=    1 NMtDS0=    0 NMtDT0=    0
 Petite list used in FoFCou.
 Keep R1 ints in memory in canonical form, NReq=5830623.
 Requested convergence on RMS density matrix=1.00D-08 within 128 cycles.
 Requested convergence on MAX density matrix=1.00D-06.
 Requested convergence on             energy=1.00D-06.
 No special actions if energy rises.
 SCF Done:  E(RHF) =  -268.233806871     A.U. after   12 cycles
            NFock= 12  Conv=0.82D-08     -V/T= 2.0034

 **********************************************************************

            Population analysis using the SCF Density.

 **********************************************************************

 Orbital symmetries:
       Occupied  (A) (A) (A) (A) (A) (A) (A) (A) (A) (A) (A) (A)
                 (A) (A) (A) (A) (A) (A) (A) (A) (A) (A) (A) (A)
                 (A)
       Virtual   (A) (A) (A) (A) (A) (A) (A) (A) (A) (A) (A) (A)
                 (A) (A) (A) (A) (A) (A) (A) (A) (A) (A) (A) (A)
                 (A) (A) (A) (A) (A) (A) (A) (A) (A) (A) (A) (A)
                 (A) (A) (A) (A) (A) (A) (A) (A) (A) (A) (A) (A)
                 (A) (A) (A) (A) (A) (A)
 The electronic state is 1-A.
 Alpha  occ. eigenvalues --  -11.18705 -11.18056 -11.18047 -11.17691 -11.17664
 Alpha  occ. eigenvalues --  -11.17646 -11.17167  -1.15362  -1.04543  -1.00898
 Alpha  occ. eigenvalues --   -0.92734  -0.82216  -0.79234  -0.69193  -0.63665
 Alpha  occ. eigenvalues --   -0.62281  -0.58349  -0.57378  -0.56627  -0.53020
 Alpha  occ. eigenvalues --   -0.48805  -0.48286  -0.47968  -0.33635  -0.32297
 Alpha virt. eigenvalues --    0.14854   0.14960   0.25458   0.29148   0.30356
 Alpha virt. eigenvalues --    0.32308   0.34278   0.34515   0.37033   0.37262
 Alpha virt. eigenvalues --    0.40205   0.44799   0.50979   0.53063   0.54153
 Alpha virt. eigenvalues --    0.56345   0.76861   0.81585   0.90056   0.91437
 Alpha virt. eigenvalues --    0.94980   0.98381   0.99077   0.99502   1.04960
 Alpha virt. eigenvalues --    1.05445   1.07690   1.09362   1.10367   1.11726
 Alpha virt. eigenvalues --    1.15151   1.18476   1.21008   1.21892   1.27295
 Alpha virt. eigenvalues --    1.29822   1.31553   1.34518   1.35661   1.40572
 Alpha virt. eigenvalues --    1.41649   1.44777   1.55191   1.60076   1.62709
 Alpha virt. eigenvalues --    1.72346   1.76025   1.79993   1.81284   1.86871
 Alpha virt. eigenvalues --    2.15554   2.18517   2.22636   2.75483
     Molecular Orbital Coefficients:
                           1         2         3         4         5
                           O         O         O         O         O
     Eigenvalues --   -11.18705 -11.18056 -11.18047 -11.17691 -11.17664
   1 1   C  1S         -0.00704  -0.01971  -0.08373   0.95490   0.01854
   2        2S         -0.00152  -0.00343  -0.01444   0.09575   0.00186
   3        2PX        -0.00026  -0.00041  -0.00169   0.00145  -0.00002
   4        2PY         0.00000   0.00126  -0.00030   0.00001  -0.00120
   5        2PZ         0.00000   0.00000   0.00000  -0.00001  -0.00000
   6        3S          0.01125   0.01440   0.06015  -0.08165  -0.00239
   7        3PX         0.00661   0.00761   0.03172  -0.01930  -0.00093
   8        3PY         0.00002  -0.01438   0.00347  -0.00001   0.00131
   9        3PZ        -0.00005  -0.00003  -0.00010   0.00008   0.00000
  10 2   C  1S         -0.00637   0.84037   0.51151   0.04542  -0.02155
  11        2S         -0.00038   0.08485   0.05239   0.00127  -0.00002
  12        2PX        -0.00071   0.00044   0.00075   0.00058   0.00082
  13        2PY        -0.00005   0.00158  -0.00002  -0.00131   0.00010
  14        2PZ         0.00000  -0.00001  -0.00000  -0.00000  -0.00000
  15        3S         -0.00926  -0.07379  -0.06567   0.02291  -0.01328
  16        3PX        -0.00203  -0.00849  -0.01243  -0.00335  -0.00944
  17        3PY        -0.00728  -0.01586  -0.02034   0.01784  -0.00347
  18        3PZ         0.00003   0.00004   0.00003   0.00002   0.00004
  19 3   C  1S         -0.01899  -0.03704  -0.04581  -0.16561  -0.66629
  20        2S         -0.00574  -0.00704  -0.00782  -0.01673  -0.06720
  21        2PX        -0.00047   0.00120   0.00094   0.00120   0.00026
  22        2PY        -0.00137  -0.00030  -0.00058  -0.00022  -0.00143
  23        2PZ         0.00001   0.00000  -0.00001  -0.00001   0.00000
  24        3S          0.03265   0.03068   0.03611   0.00639   0.05512
  25        3PX         0.00311  -0.01395  -0.01500  -0.00034  -0.00217
  26        3PY         0.01862   0.00880   0.01454  -0.00258   0.01053
  27        3PZ        -0.00010   0.00004   0.00011  -0.00000  -0.00001
  28 4   C  1S          0.98703   0.00164   0.00649   0.00080   0.00133
  29        2S          0.10053   0.00042   0.00172   0.00057  -0.00013
  30        2PX        -0.00032   0.00017   0.00072   0.00011   0.00012
  31        2PY         0.00001   0.00071  -0.00017   0.00002  -0.00191
  32        2PZ         0.00002   0.00000   0.00001  -0.00000  -0.00000
  33        3S         -0.09613  -0.00616  -0.02578  -0.00162   0.00219
  34        3PX         0.01111   0.00327   0.01374  -0.00104  -0.00185
  35        3PY        -0.00016   0.00249  -0.00056  -0.00016   0.02062
  36        3PZ         0.00029  -0.00005  -0.00019   0.00002   0.00000
  37 5   C  1S         -0.01905   0.01269  -0.05827  -0.17649   0.72737
  38        2S         -0.00576   0.00277  -0.01022  -0.01782   0.07335
  39        2PX        -0.00047  -0.00064   0.00138   0.00120  -0.00028
  40        2PY         0.00137  -0.00001   0.00065   0.00024  -0.00144
  41        2PZ         0.00001  -0.00001  -0.00001  -0.00001  -0.00000
  42        3S          0.03283  -0.01100   0.04611   0.00732  -0.06210
  43        3PX         0.00321   0.00561  -0.01969  -0.00039   0.00343
  44        3PY        -0.01874   0.00128  -0.01696   0.00239   0.01272
  45        3PZ        -0.00011   0.00002   0.00012  -0.00000   0.00000
  46 6   C  1S         -0.00629  -0.51625   0.83738   0.04541   0.02891
  47        2S         -0.00037  -0.05179   0.08521   0.00131   0.00026
  48        2PX        -0.00071  -0.00005   0.00086   0.00060  -0.00089
  49        2PY         0.00005   0.00142  -0.00070   0.00131   0.00021
  50        2PZ         0.00000   0.00000  -0.00001  -0.00000   0.00000
  51        3S         -0.00928   0.03595  -0.09203   0.02265   0.01721
  52        3PX        -0.00201   0.00192  -0.01494  -0.00350   0.01090
  53        3PY         0.00733  -0.00492   0.02531  -0.01777  -0.00545
  54        3PZ         0.00004  -0.00002   0.00004   0.00002  -0.00005
  55 7   H  1S          0.00017   0.00007   0.00030  -0.00192  -0.00007
  56        2S          0.00157   0.00155   0.00646   0.00620   0.00006
  57 8   H  1S         -0.00047  -0.00160  -0.00153  -0.00014   0.00013
  58        2S         -0.00112   0.00498   0.00114   0.00380  -0.00196
  59 9   H  1S         -0.00035  -0.00005   0.00042  -0.00005   0.00100
  60        2S          0.00245   0.00264   0.00411  -0.00165  -0.00497
  61 10  H  1S         -0.00036   0.00024   0.00035  -0.00003  -0.00120
  62        2S          0.00247  -0.00049   0.00485  -0.00173   0.00513
  63 11  H  1S         -0.00048   0.00073  -0.00209  -0.00013  -0.00012
  64        2S         -0.00113  -0.00391   0.00328   0.00376   0.00263
  65 12  C  1S         -0.00832  -0.00245  -0.01003   0.00190  -0.00176
  66        2S         -0.00250  -0.00049  -0.00200   0.00017  -0.00027
  67        2PX         0.00063   0.00009   0.00037  -0.00015   0.00000
  68        2PY        -0.00003   0.00021  -0.00004   0.00000  -0.00033
  69        2PZ         0.00040  -0.00002  -0.00008   0.00001  -0.00000
  70        3S          0.01367   0.00007   0.00018   0.00105   0.00090
  71        3PX        -0.00944  -0.00021  -0.00084  -0.00039  -0.00035
  72        3PY         0.00020  -0.00188   0.00040   0.00002  -0.00254
  73        3PZ        -0.00227   0.00013   0.00054  -0.00007   0.00000
  74 13  H  1S         -0.00120  -0.00006  -0.00022  -0.00002  -0.00003
  75        2S          0.00354  -0.00011  -0.00038  -0.00000  -0.00004
  76 14  H  1S         -0.00087  -0.00033  -0.00015  -0.00002  -0.00018
  77        2S          0.00002  -0.00023   0.00043  -0.00009  -0.00030
  78 15  H  1S         -0.00086   0.00023  -0.00028  -0.00002   0.00014
  79        2S         -0.00020   0.00042   0.00033  -0.00010   0.00025
                           6         7         8         9        10
                           O         O         O         O         O
     Eigenvalues --   -11.17646 -11.17167  -1.15362  -1.04543  -1.00898
   1 1   C  1S          0.23493   0.00536  -0.08769   0.11649  -0.00002
   2        2S          0.02353   0.00039   0.09823  -0.12622   0.00003
   3        2PX        -0.00065  -0.00020   0.05601  -0.04065   0.00004
   4        2PY         0.00006   0.00000   0.00002  -0.00005  -0.10187
   5        2PZ         0.00000  -0.00001  -0.00021   0.00018   0.00000
   6        3S         -0.03754  -0.00219   0.16751  -0.25408   0.00006
   7        3PX        -0.01665  -0.00214   0.01641  -0.00833   0.00000
   8        3PY        -0.00006  -0.00006   0.00004   0.00011  -0.00855
   9        3PZ         0.00006   0.00016  -0.00018  -0.00018  -0.00000
  10 2   C  1S          0.06581   0.00915  -0.08969   0.07560  -0.11789
  11        2S          0.00171  -0.00010   0.10186  -0.08068   0.12651
  12        2PX        -0.00093  -0.00037   0.03063   0.03482   0.05836
  13        2PY        -0.00095  -0.00017   0.04785  -0.05127  -0.00312
  14        2PZ         0.00000   0.00004  -0.00012  -0.00015  -0.00022
  15        3S          0.03916   0.00490   0.15479  -0.18180   0.27885
  16        3PX         0.01656   0.00372  -0.00047  -0.01133   0.00993
  17        3PY         0.01850   0.00216   0.00555  -0.01421   0.00825
  18        3PZ        -0.00005  -0.00025   0.00018   0.00041  -0.00005
  19 3   C  1S          0.70657   0.02284  -0.09750  -0.02872  -0.11887
  20        2S          0.07120   0.00158   0.10872   0.03055   0.12729
  21        2PX        -0.00044  -0.00089  -0.02102   0.07614  -0.05666
  22        2PY         0.00016  -0.00025   0.05391   0.03756  -0.00290
  23        2PZ         0.00001  -0.00010   0.00025   0.00001   0.00022
  24        3S         -0.07784  -0.00228   0.19156   0.07288   0.27677
  25        3PX         0.01386   0.00315  -0.01538  -0.00387  -0.01065
  26        3PY        -0.02335   0.00177   0.01744   0.00459   0.00579
  27        3PZ        -0.00005   0.00041  -0.00024  -0.00063   0.00012
  28 4   C  1S          0.02715   0.00897  -0.11202  -0.12040   0.00007
  29        2S         -0.00279  -0.00111   0.12379   0.12908  -0.00007
  30        2PX         0.00245  -0.00095  -0.04381   0.04784   0.00007
  31        2PY         0.00009  -0.00002  -0.00004  -0.00007  -0.10598
  32        2PZ         0.00000   0.00009   0.00050   0.00070  -0.00000
  33        3S          0.04646   0.01933   0.21280   0.26543  -0.00016
  34        3PX        -0.03872   0.01724   0.01142   0.00503   0.00007
  35        3PY        -0.00099   0.00020  -0.00014  -0.00036  -0.01868
  36        3PZ         0.00001  -0.00032   0.00054   0.00066   0.00000
  37 5   C  1S          0.64054   0.02304  -0.09747  -0.02865   0.11892
  38        2S          0.06454   0.00160   0.10869   0.03046  -0.12735
  39        2PX        -0.00041  -0.00087  -0.02098   0.07612   0.05659
  40        2PY        -0.00002   0.00024  -0.05393  -0.03749  -0.00279
  41        2PZ         0.00001  -0.00010   0.00024   0.00001  -0.00022
  42        3S         -0.07228  -0.00235   0.19155   0.07283  -0.27683
  43        3PX         0.01358   0.00288  -0.01518  -0.00334   0.01065
  44        3PY         0.02225  -0.00159  -0.01754  -0.00483   0.00576
  45        3PZ        -0.00005   0.00041  -0.00024  -0.00063  -0.00012
  46 6   C  1S          0.06418   0.00913  -0.08968   0.07565   0.11784
  47        2S          0.00178  -0.00009   0.10183  -0.08076  -0.12646
  48        2PX        -0.00085  -0.00037   0.03064   0.03475  -0.05837
  49        2PY         0.00093   0.00017  -0.04783   0.05130  -0.00318
  50        2PZ         0.00000   0.00004  -0.00012  -0.00015   0.00022
  51        3S          0.03767   0.00479   0.15482  -0.18169  -0.27872
  52        3PX         0.01561   0.00358  -0.00036  -0.01105  -0.00993
  53        3PY        -0.01805  -0.00224  -0.00550   0.01434   0.00825
  54        3PZ        -0.00004  -0.00025   0.00018   0.00041   0.00005
  55 7   H  1S         -0.00123  -0.00026   0.02868  -0.05162   0.00002
  56        2S          0.00010  -0.00024  -0.00304  -0.00618   0.00000
  57 8   H  1S          0.00006   0.00002   0.02927  -0.03341   0.05994
  58        2S          0.00661   0.00145  -0.00611  -0.00730   0.01329
  59 9   H  1S         -0.00217  -0.00017   0.03356   0.01894   0.06080
  60        2S          0.00220   0.00036   0.00044   0.00808   0.01331
  61 10  H  1S         -0.00207  -0.00014   0.03353   0.01885  -0.06083
  62        2S          0.00172   0.00028   0.00048   0.00816  -0.01329
  63 11  H  1S          0.00007   0.00003   0.02926  -0.03344  -0.05992
  64        2S          0.00640   0.00146  -0.00611  -0.00731  -0.01329
  65 12  C  1S         -0.03434   0.98691  -0.04375  -0.11721   0.00001
  66        2S         -0.00520   0.10184   0.04622   0.11313  -0.00002
  67        2PX         0.00007  -0.00013  -0.03377  -0.05326  -0.00000
  68        2PY         0.00001  -0.00001   0.00002   0.00001  -0.01474
  69        2PZ        -0.00001   0.00010  -0.00038  -0.00039  -0.00000
  70        3S          0.01780  -0.08385   0.08355   0.31359  -0.00000
  71        3PX        -0.00759   0.00779   0.00748  -0.01480   0.00004
  72        3PY         0.00013   0.00001  -0.00017  -0.00032  -0.00447
  73        3PZ        -0.00002  -0.00032   0.00214   0.00432  -0.00000
  74 13  H  1S         -0.00058   0.00063   0.01791   0.05345   0.00014
  75        2S         -0.00036   0.01373  -0.00692  -0.00540   0.00007
  76 14  H  1S         -0.00054   0.00062   0.01780   0.05322   0.00527
  77        2S         -0.00027   0.01321  -0.00312   0.00163   0.00382
  78 15  H  1S         -0.00055   0.00061   0.01779   0.05320  -0.00542
  79        2S         -0.00031   0.01321  -0.00288   0.00199  -0.00400
                          11        12        13        14        15
                           O         O         O         O         O
     Eigenvalues --    -0.92734  -0.82216  -0.79234  -0.69193  -0.63665
   1 1   C  1S         -0.10308  -0.00002  -0.08782   0.02730  -0.00028
   2        2S          0.10821   0.00002   0.09051  -0.02266   0.00031
   3        2PX        -0.00660   0.00004  -0.03522   0.20811  -0.00010
   4        2PY         0.00006  -0.18025  -0.00006   0.00003   0.22100
   5        2PZ         0.00004   0.00000   0.00011  -0.00060  -0.00000
   6        3S          0.28044   0.00005   0.28978  -0.11771   0.00081
   7        3PX         0.00783  -0.00001  -0.00204   0.13828  -0.00036
   8        3PY         0.00016  -0.06462  -0.00008   0.00006   0.11888
   9        3PZ        -0.00028   0.00000   0.00006  -0.00042   0.00000
  10 2   C  1S         -0.01526  -0.09359   0.06143  -0.00890   0.00570
  11        2S          0.01714   0.09679  -0.06275   0.01436  -0.00509
  12        2PX        -0.09595  -0.09448  -0.09400   0.09400   0.21034
  13        2PY         0.04756   0.00759   0.11680   0.12933  -0.09004
  14        2PZ         0.00032   0.00036   0.00039  -0.00009  -0.00057
  15        3S          0.03342   0.29963  -0.20620   0.01008  -0.02490
  16        3PX        -0.02737  -0.02784  -0.03744   0.05887   0.12361
  17        3PY         0.00355   0.00874   0.04828   0.08366  -0.05182
  18        3PZ         0.00054   0.00011   0.00004  -0.00001  -0.00044
  19 3   C  1S          0.07697   0.08914   0.03235   0.02130  -0.01525
  20        2S         -0.08083  -0.09212  -0.03206  -0.01746   0.01402
  21        2PX         0.00891  -0.10795   0.11777  -0.11639  -0.19000
  22        2PY        -0.02788  -0.01164   0.13627   0.11743  -0.10383
  23        2PZ         0.00029   0.00041  -0.00027   0.00107   0.00072
  24        3S         -0.20474  -0.27868  -0.11275  -0.08760   0.07108
  25        3PX         0.00967  -0.03052   0.03728  -0.06991  -0.09705
  26        3PY        -0.01768  -0.00746   0.05400   0.08581  -0.04774
  27        3PZ        -0.00078   0.00018   0.00007   0.00076   0.00098
  28 4   C  1S          0.02838   0.00000  -0.10363   0.02231   0.00033
  29        2S         -0.02945   0.00002   0.10680  -0.01873  -0.00028
  30        2PX         0.15073  -0.00002  -0.05599  -0.09275  -0.00039
  31        2PY        -0.00006   0.19317   0.00001  -0.00005   0.21318
  32        2PZ         0.00044   0.00000   0.00037   0.00115  -0.00002
  33        3S         -0.08414  -0.00009   0.34806  -0.09545  -0.00142
  34        3PX         0.02092  -0.00015  -0.03065  -0.06135  -0.00083
  35        3PY        -0.00058   0.08776   0.00010  -0.00016   0.16064
  36        3PZ         0.00057  -0.00000   0.00063   0.00087  -0.00002
  37 5   C  1S          0.07699  -0.08912   0.03233   0.02126   0.01479
  38        2S         -0.08089   0.09210  -0.03203  -0.01744  -0.01355
  39        2PX         0.00873   0.10796   0.11791  -0.11630   0.19040
  40        2PY         0.02796  -0.01153  -0.13623  -0.11744  -0.10280
  41        2PZ         0.00029  -0.00040  -0.00027   0.00107  -0.00074
  42        3S         -0.20456   0.27849  -0.11269  -0.08738  -0.07001
  43        3PX         0.01041   0.03065   0.03710  -0.06965   0.09833
  44        3PY         0.01730  -0.00736  -0.05390  -0.08587  -0.04666
  45        3PZ        -0.00078  -0.00018   0.00007   0.00076  -0.00099
  46 6   C  1S         -0.01537   0.09358   0.06147  -0.00888  -0.00520
  47        2S          0.01723  -0.09679  -0.06279   0.01434   0.00455
  48        2PX        -0.09593   0.09439  -0.09386   0.09416  -0.20968
  49        2PY        -0.04764   0.00766  -0.11688  -0.12922  -0.09159
  50        2PZ         0.00032  -0.00036   0.00039  -0.00009   0.00056
  51        3S          0.03403  -0.29949  -0.20645   0.01007   0.02384
  52        3PX        -0.02695   0.02785  -0.03754   0.05903  -0.12253
  53        3PY        -0.00337   0.00875  -0.04837  -0.08355  -0.05326
  54        3PZ         0.00053  -0.00012   0.00004  -0.00001   0.00043
  55 7   H  1S          0.06941   0.00003   0.08402  -0.14147   0.00027
  56        2S          0.02554   0.00001   0.04529  -0.09393   0.00009
  57 8   H  1S          0.01284   0.08763  -0.07358  -0.08214  -0.02219
  58        2S          0.00167   0.04377  -0.03829  -0.05869  -0.01674
  59 9   H  1S         -0.03699  -0.08679  -0.05445  -0.10892   0.00804
  60        2S         -0.01056  -0.04390  -0.03180  -0.07091   0.00328
  61 10  H  1S         -0.03707   0.08678  -0.05446  -0.10885  -0.00700
  62        2S         -0.01044   0.04388  -0.03185  -0.07088  -0.00266
  63 11  H  1S          0.01289  -0.08760  -0.07363  -0.08216   0.02075
  64        2S          0.00167  -0.04375  -0.03832  -0.05870   0.01587
  65 12  C  1S         -0.15218  -0.00008   0.06079  -0.03045  -0.00007
  66        2S          0.14170   0.00009  -0.05447   0.02360   0.00006
  67        2PX         0.01056   0.00010  -0.08759   0.10093   0.00085
  68        2PY        -0.00008   0.04921   0.00000  -0.00027   0.14700
  69        2PZ         0.00093   0.00000  -0.00008   0.00504  -0.00004
  70        3S          0.48409   0.00022  -0.22530   0.13351   0.00062
  71        3PX        -0.00869  -0.00004  -0.03508   0.05579   0.00030
  72        3PY        -0.00010   0.02870  -0.00004  -0.00007   0.10397
  73        3PZ         0.00233  -0.00001   0.00035   0.00229  -0.00005
  74 13  H  1S          0.08782  -0.00052  -0.05362   0.04424  -0.00192
  75        2S          0.01722  -0.00028  -0.02900   0.02935  -0.00147
  76 14  H  1S          0.08783  -0.02109  -0.05676   0.03960  -0.07590
  77        2S          0.01895  -0.01409  -0.02871   0.02343  -0.06247
  78 15  H  1S          0.08782   0.02180  -0.05691   0.03941   0.07847
  79        2S          0.01894   0.01466  -0.02868   0.02309   0.06472
                          16        17        18        19        20
                           O         O         O         O         O
     Eigenvalues --    -0.62281  -0.58349  -0.57378  -0.56627  -0.53020
   1 1   C  1S          0.05811   0.00004  -0.00229  -0.01323   0.00011
   2        2S         -0.06268  -0.00004   0.00224   0.01730  -0.00012
   3        2PX         0.03268   0.00000  -0.02245   0.25825   0.00046
   4        2PY         0.00128  -0.10256   0.00003   0.00001  -0.13705
   5        2PZ         0.00076   0.00002   0.03700   0.00197   0.00000
   6        3S         -0.16692  -0.00005   0.00606   0.02093  -0.00023
   7        3PX         0.07836   0.00003  -0.02129   0.23081   0.00042
   8        3PY         0.00079  -0.05477   0.00001   0.00008  -0.08853
   9        3PZ         0.00030   0.00002   0.03243   0.00169   0.00000
  10 2   C  1S         -0.05262  -0.01650   0.00373  -0.01603   0.01018
  11        2S          0.05494   0.02130  -0.00344   0.01930  -0.01047
  12        2PX        -0.07283   0.11607   0.01021  -0.03698  -0.10051
  13        2PY        -0.13348   0.19029  -0.00151   0.10915   0.08372
  14        2PZ         0.00155  -0.00009   0.04808   0.00354   0.00108
  15        3S          0.15607   0.02299  -0.01793   0.02344  -0.03821
  16        3PX        -0.08584   0.08673   0.00337  -0.02449  -0.05804
  17        3PY        -0.14201   0.15615   0.00493   0.06577   0.07230
  18        3PZ         0.00147  -0.00016   0.04092   0.00318  -0.00000
  19 3   C  1S          0.05322  -0.01983  -0.00449   0.01695  -0.01894
  20        2S         -0.05564   0.02491   0.00521  -0.02031   0.01703
  21        2PX        -0.03090  -0.11250  -0.00344   0.04290   0.11978
  22        2PY         0.11377   0.18190  -0.00304  -0.12317  -0.02894
  23        2PZ         0.00331   0.00101   0.08149   0.00514   0.00041
  24        3S         -0.16002   0.02880   0.01547  -0.02805   0.07613
  25        3PX        -0.06809  -0.09249  -0.01105   0.02390   0.08686
  26        3PY         0.12560   0.13978  -0.00769  -0.08833  -0.05137
  27        3PZ         0.00254   0.00119   0.07634   0.00441   0.00289
  28 4   C  1S         -0.07262  -0.00006   0.00383  -0.00512  -0.00008
  29        2S          0.07531   0.00007  -0.00595   0.00150   0.00024
  30        2PX         0.05306   0.00007  -0.01091   0.25696  -0.00079
  31        2PY         0.00126  -0.09873   0.00002  -0.00002  -0.03333
  32        2PZ         0.00619   0.00009   0.14853   0.00895  -0.00000
  33        3S          0.23723   0.00011   0.00055   0.04943  -0.00080
  34        3PX         0.10446   0.00007  -0.00791   0.21782  -0.00091
  35        3PY         0.00056  -0.07300   0.00005  -0.00017  -0.03308
  36        3PZ         0.00566   0.00007   0.11755   0.00738   0.00000
  37 5   C  1S          0.05325   0.01990  -0.00451   0.01696   0.01918
  38        2S         -0.05567  -0.02499   0.00523  -0.02033  -0.01734
  39        2PX        -0.02872   0.11229  -0.00366   0.04259  -0.11902
  40        2PY        -0.11510   0.18176   0.00285   0.12329  -0.03017
  41        2PZ         0.00330  -0.00091   0.08137   0.00513  -0.00042
  42        3S         -0.15997  -0.02910   0.01541  -0.02797  -0.07744
  43        3PX        -0.06663   0.09241  -0.01120   0.02383  -0.08465
  44        3PY        -0.12656   0.13956   0.00754   0.08819  -0.05282
  45        3PZ         0.00251  -0.00110   0.07595   0.00439  -0.00289
  46 6   C  1S         -0.05265   0.01644   0.00370  -0.01604  -0.01034
  47        2S          0.05497  -0.02125  -0.00341   0.01931   0.01053
  48        2PX        -0.07504  -0.11630   0.01040  -0.03670   0.09919
  49        2PY         0.13217   0.19039   0.00131  -0.10912   0.08421
  50        2PZ         0.00155   0.00014   0.04797   0.00353  -0.00107
  51        3S          0.15621  -0.02274  -0.01786   0.02345   0.04008
  52        3PX        -0.08708  -0.08688   0.00353  -0.02425   0.05780
  53        3PY         0.14128   0.15634  -0.00512  -0.06565   0.07321
  54        3PZ         0.00147   0.00021   0.04092   0.00318  -0.00000
  55 7   H  1S         -0.07748  -0.00002   0.01814  -0.16580  -0.00045
  56        2S         -0.03783  -0.00000   0.01380  -0.13361  -0.00037
  57 8   H  1S          0.14805  -0.13386  -0.00629  -0.03581  -0.02860
  58        2S          0.09301  -0.10946  -0.00376  -0.03567  -0.01958
  59 9   H  1S         -0.12562  -0.12555   0.00398   0.07013   0.07583
  60        2S         -0.07601  -0.10586   0.00107   0.06144   0.05342
  61 10  H  1S         -0.12572   0.12533   0.00382   0.07007  -0.07634
  62        2S         -0.07604   0.10576   0.00094   0.06152  -0.05354
  63 11  H  1S          0.14805   0.13405  -0.00646  -0.03585   0.02949
  64        2S          0.09300   0.10959  -0.00390  -0.03571   0.02031
  65 12  C  1S          0.00627   0.00003  -0.00029   0.00488   0.00002
  66        2S         -0.00082  -0.00002  -0.00051   0.00400  -0.00002
  67        2PX        -0.13270  -0.00011   0.00934  -0.23038   0.00086
  68        2PY         0.00029   0.03060   0.00001   0.00052   0.31999
  69        2PZ         0.01538   0.00021   0.32993   0.01434   0.00001
  70        3S         -0.07719  -0.00014   0.00231  -0.07767   0.00028
  71        3PX        -0.06007  -0.00008   0.00666  -0.14784   0.00053
  72        3PY         0.00034   0.03651  -0.00008   0.00031   0.29678
  73        3PZ         0.01100   0.00016   0.28175   0.01483  -0.00007
  74 13  H  1S         -0.02206  -0.00045   0.21720  -0.04651  -0.00507
  75        2S         -0.02601  -0.00046   0.19495  -0.04887  -0.00470
  76 14  H  1S         -0.04294  -0.02091  -0.10789  -0.06404  -0.18853
  77        2S         -0.04411  -0.02066  -0.09632  -0.06053  -0.17838
  78 15  H  1S         -0.04258   0.02130  -0.09916  -0.06317   0.19399
  79        2S         -0.04394   0.02104  -0.08837  -0.05950   0.18343
                          21        22        23        24        25
                           O         O         O         O         O
     Eigenvalues --    -0.48805  -0.48286  -0.47968  -0.33635  -0.32297
   1 1   C  1S          0.00025   0.00190  -0.00006   0.00000   0.00031
   2        2S         -0.00006  -0.00352   0.00009  -0.00000  -0.00034
   3        2PX         0.02711  -0.17391   0.00287  -0.00001  -0.00162
   4        2PY         0.00020  -0.00351  -0.19920   0.00038  -0.00000
   5        2PZ         0.19003   0.02971  -0.00033  -0.00085  -0.26157
   6        3S          0.00066  -0.00672   0.00016   0.00000  -0.00039
   7        3PX         0.03184  -0.21056   0.00347  -0.00001  -0.00278
   8        3PY         0.00013  -0.00236  -0.13791   0.00201  -0.00001
   9        3PZ         0.18762   0.02933  -0.00033  -0.00100  -0.32360
  10 2   C  1S         -0.00011  -0.00215  -0.00618   0.00009  -0.00022
  11        2S         -0.00055   0.00425   0.00744  -0.00014  -0.00001
  12        2PX        -0.03131   0.20538   0.00115  -0.00112   0.00042
  13        2PY         0.00030  -0.00719   0.18393  -0.00026  -0.00020
  14        2PZ         0.18040   0.02645  -0.00089  -0.23154  -0.12004
  15        3S          0.00719  -0.00938   0.03154  -0.00086   0.00384
  16        3PX        -0.02047   0.15466   0.05071  -0.00264   0.00240
  17        3PY        -0.00770   0.03703   0.19715   0.00176  -0.00089
  18        3PZ         0.17998   0.02729  -0.00060  -0.27911  -0.14556
  19 3   C  1S          0.00085  -0.00150   0.00946  -0.00031   0.00032
  20        2S         -0.00117   0.00197  -0.01136   0.00071  -0.00036
  21        2PX         0.03070  -0.20265  -0.03875  -0.00015  -0.00078
  22        2PY         0.00641  -0.02597  -0.19631   0.00142   0.00143
  23        2PZ         0.15519   0.02284  -0.00145  -0.23341   0.14817
  24        3S         -0.00664   0.02283  -0.02348  -0.00408  -0.00195
  25        3PX         0.03309  -0.18097   0.03433  -0.00436   0.00348
  26        3PY         0.00082   0.03062  -0.19695  -0.00278   0.00525
  27        3PZ         0.15021   0.02099  -0.00287  -0.28417   0.17997
  28 4   C  1S          0.00029  -0.00291   0.00007   0.00000   0.00039
  29        2S          0.00090   0.00213  -0.00010   0.00000   0.00044
  30        2PX        -0.03395   0.21231  -0.00334   0.00000   0.00052
  31        2PY        -0.00017   0.00380   0.23814  -0.00094   0.00000
  32        2PZ         0.11574   0.01303  -0.00011   0.00107   0.26059
  33        3S         -0.00854   0.00321   0.00028  -0.00004  -0.00897
  34        3PX        -0.04113   0.26739  -0.00427   0.00003   0.00292
  35        3PY        -0.00007   0.00263   0.20432  -0.01298   0.00003
  36        3PZ         0.12741   0.01672  -0.00016   0.00110   0.32586
  37 5   C  1S          0.00085  -0.00170  -0.00947   0.00031   0.00031
  38        2S         -0.00117   0.00220   0.01138  -0.00071  -0.00036
  39        2PX         0.03075  -0.20191   0.04543   0.00014  -0.00078
  40        2PY        -0.00607   0.01939  -0.19667   0.00140  -0.00144
  41        2PZ         0.15527   0.02289   0.00095   0.23428   0.14664
  42        3S         -0.00664   0.02367   0.02301   0.00407  -0.00195
  43        3PX         0.03312  -0.18184  -0.02883   0.00438   0.00346
  44        3PY        -0.00039  -0.03772  -0.19526  -0.00284  -0.00522
  45        3PZ         0.15047   0.02110   0.00243   0.28529   0.17832
  46 6   C  1S         -0.00011  -0.00201   0.00627  -0.00009  -0.00022
  47        2S         -0.00055   0.00407  -0.00757   0.00014  -0.00001
  48        2PX        -0.03139   0.20568  -0.00776   0.00112   0.00041
  49        2PY        -0.00063   0.01348   0.18348  -0.00025   0.00020
  50        2PZ         0.18046   0.02648   0.00031   0.23055  -0.12192
  51        3S          0.00715  -0.00994  -0.03170   0.00088   0.00383
  52        3PX        -0.02050   0.15350  -0.05596   0.00266   0.00237
  53        3PY         0.00733  -0.03018   0.19793   0.00177   0.00088
  54        3PZ         0.17997   0.02730  -0.00000   0.27786  -0.14798
  55 7   H  1S         -0.02203   0.14106  -0.00224   0.00000   0.00043
  56        2S         -0.01886   0.12065  -0.00192   0.00000   0.00041
  57 8   H  1S          0.01266  -0.07651  -0.12533   0.00043   0.00009
  58        2S          0.01096  -0.06715  -0.10810   0.00096   0.00014
  59 9   H  1S          0.00787  -0.06491   0.11804  -0.00016  -0.00122
  60        2S          0.00804  -0.05374   0.10634  -0.00143   0.00127
  61 10  H  1S          0.00811  -0.06904  -0.11567   0.00015  -0.00122
  62        2S          0.00822  -0.05723  -0.10451   0.00146   0.00126
  63 11  H  1S          0.01246  -0.07241   0.12757  -0.00043   0.00009
  64        2S          0.01080  -0.06368   0.11008  -0.00096   0.00014
  65 12  C  1S          0.00308  -0.02079   0.00031  -0.00000  -0.00026
  66        2S         -0.00384   0.02664  -0.00040  -0.00000  -0.00000
  67        2PX         0.03504  -0.21263   0.00331  -0.00000  -0.00019
  68        2PY        -0.00014  -0.00038  -0.10479   0.00429  -0.00002
  69        2PZ        -0.14362  -0.03551   0.00048   0.00000  -0.08187
  70        3S         -0.00066   0.01111  -0.00009   0.00001   0.00213
  71        3PX         0.02279  -0.13455   0.00211   0.00001   0.00110
  72        3PY        -0.00010  -0.00040  -0.11900   0.02063  -0.00005
  73        3PZ        -0.14506  -0.03662   0.00052   0.00095  -0.09161
  74 13  H  1S         -0.10206  -0.06034   0.00286  -0.00025  -0.08424
  75        2S         -0.09983  -0.07773   0.00337  -0.00098  -0.11464
  76 14  H  1S          0.06242  -0.02861   0.07292  -0.00083   0.04311
  77        2S          0.06490  -0.04620   0.08171   0.01130   0.05667
  78 15  H  1S          0.05797  -0.03079  -0.07394   0.00108   0.03970
  79        2S          0.06038  -0.04881  -0.08229  -0.01035   0.05212
                          26        27        28        29        30
                           V         V         V         V         V
     Eigenvalues --     0.14854   0.14960   0.25458   0.29148   0.30356
   1 1   C  1S         -0.00030   0.00129   0.04489   0.01296  -0.00015
   2        2S          0.00028  -0.00119  -0.02438   0.00892  -0.00005
   3        2PX        -0.00004   0.00018   0.09796   0.08431  -0.00131
   4        2PY        -0.00072  -0.00017  -0.00019   0.00070  -0.03247
   5        2PZ        -0.06093   0.25240  -0.01975   0.01768  -0.00001
   6        3S          0.00096  -0.00428  -0.48431  -0.42239   0.00343
   7        3PX        -0.00102   0.00427   0.38964   0.16729  -0.00392
   8        3PY        -0.00872  -0.00212  -0.00078   0.00171  -0.00696
   9        3PZ        -0.13573   0.56316  -0.05238   0.04885  -0.00006
  10 2   C  1S         -0.00057  -0.00053   0.03848   0.03793  -0.03220
  11        2S          0.00056   0.00069  -0.01200  -0.02426   0.00540
  12        2PX        -0.00009   0.00237   0.06424   0.00741  -0.03781
  13        2PY         0.00018   0.00033   0.07960   0.05509  -0.11010
  14        2PZ        -0.19646  -0.18204   0.01556  -0.01511   0.01550
  15        3S          0.00865   0.00332  -0.54443  -0.40327   0.55163
  16        3PX         0.00607   0.00485   0.16597   0.07438  -0.14099
  17        3PY        -0.00900  -0.00645   0.22022   0.36745  -0.34589
  18        3PZ        -0.43790  -0.40455   0.03739  -0.04201   0.03226
  19 3   C  1S          0.00066   0.00198   0.05017  -0.01480  -0.01090
  20        2S         -0.00232  -0.00134  -0.03216   0.02283  -0.00767
  21        2PX        -0.00052  -0.00318  -0.04936   0.03100   0.03773
  22        2PY        -0.00528   0.00404   0.07248  -0.01614  -0.15148
  23        2PZ         0.25242  -0.07124  -0.00279   0.00801  -0.02995
  24        3S          0.02347  -0.00571  -0.49451   0.02899   0.33385
  25        3PX         0.02227   0.00172  -0.19835  -0.00021   0.24791
  26        3PY         0.00539   0.03096   0.36720  -0.36989  -0.47930
  27        3PZ         0.56845  -0.15952  -0.00050   0.02118  -0.04005
  28 4   C  1S         -0.00033   0.00140   0.02219   0.00455   0.00020
  29        2S         -0.00047   0.00198  -0.00698  -0.00710   0.00112
  30        2PX         0.00004  -0.00017  -0.02662  -0.00280  -0.00054
  31        2PY        -0.00196  -0.00048  -0.00033   0.00043  -0.04191
  32        2PZ        -0.06590   0.27309  -0.00839  -0.00406  -0.00017
  33        3S          0.00920  -0.03874  -0.36815   0.30202  -0.00732
  34        3PX        -0.00363   0.01490  -0.00043  -0.34226  -0.00074
  35        3PY         0.06111   0.01489   0.00361  -0.00300  -0.02640
  36        3PZ        -0.13418   0.56324  -0.04524  -0.00320  -0.00106
  37 5   C  1S         -0.00148   0.00145   0.05002  -0.01543   0.01052
  38        2S          0.00267  -0.00013  -0.03166   0.02224   0.00860
  39        2PX         0.00190  -0.00258  -0.04912   0.03193  -0.03703
  40        2PY        -0.00289  -0.00604  -0.07449   0.02127  -0.15286
  41        2PZ        -0.19119  -0.17969  -0.00252   0.00749   0.02996
  42        3S         -0.01837  -0.01580  -0.49844   0.04487  -0.32996
  43        3PX        -0.02055  -0.00865  -0.20271   0.01059  -0.24664
  44        3PY         0.01877  -0.02506  -0.37067   0.38455  -0.48498
  45        3PZ        -0.43222  -0.40312  -0.00001   0.02042   0.04044
  46 6   C  1S          0.00074  -0.00020   0.03875   0.03731   0.03151
  47        2S         -0.00081   0.00035  -0.01210  -0.02432  -0.00513
  48        2PX        -0.00097   0.00214   0.06427   0.00617   0.03693
  49        2PY         0.00030  -0.00021  -0.08014  -0.05225  -0.10875
  50        2PZ         0.25729  -0.07205   0.01539  -0.01483  -0.01538
  51        3S         -0.00913  -0.00104  -0.54889  -0.39052  -0.54225
  52        3PX        -0.00754   0.00151   0.16480   0.07257   0.13768
  53        3PY        -0.01096   0.00157  -0.22307  -0.35793  -0.34051
  54        3PZ         0.57302  -0.15943   0.03702  -0.04144  -0.03220
  55 7   H  1S         -0.00035   0.00148   0.04809   0.00643  -0.00018
  56        2S         -0.00212   0.00899   0.79083   0.41677  -0.00683
  57 8   H  1S         -0.00131   0.00051   0.03861   0.02106  -0.02550
  58        2S         -0.00781   0.00115   0.69206   0.57914  -0.74876
  59 9   H  1S         -0.00040  -0.00142   0.03278   0.03436  -0.01766
  60        2S         -0.00749   0.02527   0.76745  -0.25576  -0.81094
  61 10  H  1S          0.00101  -0.00108   0.03310   0.03332   0.01802
  62        2S         -0.00482   0.02588   0.77399  -0.28216   0.81177
  63 11  H  1S          0.00094   0.00105   0.03901   0.02019   0.02527
  64        2S          0.00647   0.00466   0.69685   0.56055   0.73675
  65 12  C  1S         -0.00015   0.00061   0.02061  -0.14295  -0.00350
  66        2S         -0.00019   0.00078  -0.00073   0.03744   0.00097
  67        2PX         0.00123  -0.00515  -0.09827   0.10925   0.00258
  68        2PY        -0.01761  -0.00432  -0.00245   0.00261  -0.17937
  69        2PZ        -0.00484   0.01467   0.02783  -0.01408   0.00068
  70        3S          0.00364  -0.01492  -0.35424   1.96936   0.04723
  71        3PX         0.00348  -0.01463  -0.38097   0.45299   0.01075
  72        3PY        -0.14179  -0.03473  -0.01393   0.01167  -0.75918
  73        3PZ        -0.03650   0.11361   0.15524  -0.06111   0.00369
  74 13  H  1S          0.01627  -0.06732  -0.00289  -0.00270  -0.00094
  75        2S          0.07590  -0.29095   0.09835  -0.83884  -0.04807
  76 14  H  1S         -0.01308   0.03513   0.00415  -0.01107  -0.02956
  77        2S         -0.16178   0.13102   0.33720  -0.94905  -0.79386
  78 15  H  1S         -0.00377   0.03450   0.00535  -0.01204   0.03046
  79        2S          0.08160   0.17785   0.35658  -0.96945   0.77242
                          31        32        33        34        35
                           V         V         V         V         V
     Eigenvalues --     0.32308   0.34278   0.34515   0.37033   0.37262
   1 1   C  1S          0.01019   0.06227   0.01359   0.09718   0.00626
   2        2S          0.00690  -0.01002  -0.00333  -0.07200  -0.00476
   3        2PX         0.07102   0.16363   0.03113   0.07901   0.00496
   4        2PY        -0.00047   0.00034  -0.00464   0.00537  -0.07293
   5        2PZ         0.13265  -0.06906  -0.00877   0.05862   0.00370
   6        3S         -0.30769  -1.05746  -0.21357  -0.87310  -0.05533
   7        3PX         0.16812   0.59140   0.12513   1.03984   0.06937
   8        3PY         0.00070   0.02068  -0.12210   0.02977  -0.39089
   9        3PZ         0.38471  -0.20396  -0.02599   0.17299   0.01091
  10 2   C  1S          0.01434  -0.01868   0.01754  -0.07557   0.07606
  11        2S         -0.00931   0.00666   0.00539   0.06314  -0.02803
  12        2PX         0.01379   0.01387   0.07504  -0.07610   0.01121
  13        2PY         0.02691   0.01213   0.11856  -0.04990   0.07778
  14        2PZ        -0.12647   0.06291   0.02677  -0.05805  -0.00640
  15        3S         -0.14118   0.29516  -0.39632   0.53896  -1.15765
  16        3PX         0.06042  -0.06387   0.34016  -0.68315   0.05775
  17        3PY         0.19258   0.10370   0.40503  -0.74579   0.48823
  18        3PZ        -0.34083   0.18292   0.05859  -0.17514  -0.01558
  19 3   C  1S         -0.01491  -0.05450   0.02831   0.02918  -0.07733
  20        2S          0.00402   0.01749  -0.00893  -0.04344   0.03253
  21        2PX         0.02505   0.10689  -0.04299   0.01293   0.01107
  22        2PY        -0.04195  -0.07370   0.02577   0.03961  -0.10647
  23        2PZ         0.08054  -0.04540  -0.04709   0.05763   0.01006
  24        3S          0.14898   0.78904  -0.40766   0.13019   1.06562
  25        3PX         0.10431   0.49055  -0.03399  -0.25468   0.02862
  26        3PY        -0.28789  -0.29992   0.06505   0.64313  -0.62567
  27        3PZ         0.21080  -0.14556  -0.06286   0.17957   0.01591
  28 4   C  1S         -0.00207   0.02133   0.00474   0.00228  -0.00014
  29        2S         -0.03018  -0.02060  -0.00239   0.03526   0.00231
  30        2PX         0.03489   0.11059   0.02108  -0.04078  -0.00368
  31        2PY         0.00002   0.00250  -0.01437  -0.00421   0.07544
  32        2PZ        -0.04718   0.04647   0.00615  -0.06478  -0.00422
  33        3S          0.27145  -0.19201  -0.06517  -0.53683  -0.02947
  34        3PX        -0.03991   0.30441   0.07278   0.36082   0.01917
  35        3PY        -0.00068   0.00577  -0.04400  -0.00122   0.11144
  36        3PZ         0.01700   0.08752   0.01231  -0.18662  -0.01246
  37 5   C  1S         -0.01314  -0.04056  -0.04584   0.02061   0.08109
  38        2S          0.00372   0.01332   0.01371  -0.03940  -0.03815
  39        2PX         0.02232   0.08402   0.08024   0.01179  -0.01012
  40        2PY         0.03731   0.05747   0.04777  -0.02493  -0.11090
  41        2PZ         0.08513  -0.06142   0.03319   0.05643  -0.00272
  42        3S          0.12199   0.58483   0.68180   0.23975  -1.04701
  43        3PX         0.09488   0.44138   0.21598  -0.25208  -0.07203
  44        3PY         0.27103   0.25163   0.13068  -0.55028  -0.70163
  45        3PZ         0.21592  -0.16265   0.02248   0.17822   0.00721
  46 6   C  1S          0.01520  -0.01071  -0.02699  -0.06419  -0.08495
  47        2S         -0.00909   0.00780   0.00004   0.05907   0.03611
  48        2PX         0.01674   0.03984  -0.06639  -0.07072  -0.02202
  49        2PY        -0.03206  -0.05407   0.10870   0.03468   0.08353
  50        2PZ        -0.12867   0.07027  -0.00989  -0.05754  -0.00089
  51        3S         -0.15981   0.13032   0.51509   0.36579   1.20965
  52        3PX         0.07272   0.06238  -0.35908  -0.65201  -0.15178
  53        3PY        -0.20802  -0.24421   0.36938   0.65787   0.58275
  54        3PZ        -0.34517   0.19679  -0.01016  -0.17420  -0.00656
  55 7   H  1S          0.00286   0.00986   0.00220   0.01134   0.00061
  56        2S          0.35722   1.18370   0.24292   1.39416   0.09049
  57 8   H  1S          0.00635   0.00658  -0.00020  -0.01608  -0.01193
  58        2S          0.27967  -0.02871   0.77570  -1.23487   0.92665
  59 9   H  1S         -0.00447  -0.03474   0.00317   0.03487   0.00111
  60        2S         -0.37405  -0.98688   0.30867   0.65709  -1.06514
  61 10  H  1S         -0.00367  -0.03089  -0.01587   0.03476   0.00452
  62        2S         -0.33821  -0.79913  -0.62633   0.52327   1.15068
  63 11  H  1S          0.00690   0.00669   0.00204  -0.01800   0.00955
  64        2S          0.31246   0.25605  -0.78424  -1.07033  -1.08130
  65 12  C  1S          0.04925   0.05716   0.01007  -0.03236  -0.00283
  66        2S         -0.01514  -0.02122  -0.00401   0.01056   0.00110
  67        2PX        -0.01804   0.02073   0.00476   0.03300   0.00239
  68        2PY         0.00190   0.03763  -0.21693   0.00796  -0.02116
  69        2PZ        -0.21881   0.07534   0.00907  -0.00672   0.00001
  70        3S         -0.63053  -0.72269  -0.12892   0.32745   0.03097
  71        3PX        -0.07660   0.10818   0.02509   0.14371   0.00898
  72        3PY         0.01250   0.18821  -1.06161   0.02003   0.11027
  73        3PZ        -1.01580   0.30338   0.03554   0.03194   0.00408
  74 13  H  1S          0.05654  -0.02564  -0.00539   0.00906   0.00232
  75        2S          1.48392  -0.14065  -0.03539  -0.19297  -0.01518
  76 14  H  1S         -0.02687   0.02410  -0.05939  -0.01142   0.05273
  77        2S         -0.31147   0.63225  -1.01042  -0.20834   0.11735
  78 15  H  1S         -0.02646   0.00101   0.06398  -0.00712  -0.05478
  79        2S         -0.28681   0.23244   1.16477  -0.24923  -0.15603
                          36        37        38        39        40
                           V         V         V         V         V
     Eigenvalues --     0.40205   0.44799   0.50979   0.53063   0.54153
   1 1   C  1S         -0.01443  -0.06547   0.00006  -0.09357  -0.01526
   2        2S          0.01477   0.00473  -0.00003   0.00436   0.02032
   3        2PX        -0.02260   0.11636  -0.00027   0.10743   0.11917
   4        2PY        -0.00006  -0.00023   0.14125   0.00041  -0.00811
   5        2PZ         0.14508   0.00380  -0.00002  -0.00062   0.01040
   6        3S          0.10130   1.43026  -0.00037   2.20567  -0.12655
   7        3PX        -0.32830   0.91700  -0.00214   0.96264   0.73140
   8        3PY        -0.00048  -0.00097   1.74803   0.00280  -0.03075
   9        3PZ         0.43580   0.00929  -0.00005  -0.00454   0.02239
  10 2   C  1S          0.00535   0.01517  -0.09553   0.00836   0.05617
  11        2S         -0.01281   0.02519   0.00742  -0.02282  -0.01457
  12        2PX         0.03914   0.06439   0.01061   0.05271  -0.15159
  13        2PY         0.00991  -0.03105   0.14510  -0.12640   0.00730
  14        2PZ        -0.14478  -0.00441   0.00009   0.00038  -0.01037
  15        3S          0.12184  -0.74201   2.21043   0.25654  -1.15597
  16        3PX         0.26157   0.30124   0.35240   1.17793  -0.81155
  17        3PY         0.19512  -0.69755   1.01687  -1.05567  -0.05950
  18        3PZ        -0.46711  -0.01617  -0.00097  -0.00344  -0.02966
  19 3   C  1S         -0.01660   0.06370   0.02110   0.03800  -0.00296
  20        2S          0.01631  -0.03809  -0.01975   0.00802   0.00189
  21        2PX         0.01749   0.02294   0.12527   0.13287  -0.09492
  22        2PY         0.00424  -0.04884  -0.06718   0.01959  -0.13004
  23        2PZ         0.17567   0.00650  -0.00087  -0.00181   0.02612
  24        3S          0.09871  -0.69967  -0.07739  -1.17772   0.04339
  25        3PX         0.30293  -0.45219   1.36811   1.10978  -1.04847
  26        3PY         0.00989  -0.04066  -0.17838  -0.26204  -1.31439
  27        3PZ         0.55853   0.02268  -0.00494  -0.00501   0.05626
  28 4   C  1S          0.02094  -0.16308   0.00004   0.04647  -0.06432
  29        2S          0.00073   0.05647   0.00007   0.00498  -0.01399
  30        2PX         0.04276   0.11831   0.00048  -0.21101  -0.19280
  31        2PY         0.00015  -0.00047   0.13203   0.00060  -0.01245
  32        2PZ        -0.22650  -0.00860   0.00005  -0.00057  -0.02840
  33        3S         -0.35074   2.51863  -0.00173  -1.13531   1.81751
  34        3PX         0.11881   1.06144   0.00333  -1.76952  -1.58242
  35        3PY         0.00085  -0.00434   0.87936   0.00578  -0.12272
  36        3PZ        -0.75999  -0.03461   0.00018   0.00212  -0.10136
  37 5   C  1S         -0.01637   0.06323  -0.02110   0.03846  -0.01453
  38        2S          0.01624  -0.03812   0.01972   0.00811   0.00234
  39        2PX         0.01738   0.02320  -0.12518   0.13292  -0.09945
  40        2PY        -0.00442   0.04842  -0.06760  -0.01910   0.11890
  41        2PZ         0.17140   0.00627   0.00077  -0.00168   0.02341
  42        3S          0.09517  -0.68903   0.07727  -1.18973   0.31289
  43        3PX         0.30218  -0.45164  -1.36530   1.10781  -1.04583
  44        3PY        -0.01021   0.03622  -0.18354   0.26820   1.19537
  45        3PZ         0.55548   0.02258   0.00474  -0.00497   0.05583
  46 6   C  1S          0.00523   0.01521   0.09536   0.00834   0.05917
  47        2S         -0.01274   0.02515  -0.00737  -0.02277  -0.01685
  48        2PX         0.03926   0.06387  -0.01029   0.05301  -0.16244
  49        2PY        -0.00997   0.03141   0.14491   0.12629  -0.00033
  50        2PZ        -0.14313  -0.00434  -0.00005   0.00034  -0.00953
  51        3S          0.12316  -0.74172  -2.20702   0.25433  -1.17189
  52        3PX         0.26213   0.29620  -0.35086   1.18202  -0.93411
  53        3PY        -0.19501   0.69908   1.01546   1.05694   0.07902
  54        3PZ        -0.46441  -0.01605   0.00108  -0.00350  -0.02851
  55 7   H  1S          0.00442   0.02813   0.00009   0.08969  -0.09741
  56        2S         -0.33076   0.42410  -0.00104   0.32829   0.59341
  57 8   H  1S          0.00832  -0.02180   0.07401   0.05883  -0.04613
  58        2S          0.28233  -0.13529   0.40714  -0.34272  -0.13090
  59 9   H  1S         -0.02867  -0.02294   0.06097  -0.03017   0.02238
  60        2S         -0.23872   0.35226  -0.64276  -0.37646  -0.54975
  61 10  H  1S         -0.02861  -0.02272  -0.06108  -0.03049   0.02844
  62        2S         -0.23623   0.35167   0.64462  -0.37625  -0.53226
  63 11  H  1S          0.00832  -0.02152  -0.07398   0.05842  -0.03827
  64        2S          0.28208  -0.13818  -0.40602  -0.34103  -0.18407
  65 12  C  1S          0.01328   0.08330   0.00008  -0.05534  -0.01294
  66        2S         -0.01246   0.00654   0.00003  -0.04775   0.01672
  67        2PX        -0.00246   0.12745   0.00023   0.02095  -0.15932
  68        2PY         0.00023  -0.00160   0.05992   0.00074  -0.00188
  69        2PZ         0.18811   0.03221  -0.00014  -0.01431   0.10660
  70        3S         -0.13675  -1.44462  -0.00170   1.50278   0.29453
  71        3PX        -0.01247   1.46894   0.00243  -1.30099  -0.83941
  72        3PY         0.00111  -0.00408  -0.10057   0.00063   0.03328
  73        3PZ         0.94604   0.12089  -0.00043  -0.04538   0.26282
  74 13  H  1S         -0.00316  -0.04230  -0.00097   0.03710   0.05173
  75        2S         -0.88679  -0.16876   0.00075   0.04853  -0.10890
  76 14  H  1S         -0.00251  -0.04412  -0.02502   0.05357   0.03165
  77        2S          0.54929   0.03390   0.01181  -0.04938   0.50773
  78 15  H  1S         -0.00240  -0.04389   0.02528   0.05417   0.03600
  79        2S          0.50776   0.03875  -0.01340  -0.05166   0.47600
                          41        42        43        44        45
                           V         V         V         V         V
     Eigenvalues --     0.56345   0.76861   0.81585   0.90056   0.91437
   1 1   C  1S         -0.00095  -0.00109   0.11999   0.00031   0.01993
   2        2S          0.00123   0.00052  -0.02509  -0.00032  -0.05925
   3        2PX         0.00625   0.00265  -0.13892  -0.00106  -0.27299
   4        2PY         0.18723  -0.08180   0.00046  -0.45120   0.00244
   5        2PZ         0.00045   0.00001   0.00216   0.00008   0.01090
   6        3S         -0.00473   0.02059  -2.77878  -0.00677  -0.28290
   7        3PX         0.03630   0.01970  -2.18487  -0.00363   0.09622
   8        3PY         0.92072  -2.71584  -0.02121  -0.83415  -0.00390
   9        3PZ         0.00087  -0.00005   0.00733  -0.00005  -0.00904
  10 2   C  1S          0.02528   0.01703  -0.11714   0.00768  -0.00549
  11        2S         -0.02016  -0.01073   0.02241  -0.01073  -0.05279
  12        2PX        -0.11697   0.22982   0.07324  -0.22914  -0.14124
  13        2PY        -0.05334  -0.14882   0.12174   0.08078  -0.20074
  14        2PZ         0.00665   0.00586  -0.00154   0.00292   0.00793
  15        3S         -0.10062  -0.16377   2.79205  -0.03494   0.12149
  16        3PX        -1.40409   1.94516   1.08614   1.39359   0.25858
  17        3PY        -0.02024  -1.31234   1.88761  -0.81767   0.38160
  18        3PZ         0.00901  -0.01207  -0.00288  -0.00733   0.00193
  19 3   C  1S         -0.10398  -0.01592   0.12187  -0.02068   0.01385
  20        2S          0.00252  -0.02658  -0.03269   0.02832  -0.05048
  21        2PX        -0.06176  -0.03186   0.03194   0.37154   0.17507
  22        2PY         0.10004   0.01541  -0.14029   0.25819  -0.21267
  23        2PZ        -0.02154  -0.03292   0.00777  -0.01659   0.03749
  24        3S          2.50635   0.55679  -2.77324  -0.00136  -0.30904
  25        3PX        -0.19051   2.40123   1.18157   0.69017  -0.09921
  26        3PY         1.00320   1.51541  -1.95622   0.51710   0.08630
  27        3PZ         0.00046   0.01087  -0.00883   0.00725  -0.03550
  28 4   C  1S         -0.00348   0.00039  -0.11933  -0.00013   0.00640
  29        2S          0.00010   0.00088   0.04142  -0.00012  -0.07002
  30        2PX        -0.00898  -0.00033  -0.16163  -0.00056   0.23934
  31        2PY         0.24770   0.30827   0.00376   0.03790   0.00115
  32        2PZ        -0.00127  -0.00003  -0.00329   0.00032   0.04907
  33        3S          0.09517  -0.00906   2.43470   0.00814   0.41161
  34        3PX        -0.07485   0.00695  -2.59851  -0.00677  -0.25601
  35        3PY         2.14059   3.01942   0.02206   1.47996  -0.00152
  36        3PZ        -0.00444  -0.00015   0.00540   0.00015   0.01015
  37 5   C  1S          0.10257   0.01380   0.12215   0.02126   0.01357
  38        2S         -0.00189   0.02717  -0.03222  -0.02833  -0.05051
  39        2PX         0.05080   0.02717   0.03415  -0.36874   0.17797
  40        2PY         0.11321   0.01605   0.14005   0.25942   0.21068
  41        2PZ         0.02388   0.03299   0.00845   0.01724   0.03822
  42        3S         -2.47772  -0.51324  -2.78400  -0.01196  -0.30713
  43        3PX         0.07881  -2.42585   1.14253  -0.68987  -0.10566
  44        3PY         1.12992   1.50104   1.98321   0.52664  -0.08345
  45        3PZ         0.00433  -0.01066  -0.00915  -0.00790  -0.03620
  46 6   C  1S         -0.01904  -0.01441  -0.11738  -0.00827  -0.00531
  47        2S          0.01846   0.00978   0.02251   0.01058  -0.05300
  48        2PX         0.10138  -0.23275   0.06824   0.22856  -0.14623
  49        2PY        -0.05408  -0.14801  -0.12502   0.08182   0.19834
  50        2PZ        -0.00750  -0.00586  -0.00165  -0.00286   0.00786
  51        3S         -0.02607   0.11200   2.79366   0.04539   0.12056
  52        3PX         1.31209  -1.96848   1.06242  -1.38758   0.26133
  53        3PY        -0.01266  -1.28421  -1.90451  -0.82941  -0.37899
  54        3PZ        -0.01133   0.01210  -0.00264   0.00741   0.00213
  55 7   H  1S         -0.00556  -0.00265   0.13313   0.00149   0.34097
  56        2S          0.02898   0.00922  -0.84155  -0.00230  -0.17709
  57 8   H  1S          0.08308   0.00002  -0.14310   0.05241   0.28700
  58        2S         -0.49467  -0.05291   0.84293  -0.04947  -0.01453
  59 9   H  1S          0.07701  -0.06109   0.14283   0.01382   0.31869
  60        2S          0.22634  -0.02053  -0.91401   0.06076  -0.15794
  61 10  H  1S         -0.07600   0.05662   0.14298  -0.01078   0.31753
  62        2S         -0.28550   0.02324  -0.91516  -0.06806  -0.15787
  63 11  H  1S         -0.08798  -0.00009  -0.14352  -0.05164   0.28736
  64        2S          0.48164   0.04060   0.84437   0.05346  -0.01508
  65 12  C  1S         -0.00034  -0.00016   0.00639  -0.00004  -0.00249
  66        2S          0.00076   0.00041  -0.09201  -0.00031   0.05803
  67        2PX        -0.00862  -0.00335   0.23138  -0.00219  -0.43732
  68        2PY        -0.09244   0.27101   0.00021  -0.24743  -0.00129
  69        2PZ         0.00559   0.00069   0.04499   0.00101   0.09787
  70        3S          0.00928  -0.00353   0.96092   0.00169  -0.01515
  71        3PX        -0.03822   0.00158  -0.87739  -0.00039   0.50616
  72        3PY        -0.86327  -0.96160  -0.00816  -0.02865   0.00077
  73        3PZ         0.01217   0.00028  -0.01510  -0.00109  -0.13034
  74 13  H  1S          0.00365  -0.00549   0.04984   0.00685   0.00953
  75        2S         -0.01840  -0.00637   0.01257  -0.00663  -0.00954
  76 14  H  1S          0.04882  -0.15110   0.05517   0.24852  -0.09134
  77        2S         -0.49843  -0.27418   0.05891  -0.26657   0.03445
  78 15  H  1S         -0.04738   0.15280   0.05931  -0.25675  -0.08891
  79        2S          0.56333   0.28676   0.06593   0.27655   0.03660
                          46        47        48        49        50
                           V         V         V         V         V
     Eigenvalues --     0.94980   0.98381   0.99077   0.99502   1.04960
   1 1   C  1S          0.00104   0.05812   0.00058   0.02747  -0.04914
   2        2S         -0.00398  -0.01511  -0.00024  -0.00552  -0.05141
   3        2PX        -0.02016  -0.07757  -0.00077  -0.04039   0.13490
   4        2PY        -0.00011   0.00762  -0.47675  -0.00945  -0.00270
   5        2PZ        -0.30934  -0.16443  -0.01065   0.44014   0.04497
   6        3S         -0.07211  -0.09408  -0.00192  -0.10261  -0.25814
   7        3PX        -0.01568  -0.27818  -0.00341  -0.15301  -0.28405
   8        3PY        -0.00174  -0.01426   0.97881   0.01712   0.00448
   9        3PZ         0.20485   0.10107   0.00648  -0.26814  -0.03359
  10 2   C  1S          0.00290  -0.04866   0.05346  -0.01525  -0.01473
  11        2S         -0.01364   0.03775  -0.02421   0.00033   0.01486
  12        2PX        -0.02472  -0.18436  -0.39475  -0.13313   0.48638
  13        2PY        -0.03094   0.27931   0.10149   0.10685  -0.23314
  14        2PZ        -0.31177  -0.15685  -0.01029   0.40324   0.02398
  15        3S          0.06294   0.21247   0.08601   0.18287   0.20700
  16        3PX         0.04258   0.36110  -0.16580   0.22131  -0.32632
  17        3PY         0.07463  -0.05388   0.01242   0.03732   0.31506
  18        3PZ         0.15851   0.12351   0.00120  -0.34348  -0.02536
  19 3   C  1S          0.00381  -0.01503  -0.05162  -0.00513   0.03619
  20        2S         -0.01676   0.05348  -0.02221  -0.00119   0.12672
  21        2PX        -0.03442   0.36527  -0.28938   0.08583   0.12059
  22        2PY        -0.06842   0.32529  -0.02387   0.05580   0.06922
  23        2PZ        -0.44589  -0.05264  -0.05298   0.02418  -0.03124
  24        3S         -0.08599  -0.25435   0.27918  -0.20585  -0.11090
  25        3PX         0.06245  -0.23008  -0.16202   0.00874   0.00229
  26        3PY        -0.04003  -0.32376  -0.09814  -0.19472  -0.08292
  27        3PZ         0.34491   0.00224   0.04986   0.09432   0.03780
  28 4   C  1S         -0.00961   0.06225   0.00038   0.01355   0.00705
  29        2S          0.00353  -0.00445   0.00021   0.00910   0.15654
  30        2PX         0.02701  -0.07752  -0.00008  -0.00382  -0.39059
  31        2PY         0.00039  -0.00316   0.21715   0.00515  -0.00115
  32        2PZ        -0.48087   0.03262   0.00406  -0.21026  -0.01806
  33        3S          0.07902   0.50626   0.00567   0.27830   0.29230
  34        3PX        -0.18208   0.22907  -0.00194  -0.14244   0.36849
  35        3PY         0.00140   0.00172  -0.25955  -0.00519  -0.00117
  36        3PZ         0.12692   0.05363   0.00296  -0.10039  -0.00638
  37 5   C  1S          0.00383  -0.01661   0.05138  -0.00308   0.03621
  38        2S         -0.01689   0.05295   0.02251  -0.00056   0.12559
  39        2PX        -0.03481   0.35860   0.29443   0.09799   0.12560
  40        2PY         0.06872  -0.32525  -0.02708  -0.05683  -0.07125
  41        2PZ        -0.45173  -0.05062   0.05018   0.01248  -0.03813
  42        3S         -0.08567  -0.24452  -0.28675  -0.21477  -0.10985
  43        3PX         0.05945  -0.23555   0.16062   0.01061  -0.00048
  44        3PY         0.04196   0.32540  -0.08996   0.19299   0.08328
  45        3PZ         0.35052   0.00029  -0.05310   0.10570   0.04385
  46 6   C  1S          0.00291  -0.04707  -0.05421  -0.01740  -0.01525
  47        2S         -0.01365   0.03706   0.02422   0.00123   0.01392
  48        2PX        -0.02509  -0.19633   0.38965  -0.11850   0.48596
  49        2PY         0.03061  -0.28265   0.09712  -0.10379   0.23284
  50        2PZ        -0.31134  -0.15671  -0.00956   0.40237   0.01896
  51        3S          0.06283   0.21409  -0.07956   0.17896   0.20422
  52        3PX         0.03972   0.35803   0.17426   0.22498  -0.32304
  53        3PY        -0.07604   0.05548   0.01144  -0.03754  -0.31283
  54        3PZ         0.15713   0.12382   0.01533  -0.34489  -0.02161
  55 7   H  1S          0.02624   0.15440   0.00174   0.09368  -0.39869
  56        2S         -0.01584  -0.20005  -0.00207  -0.10496   0.08360
  57 8   H  1S          0.03746  -0.23359   0.18489  -0.06609  -0.10323
  58        2S          0.00823   0.18544  -0.12778   0.09083   0.09846
  59 9   H  1S          0.02948  -0.11929  -0.28928  -0.05400   0.24944
  60        2S         -0.06136   0.02498   0.08606  -0.05495  -0.14114
  61 10  H  1S          0.02917  -0.12728   0.28694  -0.04293   0.24905
  62        2S         -0.06149   0.02745  -0.08763  -0.05859  -0.14083
  63 11  H  1S          0.03730  -0.22802  -0.18841  -0.07398  -0.10692
  64        2S          0.00829   0.18137   0.13169   0.09597   0.10007
  65 12  C  1S          0.00036  -0.01990  -0.00031  -0.00725  -0.02704
  66        2S         -0.00708   0.10557   0.00163   0.03125   0.08731
  67        2PX        -0.03520  -0.46433  -0.00434  -0.22487  -0.53206
  68        2PY        -0.00133  -0.00331   0.31130   0.00415   0.00133
  69        2PZ        -0.29766   0.14374   0.01239  -0.49589  -0.04004
  70        3S          0.08073  -0.17905   0.00032   0.04956  -0.12310
  71        3PX        -0.00362   0.52557   0.00428   0.19550   0.64143
  72        3PY         0.00078   0.00710  -0.50462  -0.00794  -0.00013
  73        3PZ         0.56346  -0.28574  -0.02231   0.93540   0.05377
  74 13  H  1S         -0.30418   0.11882   0.00156  -0.42099  -0.04507
  75        2S         -0.04068  -0.02992   0.00165  -0.08809  -0.09336
  76 14  H  1S          0.14393  -0.10046  -0.26408   0.18749  -0.05949
  77        2S          0.02950  -0.02210   0.02059   0.02727  -0.04281
  78 15  H  1S          0.13187  -0.10404   0.26064   0.18107  -0.06159
  79        2S          0.02830  -0.01976  -0.02329   0.02401  -0.04186
                          51        52        53        54        55
                           V         V         V         V         V
     Eigenvalues --     1.05445   1.07690   1.09362   1.10367   1.11726
   1 1   C  1S          0.00019  -0.00005   0.00074  -0.00014   0.01501
   2        2S          0.00021  -0.00003   0.00568  -0.00139   0.36230
   3        2PX        -0.00077   0.00044   0.01308  -0.00149   0.28222
   4        2PY        -0.10756   0.58254   0.00365   0.06540   0.00007
   5        2PZ        -0.00716   0.00150  -0.81122   0.02692   0.03183
   6        3S          0.00197  -0.00203  -0.03021   0.00145  -0.09196
   7        3PX         0.00251  -0.00284  -0.05720   0.00363  -0.23016
   8        3PY         0.03139  -0.46494  -0.00515  -0.13374   0.00093
   9        3PZ         0.00596  -0.00141   0.90552  -0.03329  -0.04775
  10 2   C  1S          0.00913  -0.03902  -0.00161  -0.00210   0.00662
  11        2S          0.01521  -0.14611   0.00352  -0.03101   0.32661
  12        2PX         0.01485  -0.23983  -0.00066  -0.04967  -0.03472
  13        2PY        -0.02676   0.13273   0.00340  -0.00711   0.29295
  14        2PZ         0.52348   0.16336   0.04548  -0.55880  -0.03219
  15        3S          0.02265  -0.09000   0.07071   0.00490   0.02120
  16        3PX         0.04748   0.11745   0.04452   0.10840   0.18097
  17        3PY         0.00007  -0.13373   0.02399  -0.00994  -0.18516
  18        3PZ        -0.42854  -0.17449  -0.14272   0.72132   0.03666
  19 3   C  1S         -0.00240  -0.02511   0.00165  -0.01162  -0.00280
  20        2S          0.02025  -0.15956   0.00610  -0.02645   0.22827
  21        2PX        -0.05903   0.27094  -0.01236   0.01116  -0.34001
  22        2PY        -0.01163   0.10334  -0.01462   0.01632   0.00278
  23        2PZ         0.55555  -0.01530   0.46381   0.49109  -0.01358
  24        3S         -0.09514   0.11988  -0.06777  -0.22960  -0.15219
  25        3PX         0.08916  -0.29405   0.06066  -0.00857   0.38824
  26        3PY         0.04239  -0.17513  -0.02260  -0.04394   0.12043
  27        3PZ        -0.46429   0.05009  -0.44450  -0.65406   0.02964
  28 4   C  1S          0.00002  -0.00015  -0.00235   0.00021  -0.01755
  29        2S         -0.00109   0.00112   0.02565  -0.00158   0.15979
  30        2PX         0.00234  -0.00196  -0.03125   0.00256  -0.39295
  31        2PY         0.05593   0.34965   0.00788   0.26484  -0.00359
  32        2PZ         0.00689  -0.00055  -0.02305   0.01430   0.08395
  33        3S         -0.00245   0.00231   0.03583  -0.00093  -0.13288
  34        3PX        -0.00022  -0.00224  -0.02985   0.00109   0.41571
  35        3PY        -0.10121  -0.23044  -0.01198  -0.47723   0.00749
  36        3PZ        -0.00476   0.00041   0.05008  -0.01761  -0.10847
  37 5   C  1S          0.00198   0.02544   0.00246   0.01150  -0.00291
  38        2S         -0.02146   0.16014   0.00849   0.02478   0.22776
  39        2PX         0.05844  -0.27201  -0.01456  -0.00704  -0.34056
  40        2PY        -0.01175   0.10518   0.01609   0.01393  -0.00373
  41        2PZ        -0.54843   0.01333   0.43740  -0.51827  -0.01795
  42        3S          0.09912  -0.12619  -0.05770   0.23712  -0.16002
  43        3PX        -0.09161   0.29934   0.06200  -0.00081   0.38805
  44        3PY         0.03984  -0.17168   0.01972  -0.04504  -0.11835
  45        3PZ         0.45765  -0.04819  -0.40684   0.68332   0.03526
  46 6   C  1S         -0.00893   0.03889  -0.00125   0.00217   0.00664
  47        2S         -0.01531   0.14606   0.00613   0.02875   0.32637
  48        2PX        -0.01905   0.24107   0.00395   0.05101  -0.03444
  49        2PY        -0.02883   0.13387  -0.00265  -0.00452  -0.29203
  50        2PZ        -0.53027  -0.16273   0.08726   0.54163  -0.02862
  51        3S         -0.02758   0.09686   0.07072  -0.01242   0.02138
  52        3PX        -0.04639  -0.11471   0.03745  -0.11496   0.18271
  53        3PY         0.00430  -0.13795  -0.02584  -0.00925   0.18431
  54        3PZ         0.43426   0.17400  -0.19338  -0.69563   0.03173
  55 7   H  1S          0.00187  -0.00081  -0.00190  -0.00161   0.45074
  56        2S          0.00003  -0.00074  -0.02211   0.00227  -0.33297
  57 8   H  1S          0.07419  -0.41552  -0.00724  -0.04195   0.36219
  58        2S         -0.02947   0.18154   0.02055   0.03466  -0.21155
  59 9   H  1S          0.01850  -0.34676   0.00373  -0.10088   0.15827
  60        2S          0.00740   0.13011  -0.02568   0.07067  -0.11867
  61 10  H  1S         -0.02086   0.34783   0.01148   0.10019   0.15732
  62        2S         -0.00454  -0.13386  -0.03003  -0.06727  -0.11736
  63 11  H  1S         -0.07286   0.41469  -0.00225   0.04035   0.36235
  64        2S          0.02751  -0.17910   0.01756  -0.03548  -0.21103
  65 12  C  1S          0.00019  -0.00026  -0.00266   0.00016  -0.01920
  66        2S         -0.00046   0.00073   0.01323  -0.00029   0.01449
  67        2PX         0.00394  -0.00336  -0.08081   0.00440  -0.22882
  68        2PY        -0.12097   0.15392  -0.00519  -0.22375   0.00203
  69        2PZ        -0.00351   0.00112  -0.28940  -0.00128  -0.01909
  70        3S         -0.00051   0.00187   0.03157  -0.00213  -0.05780
  71        3PX        -0.00413   0.00307   0.08509  -0.00480   0.40255
  72        3PY         0.15720  -0.31556   0.00722   0.34564  -0.00417
  73        3PZ        -0.00042  -0.00123   0.53723  -0.00670   0.03239
  74 13  H  1S          0.00519  -0.00325  -0.23000   0.01361  -0.06729
  75        2S          0.00078  -0.00219  -0.05349  -0.00083  -0.05581
  76 14  H  1S         -0.02495  -0.08218   0.11562  -0.07246  -0.09283
  77        2S          0.03811  -0.07838  -0.00260   0.12174  -0.04692
  78 15  H  1S          0.02118   0.08305   0.11046   0.05993  -0.09255
  79        2S         -0.03754   0.07930  -0.00899  -0.11752  -0.04561
                          56        57        58        59        60
                           V         V         V         V         V
     Eigenvalues --     1.15151   1.18476   1.21008   1.21892   1.27295
   1 1   C  1S          0.00245  -0.01017   0.00432  -0.00007  -0.01680
   2        2S         -0.04578   0.09188  -0.03487   0.00095  -0.00056
   3        2PX        -0.01239   0.00997   0.00074   0.00107  -0.62768
   4        2PY         0.00009  -0.00155   0.00121   0.05114  -0.00040
   5        2PZ         0.36202   0.22382   0.25178   0.00119   0.00338
   6        3S         -0.00543  -0.09658   0.11256  -0.00481   1.41851
   7        3PX        -0.08906   0.19161  -0.03872  -0.00354   2.26345
   8        3PY         0.00097   0.00222  -0.00305  -0.17363   0.00195
   9        3PZ        -0.70972  -0.45145  -0.52406  -0.00208  -0.01098
  10 2   C  1S         -0.00250   0.00527  -0.00240  -0.00463   0.01618
  11        2S         -0.04783   0.09556  -0.03083  -0.00415   0.00398
  12        2PX        -0.03813   0.13211  -0.05535  -0.07332   0.29627
[...]
  65 12  C  1S          0.00000   0.00000   0.00000  -0.00000   0.00000
  66        2S          0.00000   0.00001  -0.00000   0.00000   0.00000
  67        2PX         0.00000   0.00003  -0.00000   0.00000   0.00000
  68        2PY         0.00000   0.00001   0.00000   0.00000  -0.00000
  69        2PZ         0.00000   0.00000  -0.00000  -0.00000  -0.00000
  70        3S          0.00009   0.00041   0.00006   0.00000   0.00000
  71        3PX         0.00001   0.00080   0.00011   0.00000   0.00000
  72        3PY         0.00014   0.00035   0.00000   0.00000  -0.00000
  73        3PZ         0.00000   0.00000  -0.00000  -0.00002  -0.00000
  74 13  H  1S         -0.00000  -0.00000   0.00000   0.00000   0.00000
  75        2S         -0.00001  -0.00005   0.00000   0.00002  -0.00000
  76 14  H  1S         -0.00000  -0.00000  -0.00000   0.00000   0.00000
  77        2S         -0.00001  -0.00004  -0.00001  -0.00000  -0.00000
  78 15  H  1S          0.00000   0.00000   0.00000   0.00000   0.00000
  79        2S          0.00007   0.00011   0.00001   0.00002  -0.00000
                          56        57        58        59        60
  56        2S          0.09210
  57 8   H  1S         -0.00024   0.17954
  58        2S         -0.00078   0.07987   0.09218
  59 9   H  1S         -0.00000  -0.00000  -0.00024   0.17884
  60        2S         -0.00003  -0.00024  -0.00079   0.08003   0.09254
  61 10  H  1S         -0.00000   0.00000   0.00000  -0.00000  -0.00000
  62        2S         -0.00003   0.00000   0.00000  -0.00000  -0.00004
  63 11  H  1S         -0.00024  -0.00000  -0.00000   0.00000   0.00000
  64        2S         -0.00078  -0.00000  -0.00003   0.00000   0.00000
  65 12  C  1S         -0.00000   0.00000   0.00000   0.00000   0.00001
  66        2S          0.00000  -0.00000  -0.00000  -0.00000  -0.00006
  67        2PX         0.00000  -0.00000  -0.00000  -0.00000  -0.00008
  68        2PY         0.00000  -0.00000  -0.00000  -0.00000  -0.00003
  69        2PZ        -0.00000  -0.00000  -0.00000  -0.00000  -0.00000
  70        3S          0.00000  -0.00000  -0.00001  -0.00016  -0.00071
  71        3PX         0.00000  -0.00000  -0.00003  -0.00012  -0.00006
  72        3PY        -0.00000  -0.00000  -0.00001  -0.00012   0.00048
  73        3PZ        -0.00000   0.00000  -0.00000  -0.00000  -0.00000
  74 13  H  1S         -0.00000   0.00000   0.00000   0.00000  -0.00000
  75        2S         -0.00000   0.00000   0.00000   0.00002   0.00010
  76 14  H  1S         -0.00000  -0.00000  -0.00000  -0.00000   0.00002
  77        2S         -0.00000  -0.00000  -0.00000   0.00011   0.00096
  78 15  H  1S         -0.00000   0.00000   0.00000   0.00000  -0.00000
  79        2S         -0.00000   0.00000   0.00000   0.00000   0.00000
                          61        62        63        64        65
  61 10  H  1S          0.17887
  62        2S          0.08004   0.09255
  63 11  H  1S         -0.00000  -0.00024   0.17954
  64        2S         -0.00024  -0.00079   0.07987   0.09219
  65 12  C  1S          0.00000   0.00001   0.00000   0.00000   2.03856
  66        2S         -0.00000  -0.00005  -0.00000  -0.00000   0.02271
  67        2PX        -0.00000  -0.00008  -0.00000  -0.00000   0.00000
  68        2PY        -0.00000  -0.00003  -0.00000  -0.00000   0.00000
  69        2PZ        -0.00000  -0.00000  -0.00000  -0.00000   0.00000
  70        3S         -0.00016  -0.00071  -0.00000  -0.00001  -0.07804
  71        3PX        -0.00011  -0.00004  -0.00000  -0.00003   0.00000
  72        3PY        -0.00013   0.00043  -0.00000  -0.00001   0.00000
  73        3PZ        -0.00000  -0.00000   0.00000  -0.00000   0.00000
  74 13  H  1S          0.00000  -0.00000   0.00000   0.00000  -0.00076
  75        2S          0.00002   0.00008   0.00000   0.00000   0.00156
  76 14  H  1S          0.00000  -0.00000   0.00000   0.00000  -0.00078
  77        2S          0.00000   0.00000   0.00000   0.00000   0.00129
  78 15  H  1S         -0.00000   0.00003  -0.00000  -0.00000  -0.00078
  79        2S          0.00012   0.00101  -0.00000  -0.00000   0.00128
                          66        67        68        69        70
  66        2S          0.09938
  67        2PX         0.00000   0.27834
  68        2PY         0.00000   0.00000   0.27716
  69        2PZ         0.00000   0.00000   0.00000   0.27583
  70        3S          0.17471   0.00000   0.00000   0.00000   0.85581
  71        3PX         0.00000   0.08532   0.00000   0.00000   0.00000
  72        3PY         0.00000   0.00000   0.13267   0.00000   0.00000
  73        3PZ         0.00000   0.00000   0.00000   0.13011   0.00000
  74 13  H  1S          0.00777   0.00577   0.00003   0.04874   0.05463
  75        2S          0.00249   0.00557   0.00002   0.03946   0.02697
  76 14  H  1S          0.00793   0.00677   0.03556   0.01270   0.05648
  77        2S          0.00351   0.00608   0.02844   0.01014   0.03308
  78 15  H  1S          0.00794   0.00682   0.03747   0.01077   0.05656
  79        2S          0.00356   0.00611   0.02994   0.00858   0.03329
                          71        72        73        74        75
  71        3PX         0.09808
  72        3PY         0.00000   0.23132
  73        3PZ         0.00000   0.00000   0.22108
  74 13  H  1S          0.00609   0.00005   0.08031   0.17348
  75        2S          0.00821   0.00005   0.09125   0.09523   0.14507
  76 14  H  1S          0.00701   0.05903   0.02059  -0.00014  -0.00451
  77        2S          0.00897   0.06643   0.02338  -0.00443  -0.01421
  78 15  H  1S          0.00704   0.06218   0.01746  -0.00014  -0.00449
  79        2S          0.00899   0.06994   0.01980  -0.00441  -0.01407
                          76        77        78        79
  76 14  H  1S          0.17469
  77        2S          0.09470   0.13906
  78 15  H  1S         -0.00014  -0.00424   0.17478
  79        2S         -0.00424  -0.01308   0.09463   0.13863
     Gross orbital populations:
                           1
   1 1   C  1S          1.98816
   2        2S          0.39474
   3        2PX         0.57694
   4        2PY         0.61485
   5        2PZ         0.40874
   6        3S          0.89065
   7        3PX         0.51141
   8        3PY         0.25157
   9        3PZ         0.60969
  10 2   C  1S          1.98821
  11        2S          0.39679
  12        2PX         0.60941
  13        2PY         0.58874
  14        2PZ         0.39771
  15        3S          0.88590
  16        3PX         0.31773
  17        3PY         0.44981
  18        3PZ         0.59249
  19 3   C  1S          1.98832
  20        2S          0.39458
  21        2PX         0.60714
  22        2PY         0.58028
  23        2PZ         0.41184
  24        3S          0.89283
  25        3PX         0.30531
  26        3PY         0.43972
  27        3PZ         0.60908
  28 4   C  1S          1.98855
  29        2S          0.39626
  30        2PX         0.59182
  31        2PY         0.61791
  32        2PZ         0.39705
  33        3S          0.83822
  34        3PX         0.34493
  35        3PY         0.32007
  36        3PZ         0.57053
  37 5   C  1S          1.98832
  38        2S          0.39464
  39        2PX         0.60720
  40        2PY         0.58020
  41        2PZ         0.41173
  42        3S          0.89258
  43        3PX         0.30522
  44        3PY         0.44000
  45        3PZ         0.60933
  46 6   C  1S          1.98821
  47        2S          0.39679
  48        2PX         0.60937
  49        2PY         0.58878
  50        2PZ         0.39773
  51        3S          0.88590
  52        3PX         0.31789
  53        3PY         0.44969
  54        3PZ         0.59247
  55 7   H  1S          0.46452
  56        2S          0.30148
  57 8   H  1S          0.46494
  58        2S          0.29992
  59 9   H  1S          0.46433
  60        2S          0.30438
  61 10  H  1S          0.46436
  62        2S          0.30439
  63 11  H  1S          0.46494
  64        2S          0.29992
  65 12  C  1S          1.98833
  66        2S          0.35262
  67        2PX         0.54074
  68        2PY         0.53725
  69        2PZ         0.53437
  70        3S          1.14091
  71        3PX         0.31870
  72        3PY         0.58153
  73        3PZ         0.58098
  74 13  H  1S          0.45137
  75        2S          0.33022
  76 14  H  1S          0.45472
  77        2S          0.33792
  78 15  H  1S          0.45494
  79        2S          0.33818
          Condensed to atoms (all electrons):
               1          2          3          4          5          6
     1  C    5.178849   0.473295  -0.107491  -0.001645  -0.107461   0.473653
     2  C    0.473295   5.159552   0.475434  -0.107745  -0.003629  -0.109105
     3  C   -0.107491   0.475434   5.165568   0.468099  -0.078478  -0.003624
     4  C   -0.001645  -0.107745   0.468099   5.345511   0.469384  -0.108086
     5  C   -0.107461  -0.003629  -0.078478   0.469384   5.164034   0.474863
     6  C    0.473653  -0.109105  -0.003624  -0.108086   0.474863   5.160131
     7  H    0.395816  -0.031388   0.002278  -0.000120   0.002276  -0.031383
     8  H   -0.031321   0.394759  -0.031870   0.002352  -0.000093   0.002182
     9  H    0.002118  -0.028616   0.398775  -0.035910   0.001939  -0.000057
    10  H    0.002118  -0.000057   0.001948  -0.035756   0.398650  -0.028665
    11  H   -0.031320   0.002182  -0.000093   0.002358  -0.031859   0.394738
    12  C    0.000124   0.002016  -0.061467   0.232866  -0.060618   0.002071
    13  H    0.000016  -0.000037  -0.000923  -0.057678  -0.000756  -0.000043
    14  H    0.000003   0.000199  -0.001590  -0.054217   0.002451  -0.000068
    15  H    0.000003  -0.000067   0.002526  -0.054065  -0.001481   0.000208
               7          8          9         10         11         12
     1  C    0.395816  -0.031321   0.002118   0.002118  -0.031320   0.000124
     2  C   -0.031388   0.394759  -0.028616  -0.000057   0.002182   0.002016
     3  C    0.002278  -0.031870   0.398775   0.001948  -0.000093  -0.061467
     4  C   -0.000120   0.002352  -0.035910  -0.035756   0.002358   0.232866
     5  C    0.002276  -0.000093   0.001939   0.398650  -0.031859  -0.060618
     6  C   -0.031383   0.002182  -0.000057  -0.028665   0.394738   0.002071
     7  H    0.431110  -0.001260  -0.000033  -0.000033  -0.001262   0.000001
     8  H   -0.001260   0.431457  -0.001271   0.000001  -0.000033  -0.000044
     9  H   -0.000033  -0.001271   0.431447  -0.000038   0.000001  -0.000852
    10  H   -0.000033   0.000001  -0.000038   0.431491  -0.001272  -0.000893
    11  H   -0.001262  -0.000033   0.000001  -0.001272   0.431466  -0.000044
    12  C    0.000001  -0.000044  -0.000852  -0.000893  -0.000044   5.310489
    13  H   -0.000000   0.000001   0.000113   0.000097   0.000001   0.378213
    14  H   -0.000000  -0.000001   0.001094   0.000007   0.000000   0.386612
    15  H   -0.000000   0.000000   0.000007   0.001160  -0.000001   0.386948
              13         14         15
     1  C    0.000016   0.000003   0.000003
     2  C   -0.000037   0.000199  -0.000067
     3  C   -0.000923  -0.001590   0.002526
     4  C   -0.057678  -0.054217  -0.054065
     5  C   -0.000756   0.002451  -0.001481
     6  C   -0.000043  -0.000068   0.000208
     7  H   -0.000000  -0.000000  -0.000000
     8  H    0.000001  -0.000001   0.000000
     9  H    0.000113   0.001094   0.000007
    10  H    0.000097   0.000007   0.001160
    11  H    0.000001   0.000000  -0.000001
    12  C    0.378213   0.386612   0.386948
    13  H    0.509006  -0.023302  -0.023112
    14  H   -0.023302   0.503138  -0.021690
    15  H   -0.023112  -0.021690   0.502680
 Mulliken charges:
               1
     1  C   -0.246758
     2  C   -0.226793
     3  C   -0.229093
     4  C   -0.065349
     5  C   -0.229224
     6  C   -0.226815
     7  H    0.233998
     8  H    0.235139
     9  H    0.231282
    10  H    0.231242
    11  H    0.235137
    12  C   -0.575422
    13  H    0.218405
    14  H    0.207364
    15  H    0.206885
 Sum of Mulliken charges =  -0.00000
 Mulliken charges with hydrogens summed into heavy atoms:
               1
     1  C   -0.012760
     2  C    0.008345
     3  C    0.002190
     4  C   -0.065349
     5  C    0.002019
     6  C    0.008322
    12  C    0.057232
 Electronic spatial extent (au):  <R**2>=            715.9968
 Charge=             -0.0000 electrons
 Dipole moment (field-independent basis, Debye):
    X=              0.3053    Y=             -0.0032    Z=              0.0425  Tot=              0.3083
 Quadrupole moment (field-independent basis, Debye-Ang):
   XX=            -38.2990   YY=            -38.2719   ZZ=            -47.7889
   XY=             -0.0043   XZ=              0.0262   YZ=             -0.0000
 Traceless Quadrupole moment (field-independent basis, Debye-Ang):
   XX=              3.1543   YY=              3.1813   ZZ=             -6.3356
   XY=             -0.0043   XZ=              0.0262   YZ=             -0.0000
 Octapole moment (field-independent basis, Debye-Ang**2):
  XXX=             -5.9302  YYY=              0.0464  ZZZ=              0.8082  XYY=             -1.3361
  XXY=             -0.0074  XXZ=              0.0492  XZZ=              4.0710  YZZ=             -0.0525
  YYZ=             -0.6832  XYZ=              0.0000
 Hexadecapole moment (field-independent basis, Debye-Ang**3):
 XXXX=           -594.2565 YYYY=           -276.7021 ZZZZ=            -57.5215 XXXY=              0.0240
 XXXZ=             -0.4818 YYYX=              0.1317 YYYZ=              0.0019 ZZZX=              2.1648
 ZZZY=             -0.0029 XXYY=           -141.4473 XXZZ=           -119.3543 YYZZ=            -68.0824
 XXYZ=              0.0001 YYXZ=             -2.0770 ZZXY=             -0.1467
 N-N= 2.691304925413D+02 E-N=-1.161435359997D+03  KE= 2.673360760608D+02
 Orbital energies and kinetic energies (alpha):
                                 1                 2
   1         O               -11.187048         15.877663
   2         O               -11.180557         15.874239
   3         O               -11.180474         15.880603
   4         O               -11.176905         15.874568
   5         O               -11.176635         15.874472
   6         O               -11.176463         15.881315
   7         O               -11.171668         15.877221
   8         O                -1.153617          1.454239
   9         O                -1.045434          1.493953
  10         O                -1.008975          1.576089
  11         O                -0.927344          1.461921
  12         O                -0.822156          1.411461
  13         O                -0.792336          1.418701
  14         O                -0.691926          0.973764
  15         O                -0.636653          1.318240
  16         O                -0.622811          1.249545
  17         O                -0.583489          1.161006
  18         O                -0.573781          0.882709
  19         O                -0.566269          1.245613
  20         O                -0.530200          1.117375
  21         O                -0.488052          0.920672
  22         O                -0.482859          1.410202
  23         O                -0.479676          1.334138
  24         O                -0.336354          1.030972
  25         O                -0.322974          1.067355
  26         V                 0.148544          1.202117
  27         V                 0.149604          1.220257
  28         V                 0.254583          0.918878
  29         V                 0.291477          1.037341
  30         V                 0.303562          0.930580
  31         V                 0.323075          1.034166
  32         V                 0.342783          1.131289
  33         V                 0.345150          0.973660
  34         V                 0.370329          1.200150
  35         V                 0.372620          1.241997
  36         V                 0.402048          1.350507
  37         V                 0.447989          1.831691
  38         V                 0.509792          1.539470
  39         V                 0.530629          1.503112
  40         V                 0.541534          1.608506
  41         V                 0.563447          1.762461
  42         V                 0.768614          1.680049
  43         V                 0.815848          3.115082
  44         V                 0.900558          2.182223
  45         V                 0.914369          2.055736
  46         V                 0.949801          2.434865
  47         V                 0.983809          2.846012
  48         V                 0.990772          2.669265
  49         V                 0.995017          2.401406
  50         V                 1.049600          2.979060
  51         V                 1.054451          2.659034
  52         V                 1.076897          2.761077
  53         V                 1.093625          2.665314
  54         V                 1.103670          2.804396
  55         V                 1.117260          2.627465
  56         V                 1.151506          2.708917
  57         V                 1.184761          2.858856
  58         V                 1.210075          2.851995
  59         V                 1.218924          2.797981
  60         V                 1.272950          3.422994
  61         V                 1.298222          3.246550
  62         V                 1.315527          2.941841
  63         V                 1.345181          3.051335
  64         V                 1.356609          2.608917
  65         V                 1.405719          3.260623
  66         V                 1.416490          3.154957
  67         V                 1.447771          3.417275
  68         V                 1.551912          3.124882
  69         V                 1.600762          2.748798
  70         V                 1.627092          2.793987
  71         V                 1.723460          2.674127
  72         V                 1.760255          2.827803
  73         V                 1.799928          3.264655
  74         V                 1.812836          3.257233
  75         V                 1.868709          3.201904
  76         V                 2.155541          3.360742
  77         V                 2.185174          3.372071
  78         V                 2.226355          3.284596
  79         V                 2.754832          3.636556
 Total kinetic energy from orbitals= 2.673360760608D+02
 1\1\GINC-IISERK51\SP\RHF\3-21G*\C7H8\GAUSSIAN\12-Jun-2025\0\\# hf/3-21
 g* pop=full geom=connectivity\\Title Card Required\\0,1\C,0,-1.890593,
 -0.000467,0.003484\C,0,-1.190638,-1.207121,0.000782\C,0,0.203105,-1.20
 7668,-0.004338\C,0,0.910771,0.00058,-0.006223\C,0,0.202325,1.208201,-0
 .004335\C,0,-1.191544,1.206591,0.000777\H,0,-2.990043,-0.000908,0.0069
 72\H,0,-1.738821,-2.160618,0.002128\H,0,0.752219,-2.160875,-0.007622\H
 ,0,0.750419,2.162009,-0.007595\H,0,-1.740332,2.159743,0.002127\C,0,2.3
 91499,0.000185,0.003924\H,0,2.765475,-0.024957,1.058788\H,0,2.795114,-
 0.894605,-0.530887\H,0,2.796425,0.918409,-0.488332\\Version=EM64L-G16R
 evB.01\State=1-A\HF=-268.2338069\RMSD=8.155e-09\Dipole=0.1201338,-0.00
 12539,0.0167399\Quadrupole=2.3451172,2.3652421,-4.7103593,-0.0031967,0
 .0194475,-0.000032\PG=C01 [X(C7H8)]\\@


 IF YOU PERCEIVE THAT THERE ARE FOUR POSSIBLE WAYS IN
 WHICH A PROCEDURE CAN GO WRONG AND CIRCUMVENT THESE, 
 THEN A FIFTH WAY WILL DEVELOP.

                              -- MURPHY'S TWELFTH LAW
 Job cpu time:       0 days  0 hours  0 minutes  1.1 seconds.
 Elapsed time:       0 days  0 hours  0 minutes  1.0 seconds.
 File lengths (MBytes):  RWF=      6 Int=      0 D2E=      0 Chk=      1 Scr=      1
 Normal termination of Gaussian 16 at Thu Jun 12 21:50:28 2025.
