 Entering Gaussian System, Link 0=g16
 Input=/home/gaussian/Documents/Summer_Internship/Acid_Base_adduct/Adduct/2,6 DMP - BCl3/26DMP_BCl3_adduct_opt.com
 Output=/home/gaussian/Documents/Summer_Internship/Acid_Base_adduct/Adduct/2,6 DMP - BCl3/26DMP_BCl3_adduct_opt.log
 Initial command:
 /usr/local/g16/l1.exe "/home/gaussian/tmp/Gau-80330.inp" -scrdir="/home/gaussian/tmp/"
 Entering Link 1 = /usr/local/g16/l1.exe PID=     80333.
  
 Copyright (c) 1988-2017, Gaussian, Inc.  All Rights Reserved.
  
 This is part of the Gaussian(R) 16 program.  It is based on
 the Gaussian(R) 09 system (copyright 2009, Gaussian, Inc.),
 the Gaussian(R) 03 system (copyright 2003, Gaussian, Inc.),
 the Gaussian(R) 98 system (copyright 1998, Gaussian, Inc.),
 the Gaussian(R) 94 system (copyright 1995, Gaussian, Inc.),
 the Gaussian 92(TM) system (copyright 1992, Gaussian, Inc.),
 the Gaussian 90(TM) system (copyright 1990, Gaussian, Inc.),
 the Gaussian 88(TM) system (copyright 1988, Gaussian, Inc.),
 the Gaussian 86(TM) system (copyright 1986, Carnegie Mellon
 University), and the Gaussian 82(TM) system (copyright 1983,
 Carnegie Mellon University). Gaussian is a federally registered
 trademark of Gaussian, Inc.
  
 This software contains proprietary and confidential information,
 including trade secrets, belonging to Gaussian, Inc.
  
 This software is provided under written license and may be
 used, copied, transmitted, or stored only in accord with that
 written license.
  
 The following legend is applicable only to US Government
 contracts under FAR:
  
                    RESTRICTED RIGHTS LEGEND
  
 Use, reproduction and disclosure by the US Government is
 subject to restrictions as set forth in subparagraphs (a)
 and (c) of the Commercial Computer Software - Restricted
 Rights clause in FAR 52.227-19.
  
 Gaussian, Inc.
 340 Quinnipiac St., Bldg. 40, Wallingford CT 06492
  
  
 ---------------------------------------------------------------
 Warning -- This program may not be used in any manner that
 competes with the business of Gaussian, Inc. or will provide
 assistance to any competitor of Gaussian, Inc.  The licensee
 of this program is prohibited from giving any competitor of
 Gaussian, Inc. access to this program.  By using this program,
 the user acknowledges that Gaussian, Inc. is engaged in the
 business of creating and licensing software in the field of
 computational chemistry and represents and warrants to the
 licensee that it is not a competitor of Gaussian, Inc. and that
 it will not use this program in any manner prohibited above.
 ---------------------------------------------------------------
  

 Cite this work as:
 Gaussian 16, Revision B.01,
 M. J. Frisch, G. W. Trucks, H. B. Schlegel, G. E. Scuseria, 
 M. A. Robb, J. R. Cheeseman, G. Scalmani, V. Barone, 
 G. A. Petersson, H. Nakatsuji, X. Li, M. Caricato, A. V. Marenich, 
 J. Bloino, B. G. Janesko, R. Gomperts, B. Mennucci, H. P. Hratchian, 
 J. V. Ortiz, A. F. Izmaylov, J. L. Sonnenberg, D. Williams-Young, 
 F. Ding, F. Lipparini, F. Egidi, J. Goings, B. Peng, A. Petrone, 
 T. Henderson, D. Ranasinghe, V. G. Zakrzewski, J. Gao, N. Rega, 
 G. Zheng, W. Liang, M. Hada, M. Ehara, K. Toyota, R. Fukuda, 
 J. Hasegawa, M. Ishida, T. Nakajima, Y. Honda, O. Kitao, H. Nakai, 
 T. Vreven, K. Throssell, J. A. Montgomery, Jr., J. E. Peralta, 
 F. Ogliaro, M. J. Bearpark, J. J. Heyd, E. N. Brothers, K. N. Kudin, 
 V. N. Staroverov, T. A. Keith, R. Kobayashi, J. Normand, 
 K. Raghavachari, A. P. Rendell, J. C. Burant, S. S. Iyengar, 
 J. Tomasi, M. Cossi, J. M. Millam, M. Klene, C. Adamo, R. Cammi, 
 J. W. Ochterski, R. L. Martin, K. Morokuma, O. Farkas, 
 J. B. Foresman, and D. J. Fox, Gaussian, Inc., Wallingford CT, 2016.
 
 ******************************************
 Gaussian 16:  EM64L-G16RevB.01 20-Dec-2017
                16-Jun-2025 
 ******************************************
 %chk=26DMP_BCl3_adduct_opt.chk
 ----------------------------------------------
 # opt freq hf/3-21g pop=full geom=connectivity
 ----------------------------------------------
 1/18=20,19=15,38=1,57=2/1,3;
 2/9=110,12=2,17=6,18=5,40=1/2;
 3/5=5,11=9,25=1,30=1,71=1/1,2,3;
 4//1;
 5/5=2,38=5/2;
 6/7=3,28=1/1;
 7//1,2,3,16;
 1/18=20,19=15/3(2);
 2/9=110/2;
 99//99;
 2/9=110/2;
 3/5=5,11=9,25=1,30=1,71=1/1,2,3;
 4/5=5,16=3,69=1/1;
 5/5=2,38=5/2;
 7//1,2,3,16;
 1/18=20,19=15/3(-5);
 2/9=110/2;
 6/7=3,19=2,28=1/1;
 99/9=1/99;
 -------------------
 Title Card Required
 -------------------
 Symbolic Z-matrix:
 Charge =  0 Multiplicity = 1
 C                    -1.97633  -0.37418  -0.05872 
 C                    -0.55034  -0.38415  -0.06091 
 C                     0.11636   0.84246  -0.06091 
 C                    -0.63772   2.01725  -0.06115 
 C                    -2.04092   1.91444  -0.06129 
 N                    -2.68492   0.75002  -0.06504 
 H                     1.2149    0.88224  -0.06186 
 H                     0.0044   -1.33105  -0.06064 
 H                    -0.15368   3.00217  -0.06125 
 C                    -2.76481  -1.69702  -0.05855 
 H                    -2.51583  -2.26075  -0.93326 
 H                    -2.51247  -2.26253   0.81404 
 H                    -3.81397  -1.48688  -0.05632 
 C                    -2.92387   3.17619  -0.0614 
 H                    -3.5477    3.17489  -0.93073 
 H                    -3.53553   3.18356   0.81651 
 H                    -2.30186   4.04678  -0.07005 
 B                    -4.55104   0.93664   0.23953 
 Cl                   -5.03534  -0.03982   1.75902 
 Cl                   -5.49202   0.29148  -1.2421 
 Cl                   -4.96241   2.74194   0.50141 
 

 GradGradGradGradGradGradGradGradGradGradGradGradGradGradGradGradGradGrad
 Berny optimization.
 Initialization pass.
                           ----------------------------
                           !    Initial Parameters    !
                           ! (Angstroms and Degrees)  !
 --------------------------                            --------------------------
 ! Name  Definition              Value          Derivative Info.                !
 --------------------------------------------------------------------------------
 ! R1    R(1,2)                  1.426          estimate D2E/DX2                !
 ! R2    R(1,6)                  1.3289         estimate D2E/DX2                !
 ! R3    R(1,10)                 1.54           estimate D2E/DX2                !
 ! R4    R(2,3)                  1.3961         estimate D2E/DX2                !
 ! R5    R(2,8)                  1.0974         estimate D2E/DX2                !
 ! R6    R(3,4)                  1.396          estimate D2E/DX2                !
 ! R7    R(3,7)                  1.0993         estimate D2E/DX2                !
 ! R8    R(4,5)                  1.407          estimate D2E/DX2                !
 ! R9    R(4,9)                  1.0974         estimate D2E/DX2                !
 ! R10   R(5,6)                  1.3306         estimate D2E/DX2                !
 ! R11   R(5,14)                 1.54           estimate D2E/DX2                !
 ! R12   R(6,18)                 1.9            estimate D2E/DX2                !
 ! R13   R(10,11)                1.07           estimate D2E/DX2                !
 ! R14   R(10,12)                1.07           estimate D2E/DX2                !
 ! R15   R(10,13)                1.07           estimate D2E/DX2                !
 ! R16   R(14,15)                1.07           estimate D2E/DX2                !
 ! R17   R(14,16)                1.07           estimate D2E/DX2                !
 ! R18   R(14,17)                1.07           estimate D2E/DX2                !
 ! R19   R(18,19)                1.87           estimate D2E/DX2                !
 ! R20   R(18,20)                1.87           estimate D2E/DX2                !
 ! R21   R(18,21)                1.87           estimate D2E/DX2                !
 ! A1    A(2,1,6)              122.6228         estimate D2E/DX2                !
 ! A2    A(2,1,10)             120.3967         estimate D2E/DX2                !
 ! A3    A(6,1,10)             116.9792         estimate D2E/DX2                !
 ! A4    A(1,2,3)              118.1247         estimate D2E/DX2                !
 ! A5    A(1,2,8)              120.7639         estimate D2E/DX2                !
 ! A6    A(3,2,8)              121.1114         estimate D2E/DX2                !
 ! A7    A(2,3,4)              118.7792         estimate D2E/DX2                !
 ! A8    A(2,3,7)              120.5988         estimate D2E/DX2                !
 ! A9    A(4,3,7)              120.6219         estimate D2E/DX2                !
 ! A10   A(3,4,5)              118.5054         estimate D2E/DX2                !
 ! A11   A(3,4,9)              121.1328         estimate D2E/DX2                !
 ! A12   A(5,4,9)              120.3618         estimate D2E/DX2                !
 ! A13   A(4,5,6)              123.1354         estimate D2E/DX2                !
 ! A14   A(4,5,14)             120.7935         estimate D2E/DX2                !
 ! A15   A(6,5,14)             116.0709         estimate D2E/DX2                !
 ! A16   A(1,6,5)              118.8301         estimate D2E/DX2                !
 ! A17   A(1,6,18)             127.3036         estimate D2E/DX2                !
 ! A18   A(5,6,18)             112.8884         estimate D2E/DX2                !
 ! A19   A(1,10,11)            109.4712         estimate D2E/DX2                !
 ! A20   A(1,10,12)            109.4712         estimate D2E/DX2                !
 ! A21   A(1,10,13)            109.4712         estimate D2E/DX2                !
 ! A22   A(11,10,12)           109.4713         estimate D2E/DX2                !
 ! A23   A(11,10,13)           109.4712         estimate D2E/DX2                !
 ! A24   A(12,10,13)           109.4712         estimate D2E/DX2                !
 ! A25   A(5,14,15)            109.4712         estimate D2E/DX2                !
 ! A26   A(5,14,16)            109.4712         estimate D2E/DX2                !
 ! A27   A(5,14,17)            109.4712         estimate D2E/DX2                !
 ! A28   A(15,14,16)           109.4713         estimate D2E/DX2                !
 ! A29   A(15,14,17)           109.4712         estimate D2E/DX2                !
 ! A30   A(16,14,17)           109.4712         estimate D2E/DX2                !
 ! A31   A(6,18,19)            109.4712         estimate D2E/DX2                !
 ! A32   A(6,18,20)            109.4712         estimate D2E/DX2                !
 ! A33   A(6,18,21)            109.4712         estimate D2E/DX2                !
 ! A34   A(19,18,20)           109.4712         estimate D2E/DX2                !
 ! A35   A(19,18,21)           109.4712         estimate D2E/DX2                !
 ! A36   A(20,18,21)           109.4712         estimate D2E/DX2                !
 ! D1    D(6,1,2,3)              0.4267         estimate D2E/DX2                !
 ! D2    D(6,1,2,8)           -179.6886         estimate D2E/DX2                !
 ! D3    D(10,1,2,3)          -179.9972         estimate D2E/DX2                !
 ! D4    D(10,1,2,8)            -0.1126         estimate D2E/DX2                !
 ! D5    D(2,1,6,5)             -0.613          estimate D2E/DX2                !
 ! D6    D(2,1,6,18)          -168.4407         estimate D2E/DX2                !
 ! D7    D(10,1,6,5)           179.7974         estimate D2E/DX2                !
 ! D8    D(10,1,6,18)           11.9697         estimate D2E/DX2                !
 ! D9    D(2,1,10,11)          -60.0264         estimate D2E/DX2                !
 ! D10   D(2,1,10,12)           59.9736         estimate D2E/DX2                !
 ! D11   D(2,1,10,13)          179.9736         estimate D2E/DX2                !
 ! D12   D(6,1,10,11)          119.5729         estimate D2E/DX2                !
 ! D13   D(6,1,10,12)         -120.4271         estimate D2E/DX2                !
 ! D14   D(6,1,10,13)           -0.4271         estimate D2E/DX2                !
 ! D15   D(1,2,3,4)             -0.1109         estimate D2E/DX2                !
 ! D16   D(1,2,3,7)            179.9579         estimate D2E/DX2                !
 ! D17   D(8,2,3,4)           -179.9952         estimate D2E/DX2                !
 ! D18   D(8,2,3,7)              0.0736         estimate D2E/DX2                !
 ! D19   D(2,3,4,5)              0.0043         estimate D2E/DX2                !
 ! D20   D(2,3,4,9)           -179.9944         estimate D2E/DX2                !
 ! D21   D(7,3,4,5)            179.9354         estimate D2E/DX2                !
 ! D22   D(7,3,4,9)             -0.0632         estimate D2E/DX2                !
 ! D23   D(3,4,5,6)             -0.1972         estimate D2E/DX2                !
 ! D24   D(3,4,5,14)           179.9933         estimate D2E/DX2                !
 ! D25   D(9,4,5,6)            179.8015         estimate D2E/DX2                !
 ! D26   D(9,4,5,14)            -0.008          estimate D2E/DX2                !
 ! D27   D(4,5,6,1)              0.4984         estimate D2E/DX2                !
 ! D28   D(4,5,6,18)           170.009          estimate D2E/DX2                !
 ! D29   D(14,5,6,1)          -179.6838         estimate D2E/DX2                !
 ! D30   D(14,5,6,18)          -10.1732         estimate D2E/DX2                !
 ! D31   D(4,5,14,15)          120.4941         estimate D2E/DX2                !
 ! D32   D(4,5,14,16)         -119.5058         estimate D2E/DX2                !
 ! D33   D(4,5,14,17)            0.4942         estimate D2E/DX2                !
 ! D34   D(6,5,14,15)          -59.3283         estimate D2E/DX2                !
 ! D35   D(6,5,14,16)           60.6718         estimate D2E/DX2                !
 ! D36   D(6,5,14,17)         -179.3283         estimate D2E/DX2                !
 ! D37   D(1,6,18,19)           47.2025         estimate D2E/DX2                !
 ! D38   D(1,6,18,20)          -72.7975         estimate D2E/DX2                !
 ! D39   D(1,6,18,21)          167.2025         estimate D2E/DX2                !
 ! D40   D(5,6,18,19)         -121.2311         estimate D2E/DX2                !
 ! D41   D(5,6,18,20)          118.7689         estimate D2E/DX2                !
 ! D42   D(5,6,18,21)           -1.2311         estimate D2E/DX2                !
 --------------------------------------------------------------------------------
 Trust Radius=3.00D-01 FncErr=1.00D-07 GrdErr=1.00D-07 EigMax=2.50D+02 EigMin=1.00D-04
 Number of steps in this run=    109 maximum allowed number of steps=    126.
 GradGradGradGradGradGradGradGradGradGradGradGradGradGradGradGradGradGrad

                          Input orientation:                          
 ---------------------------------------------------------------------
 Center     Atomic      Atomic             Coordinates (Angstroms)
 Number     Number       Type             X           Y           Z
 ---------------------------------------------------------------------
      1          6           0       -1.976330   -0.374179   -0.058720
      2          6           0       -0.550335   -0.384146   -0.060907
      3          6           0        0.116356    0.842461   -0.060907
      4          6           0       -0.637717    2.017248   -0.061148
      5          6           0       -2.040919    1.914443   -0.061289
      6          7           0       -2.684915    0.750020   -0.065038
      7          1           0        1.214900    0.882237   -0.061857
      8          1           0        0.004397   -1.331047   -0.060643
      9          1           0       -0.153681    3.002172   -0.061249
     10          6           0       -2.764810   -1.697017   -0.058549
     11          1           0       -2.515831   -2.260752   -0.933256
     12          1           0       -2.512469   -2.262531    0.814043
     13          1           0       -3.813971   -1.486881   -0.056316
     14          6           0       -2.923869    3.176188   -0.061402
     15          1           0       -3.547696    3.174888   -0.930734
     16          1           0       -3.535527    3.183560    0.816505
     17          1           0       -2.301862    4.046781   -0.070055
     18          5           0       -4.551037    0.936642    0.239527
     19         17           0       -5.035345   -0.039819    1.759025
     20         17           0       -5.492019    0.291482   -1.242101
     21         17           0       -4.962406    2.741937    0.501414
 ---------------------------------------------------------------------
                    Distance matrix (angstroms):
                    1          2          3          4          5
     1  C    0.000000
     2  C    1.426031   0.000000
     3  C    2.420651   1.396081   0.000000
     4  C    2.740586   2.402983   1.395977   0.000000
     5  C    2.289535   2.739590   2.408938   1.406963   0.000000
     6  N    1.328893   2.417184   2.802799   2.407675   1.330649
     7  H    3.429656   2.172506   1.099264   2.172657   3.415524
     8  H    2.199745   1.097428   2.176390   3.409309   3.836212
     9  H    3.836900   3.409470   2.176527   1.097436   2.178261
    10  C    1.540000   2.574400   3.840582   4.280221   3.683295
    11  H    2.148263   2.854088   4.161650   4.752806   4.291634
    12  H    2.148263   2.853741   4.161398   4.753647   4.293679
    13  H    2.148263   3.444904   4.568733   4.729432   3.835719
    14  C    3.674635   4.278976   3.832655   2.563129   1.540000
    15  H    3.978125   4.733656   4.429683   3.250275   2.148263
    16  H    3.981786   4.733894   4.425703   3.244666   2.148263
    17  H    4.432944   4.764561   4.014415   2.624588   2.148263
    18  B    2.904534   4.223785   4.678000   4.070895   2.710586
    19  Cl   3.574012   4.852424   5.534490   5.184947   4.012388
    20  Cl   3.768762   5.125615   5.757835   5.285562   3.992294
    21  Cl   4.352077   5.436448   5.451425   4.420925   3.088117
                    6          7          8          9         10
     6  N    0.000000
     7  H    3.902057   0.000000
     8  H    3.400479   2.522686   0.000000
     9  H    3.388119   2.523319   4.336101   0.000000
    10  C    2.448349   4.742431   2.793286   5.375907   0.000000
    11  H    3.138015   4.955408   2.824421   5.834254   1.070000
    12  H    3.142926   4.954800   2.822649   5.834990   1.070000
    13  H    2.505706   5.558982   3.821549   5.792179   1.070000
    14  C    2.437910   4.731978   5.374933   2.775648   4.875800
    15  H    2.715476   5.356632   5.803264   3.507872   5.010895
    16  H    2.724478   5.351090   5.803630   3.498604   5.017943
    17  H    3.318944   4.730964   5.851492   2.388716   5.762436
    18  B    1.900000   5.774065   5.097499   4.867609   3.196187
    19  Cl   3.078241   6.575055   5.511574   6.033054   3.347418
    20  Cl   3.078241   6.835549   5.851412   6.102467   3.576673
    21  Cl   3.078241   6.475713   6.447808   4.848520   4.984706
                   11         12         13         14         15
    11  H    0.000000
    12  H    1.747303   0.000000
    13  H    1.747303   1.747303   0.000000
    14  C    5.521498   5.524067   4.747264   0.000000
    15  H    5.532715   5.803574   4.750537   1.070000   0.000000
    16  H    5.808785   5.541351   4.759450   1.070000   1.747303
    17  H    6.369919   6.374434   5.736556   1.070000   1.747303
    18  B    3.967469   3.836735   2.550343   2.784565   2.717711
    19  Cl   4.304517   3.492613   2.623205   4.256169   4.447723
    20  Cl   3.932807   4.430398   2.717444   4.038685   3.491615
    21  Cl   5.750730   5.580737   4.417337   2.158928   2.059102
                   16         17         18         19         20
    16  H    0.000000
    17  H    1.747303   0.000000
    18  B    2.532353   3.850662   0.000000
    19  Cl   3.678039   5.245737   1.870000   0.000000
    20  Cl   4.053374   5.064886   1.870000   3.053697   0.000000
    21  Cl   1.526531   3.017895   1.870000   3.053697   3.053697
                   21
    21  Cl   0.000000
 Stoichiometry    C7H9BCl3N
 Framework group  C1[X(C7H9BCl3N)]
 Deg. of freedom    57
 Full point group                 C1      NOp   1
 Largest Abelian subgroup         C1      NOp   1
 Largest concise Abelian subgroup C1      NOp   1
                         Standard orientation:                         
 ---------------------------------------------------------------------
 Center     Atomic      Atomic             Coordinates (Angstroms)
 Number     Number       Type             X           Y           Z
 ---------------------------------------------------------------------
      1          6           0       -1.529870   -1.129470    0.081867
      2          6           0       -2.947357   -1.016211   -0.025231
      3          6           0       -3.503261    0.263365   -0.077172
      4          6           0       -2.652416    1.368597   -0.019952
      5          6           0       -1.267523    1.144977    0.087798
      6          7           0       -0.729058   -0.070661    0.141695
      7          1           0       -4.591081    0.397886   -0.160442
      8          1           0       -3.580439   -1.911634   -0.067353
      9          1           0       -3.047845    2.391624   -0.057627
     10          6           0       -0.861320   -2.515434    0.143039
     11          1           0       -1.224232   -3.049131    0.996481
     12          1           0       -1.094425   -3.063420   -0.745935
     13          1           0        0.199208   -2.396728    0.221073
     14          6           0       -0.281116    2.325707    0.154707
     15          1           0        0.272104    2.276901    1.069292
     16          1           0        0.394065    2.273785   -0.673747
     17          1           0       -0.824155    3.246813    0.115064
     18          5           0        1.163994   -0.048162   -0.019087
     19         17           0        1.676340   -1.073916   -1.496324
     20         17           0        1.929722   -0.761313    1.530744
     21         17           0        1.749079    1.712885   -0.249924
 ---------------------------------------------------------------------
 Rotational constants (GHZ):           0.8524216           0.5246785           0.4133707
 Standard basis: 3-21G (6D, 7F)
 There are   138 symmetry adapted cartesian basis functions of A   symmetry.
 There are   138 symmetry adapted basis functions of A   symmetry.
   138 basis functions,   243 primitive gaussians,   138 cartesian basis functions
    57 alpha electrons       57 beta electrons
       nuclear repulsion energy      1010.6766696726 Hartrees.
 NAtoms=   21 NActive=   21 NUniq=   21 SFac= 1.00D+00 NAtFMM=   60 NAOKFM=F Big=F
 Integral buffers will be    131072 words long.
 Raffenetti 1 integral format.
 Two-electron integral symmetry is turned on.
 One-electron integrals computed using PRISM.
 NBasis=   138 RedAO= T EigKep=  2.91D-03  NBF=   138
 NBsUse=   138 1.00D-06 EigRej= -1.00D+00 NBFU=   138
 ExpMin= 1.24D-01 ExpMax= 1.38D+03 ExpMxC= 1.38D+03 IAcc=3 IRadAn=         5 AccDes= 0.00D+00
 Harris functional with IExCor=  205 and IRadAn=       5 diagonalized for initial guess.
 HarFok:  IExCor=  205 AccDes= 0.00D+00 IRadAn=         5 IDoV= 1 UseB2=F ITyADJ=14
 ICtDFT=  3500011 ScaDFX=  1.000000  1.000000  1.000000  1.000000
 FoFCou: FMM=F IPFlag=           0 FMFlag=      100000 FMFlg1=           0
         NFxFlg=           0 DoJE=T BraDBF=F KetDBF=T FulRan=T
         wScrn=  0.000000 ICntrl=       500 IOpCl=  0 I1Cent=   200000004 NGrid=           0
         NMat0=    1 NMatS0=      1 NMatT0=    0 NMatD0=    1 NMtDS0=    0 NMtDT0=    0
 Petite list used in FoFCou.
 Keep R1 ints in memory in canonical form, NReq=47342355.
 Requested convergence on RMS density matrix=1.00D-08 within 128 cycles.
 Requested convergence on MAX density matrix=1.00D-06.
 Requested convergence on             energy=1.00D-06.
 No special actions if energy rises.
 SCF Done:  E(RHF) =  -1719.34054179     A.U. after   14 cycles
            NFock= 14  Conv=0.80D-08     -V/T= 2.0007

 **********************************************************************

            Population analysis using the SCF Density.

 **********************************************************************

 Orbital symmetries:
       Occupied  (A) (A) (A) (A) (A) (A) (A) (A) (A) (A) (A) (A)
                 (A) (A) (A) (A) (A) (A) (A) (A) (A) (A) (A) (A)
                 (A) (A) (A) (A) (A) (A) (A) (A) (A) (A) (A) (A)
                 (A) (A) (A) (A) (A) (A) (A) (A) (A) (A) (A) (A)
                 (A) (A) (A) (A) (A) (A) (A) (A) (A)
       Virtual   (A) (A) (A) (A) (A) (A) (A) (A) (A) (A) (A) (A)
                 (A) (A) (A) (A) (A) (A) (A) (A) (A) (A) (A) (A)
                 (A) (A) (A) (A) (A) (A) (A) (A) (A) (A) (A) (A)
                 (A) (A) (A) (A) (A) (A) (A) (A) (A) (A) (A) (A)
                 (A) (A) (A) (A) (A) (A) (A) (A) (A) (A) (A) (A)
                 (A) (A) (A) (A) (A) (A) (A) (A) (A) (A) (A) (A)
                 (A) (A) (A) (A) (A) (A) (A) (A) (A)
 The electronic state is 1-A.
 Alpha  occ. eigenvalues -- -104.07906-104.07776-104.07220 -15.60524 -11.30350
 Alpha  occ. eigenvalues --  -11.29315 -11.25906 -11.23655 -11.23058 -11.19245
 Alpha  occ. eigenvalues --  -11.15614 -10.47621 -10.47400 -10.47255  -7.93719
 Alpha  occ. eigenvalues --   -7.93705  -7.93611  -7.93588  -7.93368  -7.93349
 Alpha  occ. eigenvalues --   -7.93345  -7.93228  -7.93219  -7.74569  -1.36121
 Alpha  occ. eigenvalues --   -1.17722  -1.14321  -1.11920  -1.09282  -1.06414
 Alpha  occ. eigenvalues --   -1.01182  -0.97050  -0.88979  -0.88475  -0.75861
 Alpha  occ. eigenvalues --   -0.73258  -0.69371  -0.68242  -0.65992  -0.63710
 Alpha  occ. eigenvalues --   -0.62145  -0.61016  -0.59631  -0.58839  -0.57294
 Alpha  occ. eigenvalues --   -0.55386  -0.53675  -0.53416  -0.52966  -0.46220
 Alpha  occ. eigenvalues --   -0.44944  -0.44138  -0.43829  -0.42523  -0.41717
 Alpha  occ. eigenvalues --   -0.37973  -0.33614
 Alpha virt. eigenvalues --    0.06196   0.09223   0.18213   0.21990   0.23371
 Alpha virt. eigenvalues --    0.24418   0.24676   0.28201   0.28512   0.29095
 Alpha virt. eigenvalues --    0.30137   0.31329   0.33937   0.35143   0.35575
 Alpha virt. eigenvalues --    0.38532   0.39369   0.40595   0.45262   0.48668
 Alpha virt. eigenvalues --    0.49735   0.53744   0.64483   0.67892   0.69663
 Alpha virt. eigenvalues --    0.71761   0.74638   0.76117   0.77703   0.78259
 Alpha virt. eigenvalues --    0.79043   0.80478   0.83148   0.85086   0.85958
 Alpha virt. eigenvalues --    0.89927   0.90840   0.92135   0.92616   0.93283
 Alpha virt. eigenvalues --    0.94959   0.96070   0.98246   1.00538   1.03462
 Alpha virt. eigenvalues --    1.03891   1.04543   1.05765   1.06438   1.10087
 Alpha virt. eigenvalues --    1.13629   1.14710   1.15167   1.17904   1.20582
 Alpha virt. eigenvalues --    1.22365   1.26482   1.27913   1.32633   1.33763
 Alpha virt. eigenvalues --    1.36396   1.39023   1.40160   1.41885   1.47476
 Alpha virt. eigenvalues --    1.53332   1.56867   1.59152   1.63643   1.65232
 Alpha virt. eigenvalues --    1.69593   1.72835   1.79223   1.84359   1.95129
 Alpha virt. eigenvalues --    2.03312   2.20636   2.24090   2.29785   2.34362
 Alpha virt. eigenvalues --    3.25569
     Molecular Orbital Coefficients:
                           1         2         3         4         5
                           O         O         O         O         O
     Eigenvalues --  -104.07906-104.07776-104.07220 -15.60524 -11.30350
   1 1   C  1S         -0.00000   0.00001   0.00000  -0.00010   0.98704
   2        2S         -0.00003   0.00002   0.00006  -0.00029   0.09781
   3        2PX         0.00002   0.00000   0.00015   0.00064   0.00014
   4        2PY         0.00000   0.00004   0.00006   0.00061   0.00100
   5        2PZ        -0.00003  -0.00001   0.00003   0.00002   0.00001
   6        3S         -0.00010  -0.00014   0.00058   0.02826  -0.06287
   7        3PX        -0.00041  -0.00020  -0.00126   0.00535   0.01115
   8        3PY        -0.00034  -0.00005  -0.00010   0.02807   0.01145
   9        3PZ        -0.00010   0.00008  -0.00008   0.00026   0.00074
  10 2   C  1S         -0.00000  -0.00000   0.00002   0.00042  -0.00213
  11        2S         -0.00001  -0.00002   0.00009   0.00207  -0.00243
  12        2PX        -0.00002  -0.00003  -0.00003  -0.00005  -0.00100
  13        2PY        -0.00001   0.00001   0.00003   0.00077   0.00050
  14        2PZ         0.00000   0.00000  -0.00000  -0.00001  -0.00007
  15        3S         -0.00014  -0.00014  -0.00104  -0.01624   0.01624
  16        3PX        -0.00007   0.00009  -0.00061  -0.00694   0.01346
  17        3PY         0.00022  -0.00006  -0.00004  -0.02038  -0.01157
  18        3PZ         0.00001  -0.00004  -0.00006  -0.00039   0.00108
  19 3   C  1S          0.00000  -0.00000   0.00000  -0.00029  -0.00216
  20        2S         -0.00000  -0.00001   0.00002  -0.00115  -0.00131
  21        2PX        -0.00001  -0.00000   0.00001   0.00055  -0.00016
  22        2PY         0.00000   0.00001  -0.00002  -0.00008   0.00080
  23        2PZ        -0.00000  -0.00000  -0.00000   0.00004  -0.00002
  24        3S         -0.00007   0.00013   0.00014   0.02818   0.01208
  25        3PX        -0.00001   0.00003   0.00013   0.01318   0.00515
  26        3PY         0.00010  -0.00008   0.00008  -0.00096  -0.00542
  27        3PZ        -0.00003   0.00004   0.00003   0.00103   0.00044
  28 4   C  1S         -0.00000   0.00000   0.00000   0.00041   0.00048
  29        2S         -0.00000  -0.00001   0.00004   0.00203   0.00105
  30        2PX        -0.00000  -0.00003   0.00009  -0.00030  -0.00031
  31        2PY         0.00000   0.00000   0.00003  -0.00072  -0.00008
  32        2PZ        -0.00002   0.00002   0.00002  -0.00002  -0.00002
  33        3S          0.00014  -0.00031   0.00066  -0.01587  -0.01286
  34        3PX         0.00013  -0.00014   0.00030  -0.00012  -0.00685
  35        3PY         0.00003   0.00009   0.00025   0.02211   0.00916
  36        3PZ         0.00014  -0.00013  -0.00003  -0.00020  -0.00061
  37 5   C  1S         -0.00001   0.00001  -0.00002  -0.00006  -0.01074
  38        2S         -0.00005   0.00005  -0.00017   0.00001  -0.00239
  39        2PX        -0.00004   0.00001  -0.00012   0.00046   0.00101
  40        2PY        -0.00001  -0.00002   0.00011  -0.00070   0.00135
  41        2PZ         0.00009  -0.00007  -0.00003  -0.00001   0.00004
  42        3S          0.00035  -0.00030   0.00065   0.02729   0.00797
  43        3PX         0.00041  -0.00071   0.00138   0.00014  -0.01519
  44        3PY        -0.00025  -0.00002  -0.00153  -0.03023  -0.01171
  45        3PZ        -0.00025   0.00019   0.00021   0.00036  -0.00106
  46 6   N  1S         -0.00002  -0.00003  -0.00000   0.98685   0.00030
  47        2S         -0.00011  -0.00019  -0.00005   0.10730   0.00161
  48        2PX        -0.00000  -0.00004  -0.00010  -0.00339  -0.00036
  49        2PY         0.00006   0.00001  -0.00002   0.00048   0.00001
  50        2PZ         0.00003  -0.00002   0.00003  -0.00053  -0.00009
  51        3S          0.00044   0.00097  -0.00035  -0.09600  -0.00530
  52        3PX         0.00019   0.00050   0.00084   0.02054   0.00639
  53        3PY        -0.00059  -0.00001  -0.00042  -0.00308   0.00292
  54        3PZ        -0.00027   0.00018  -0.00016   0.00230   0.00078
  55 7   H  1S         -0.00000  -0.00000   0.00001   0.00009  -0.00004
  56        2S         -0.00000   0.00000   0.00002   0.00231   0.00174
  57 8   H  1S          0.00001  -0.00001   0.00001  -0.00168  -0.00149
  58        2S          0.00010   0.00006  -0.00004  -0.00650  -0.00238
  59 9   H  1S         -0.00001  -0.00000  -0.00002  -0.00178  -0.00067
  60        2S          0.00001  -0.00004  -0.00013  -0.00623  -0.00311
  61 10  C  1S         -0.00002  -0.00004  -0.00002  -0.00004  -0.00068
  62        2S         -0.00012  -0.00033  -0.00009  -0.00028  -0.00133
  63        2PX         0.00002  -0.00010  -0.00004  -0.00006  -0.00023
  64        2PY         0.00008   0.00002   0.00012   0.00021  -0.00025
  65        2PZ        -0.00022   0.00009  -0.00002   0.00000  -0.00004
  66        3S          0.00091   0.00145   0.00102   0.00679   0.01426
  67        3PX         0.00038   0.00081   0.00068  -0.00528  -0.00570
  68        3PY        -0.00014   0.00010  -0.00021   0.00046   0.00857
  69        3PZ         0.00084  -0.00031   0.00013  -0.00042  -0.00036
  70 11  H  1S         -0.00010  -0.00003  -0.00006  -0.00034  -0.00126
  71        2S         -0.00050   0.00015  -0.00008  -0.00096   0.00180
  72 12  H  1S          0.00009  -0.00008  -0.00004  -0.00037  -0.00124
  73        2S          0.00019  -0.00024  -0.00001  -0.00093   0.00192
  74 13  H  1S          0.00030   0.00032   0.00017   0.00019  -0.00065
  75        2S         -0.00126  -0.00167  -0.00168   0.00126   0.00062
  76 14  C  1S          0.00001  -0.00004   0.00001  -0.00008  -0.00041
  77        2S          0.00002  -0.00029  -0.00021  -0.00051  -0.00105
  78        2PX         0.00002  -0.00011  -0.00003   0.00007  -0.00026
  79        2PY        -0.00001   0.00010  -0.00002  -0.00040  -0.00050
  80        2PZ        -0.00002  -0.00001   0.00005   0.00004  -0.00002
  81        3S         -0.00019   0.00093   0.00115   0.00903   0.01047
  82        3PX        -0.00017   0.00050  -0.00167  -0.00627  -0.00301
  83        3PY         0.00028  -0.00075   0.00128   0.00215  -0.00412
  84        3PZ         0.00042  -0.00017  -0.00037  -0.00089  -0.00023
  85 15  H  1S          0.00014  -0.00013   0.00019   0.00053  -0.00049
  86        2S         -0.00072   0.00013  -0.00119  -0.00053   0.00014
  87 16  H  1S         -0.00008  -0.00005  -0.00012   0.00066  -0.00045
  88        2S          0.00076  -0.00060  -0.00292  -0.00188  -0.00002
  89 17  H  1S         -0.00002   0.00002  -0.00039  -0.00107  -0.00043
  90        2S         -0.00012   0.00036  -0.00073  -0.00253  -0.00003
  91 18  B  1S          0.00011   0.00014   0.00013  -0.00059   0.00001
  92        2S          0.00101   0.00130   0.00087  -0.00284  -0.00054
  93        2PX         0.00006   0.00005   0.00015  -0.00019   0.00131
  94        2PY         0.00003   0.00011  -0.00008  -0.00013   0.00042
  95        2PZ        -0.00013   0.00009  -0.00006  -0.00009   0.00013
  96        3S         -0.00580  -0.00674  -0.00732   0.00989  -0.00112
  97        3PX        -0.00104  -0.00150  -0.00126  -0.00275  -0.00132
  98        3PY         0.00170   0.00123  -0.00525  -0.00008  -0.00214
  99        3PZ         0.00388  -0.00341   0.00109   0.00012  -0.00156
 100 19  Cl 1S          0.98301   0.07454   0.00940   0.00000  -0.00000
 101        2S          0.05298   0.00396   0.00047  -0.00001   0.00000
 102        2PX        -0.00009  -0.00001  -0.00001   0.00001  -0.00002
 103        2PY         0.00011  -0.00001  -0.00006   0.00001   0.00001
 104        2PZ         0.00019  -0.00003  -0.00001   0.00002  -0.00000
 105        3S         -0.01975  -0.00118  -0.00008   0.00094   0.00025
 106        3PX         0.00033   0.00004   0.00003  -0.00017   0.00009
 107        3PY        -0.00044   0.00007   0.00031  -0.00005  -0.00007
 108        3PZ        -0.00079   0.00019   0.00007  -0.00005   0.00004
 109        4S          0.01484   0.00095   0.00050  -0.00291  -0.00115
 110        4PX        -0.00136  -0.00003  -0.00004   0.00146   0.00038
 111        4PY         0.00231  -0.00013   0.00027  -0.00070   0.00006
 112        4PZ         0.00345   0.00033   0.00001  -0.00115  -0.00049
 113 20  Cl 1S         -0.07467   0.98293   0.01550   0.00000   0.00000
 114        2S         -0.00408   0.05296   0.00079  -0.00002  -0.00001
 115        2PX         0.00001  -0.00011   0.00000   0.00001   0.00001
 116        2PY        -0.00002   0.00007  -0.00006   0.00001   0.00002
 117        2PZ         0.00007  -0.00019   0.00003  -0.00001   0.00001
 118        3S          0.00182  -0.01968  -0.00002   0.00101  -0.00013
 119        3PX        -0.00005   0.00045  -0.00001  -0.00017  -0.00010
 120        3PY         0.00009  -0.00029   0.00028  -0.00002  -0.00015
 121        3PZ        -0.00033   0.00075  -0.00015   0.00001  -0.00006
 122        4S         -0.00129   0.01474  -0.00001  -0.00290   0.00085
 123        4PX         0.00027  -0.00195   0.00016   0.00160   0.00017
 124        4PY        -0.00044   0.00158   0.00015  -0.00045   0.00088
 125        4PZ         0.00024  -0.00354   0.00012   0.00108  -0.00017
 126 21  Cl 1S         -0.00819  -0.01615   0.98569   0.00000   0.00001
 127        2S         -0.00048  -0.00093   0.05328  -0.00002  -0.00002
 128        2PX         0.00000  -0.00000  -0.00020   0.00005  -0.00000
 129        2PY         0.00004   0.00006  -0.00019  -0.00002   0.00002
 130        2PZ         0.00004  -0.00004   0.00003   0.00001   0.00001
 131        3S          0.00023   0.00063  -0.02190   0.00025  -0.00048
 132        3PX        -0.00001  -0.00001   0.00101  -0.00032   0.00003
 133        3PY        -0.00021  -0.00030   0.00075   0.00004  -0.00010
 134        3PZ        -0.00019   0.00019  -0.00017  -0.00006  -0.00009
 135        4S          0.00041   0.00002   0.01980  -0.00043   0.00172
 136        4PX         0.00001   0.00017  -0.00452   0.00009   0.00004
 137        4PY        -0.00032  -0.00003  -0.00400   0.00179  -0.00057
 138        4PZ         0.00007  -0.00001   0.00063   0.00016   0.00047
                           6         7         8         9        10
                           O         O         O         O         O
     Eigenvalues --   -11.29315 -11.25906 -11.23655 -11.23058 -11.19245
   1 1   C  1S          0.01031   0.00209   0.00174  -0.00025   0.00023
   2        2S         -0.00030   0.00004  -0.00282  -0.00000  -0.00135
   3        2PX         0.00065   0.00090   0.00165   0.00046  -0.00051
   4        2PY        -0.00148  -0.00060  -0.00023  -0.00000   0.00053
   5        2PZ         0.00005   0.00008   0.00012   0.00004  -0.00005
   6        3S          0.00588  -0.00881   0.03235   0.00736   0.01752
   7        3PX        -0.01097   0.00268  -0.02046  -0.00497   0.01181
   8        3PY         0.01448  -0.00017   0.01388   0.00497  -0.01456
   9        3PZ        -0.00103   0.00018  -0.00156  -0.00037   0.00102
  10 2   C  1S          0.00043  -0.00971   0.98732   0.00751   0.00190
  11        2S          0.00092  -0.00508   0.09983   0.00111  -0.00031
  12        2PX        -0.00026   0.00001   0.00105   0.00044  -0.00045
  13        2PY         0.00016  -0.00142   0.00146  -0.00097   0.00061
  14        2PZ        -0.00002   0.00001   0.00008   0.00004  -0.00004
  15        3S         -0.01070   0.03492  -0.09288  -0.01439   0.00112
  16        3PX        -0.00831   0.00234  -0.01550  -0.00629   0.00457
  17        3PY        -0.00662   0.01978  -0.02222  -0.00688  -0.00165
  18        3PZ        -0.00056   0.00004  -0.00102  -0.00043   0.00035
  19 3   C  1S         -0.00276   0.98726   0.00884   0.00691   0.00091
  20        2S         -0.00136   0.09935  -0.00335  -0.00360  -0.00072
  21        2PX        -0.00033   0.00158  -0.00094  -0.00117  -0.00022
  22        2PY        -0.00074  -0.00023   0.00101  -0.00070   0.00033
  23        2PZ        -0.00002   0.00013  -0.00008  -0.00009  -0.00002
  24        3S          0.01193  -0.08901   0.03719   0.03795   0.00416
  25        3PX         0.00570  -0.02339   0.01943   0.02244   0.00262
  26        3PY         0.00483   0.00305  -0.01321   0.00759  -0.00293
  27        3PZ         0.00043  -0.00183   0.00159   0.00167   0.00022
  28 4   C  1S         -0.00219  -0.00766  -0.00726   0.98734   0.00036
  29        2S         -0.00275  -0.00489  -0.00037   0.10001   0.00006
  30        2PX        -0.00134   0.00037   0.00062   0.00065  -0.00006
  31        2PY        -0.00021   0.00137   0.00086  -0.00172   0.00014
  32        2PZ        -0.00008   0.00002   0.00004   0.00005  -0.00001
  33        3S          0.01880   0.03508  -0.01341  -0.09516  -0.00322
  34        3PX         0.01821  -0.00216  -0.00472  -0.01085  -0.00223
  35        3PY         0.00790  -0.01970   0.00789   0.02570   0.00186
  36        3PZ         0.00124  -0.00002  -0.00042  -0.00104  -0.00018
  37 5   C  1S          0.98709   0.00264  -0.00028   0.00178   0.00024
  38        2S          0.09843   0.00007   0.00001  -0.00305  -0.00054
  39        2PX        -0.00008   0.00101   0.00045   0.00192   0.00033
  40        2PY        -0.00094   0.00039  -0.00009  -0.00022   0.00036
  41        2PZ        -0.00011   0.00008   0.00003   0.00014   0.00002
  42        3S         -0.06653  -0.00918   0.00730   0.03410   0.00251
  43        3PX         0.00994   0.00291  -0.00630  -0.02488  -0.00438
  44        3PY        -0.01527  -0.00066  -0.00358  -0.00834  -0.00323
  45        3PZ         0.00104   0.00025  -0.00043  -0.00176  -0.00033
  46 6   N  1S          0.00033  -0.00002   0.00023   0.00023   0.00007
  47        2S          0.00191  -0.00018   0.00129   0.00130   0.00009
  48        2PX        -0.00025   0.00003  -0.00020  -0.00022   0.00007
  49        2PY         0.00005  -0.00000   0.00029  -0.00026   0.00038
  50        2PZ        -0.00014  -0.00000  -0.00000   0.00000  -0.00001
  51        3S         -0.00650   0.00140  -0.00911  -0.00899  -0.00267
  52        3PX         0.00480  -0.00037   0.00667   0.00646  -0.00078
  53        3PY        -0.00434  -0.00003  -0.00011  -0.00109   0.00114
  54        3PZ         0.00095  -0.00002   0.00048   0.00046   0.00000
  55 7   H  1S         -0.00012  -0.00214   0.00003   0.00004   0.00003
  56        2S          0.00153   0.00567   0.00495   0.00501   0.00109
  57 8   H  1S         -0.00069  -0.00017  -0.00239  -0.00051  -0.00011
  58        2S         -0.00302   0.00361   0.00466  -0.00132   0.00073
  59 9   H  1S         -0.00166  -0.00018  -0.00047  -0.00236  -0.00019
  60        2S         -0.00183   0.00366  -0.00145   0.00453  -0.00051
  61 10  C  1S         -0.00055  -0.00114  -0.00202  -0.00039   0.98763
  62        2S         -0.00108  -0.00095  -0.00095  -0.00026   0.10306
  63        2PX        -0.00009   0.00031   0.00022  -0.00006  -0.00015
  64        2PY         0.00051  -0.00002  -0.00006   0.00005   0.00015
  65        2PZ        -0.00001   0.00003   0.00002   0.00000   0.00001
  66        3S          0.01021   0.00260   0.00659   0.00253  -0.08888
  67        3PX        -0.00229  -0.00275   0.00004  -0.00009   0.00135
  68        3PY         0.00467   0.00080   0.00378   0.00140  -0.00669
  69        3PZ        -0.00019  -0.00022  -0.00003  -0.00008   0.00010
  70 11  H  1S         -0.00046  -0.00039  -0.00021  -0.00003   0.00029
  71        2S         -0.00009  -0.00028   0.00029   0.00006   0.01493
  72 12  H  1S         -0.00045  -0.00039  -0.00021  -0.00004   0.00027
  73        2S         -0.00010  -0.00029   0.00031   0.00001   0.01492
  74 13  H  1S         -0.00047  -0.00001  -0.00039  -0.00018  -0.00021
  75        2S          0.00072   0.00122  -0.00030   0.00014   0.01798
  76 14  C  1S         -0.00070  -0.00071  -0.00026  -0.00163  -0.00068
  77        2S         -0.00154  -0.00084  -0.00029  -0.00114  -0.00045
  78        2PX         0.00026   0.00032  -0.00012   0.00013  -0.00008
  79        2PY        -0.00022  -0.00003  -0.00002   0.00001  -0.00007
  80        2PZ        -0.00004   0.00004  -0.00001   0.00001  -0.00001
  81        3S          0.01551   0.00285   0.00274   0.00742   0.00317
  82        3PX        -0.01088  -0.00281  -0.00023  -0.00041  -0.00062
  83        3PY        -0.00405  -0.00029  -0.00155  -0.00389  -0.00132
  84        3PZ        -0.00032  -0.00043  -0.00001   0.00003   0.00001
  85 15  H  1S         -0.00096   0.00003  -0.00018  -0.00038  -0.00013
  86        2S          0.00244   0.00014  -0.00002  -0.00038  -0.00020
  87 16  H  1S         -0.00088   0.00003  -0.00020  -0.00037  -0.00010
  88        2S          0.00362  -0.00065   0.00006  -0.00020  -0.00002
  89 17  H  1S         -0.00126  -0.00061   0.00002  -0.00005  -0.00012
  90        2S         -0.00253  -0.00012   0.00019   0.00034   0.00013
  91 18  B  1S         -0.00014   0.00003  -0.00003  -0.00006  -0.00009
  92        2S         -0.00132   0.00014  -0.00049  -0.00053  -0.00054
  93        2PX         0.00120  -0.00003   0.00055   0.00038   0.00035
  94        2PY        -0.00050  -0.00011   0.00023  -0.00008   0.00012
  95        2PZ         0.00023   0.00004  -0.00008  -0.00009   0.00005
  96        3S          0.00236  -0.00043  -0.00004   0.00072   0.00324
  97        3PX        -0.00181   0.00038  -0.00013  -0.00007  -0.00025
  98        3PY         0.00455   0.00026  -0.00153   0.00196   0.00009
  99        3PZ        -0.00241  -0.00022  -0.00008   0.00009   0.00037
 100 19  Cl 1S         -0.00001  -0.00000  -0.00000  -0.00000  -0.00001
 101        2S          0.00001   0.00000   0.00001  -0.00000   0.00003
 102        2PX         0.00003   0.00000  -0.00000   0.00001  -0.00002
 103        2PY        -0.00001   0.00000   0.00000  -0.00000   0.00003
 104        2PZ         0.00001  -0.00000   0.00000   0.00000  -0.00002
 105        3S          0.00022   0.00002   0.00012  -0.00007   0.00081
 106        3PX        -0.00023  -0.00001   0.00001  -0.00004   0.00011
 107        3PY         0.00009  -0.00002  -0.00003   0.00004  -0.00021
 108        3PZ        -0.00005   0.00003   0.00000  -0.00002   0.00020
 109        4S         -0.00023  -0.00002  -0.00056   0.00051  -0.00183
 110        4PX         0.00073  -0.00003   0.00009  -0.00003   0.00039
 111        4PY        -0.00080   0.00003   0.00007  -0.00015   0.00051
 112        4PZ         0.00053  -0.00002  -0.00031   0.00037  -0.00112
 113 20  Cl 1S          0.00000  -0.00000  -0.00000  -0.00000  -0.00004
 114        2S         -0.00001   0.00000   0.00000   0.00000   0.00008
 115        2PX         0.00003   0.00000   0.00000   0.00001   0.00004
 116        2PY        -0.00002   0.00000   0.00000  -0.00001   0.00006
 117        2PZ        -0.00001   0.00000   0.00000   0.00000   0.00005
 118        3S         -0.00032   0.00000   0.00009   0.00004   0.00154
 119        3PX        -0.00017  -0.00002  -0.00001  -0.00007  -0.00030
 120        3PY         0.00012  -0.00003  -0.00003   0.00005  -0.00044
 121        3PZ         0.00006  -0.00002  -0.00003  -0.00001  -0.00036
 122        4S          0.00208   0.00013  -0.00033   0.00016  -0.00298
 123        4PX        -0.00007  -0.00007   0.00012   0.00005   0.00133
 124        4PY        -0.00029   0.00008   0.00021  -0.00031   0.00086
 125        4PZ        -0.00113  -0.00002   0.00024  -0.00019   0.00143
 126 21  Cl 1S         -0.00002   0.00000   0.00001   0.00001  -0.00001
 127        2S          0.00004  -0.00001  -0.00001  -0.00000   0.00002
 128        2PX        -0.00000  -0.00000  -0.00001  -0.00004  -0.00000
 129        2PY        -0.00000   0.00001   0.00000   0.00001   0.00000
 130        2PZ         0.00002   0.00000   0.00000   0.00001   0.00000
 131        3S          0.00119  -0.00031  -0.00023   0.00015   0.00043
 132        3PX        -0.00004   0.00003   0.00006   0.00027   0.00001
 133        3PY        -0.00006  -0.00008  -0.00002  -0.00003  -0.00004
 134        3PZ        -0.00012  -0.00002  -0.00001  -0.00004   0.00000
 135        4S         -0.00427   0.00084   0.00082  -0.00155  -0.00131
 136        4PX         0.00141  -0.00067  -0.00007   0.00026   0.00041
 137        4PY         0.00191   0.00048  -0.00042   0.00059   0.00066
 138        4PZ         0.00074   0.00013   0.00006  -0.00024  -0.00018
                          11        12        13        14        15
                           O         O         O         O         O
     Eigenvalues --   -11.15614 -10.47621 -10.47400 -10.47255  -7.93719
   1 1   C  1S          0.00010   0.00004   0.00001  -0.00002   0.00001
   2        2S         -0.00055  -0.00030   0.00013  -0.00010  -0.00003
   3        2PX         0.00025  -0.00081  -0.00015  -0.00010  -0.00019
   4        2PY        -0.00039  -0.00028   0.00001  -0.00025  -0.00015
   5        2PZ         0.00002  -0.00017   0.00012   0.00006   0.00012
   6        3S          0.00290  -0.00323   0.00020   0.00025  -0.00085
   7        3PX        -0.00148   0.00680   0.00240   0.00221  -0.00026
   8        3PY         0.00496   0.00031   0.00155   0.00020   0.00117
   9        3PZ        -0.00011   0.00043   0.00056  -0.00026   0.00017
  10 2   C  1S          0.00023  -0.00005  -0.00001  -0.00002   0.00000
  11        2S         -0.00002  -0.00048   0.00000   0.00001  -0.00002
  12        2PX        -0.00014   0.00014   0.00009   0.00017  -0.00003
  13        2PY        -0.00014  -0.00013   0.00005  -0.00005   0.00001
  14        2PZ        -0.00001   0.00002  -0.00000  -0.00002  -0.00000
  15        3S         -0.00257   0.00531   0.00104   0.00174  -0.00011
  16        3PX        -0.00124   0.00343   0.00070   0.00003   0.00007
  17        3PY        -0.00165   0.00007  -0.00105   0.00039  -0.00046
  18        3PZ        -0.00010   0.00030  -0.00004   0.00023  -0.00007
  19 3   C  1S          0.00051   0.00001  -0.00000   0.00000  -0.00000
  20        2S         -0.00064  -0.00011   0.00000   0.00005  -0.00003
  21        2PX        -0.00036  -0.00005   0.00002  -0.00000  -0.00001
  22        2PY        -0.00026   0.00012  -0.00000  -0.00003  -0.00002
  23        2PZ        -0.00003   0.00001   0.00002   0.00001  -0.00001
  24        3S          0.00210  -0.00044   0.00026  -0.00098   0.00023
  25        3PX         0.00266  -0.00043  -0.00002  -0.00036   0.00005
  26        3PY         0.00022  -0.00071  -0.00060   0.00030  -0.00015
  27        3PZ         0.00024  -0.00013   0.00016  -0.00024   0.00014
  28 4   C  1S          0.00146   0.00005   0.00001  -0.00002   0.00000
  29        2S         -0.00057  -0.00008  -0.00001   0.00001   0.00003
  30        2PX        -0.00048  -0.00047  -0.00004   0.00009   0.00001
  31        2PY        -0.00039  -0.00016  -0.00001  -0.00002   0.00000
  32        2PZ        -0.00001  -0.00009   0.00012  -0.00008   0.00005
  33        3S          0.00152  -0.00485  -0.00113   0.00131   0.00039
  34        3PX         0.00174  -0.00242  -0.00092   0.00048   0.00023
  35        3PY        -0.00158  -0.00093  -0.00027  -0.00083  -0.00028
  36        3PZ         0.00008   0.00007  -0.00083   0.00059  -0.00043
  37 5   C  1S          0.00017   0.00004   0.00002  -0.00004  -0.00004
  38        2S         -0.00157   0.00088   0.00037  -0.00010  -0.00003
  39        2PX        -0.00034   0.00074   0.00023   0.00003   0.00011
  40        2PY        -0.00061  -0.00058   0.00000   0.00007  -0.00010
  41        2PZ        -0.00005   0.00016  -0.00051   0.00032  -0.00019
  42        3S          0.01887  -0.00311  -0.00254   0.00055   0.00261
  43        3PX         0.01276  -0.00909  -0.00324   0.00257   0.00186
  44        3PY         0.01545   0.00827   0.00196   0.00137   0.00049
  45        3PZ         0.00083  -0.00118   0.00142  -0.00096   0.00126
  46 6   N  1S          0.00005  -0.00000   0.00007   0.00017   0.00002
  47        2S         -0.00007   0.00010   0.00041   0.00100   0.00001
  48        2PX        -0.00007   0.00049   0.00004   0.00031  -0.00022
  49        2PY        -0.00070   0.00012  -0.00030  -0.00008   0.00026
  50        2PZ         0.00001  -0.00016  -0.00020   0.00007   0.00027
  51        3S         -0.00170   0.00274  -0.00126  -0.00496  -0.00142
  52        3PX        -0.00108  -0.00418  -0.00114  -0.00378   0.00042
  53        3PY         0.00168   0.00219   0.00334   0.00094  -0.00108
  54        3PZ        -0.00011   0.00087   0.00186  -0.00075  -0.00061
  55 7   H  1S          0.00011  -0.00005  -0.00001   0.00001  -0.00001
  56        2S          0.00117  -0.00002  -0.00000  -0.00005   0.00002
  57 8   H  1S         -0.00017  -0.00003  -0.00007   0.00006  -0.00003
  58        2S         -0.00038   0.00027  -0.00042  -0.00031  -0.00015
  59 9   H  1S          0.00023   0.00012   0.00006   0.00004  -0.00001
  60        2S          0.00008   0.00055  -0.00004   0.00032   0.00025
  61 10  C  1S          0.00055   0.00005   0.00006   0.00003  -0.00001
  62        2S         -0.00029   0.00027   0.00039   0.00176  -0.00011
  63        2PX        -0.00003   0.00016  -0.00017   0.00051  -0.00004
  64        2PY         0.00007  -0.00059  -0.00040  -0.00022  -0.00006
  65        2PZ         0.00001   0.00006   0.00118  -0.00025   0.00029
  66        3S          0.00277  -0.00462  -0.00406  -0.00900   0.00048
  67        3PX        -0.00079  -0.00316  -0.00154  -0.00494  -0.00067
  68        3PY         0.00108   0.00108   0.00082  -0.00048   0.00045
  69        3PZ        -0.00014  -0.00049  -0.00468   0.00083  -0.00140
  70 11  H  1S         -0.00012   0.00025   0.00049   0.00026   0.00005
  71        2S         -0.00006   0.00029   0.00279  -0.00037   0.00068
  72 12  H  1S         -0.00015   0.00022  -0.00048   0.00035  -0.00002
  73        2S         -0.00009   0.00004  -0.00121   0.00104  -0.00100
  74 13  H  1S         -0.00012  -0.00063  -0.00131  -0.00193  -0.00016
  75        2S         -0.00000   0.00801   0.00580   0.01073   0.00099
  76 14  C  1S          0.98764  -0.00041  -0.00007  -0.00004   0.00007
  77        2S          0.10385   0.00080  -0.00029   0.00142   0.00062
  78        2PX         0.00005  -0.00006  -0.00018   0.00053   0.00013
  79        2PY        -0.00084   0.00023   0.00017  -0.00045  -0.00049
  80        2PZ         0.00004  -0.00031   0.00008   0.00003   0.00003
  81        3S         -0.09026  -0.00558   0.00132  -0.00515  -0.00216
  82        3PX         0.00328   0.00973   0.00197  -0.00142  -0.00012
  83        3PY         0.00844  -0.00788  -0.00276   0.00278   0.00368
  84        3PZ         0.00156   0.00241  -0.00224   0.00077  -0.00102
  85 15  H  1S          0.00072  -0.00110  -0.00091   0.00042   0.00010
  86        2S          0.01411   0.00608   0.00444   0.00055   0.00171
  87 16  H  1S          0.00028   0.00016   0.00041   0.00031  -0.00016
  88        2S          0.01804   0.01709  -0.00351   0.00434  -0.00046
  89 17  H  1S          0.00011   0.00205   0.00029   0.00012  -0.00027
  90        2S          0.01367   0.00452   0.00134  -0.00131  -0.00143
  91 18  B  1S         -0.00015  -0.00075  -0.00072  -0.00126  -0.00057
  92        2S         -0.00106  -0.00409  -0.00499  -0.00889  -0.00004
  93        2PX         0.00031  -0.00076  -0.00037  -0.00050   0.00009
  94        2PY        -0.00058   0.00036   0.00006  -0.00044   0.00064
  95        2PZ        -0.00003   0.00033   0.00089  -0.00041   0.00088
  96        3S          0.00170   0.03640   0.03018   0.04887   0.00420
  97        3PX        -0.00227   0.00622   0.00518   0.01062  -0.00120
  98        3PY         0.00052   0.03150  -0.00698  -0.00596  -0.00619
  99        3PZ         0.00151  -0.00614  -0.02570   0.01531  -0.00641
 100 19  Cl 1S         -0.00001   0.02299  -0.29685  -0.07021   0.00300
 101        2S          0.00001  -0.07375   0.95373   0.22576  -0.01043
 102        2PX         0.00003   0.00026  -0.00312  -0.00072  -0.25771
 103        2PY        -0.00002  -0.00010   0.00420   0.00109   0.50746
 104        2PZ         0.00001  -0.00044   0.00619   0.00166   0.71370
 105        3S          0.00003  -0.01134   0.14243   0.03206   0.00701
 106        3PX        -0.00024   0.00005  -0.00239  -0.00065  -0.02213
 107        3PY         0.00014  -0.00180   0.00325   0.00004   0.04354
 108        3PZ        -0.00005  -0.00074   0.00573   0.00000   0.06107
 109        4S          0.00060   0.00413  -0.08496  -0.01986  -0.01403
 110        4PX         0.00064  -0.00049   0.00783   0.00136   0.00922
 111        4PY         0.00001  -0.00086  -0.01363  -0.00173  -0.01768
 112        4PZ         0.00036   0.00159  -0.01961  -0.00548  -0.02445
 113 20  Cl 1S         -0.00004   0.02076   0.07169  -0.29667  -0.00009
 114        2S          0.00008  -0.06657  -0.23017   0.95323   0.00035
 115        2PX         0.00004   0.00027   0.00096  -0.00404   0.00623
 116        2PY        -0.00008  -0.00000  -0.00065   0.00297  -0.00188
 117        2PZ         0.00001   0.00035   0.00134  -0.00642   0.01947
 118        3S          0.00112  -0.01118  -0.03592   0.14132  -0.00136
 119        3PX        -0.00030   0.00035   0.00092  -0.00318   0.00055
 120        3PY         0.00054  -0.00154  -0.00101   0.00200   0.00012
 121        3PZ        -0.00008   0.00110   0.00274  -0.00510   0.00223
 122        4S         -0.00197   0.00670   0.02075  -0.08401   0.00301
 123        4PX         0.00117  -0.00178  -0.00339   0.01089  -0.00044
 124        4PY        -0.00137  -0.00057   0.00387  -0.00887   0.00007
 125        4PZ         0.00039  -0.00216  -0.00432   0.02032  -0.00250
 126 21  Cl 1S         -0.00008  -0.30414  -0.01755  -0.02560  -0.00103
 127        2S          0.00013   0.97668   0.05645   0.08238   0.00365
 128        2PX         0.00020  -0.00480  -0.00028  -0.00039   0.03710
 129        2PY        -0.00014  -0.00703  -0.00053  -0.00083   0.33111
 130        2PZ        -0.00004   0.00016  -0.00015   0.00013  -0.04697
 131        3S         -0.00005   0.15804   0.00920   0.01200  -0.00413
 132        3PX        -0.00095  -0.00681  -0.00039  -0.00061   0.00338
 133        3PY         0.00089  -0.00575   0.00050   0.00118   0.02935
 134        3PZ         0.00014   0.00100   0.00116  -0.00070  -0.00361
 135        4S         -0.00035  -0.11418  -0.00973  -0.01262   0.00823
 136        4PX        -0.00048   0.02609   0.00176   0.00171  -0.00224
 137        4PY        -0.00232   0.02293   0.00342   0.00315  -0.01382
 138        4PZ         0.00186  -0.00348  -0.00039  -0.00058   0.00107
                          16        17        18        19        20
                           O         O         O         O         O
     Eigenvalues --    -7.93705  -7.93611  -7.93588  -7.93368  -7.93349
   1 1   C  1S         -0.00001   0.00002  -0.00001  -0.00002  -0.00001
   2        2S         -0.00011   0.00012  -0.00010  -0.00018   0.00012
   3        2PX         0.00021  -0.00029   0.00006   0.00010   0.00031
   4        2PY        -0.00018   0.00019   0.00008  -0.00007   0.00010
   5        2PZ         0.00001   0.00005  -0.00001   0.00003  -0.00024
   6        3S         -0.00086   0.00100  -0.00030   0.00027   0.00107
   7        3PX        -0.00269   0.00187   0.00059  -0.00048  -0.00071
   8        3PY        -0.00210   0.00004  -0.00215  -0.00056  -0.00112
   9        3PZ        -0.00043  -0.00004   0.00051  -0.00067  -0.00001
  10 2   C  1S         -0.00000   0.00003  -0.00002  -0.00001   0.00000
  11        2S         -0.00002   0.00018  -0.00012  -0.00006   0.00001
  12        2PX        -0.00006   0.00015  -0.00000  -0.00007  -0.00001
  13        2PY        -0.00006   0.00002  -0.00002  -0.00000  -0.00006
  14        2PZ        -0.00000   0.00000   0.00002   0.00000   0.00005
  15        3S         -0.00083  -0.00154   0.00120   0.00013  -0.00024
  16        3PX        -0.00069   0.00042   0.00063  -0.00002  -0.00051
  17        3PY         0.00141  -0.00201   0.00117   0.00057   0.00094
  18        3PZ        -0.00001   0.00009  -0.00016   0.00013  -0.00019
  19 3   C  1S          0.00001  -0.00004   0.00001   0.00000   0.00000
  20        2S         -0.00004  -0.00015   0.00003  -0.00002   0.00002
  21        2PX        -0.00013   0.00008  -0.00006  -0.00006  -0.00001
  22        2PY        -0.00006   0.00026  -0.00001  -0.00006   0.00000
  23        2PZ        -0.00001  -0.00000  -0.00001   0.00000  -0.00000
  24        3S         -0.00180   0.00353  -0.00159  -0.00094  -0.00030
  25        3PX        -0.00029   0.00264  -0.00078  -0.00050  -0.00004
  26        3PY         0.00025  -0.00164   0.00008   0.00024   0.00064
  27        3PZ        -0.00001   0.00029   0.00007  -0.00010  -0.00001
  28 4   C  1S         -0.00002   0.00015  -0.00003  -0.00003  -0.00000
  29        2S         -0.00009   0.00088  -0.00021  -0.00021  -0.00005
  30        2PX         0.00006  -0.00012  -0.00001   0.00002  -0.00003
  31        2PY         0.00009  -0.00021   0.00006   0.00007  -0.00002
  32        2PZ         0.00002   0.00005   0.00003  -0.00004  -0.00002
  33        3S          0.00184  -0.01054   0.00142   0.00251   0.00027
  34        3PX         0.00074  -0.00615   0.00043   0.00137   0.00057
  35        3PY        -0.00227   0.00453  -0.00152  -0.00151   0.00039
  36        3PZ         0.00002  -0.00074  -0.00027   0.00016   0.00028
  37 5   C  1S         -0.00007   0.00000   0.00002  -0.00004  -0.00001
  38        2S         -0.00024   0.00008  -0.00002  -0.00029  -0.00024
  39        2PX         0.00013   0.00115  -0.00012  -0.00024  -0.00019
  40        2PY        -0.00012   0.00015   0.00003  -0.00008   0.00010
  41        2PZ        -0.00006  -0.00004  -0.00013   0.00000   0.00006
  42        3S          0.00354   0.00260  -0.00234   0.00132  -0.00042
  43        3PX         0.00467  -0.01371   0.00033   0.00419   0.00038
  44        3PY         0.00374  -0.00171   0.00223   0.00152  -0.00102
  45        3PZ         0.00033  -0.00074   0.00079   0.00069  -0.00064
  46 6   N  1S         -0.00001  -0.00009  -0.00005  -0.00000  -0.00005
  47        2S          0.00009  -0.00056  -0.00010  -0.00001  -0.00026
  48        2PX         0.00061  -0.00018   0.00058   0.00012   0.00004
  49        2PY         0.00018   0.00017  -0.00022  -0.00001  -0.00011
  50        2PZ        -0.00011  -0.00002   0.00026   0.00002  -0.00029
  51        3S          0.00113   0.00392   0.00254   0.00001   0.00214
  52        3PX        -0.00336   0.00308  -0.00242  -0.00092   0.00072
  53        3PY        -0.00156   0.00157   0.00117  -0.00069   0.00010
  54        3PZ         0.00005  -0.00000  -0.00065  -0.00020   0.00066
  55 7   H  1S          0.00005   0.00018  -0.00002  -0.00003   0.00000
  56        2S          0.00009   0.00060  -0.00011  -0.00006  -0.00002
  57 8   H  1S          0.00012  -0.00007   0.00007   0.00001   0.00007
  58        2S          0.00043  -0.00045   0.00049   0.00027   0.00026
  59 9   H  1S          0.00012  -0.00008   0.00010   0.00005  -0.00002
  60        2S          0.00109  -0.00208   0.00049   0.00072  -0.00014
  61 10  C  1S         -0.00001   0.00002  -0.00002  -0.00004   0.00002
  62        2S         -0.00001   0.00014  -0.00021  -0.00019   0.00032
  63        2PX         0.00001  -0.00003  -0.00006   0.00017   0.00031
  64        2PY         0.00024  -0.00009   0.00007   0.00027   0.00033
  65        2PZ        -0.00016   0.00003   0.00019  -0.00065  -0.00048
  66        3S          0.00129  -0.00116   0.00068   0.00288   0.00013
  67        3PX         0.00148  -0.00003   0.00165   0.00087  -0.00048
  68        3PY        -0.00067  -0.00025  -0.00079  -0.00100  -0.00144
  69        3PZ         0.00092  -0.00008  -0.00079   0.00292   0.00192
  70 11  H  1S         -0.00012   0.00005   0.00000  -0.00042  -0.00015
  71        2S         -0.00046   0.00015   0.00046  -0.00167  -0.00152
  72 12  H  1S         -0.00001   0.00005  -0.00011   0.00038   0.00047
  73        2S          0.00036   0.00002  -0.00051   0.00030  -0.00032
  74 13  H  1S          0.00029  -0.00007   0.00039   0.00078   0.00037
  75        2S         -0.00351   0.00058  -0.00289  -0.00474  -0.00087
  76 14  C  1S          0.00015  -0.00019  -0.00005   0.00010  -0.00006
  77        2S          0.00124  -0.00277  -0.00038   0.00091  -0.00057
  78        2PX         0.00022  -0.00192  -0.00007   0.00038  -0.00018
  79        2PY        -0.00078   0.00112   0.00014  -0.00048   0.00033
  80        2PZ        -0.00015   0.00028   0.00001   0.00040  -0.00002
  81        3S         -0.00619   0.00798   0.00089  -0.00198   0.00121
  82        3PX         0.00048   0.00162   0.00175   0.00090   0.00039
  83        3PY         0.00748  -0.00710  -0.00085   0.00361  -0.00179
  84        3PZ         0.00113   0.00023  -0.00068  -0.00408   0.00044
  85 15  H  1S          0.00047  -0.00173  -0.00002   0.00060  -0.00035
  86        2S         -0.00049  -0.00351   0.00046   0.00586  -0.00070
  87 16  H  1S         -0.00072  -0.00010  -0.00007   0.00099  -0.00029
  88        2S          0.00485  -0.00866  -0.00131  -0.00736   0.00065
  89 17  H  1S         -0.00044   0.00015   0.00009  -0.00015   0.00009
  90        2S         -0.00251   0.00330   0.00063  -0.00114   0.00079
  91 18  B  1S          0.00070  -0.00025   0.00099  -0.00030  -0.00009
  92        2S         -0.00111  -0.00066  -0.00024  -0.00074  -0.00007
  93        2PX         0.00091  -0.00054   0.00038  -0.00023  -0.00104
  94        2PY         0.00081  -0.00016  -0.00003   0.00001   0.00051
  95        2PZ        -0.00066  -0.00004   0.00098  -0.00035  -0.00042
  96        3S         -0.00818  -0.00287  -0.00744   0.00108   0.00046
  97        3PX        -0.00513   0.00709  -0.00225   0.00079   0.00679
  98        3PY        -0.00688  -0.00348   0.00180   0.00043  -0.00203
  99        3PZ         0.00541  -0.00014  -0.00764   0.00303   0.00301
 100 19  Cl 1S         -0.00106  -0.00001  -0.00008  -0.00014  -0.00028
 101        2S          0.00364   0.00003   0.00020   0.00045   0.00096
 102        2PX         0.09996  -0.00892   0.02090   0.27019   0.88366
 103        2PY        -0.17133  -0.01037  -0.02221   0.48943  -0.07406
 104        2PZ        -0.26988  -0.00247  -0.02913  -0.25922   0.37488
 105        3S         -0.00096   0.00027   0.00207   0.00068  -0.00038
 106        3PX         0.00858  -0.00084   0.00184   0.02251   0.07231
 107        3PY        -0.01380  -0.00101  -0.00158   0.04106  -0.00615
 108        3PZ        -0.02287  -0.00010  -0.00172  -0.02138   0.03051
 109        4S          0.00299  -0.00169  -0.00419  -0.00033   0.00019
 110        4PX        -0.00294  -0.00029  -0.00039  -0.00812  -0.02365
 111        4PY         0.00439   0.00038  -0.00084  -0.01495   0.00233
 112        4PZ         0.00835  -0.00123  -0.00157   0.00705  -0.01009
 113 20  Cl 1S          0.00029  -0.00021  -0.00315   0.00002   0.00001
 114        2S         -0.00110   0.00074   0.01093  -0.00004   0.00001
 115        2PX        -0.02050   0.01379   0.40351  -0.01296  -0.02098
 116        2PY         0.03819  -0.03640  -0.37223  -0.03323   0.04622
 117        2PZ        -0.05153   0.04806   0.79830  -0.02353   0.02369
 118        3S          0.00359  -0.00084  -0.00652  -0.00046  -0.00036
 119        3PX        -0.00188   0.00105   0.03459  -0.00108  -0.00177
 120        3PY         0.00424  -0.00359  -0.03161  -0.00334   0.00420
 121        3PZ        -0.00519   0.00420   0.06806  -0.00193   0.00250
 122        4S         -0.00665  -0.00008   0.01353  -0.00065  -0.00209
 123        4PX         0.00213  -0.00071  -0.01391   0.00074   0.00068
 124        4PY        -0.00372   0.00235   0.01236   0.00201  -0.00290
 125        4PZ         0.00444  -0.00067  -0.02663   0.00122  -0.00053
 126 21  Cl 1S         -0.00265  -0.00180  -0.00000  -0.00021   0.00002
 127        2S          0.00916   0.00633  -0.00007   0.00072  -0.00003
 128        2PX         0.09554   0.96472  -0.05412  -0.03694   0.01680
 129        2PY         0.89023  -0.08704   0.06198   0.12919  -0.02815
 130        2PZ        -0.16864   0.07281  -0.00105   0.74067  -0.13396
 131        3S         -0.00553  -0.00547   0.00224  -0.00120  -0.00025
 132        3PX         0.00855   0.08208  -0.00460  -0.00340   0.00132
 133        3PY         0.07677  -0.00734   0.00453   0.01141  -0.00226
 134        3PZ        -0.01466   0.00592   0.00048   0.06221  -0.01099
 135        4S          0.01223   0.00938  -0.00340   0.00318   0.00005
 136        4PX        -0.00381  -0.03204   0.00220   0.00016  -0.00087
 137        4PY        -0.03186   0.00361   0.00018  -0.00476   0.00066
 138        4PZ         0.00631  -0.00251  -0.00112  -0.02317   0.00288
                          21        22        23        24        25
                           O         O         O         O         O
     Eigenvalues --    -7.93345  -7.93228  -7.93219  -7.74569  -1.36121
   1 1   C  1S         -0.00000  -0.00001  -0.00003   0.00004  -0.09657
   2        2S          0.00004  -0.00021  -0.00013  -0.00064   0.11018
   3        2PX         0.00008   0.00002   0.00011  -0.00193   0.03851
   4        2PY         0.00014   0.00003   0.00009  -0.00046   0.08623
   5        2PZ        -0.00005   0.00005   0.00008   0.00004   0.00217
   6        3S          0.00042  -0.00017   0.00119  -0.00620   0.08419
   7        3PX        -0.00026  -0.00113   0.00021   0.01092  -0.01081
   8        3PY        -0.00118  -0.00128  -0.00085   0.00143  -0.09238
   9        3PZ        -0.00080   0.00054   0.00036   0.00008   0.00074
  10 2   C  1S          0.00001   0.00000  -0.00000  -0.00016  -0.03578
  11        2S          0.00004  -0.00001  -0.00001  -0.00101   0.03379
  12        2PX        -0.00001  -0.00008   0.00001   0.00006   0.02833
  13        2PY         0.00001   0.00006  -0.00002  -0.00002   0.01373
  14        2PZ         0.00000  -0.00001  -0.00001  -0.00006   0.00208
  15        3S         -0.00079  -0.00068   0.00032   0.01100   0.10197
  16        3PX         0.00001   0.00008  -0.00018   0.00588   0.02577
  17        3PY        -0.00013   0.00004   0.00067   0.00065   0.08462
  18        3PZ         0.00019  -0.00016  -0.00010   0.00085   0.00099
  19 3   C  1S         -0.00001  -0.00001   0.00000   0.00002  -0.02443
  20        2S         -0.00006  -0.00006   0.00001   0.00009   0.03358
  21        2PX         0.00000  -0.00003  -0.00001   0.00016   0.02122
  22        2PY         0.00007  -0.00001  -0.00002   0.00004  -0.00246
  23        2PZ        -0.00001  -0.00000  -0.00001   0.00003   0.00166
  24        3S          0.00082   0.00003  -0.00045  -0.00064  -0.06771
  25        3PX         0.00065   0.00003  -0.00024  -0.00326  -0.04414
  26        3PY        -0.00028  -0.00017   0.00049   0.00106   0.00283
  27        3PZ         0.00002   0.00008   0.00004  -0.00051  -0.00326
  28 4   C  1S          0.00003  -0.00001  -0.00002  -0.00013  -0.03652
  29        2S          0.00019  -0.00005  -0.00014  -0.00078   0.03491
  30        2PX        -0.00001   0.00005  -0.00001  -0.00005   0.02564
  31        2PY        -0.00004   0.00003   0.00000  -0.00026  -0.02046
  32        2PZ         0.00001   0.00002   0.00002  -0.00007   0.00204
  33        3S         -0.00223   0.00098   0.00117   0.00993   0.09993
  34        3PX        -0.00120   0.00041   0.00091   0.00601  -0.00236
  35        3PY         0.00111  -0.00043  -0.00014  -0.00002  -0.09116
  36        3PZ        -0.00002  -0.00012  -0.00005   0.00095   0.00046
  37 5   C  1S          0.00001  -0.00001  -0.00001  -0.00006  -0.09841
  38        2S          0.00011  -0.00001  -0.00024  -0.00106   0.11109
  39        2PX         0.00025  -0.00001  -0.00027  -0.00143   0.01841
  40        2PY         0.00004   0.00003   0.00012   0.00047  -0.09241
  41        2PZ        -0.00003  -0.00002  -0.00002   0.00009   0.00159
  42        3S          0.00021   0.00070  -0.00111  -0.00178   0.08208
  43        3PX        -0.00291   0.00174   0.00113   0.01130   0.00138
  44        3PY        -0.00085   0.00014  -0.00041  -0.00498   0.09932
  45        3PZ        -0.00068   0.00048   0.00029  -0.00009  -0.00099
  46 6   N  1S         -0.00001  -0.00001  -0.00006  -0.00023  -0.18897
  47        2S         -0.00007  -0.00007  -0.00025  -0.00057   0.15806
  48        2PX         0.00001   0.00015   0.00015   0.00102  -0.08278
  49        2PY         0.00005   0.00008  -0.00017   0.00041   0.01164
  50        2PZ        -0.00033   0.00026   0.00031  -0.00015  -0.00944
  51        3S          0.00093   0.00056   0.00207   0.00200   0.66445
  52        3PX         0.00016  -0.00091   0.00037   0.00243  -0.13066
  53        3PY        -0.00016  -0.00118   0.00066  -0.00258   0.02400
  54        3PZ         0.00149  -0.00110  -0.00085   0.00029  -0.01715
  55 7   H  1S          0.00004  -0.00000  -0.00001  -0.00044   0.00562
  56        2S          0.00016   0.00005  -0.00005  -0.00094  -0.01170
  57 8   H  1S         -0.00001  -0.00003   0.00003  -0.00013   0.01300
  58        2S          0.00015   0.00027   0.00019   0.00051   0.02530
  59 9   H  1S         -0.00004   0.00000  -0.00000  -0.00031   0.01345
  60        2S         -0.00045   0.00019   0.00003  -0.00003   0.02434
  61 10  C  1S         -0.00005  -0.00013   0.00000   0.00005  -0.01774
  62        2S         -0.00034  -0.00103   0.00006  -0.00001   0.01893
  63        2PX         0.00008  -0.00029   0.00012   0.00002  -0.00415
  64        2PY         0.00024   0.00022   0.00017  -0.00083   0.01678
  65        2PZ        -0.00062   0.00052   0.00030   0.00009  -0.00047
  66        3S          0.00337   0.00597   0.00030  -0.00449   0.00395
  67        3PX         0.00181   0.00410   0.00038  -0.00396   0.02647
  68        3PY        -0.00104  -0.00052  -0.00097   0.00143  -0.00797
  69        3PZ         0.00297  -0.00210  -0.00119  -0.00059   0.00186
  70 11  H  1S         -0.00042  -0.00001   0.00015   0.00018   0.00736
  71        2S         -0.00159   0.00087   0.00017   0.00041  -0.00187
  72 12  H  1S          0.00033  -0.00049  -0.00009   0.00016   0.00733
  73        2S          0.00046  -0.00126  -0.00093   0.00000  -0.00199
  74 13  H  1S          0.00097   0.00127   0.00040  -0.00048   0.00746
  75        2S         -0.00625  -0.00927  -0.00150   0.00855  -0.01352
  76 14  C  1S         -0.00006   0.00009  -0.00005  -0.00004  -0.02051
  77        2S         -0.00059   0.00079  -0.00049  -0.00057   0.02044
  78        2PX        -0.00030   0.00021  -0.00010  -0.00028  -0.00685
  79        2PY         0.00018  -0.00018   0.00029   0.00106  -0.01531
  80        2PZ        -0.00029   0.00008  -0.00009  -0.00003  -0.00135
  81        3S          0.00141  -0.00310   0.00100  -0.00359   0.00777
  82        3PX        -0.00041  -0.00120   0.00056   0.00045   0.03713
  83        3PY        -0.00148   0.00184  -0.00158  -0.00277  -0.01156
  84        3PZ         0.00256  -0.00025   0.00069   0.00044   0.00287
  85 15  H  1S         -0.00053   0.00009   0.00007  -0.00102   0.00715
  86        2S         -0.00369   0.00104  -0.00104   0.00326  -0.00839
  87 16  H  1S         -0.00066   0.00024  -0.00026  -0.00098   0.00983
  88        2S          0.00378   0.00115   0.00087   0.00445  -0.00466
  89 17  H  1S          0.00003  -0.00002   0.00009   0.00046   0.00903
  90        2S          0.00036  -0.00077   0.00078   0.00188   0.01082
  91 18  B  1S         -0.00057  -0.00053   0.00002   0.99031  -0.01576
  92        2S         -0.00103  -0.00110   0.00008   0.10221   0.02122
  93        2PX         0.00002  -0.00017  -0.00113  -0.00140  -0.02202
  94        2PY        -0.00017  -0.00038   0.00059   0.00003   0.00298
  95        2PZ         0.00095  -0.00046   0.00060   0.00018   0.00050
  96        3S          0.00116   0.00114   0.00033  -0.09183   0.03319
  97        3PX         0.00036   0.00045   0.00667  -0.00601   0.00151
  98        3PY         0.00134   0.00247  -0.00269   0.00392  -0.00604
  99        3PZ        -0.00588   0.00273  -0.00427  -0.00090   0.00820
 100 19  Cl 1S         -0.00012   0.00001  -0.00001  -0.00013   0.00151
 101        2S          0.00047  -0.00006   0.00009   0.00058  -0.00871
 102        2PX         0.12791  -0.03229   0.02475  -0.00024   0.00133
 103        2PY         0.64420  -0.00204  -0.03027   0.00142  -0.00108
 104        2PZ        -0.39448  -0.01166   0.03612   0.00102  -0.00168
 105        3S         -0.00136   0.00022  -0.00050  -0.00591   0.01038
 106        3PX         0.01058  -0.00228   0.00186  -0.00007  -0.00213
 107        3PY         0.05219  -0.00008  -0.00225  -0.00077   0.00213
 108        3PZ        -0.03253  -0.00065   0.00229  -0.00014   0.00325
 109        4S          0.00008   0.00087  -0.00211   0.02473   0.00561
 110        4PX        -0.00305  -0.00053  -0.00046  -0.00234  -0.00374
 111        4PY        -0.01634   0.00006  -0.00087   0.00752   0.00021
 112        4PZ         0.01031  -0.00015  -0.00066   0.00956  -0.00092
 113 20  Cl 1S         -0.00002  -0.00014  -0.00025  -0.00014   0.00139
 114        2S          0.00003   0.00051   0.00086   0.00064  -0.00799
 115        2PX         0.05108   0.30077   0.83156  -0.00057   0.00135
 116        2PY         0.02512   0.88556  -0.13874   0.00115  -0.00075
 117        2PZ        -0.00214   0.26236  -0.48500  -0.00131   0.00150
 118        3S          0.00075  -0.00049  -0.00028  -0.00653   0.01075
 119        3PX         0.00458   0.02486   0.06799   0.00013  -0.00199
 120        3PY         0.00246   0.07265  -0.01130  -0.00070   0.00159
 121        3PZ        -0.00064   0.02164  -0.03945   0.00039  -0.00284
 122        4S          0.00077  -0.00024   0.00025   0.02640  -0.00277
 123        4PX        -0.00303  -0.00797  -0.02222  -0.00472  -0.00160
 124        4PY        -0.00118  -0.02390   0.00381   0.00570  -0.00213
 125        4PZ         0.00082  -0.00684   0.01279  -0.01096   0.00361
 126 21  Cl 1S          0.00013  -0.00005  -0.00002  -0.00006   0.00340
 127        2S         -0.00035   0.00024   0.00007   0.00028  -0.01961
 128        2PX         0.04023   0.01053   0.00601   0.00019   0.00431
 129        2PY        -0.12521  -0.00541   0.00180  -0.00138   0.00181
 130        2PZ        -0.58436   0.06405   0.01649   0.00009  -0.00059
 131        3S         -0.00164  -0.00183  -0.00000  -0.00272   0.02589
 132        3PX         0.00344   0.00057   0.00035  -0.00073  -0.00799
 133        3PY        -0.00983   0.00028   0.00016   0.00016  -0.00334
 134        3PZ        -0.04805   0.00443   0.00110   0.00010   0.00140
 135        4S          0.00061   0.00183  -0.00041   0.01631   0.00984
 136        4PX        -0.00041   0.00032  -0.00031   0.00114  -0.00059
 137        4PY         0.00219  -0.00142   0.00019  -0.00982  -0.00286
 138        4PZ         0.01591   0.00025   0.00086   0.00109  -0.00372
                          26        27        28        29        30
                           O         O         O         O         O
     Eigenvalues --    -1.17722  -1.14321  -1.11920  -1.09282  -1.06414
   1 1   C  1S          0.04586   0.00958  -0.09479   0.07323  -0.00218
   2        2S         -0.05067  -0.00792   0.10564  -0.08186   0.00259
   3        2PX         0.00943  -0.09329  -0.01404   0.00601  -0.00174
   4        2PY        -0.01353  -0.02407  -0.02165   0.01409   0.00104
   5        2PZ         0.00016  -0.00665  -0.00116  -0.00037   0.00190
   6        3S         -0.07628  -0.01603   0.19432  -0.15410   0.00396
   7        3PX         0.01144   0.00389  -0.05414   0.03190  -0.00118
   8        3PY        -0.00050   0.00707  -0.01442   0.00862  -0.00006
   9        3PZ         0.00152  -0.00016  -0.00458   0.00274   0.00198
  10 2   C  1S          0.04067  -0.09936  -0.07765   0.04288  -0.00278
  11        2S         -0.04350   0.10918   0.08479  -0.04621   0.00290
  12        2PX        -0.01564  -0.01565   0.03482  -0.03447   0.00091
  13        2PY        -0.01444   0.07268   0.00452   0.01459   0.00028
  14        2PZ        -0.00105  -0.00177   0.00250  -0.00271   0.00045
  15        3S         -0.08741   0.21056   0.15320  -0.09318   0.00671
  16        3PX        -0.00261   0.01483  -0.01752   0.00915   0.00048
  17        3PY        -0.01747   0.00359   0.02712  -0.01641   0.00069
  18        3PZ        -0.00043   0.00133  -0.00144   0.00037  -0.00030
  19 3   C  1S          0.03050  -0.14664  -0.02592  -0.01491  -0.00048
  20        2S         -0.03433   0.16315   0.02906   0.01580   0.00051
  21        2PX        -0.01534   0.06834   0.00422   0.01000  -0.00017
  22        2PY         0.01266  -0.00101  -0.04714   0.04008  -0.00240
  23        2PZ        -0.00131   0.00524   0.00064   0.00048   0.00007
  24        3S         -0.05170   0.31950   0.05501   0.03501   0.00115
[...]
 4847,0.00032844,0.00217783,-0.00003948,0.00015706,0.00053985,-0.054201
 76,0.51824076,-0.01113856,-0.02216282,-0.09927191,-0.00353711,-0.00551
 902,0.01395613,-0.00068930,-0.00027926,0.00707671,0.00105195,0.0016423
 2,-0.00032241,0.00147705,-0.00055040,0.00696564,-0.00423091,0.00361459
 ,0.00482595,0.00011126,-0.00006668,-0.00135287,0.00135806,-0.00074648,
 -0.00389646,0.00013758,-0.00025472,-0.00100959,-0.00386671,-0.03059770
 ,0.63406200,0.01020868,-0.01390856,-0.01259195,-0.00249543,-0.00415793
 ,-0.00161579,0.00076807,0.00201080,-0.00058083,0.00157704,-0.00099033,
 0.00011222,-0.00119477,-0.00147127,0.00060892,-0.00090886,-0.00064347,
 -0.00049455,0.00002933,0.00012035,-0.00009054,-0.00051107,-0.00091845,
 0.00002022,0.00000755,0.00002894,0.00013447,-0.17400829,0.09679585,0.1
 0356635,0.19145043,0.02269302,-0.02667722,-0.02146553,0.00108099,0.000
 21190,0.00100642,0.00016808,0.00024927,0.00084315,0.00005774,0.0001210
 4,-0.00019188,0.00125783,-0.00061982,0.00048300,-0.00409748,-0.0044207
 8,-0.00144396,0.00000269,0.00003940,-0.00016672,-0.00079546,0.00080271
 ,-0.00077176,-0.00005371,0.00001396,-0.00012487,0.09026512,-0.13140712
 ,-0.08445179,-0.09811115,0.15062488,0.00566335,-0.00193546,-0.00425206
 ,-0.00002762,-0.00013736,0.00131470,-0.00010715,0.00045472,0.00020560,
 0.00002383,-0.00019818,-0.00008191,0.00012628,0.00003661,0.00014047,-0
 .00052373,0.00014771,-0.00010902,-0.00000184,-0.00000691,-0.00004618,-
 0.00095510,-0.00000418,-0.00007046,-0.00004109,0.00004868,-0.00002027,
 0.09972452,-0.08717054,-0.15345022,-0.11518673,0.09727843,0.16135275,-
 0.00504757,-0.01029434,0.01435309,-0.00055802,-0.00192838,-0.00192268,
 -0.00000531,0.00121274,-0.00113652,0.00087961,-0.00060945,0.00011041,-
 0.00115615,-0.00078589,-0.00045918,-0.00040681,0.00123571,0.00083287,-
 0.00005294,-0.00002697,0.00025765,-0.00044222,0.00013992,0.00076668,-0
 .00001858,0.00003184,0.00009141,-0.05873493,-0.02730540,0.04189432,-0.
 00403628,-0.01276451,0.02091284,0.06645778,-0.00733824,-0.02032454,0.0
 3103896,0.00135802,0.00014042,-0.00181878,-0.00017755,-0.00044354,-0.0
 0120041,-0.00020866,-0.00022375,0.00010523,-0.00024134,-0.00050455,-0.
 00149000,-0.00018471,-0.00255507,-0.00114592,-0.00009852,-0.00008675,0
 .00024636,-0.00023642,0.00015480,0.00051563,-0.00001679,0.00002510,0.0
 0017641,-0.02629697,-0.12982582,0.12617565,0.00328764,0.01266950,-0.01
 896887,0.03015534,0.14316714,-0.00081042,-0.00418266,0.01356254,-0.001
 74279,-0.00089049,-0.00101335,0.00032716,0.00143054,-0.00029871,0.0008
 2385,-0.00096598,-0.00002431,-0.00118466,-0.00052260,-0.00079793,0.000
 95046,-0.00051971,-0.00086866,-0.00003080,0.00002820,0.00021540,0.0000
 3420,0.00017710,-0.00017288,0.00000544,0.00001649,0.00009306,0.0383588
 3,0.12748771,-0.27416280,0.00229287,0.00984715,-0.01740022,-0.04816733
 ,-0.13702842,0.29862420,-0.01440546,0.00141259,-0.00564865,-0.00014559
 ,-0.00215351,-0.00067951,-0.00053680,0.00003960,-0.00008776,0.00020954
 ,0.00018300,0.00000284,-0.00024243,-0.00038862,0.00022405,0.00068096,0
 .00153703,0.00089254,-0.00005706,-0.00015238,0.00004110,0.00030417,-0.
 00019562,-0.00003885,0.00003183,-0.00004475,-0.00002282,-0.28561231,0.
 02951905,-0.13093807,-0.01860412,0.00222361,-0.01084141,0.00654982,-0.
 00023294,0.00462553,0.31387695,-0.03639909,0.00252478,-0.02034267,-0.0
 0219953,-0.00684777,0.00050876,-0.00157821,0.00173790,0.00086710,0.001
 47819,-0.00064932,-0.00006580,-0.00194596,-0.00055548,0.00070317,0.002
 38128,0.00400124,0.00082219,-0.00018473,-0.00037449,-0.00016767,-0.000
 19847,0.00006071,-0.00044938,0.00004999,-0.00003288,-0.00002598,0.0371
 1462,-0.06519211,0.01729737,0.01753147,-0.00237892,0.01121080,0.018008
 73,-0.00148891,0.00860420,-0.03521852,0.07260218,-0.00308237,0.0014003
 0,-0.00456393,-0.00105217,-0.00139928,0.00049032,-0.00000298,0.0016478
 2,0.00031582,0.00113248,-0.00074082,0.00001653,-0.00126041,-0.00072458
 ,0.00022285,0.00092576,0.00154749,0.00006786,0.00000859,-0.00000399,-0
 .00011874,-0.00009107,0.00025856,-0.00014066,0.00001405,0.00001230,0.0
 0004235,-0.12836206,0.01295365,-0.12646337,0.02208353,-0.00170193,0.01
 306678,-0.02902864,0.00334366,-0.01556937,0.13861219,-0.01483971,0.134
 18891,-0.00697513,-0.00255803,-0.00056579,0.00224388,0.00155965,0.0001
 9661,-0.00589115,-0.00363440,0.00056511,-0.02291828,0.03998327,-0.0073
 0470,-0.12862197,0.03886680,-0.00748172,0.01650926,-0.02365944,0.00058
 232,-0.00059473,0.00109185,-0.00007757,0.00010876,0.00006211,0.0000920
 3,0.00086549,0.00188897,-0.00119932,0.00149508,-0.00029579,-0.00077232
 ,-0.00020834,-0.00050460,-0.00010243,0.00002588,0.00005184,0.00006495,
 0.00000335,0.00003794,0.00004542,0.66335674,-0.00041975,-0.00073409,0.
 00312437,-0.00145756,-0.00253351,0.00010298,-0.00384661,0.00387525,0.0
 0293135,0.00993000,-0.00321442,0.00972915,0.03931278,-0.15737161,0.007
 66589,0.01081505,-0.02267537,0.00606834,-0.00035772,0.00062811,-0.0008
 9873,0.00004726,0.00013649,-0.00061116,-0.00124680,0.00023317,-0.00246
 635,0.00027916,-0.00013865,-0.00022966,-0.00004729,-0.00003802,0.00002
 982,0.00000098,0.00001108,-0.00000115,-0.00001166,0.00005328,-0.000008
 12,0.05673897,0.52486810,0.00148138,0.00107157,0.00672663,0.00118493,-
 0.00147597,-0.00022558,-0.00045835,0.00046318,0.00687432,-0.00431620,0
 .00657095,0.01297616,-0.01414446,0.02567029,-0.10116954,-0.00484607,-0
 .00196496,0.00466805,0.00013344,-0.00005676,-0.00129909,0.00013030,0.0
 0018431,-0.00098643,0.00142836,0.00051157,-0.00378946,-0.00079536,0.00
 029791,0.00118288,0.00032373,0.00046322,0.00006849,-0.00003127,-0.0001
 6812,-0.00005293,0.00002358,0.00006408,-0.00004440,-0.00812676,0.03758
 154,0.62971621,-0.00029034,0.00040843,0.00021246,0.00024303,-0.0001643
 7,0.00001216,-0.00056716,-0.00009068,-0.00006509,-0.00023661,0.0022407
 9,-0.00081358,-0.01510545,-0.00215613,-0.00594445,0.00076183,-0.001541
 77,0.00101008,-0.00006410,0.00016079,0.00002752,0.00003191,0.00004450,
 -0.00002620,0.00029617,0.00019708,-0.00006038,0.00000389,0.00001222,0.
 00002415,0.00000170,0.00002212,-0.00000439,0.00001500,-0.00000409,0.00
 000776,0.00003966,-0.00001340,-0.00001624,-0.28396348,-0.04225323,-0.1
 2822808,0.31213144,0.00186662,-0.00050447,-0.00065042,-0.00138539,-0.0
 0062722,0.00010611,0.00153042,0.00160170,-0.00095009,0.00225990,-0.006
 67157,-0.00006290,0.03575626,0.00439357,0.01967435,-0.00237946,0.00375
 604,-0.00104060,0.00019109,-0.00035551,0.00018344,-0.00004770,-0.00003
 179,0.00003025,0.00019705,0.00007987,0.00043486,-0.00003611,0.00004888
 ,-0.00006951,-0.00005023,-0.00000649,0.00002706,-0.00000280,0.00000788
 ,-0.00000866,0.00001540,-0.00011026,-0.00001596,-0.04967050,-0.0691574
 9,-0.02367715,0.04885624,0.07664251,-0.00139749,0.00074575,0.00021930,
 0.00120837,0.00080490,-0.00003824,-0.00006789,-0.00172997,0.00048185,-
 0.00122812,0.00183771,0.00040475,-0.00535661,-0.00203729,-0.00573586,0
 .00111216,-0.00176611,0.00023369,-0.00000369,0.00001950,-0.00013071,0.
 00001740,-0.00000722,0.00004111,-0.00009819,-0.00027420,-0.00015210,0.
 00004773,0.00000308,-0.00004055,0.00003369,-0.00001881,-0.00001966,-0.
 00001225,0.00001414,0.00000919,-0.00001758,0.00002601,0.00005229,-0.12
 525884,-0.01927697,-0.12412905,0.13555172,0.02138758,0.13188002,-0.001
 17574,0.00073935,-0.00053760,0.00086210,0.00063680,0.00007280,0.000015
 97,-0.00127401,-0.00108181,-0.00056690,0.00178495,-0.00207695,-0.00542
 254,0.01152726,0.01426222,-0.00038699,-0.00113782,0.00088414,-0.000055
 66,0.00004426,0.00026004,-0.00001831,-0.00002660,0.00009676,-0.0004445
 3,-0.00010213,0.00078501,0.00002691,-0.00000282,-0.00003454,-0.0000214
 2,-0.00002417,-0.00000687,0.00004459,-0.00000397,0.00000048,0.00001486
 ,0.00000218,-0.00001211,-0.05991627,0.03161444,0.04267787,0.00692511,-
 0.01964351,-0.02773922,0.06778967,0.00014869,-0.00035904,0.00145172,0.
 00028237,-0.00014917,-0.00009493,0.00020875,-0.00048040,0.00118893,-0.
 00148401,0.00031485,0.00169259,0.00758856,-0.02151068,-0.02848536,0.00
 028825,-0.00246198,0.00126369,0.00009716,-0.00010013,-0.00022066,0.000
 01634,0.00001290,-0.00016928,0.00022653,0.00011221,-0.00051829,-0.0000
 4723,0.00002051,0.00016265,0.00003652,0.00005534,0.00002472,0.00000631
 ,-0.00006880,-0.00000738,0.00000473,0.00000766,-0.00001426,0.03038234,
 -0.14536971,-0.13353171,0.00071380,-0.00269803,-0.00475916,-0.03498953
 ,0.15989413,-0.00120635,0.00047062,-0.00092352,0.00078744,0.00099042,-
 0.00008023,0.00034364,-0.00141179,-0.00028471,-0.00166789,0.00077054,-
 0.00117902,-0.00139699,0.00641954,0.01512943,0.00092255,0.00064085,-0.
 00098232,-0.00003668,-0.00000863,0.00023142,0.00000468,-0.00001127,0.0
 0010492,0.00002318,-0.00019470,-0.00012768,0.00006812,-0.00000220,-0.0
 0006350,-0.00001154,-0.00003416,-0.00001790,-0.00000006,0.00001393,0.0
 0003346,0.00000730,0.00000891,0.00000952,0.03924099,-0.13491622,-0.257
 46371,0.00478003,-0.00934489,-0.01473509,-0.04898010,0.14488565,0.2805
 8591,-0.00120032,0.00149640,0.00052343,0.00155818,0.00102477,0.0000440
 7,0.00081277,-0.00203185,-0.00043465,-0.00255592,0.00399151,-0.0018558
 3,0.01037720,0.01380302,-0.01392578,-0.00100604,0.00067654,-0.00056983
 ,0.00003190,-0.00012625,-0.00008599,0.00000699,-0.00002060,0.00013354,
 -0.00054439,0.00088869,-0.00005218,-0.00021950,0.00006474,0.00032954,0
 .00013055,0.00010542,-0.00000105,-0.00002114,-0.00003880,-0.00000976,0
 .00000109,0.00005249,0.00003004,-0.17030990,-0.09093946,0.10783826,-0.
 01820386,-0.01640355,0.02311762,-0.00423784,-0.00347798,0.00273023,0.1
 8758559,-0.00125797,-0.00064509,-0.00042092,-0.00002776,0.00016454,0.0
 0017850,-0.00016209,0.00012206,-0.00084992,-0.00113547,0.00022025,-0.0
 0096970,-0.02154605,-0.02526775,0.02253332,0.00412356,-0.00422340,0.00
 169979,-0.00000307,0.00004747,0.00015887,0.00005080,0.00001925,0.00012
 508,0.00070475,0.00088144,0.00071178,0.00049355,-0.00005752,-0.0004483
 4,-0.00009862,-0.00019745,-0.00001350,0.00002215,0.00005540,0.00002924
 ,-0.00002218,-0.00000653,0.00001862,-0.08467044,-0.12411230,0.08460997
 ,-0.00322233,-0.00331634,0.00319966,0.01371293,0.01334429,-0.01175724,
 0.09149488,0.14197324,0.00020690,0.00001728,0.00016987,0.00002251,0.00
 018344,-0.00010599,-0.00008724,-0.00045245,0.00028904,0.00003944,0.000
 20910,0.00136719,0.00702281,0.00340717,-0.00583085,-0.00078649,0.00010
 518,-0.00020874,-0.00000173,0.00000080,-0.00005688,-0.00004339,-0.0000
 5203,-0.00002507,-0.00100214,-0.00007566,-0.00011609,-0.00013375,-0.00
 002385,0.00009940,0.00000507,0.00002589,-0.00000436,-0.00000781,-0.000
 02959,-0.00001821,-0.00000240,-0.00002794,-0.00001909,0.10353598,0.087
 24430,-0.16443861,-0.01044784,-0.01039249,0.01360196,0.01969528,0.0174
 2124,-0.01787323,-0.11925020,-0.09830413,0.17386536,-0.02048928,0.0235
 7287,0.00610490,0.00545162,0.00041462,0.00116780,-0.00078562,-0.000054
 95,-0.00053725,0.00542234,-0.00008915,0.00118088,-0.01936352,-0.023685
 37,0.00754926,-0.09940359,-0.00030450,-0.00049988,0.00017740,-0.000009
 62,-0.00041201,0.00122013,-0.00032832,0.00005082,0.00123862,0.00035631
 ,0.00003244,0.00087407,0.00086223,0.00103539,-0.00100181,-0.00101471,-
 0.00028254,0.00073274,-0.00105156,-0.00043461,0.00110377,-0.00055711,-
 0.00018568,0.00091761,-0.00077399,0.00110712,0.00110181,0.00060836,-0.
 00030158,0.00073250,0.00107535,-0.00050328,-0.00106094,0.00097340,-0.0
 0033762,0.21064712,0.03117116,0.00762261,-0.00295358,-0.00156485,-0.00
 681815,0.00026259,-0.00005563,0.00286348,-0.00009459,0.00173952,-0.006
 77508,0.00045181,-0.03160543,0.00687102,0.00295501,0.00015665,-0.07139
 789,0.00038721,0.00000242,-0.00015812,-0.00002239,0.00125401,-0.000000
 74,0.00017112,-0.00124341,-0.00003752,-0.00015554,0.00136206,-0.000072
 40,0.00086227,-0.00192493,0.00001189,0.00036662,0.00104427,-0.00180640
 ,-0.00001121,0.00056378,-0.00249568,-0.00374822,-0.00118965,-0.0002084
 6,-0.00101430,-0.00046403,-0.00199003,0.00393007,-0.00107585,-0.001951
 02,0.00013434,0.00189597,0.00003831,-0.00042375,-0.00017436,0.21073531
 ,0.00084710,-0.00290282,0.00528879,-0.00112257,0.00019824,0.00402955,-
 0.00057186,-0.00009403,0.00006834,-0.00122881,0.00046716,0.00401347,0.
 00278624,0.00280113,0.00491733,0.01382309,0.00053510,-0.05907400,-0.00
 003220,-0.00001843,-0.00072636,-0.00027386,0.00012908,0.00020418,-0.00
 019173,-0.00011901,0.00022251,0.00233527,0.00045878,-0.00291394,-0.000
 06566,0.00009398,-0.00078531,-0.00138828,0.00239032,0.00012874,0.00052
 430,-0.00393894,0.00091467,0.00242869,-0.00058341,-0.00281872,0.000473
 97,0.00413323,0.00041122,-0.00127250,-0.00228355,0.00027286,-0.0001847
 2,-0.00014717,-0.00075205,-0.00505312,-0.00071217,0.18934715,-0.000421
 94,-0.00189004,0.00043383,0.00059540,0.00018817,0.00010511,0.00025782,
 -0.00088417,0.00016514,-0.00133732,-0.00033208,-0.00044678,-0.00023592
 ,0.00403448,0.00095323,-0.01022928,-0.01613561,0.01262250,-0.00002257,
 -0.00000572,0.00001017,0.00002000,0.00002333,0.00009674,-0.00022914,-0
 .00004725,-0.00025478,-0.00671055,0.00692786,0.00499815,-0.00111961,-0
 .00066283,0.00164511,-0.00408476,0.00110895,0.00488215,-0.00162290,0.0
 0104857,0.00088614,0.00008073,0.00029546,0.00000079,-0.00006889,-0.000
 06867,-0.00001945,-0.00006700,-0.00009886,-0.00000843,0.00006627,-0.00
 006656,0.00001142,-0.02538758,-0.00906674,0.00623161,0.04332846,-0.001
 68987,-0.00403628,-0.00011956,0.00151727,0.00152416,-0.00007805,0.0001
 1570,-0.00217109,0.00020792,-0.00251541,0.00118565,-0.00040695,0.00257
 547,0.00245610,0.00073457,-0.00632178,-0.00598395,0.00638817,-0.000024
 44,0.00004450,0.00007600,-0.00035596,0.00007751,0.00009311,-0.00011736
 ,0.00002356,-0.00021528,0.00546311,-0.00374463,-0.00417506,0.00158496,
 0.00092005,-0.00114236,0.00213116,0.00045352,-0.00375330,0.00158465,-0
 .00105961,0.00067325,-0.00000972,0.00029355,0.00016172,0.00009057,0.00
 014744,-0.00048672,0.00046304,0.00044364,-0.00009038,-0.00040121,0.000
 03373,0.00017532,-0.01315691,-0.05397119,0.02562030,0.00926885,0.11350
 142,0.00029279,0.00187297,-0.00073880,-0.00017429,-0.00034985,0.000083
 48,-0.00005976,0.00070957,-0.00024515,0.00113268,0.00000674,0.00023515
 ,0.00005316,-0.00203475,-0.00114844,0.00531017,0.00854347,-0.00273492,
 0.00003491,-0.00001085,-0.00001631,0.00006679,-0.00003541,-0.00009811,
 0.00015925,0.00000634,0.00011354,0.00443079,-0.00449860,-0.00528384,0.
 00154745,0.00027417,-0.00008960,0.00233142,-0.00167944,-0.00240661,0.0
 0370850,-0.00154272,-0.00152611,-0.00025864,-0.00018374,0.00007422,-0.
 00013497,-0.00038812,-0.00000530,0.00004337,0.00002377,0.00000991,0.00
 010568,0.00005080,0.00000549,0.00881890,0.02353883,-0.03962825,-0.0268
 7798,-0.03916136,0.07103412,0.00103378,-0.00412736,-0.00120673,-0.0009
 9871,-0.00034376,0.00119498,0.00008592,0.00000818,-0.00006997,-0.00098
 773,0.00037533,0.00117349,0.00089955,0.00408848,-0.00148077,-0.0262852
 2,-0.00106531,-0.02278777,-0.00001912,-0.00000543,-0.00015021,-0.00019
 328,0.00008019,0.00002045,-0.00019525,-0.00008304,0.00002723,0.0002551
 2,0.00099983,-0.00079971,-0.00011995,0.00008412,-0.00002473,-0.0000813
 9,0.00008110,0.00002257,-0.00152106,0.00052744,-0.00061087,0.00026057,
 -0.00101821,-0.00073570,-0.00147637,-0.00059126,-0.00055550,-0.0000756
 1,-0.00008524,0.00003224,-0.00010718,-0.00008737,-0.00001662,-0.036258
 91,-0.00090480,-0.02420148,0.00245666,0.00083400,-0.00106836,0.0607656
 4,-0.00236469,-0.00152235,-0.00059640,0.00085458,0.00115021,0.00006259
 ,0.00001864,-0.00092913,0.00002406,-0.00094273,0.00111996,-0.00007853,
 0.00242504,-0.00117650,0.00056076,-0.00073889,0.00636029,-0.00054043,-
 0.00000108,0.00004318,-0.00000511,-0.00018137,0.00002370,0.00007333,0.
 00016288,0.00001745,-0.00007662,-0.00075204,-0.00111882,-0.00002785,0.
 00051802,-0.00000289,0.00012844,0.00019831,0.00020459,0.00020809,0.001
 44099,0.00000220,0.00086860,0.00076452,-0.00110497,0.00008172,-0.00147
 816,-0.00015446,-0.00092660,-0.00016982,0.00021411,-0.00021397,-0.0005
 2935,-0.00002944,-0.00011558,-0.00099087,-0.02386816,-0.00162026,0.004
 23301,-0.00307627,0.01637853,0.00198838,0.02884127,0.00030729,-0.00271
 372,-0.00136396,-0.00072754,0.00020303,0.00048837,0.00025739,0.0000271
 8,-0.00015223,-0.00066596,-0.00025787,0.00050749,0.00009883,0.00270999
 ,-0.00157386,-0.01255700,-0.00043569,-0.00316412,-0.00001380,-0.000003
 68,-0.00006766,-0.00021329,0.00004679,-0.00004211,-0.00022324,-0.00005
 494,-0.00003408,-0.00023538,-0.00016647,-0.00001110,-0.00017177,0.0001
 0613,0.00017833,0.00052932,-0.00044044,0.00011196,-0.00024822,0.000915
 93,-0.00088175,-0.00028805,0.00023144,-0.00002748,-0.00013478,-0.00096
 633,-0.00076401,0.00053198,0.00044444,0.00009720,-0.00013634,-0.000096
 42,0.00019261,-0.02691457,-0.00164923,-0.06655738,-0.00580544,0.010620
 33,-0.02270466,0.05190598,0.00335424,0.11666177,-0.00010248,-0.0040179
 2,0.00122686,-0.00139449,0.00025027,-0.00047287,0.00024110,0.00094262,
 0.00010980,0.00063043,-0.00019986,0.00011717,-0.00049673,0.00198607,0.
 00030469,-0.01069535,0.01682927,0.01169083,-0.00002319,0.00000503,0.00
 001141,-0.00023238,0.00002546,-0.00026146,0.00001315,-0.00001831,0.000
 10012,0.00008693,-0.00029894,0.00002342,0.00005658,0.00006789,0.000010
 75,-0.00005933,0.00008767,-0.00001590,-0.00006828,0.00006214,-0.000033
 58,-0.00646811,-0.00666182,0.00535248,-0.00157529,-0.00100214,0.000967
 72,-0.00402288,-0.00089285,0.00487093,-0.00110351,0.00072390,0.0015777
 9,-0.02586846,0.01007983,0.00613649,0.00473212,-0.00103613,0.00053814,
 0.00256254,-0.00445536,-0.00529540,0.04378765,-0.00262051,0.00239015,-
 0.00094220,0.00252982,0.00126497,0.00033353,-0.00006907,-0.00220508,-0
 .00007943,-0.00154420,0.00151077,-0.00001237,0.00177964,-0.00405853,0.
 00034213,0.00656466,-0.00644540,-0.00588516,0.00002525,0.00004081,-0.0
 0007934,0.00012199,0.00004032,0.00021474,0.00035823,0.00008008,-0.0001
 0228,-0.00001118,0.00028808,-0.00017557,0.00040769,0.00002880,-0.00017
 625,-0.00046972,0.00043869,0.00006282,-0.00010424,0.00020199,0.0004726
 0,-0.00523567,-0.00344042,0.00415693,-0.00135834,-0.00105422,-0.000685
 36,-0.00207499,0.00072931,0.00365064,-0.00152539,0.00095582,0.00110775
 ,0.01432826,-0.05659178,-0.02440752,0.00212987,-0.04706183,-0.00152034
 ,-0.00075526,-0.00499397,-0.01187472,-0.01247685,0.11788143,0.00018078
 ,0.00180543,-0.00121617,0.00097125,-0.00004940,0.00021294,-0.00004057,
 -0.00058428,-0.00019458,-0.00008247,0.00025475,0.00006200,0.00021805,-
 0.00165178,-0.00064033,0.00506553,-0.00818322,-0.00180496,0.00003311,0
 .00000794,-0.00001192,0.00015162,0.00000159,0.00009981,0.00004329,0.00
 002535,-0.00009377,-0.00026213,0.00016458,0.00007385,0.00008084,-0.000
 05013,0.00002004,0.00007404,-0.00005028,0.00000742,-0.00013667,0.00037
 228,-0.00006049,0.00468404,0.00446632,-0.00584195,0.00377615,0.0015902
 0,-0.00158484,0.00243175,0.00152517,-0.00274372,0.00165393,-0.00030830
 ,-0.00014177,0.00841462,-0.02227492,-0.03656280,0.00037077,0.00487833,
 0.00507018,-0.00066854,-0.01753904,-0.02089333,-0.02695940,0.03559940,
 0.06624440\\-0.00002429,0.00000962,0.00000623,0.00001349,0.00000416,0.
 00000056,-0.00000034,-0.00001400,-0.00000333,-0.00001264,0.00000774,-0
 .00000146,0.00001864,0.00001362,0.00001061,0.00001263,-0.00002752,0.00
 000539,-0.00000010,0.00000065,0.00000163,-0.00000117,0.00000023,-0.000
 00032,0.00000091,-0.00000099,0.00000095,0.00000087,0.00000698,-0.00001
 629,0.00000031,-0.00000130,0.00000024,-0.00000223,-0.00000047,0.000004
 82,0.00000217,-0.00000276,0.00000458,-0.00000995,0.00000110,-0.0000016
 0,-0.00000212,-0.00000139,0.00000144,-0.00000058,0.00000036,-0.0000007
 2,-0.00000030,0.00000014,-0.00000110,-0.00000608,0.00000976,-0.0000121
 1,0.00000184,-0.00000369,0.00000512,-0.00000160,-0.00000355,-0.0000019
 6,0.00001053,0.00000132,-0.00000266\\\@


 BE CAREFUL NOT TO BECOME TOO GOOD OF A SONGBIRD OR 
 THEY'LL THROW YOU INTO A CAGE.

                                    -- SNOOPY TO WOODSTOCK
 Job cpu time:       0 days  0 hours  0 minutes 21.3 seconds.
 Elapsed time:       0 days  0 hours  0 minutes 21.3 seconds.
 File lengths (MBytes):  RWF=     68 Int=      0 D2E=      0 Chk=      3 Scr=      1
 Normal termination of Gaussian 16 at Mon Jun 16 22:47:23 2025.
