 Entering Gaussian System, Link 0=g16
 Input=/home/gaussian/Documents/Summer_Internship/Acid_Base_adduct/Adduct/2,6 DMP - BCl3/BCl3_only_adduct_sp.com
 Output=/home/gaussian/Documents/Summer_Internship/Acid_Base_adduct/Adduct/2,6 DMP - BCl3/BCl3_only_adduct_sp.log
 Initial command:
 /usr/local/g16/l1.exe "/home/gaussian/tmp/Gau-80450.inp" -scrdir="/home/gaussian/tmp/"
 Entering Link 1 = /usr/local/g16/l1.exe PID=     80453.
  
 Copyright (c) 1988-2017, Gaussian, Inc.  All Rights Reserved.
  
 This is part of the Gaussian(R) 16 program.  It is based on
 the Gaussian(R) 09 system (copyright 2009, Gaussian, Inc.),
 the Gaussian(R) 03 system (copyright 2003, Gaussian, Inc.),
 the Gaussian(R) 98 system (copyright 1998, Gaussian, Inc.),
 the Gaussian(R) 94 system (copyright 1995, Gaussian, Inc.),
 the Gaussian 92(TM) system (copyright 1992, Gaussian, Inc.),
 the Gaussian 90(TM) system (copyright 1990, Gaussian, Inc.),
 the Gaussian 88(TM) system (copyright 1988, Gaussian, Inc.),
 the Gaussian 86(TM) system (copyright 1986, Carnegie Mellon
 University), and the Gaussian 82(TM) system (copyright 1983,
 Carnegie Mellon University). Gaussian is a federally registered
 trademark of Gaussian, Inc.
  
 This software contains proprietary and confidential information,
 including trade secrets, belonging to Gaussian, Inc.
  
 This software is provided under written license and may be
 used, copied, transmitted, or stored only in accord with that
 written license.
  
 The following legend is applicable only to US Government
 contracts under FAR:
  
                    RESTRICTED RIGHTS LEGEND
  
 Use, reproduction and disclosure by the US Government is
 subject to restrictions as set forth in subparagraphs (a)
 and (c) of the Commercial Computer Software - Restricted
 Rights clause in FAR 52.227-19.
  
 Gaussian, Inc.
 340 Quinnipiac St., Bldg. 40, Wallingford CT 06492
  
  
 ---------------------------------------------------------------
 Warning -- This program may not be used in any manner that
 competes with the business of Gaussian, Inc. or will provide
 assistance to any competitor of Gaussian, Inc.  The licensee
 of this program is prohibited from giving any competitor of
 Gaussian, Inc. access to this program.  By using this program,
 the user acknowledges that Gaussian, Inc. is engaged in the
 business of creating and licensing software in the field of
 computational chemistry and represents and warrants to the
 licensee that it is not a competitor of Gaussian, Inc. and that
 it will not use this program in any manner prohibited above.
 ---------------------------------------------------------------
  

 Cite this work as:
 Gaussian 16, Revision B.01,
 M. J. Frisch, G. W. Trucks, H. B. Schlegel, G. E. Scuseria, 
 M. A. Robb, J. R. Cheeseman, G. Scalmani, V. Barone, 
 G. A. Petersson, H. Nakatsuji, X. Li, M. Caricato, A. V. Marenich, 
 J. Bloino, B. G. Janesko, R. Gomperts, B. Mennucci, H. P. Hratchian, 
 J. V. Ortiz, A. F. Izmaylov, J. L. Sonnenberg, D. Williams-Young, 
 F. Ding, F. Lipparini, F. Egidi, J. Goings, B. Peng, A. Petrone, 
 T. Henderson, D. Ranasinghe, V. G. Zakrzewski, J. Gao, N. Rega, 
 G. Zheng, W. Liang, M. Hada, M. Ehara, K. Toyota, R. Fukuda, 
 J. Hasegawa, M. Ishida, T. Nakajima, Y. Honda, O. Kitao, H. Nakai, 
 T. Vreven, K. Throssell, J. A. Montgomery, Jr., J. E. Peralta, 
 F. Ogliaro, M. J. Bearpark, J. J. Heyd, E. N. Brothers, K. N. Kudin, 
 V. N. Staroverov, T. A. Keith, R. Kobayashi, J. Normand, 
 K. Raghavachari, A. P. Rendell, J. C. Burant, S. S. Iyengar, 
 J. Tomasi, M. Cossi, J. M. Millam, M. Klene, C. Adamo, R. Cammi, 
 J. W. Ochterski, R. L. Martin, K. Morokuma, O. Farkas, 
 J. B. Foresman, and D. J. Fox, Gaussian, Inc., Wallingford CT, 2016.
 
 ******************************************
 Gaussian 16:  EM64L-G16RevB.01 20-Dec-2017
                16-Jun-2025 
 ******************************************
 %chk=BCl3_only_adduct_sp.chk
 -------------------------------------
 # hf/3-21g pop=full geom=connectivity
 -------------------------------------
 1/38=1,57=2,172=1/1;
 2/12=2,17=6,18=5,40=1/2;
 3/5=5,11=9,25=1,30=1/1,2,3;
 4//1;
 5/5=2,38=5/2;
 6/7=3,28=1/1;
 99/5=1,9=1/99;
 -------------------
 Title Card Required
 -------------------
 Symbolic Z-matrix:
 Charge =  0 Multiplicity = 1
 B                     1.04628   0.00004  -0.04221 
 Cl                    1.6929   -1.49828  -1.02408 
 Cl                    1.70138  -0.00035   1.73661 
 Cl                    1.69299   1.49862  -1.02351 
 
                          Input orientation:                          
 ---------------------------------------------------------------------
 Center     Atomic      Atomic             Coordinates (Angstroms)
 Number     Number       Type             X           Y           Z
 ---------------------------------------------------------------------
      1          5           0        1.046276    0.000042   -0.042205
      2         17           0        1.692904   -1.498278   -1.024082
      3         17           0        1.701375   -0.000345    1.736614
      4         17           0        1.692992    1.498615   -1.023508
 ---------------------------------------------------------------------
                    Distance matrix (angstroms):
                    1          2          3          4
     1  B    0.000000
     2  Cl   1.904514   0.000000
     3  Cl   1.895614   3.140910   0.000000
     4  Cl   1.904447   2.996893   3.140896   0.000000
 Stoichiometry    BCl3
 Framework group  C1[X(BCl3)]
 Deg. of freedom     6
 Full point group                 C1      NOp   1
 Largest Abelian subgroup         C1      NOp   1
 Largest concise Abelian subgroup C1      NOp   1
                         Standard orientation:                         
 ---------------------------------------------------------------------
 Center     Atomic      Atomic             Coordinates (Angstroms)
 Number     Number       Type             X           Y           Z
 ---------------------------------------------------------------------
      1          5           0        0.055393    0.000032    0.591546
      2         17           0       -0.925643   -1.498410   -0.056076
      3         17           0        1.834847   -0.000083   -0.061828
      4         17           0       -0.925496    1.498484   -0.056080
 ---------------------------------------------------------------------
 Rotational constants (GHZ):           3.1343562           2.7786294           1.5098999
 Standard basis: 3-21G (6D, 7F)
 There are    48 symmetry adapted cartesian basis functions of A   symmetry.
 There are    48 symmetry adapted basis functions of A   symmetry.
    48 basis functions,    96 primitive gaussians,    48 cartesian basis functions
    28 alpha electrons       28 beta electrons
       nuclear repulsion energy       219.3758467942 Hartrees.
 NAtoms=    4 NActive=    4 NUniq=    4 SFac= 1.00D+00 NAtFMM=   60 NAOKFM=F Big=F
 Integral buffers will be    131072 words long.
 Raffenetti 1 integral format.
 Two-electron integral symmetry is turned on.
 One-electron integrals computed using PRISM.
 NBasis=    48 RedAO= T EigKep=  1.41D-02  NBF=    48
 NBsUse=    48 1.00D-06 EigRej= -1.00D+00 NBFU=    48
 ExpMin= 1.24D-01 ExpMax= 1.38D+03 ExpMxC= 1.38D+03 IAcc=3 IRadAn=         5 AccDes= 0.00D+00
 Harris functional with IExCor=  205 and IRadAn=       5 diagonalized for initial guess.
 HarFok:  IExCor=  205 AccDes= 0.00D+00 IRadAn=         5 IDoV= 1 UseB2=F ITyADJ=14
 ICtDFT=  3500011 ScaDFX=  1.000000  1.000000  1.000000  1.000000
 FoFCou: FMM=F IPFlag=           0 FMFlag=      100000 FMFlg1=           0
         NFxFlg=           0 DoJE=T BraDBF=F KetDBF=T FulRan=T
         wScrn=  0.000000 ICntrl=       500 IOpCl=  0 I1Cent=   200000004 NGrid=           0
         NMat0=    1 NMatS0=      1 NMatT0=    0 NMatD0=    1 NMtDS0=    0 NMtDT0=    0
 Petite list used in FoFCou.
 Keep R1 ints in memory in canonical form, NReq=1501388.
 Requested convergence on RMS density matrix=1.00D-08 within 128 cycles.
 Requested convergence on MAX density matrix=1.00D-06.
 Requested convergence on             energy=1.00D-06.
 No special actions if energy rises.
 SCF Done:  E(RHF) =  -1396.46586607     A.U. after   12 cycles
            NFock= 12  Conv=0.40D-08     -V/T= 2.0010

 **********************************************************************

            Population analysis using the SCF Density.

 **********************************************************************

 Orbital symmetries:
       Occupied  (A) (A) (A) (A) (A) (A) (A) (A) (A) (A) (A) (A)
                 (A) (A) (A) (A) (A) (A) (A) (A) (A) (A) (A) (A)
                 (A) (A) (A) (A)
       Virtual   (A) (A) (A) (A) (A) (A) (A) (A) (A) (A) (A) (A)
                 (A) (A) (A) (A) (A) (A) (A) (A)
 The electronic state is 1-A.
 Alpha  occ. eigenvalues -- -104.15318-104.14422-104.14398 -10.54647 -10.53800
 Alpha  occ. eigenvalues --  -10.53722  -8.00945  -8.00583  -8.00549  -8.00066
 Alpha  occ. eigenvalues --   -8.00058  -7.99709  -7.99699  -7.99676  -7.99661
 Alpha  occ. eigenvalues --   -7.82318  -1.17736  -1.12396  -1.11307  -0.70609
 Alpha  occ. eigenvalues --   -0.59348  -0.58517  -0.55168  -0.50407  -0.49644
 Alpha  occ. eigenvalues --   -0.48246  -0.47691  -0.46702
 Alpha virt. eigenvalues --   -0.05102   0.16033   0.16886   0.17876   0.55664
 Alpha virt. eigenvalues --    0.56025   0.56710   0.64003   0.72288   0.73171
 Alpha virt. eigenvalues --    0.74630   0.75146   0.76168   0.81010   0.84321
 Alpha virt. eigenvalues --    0.85043   0.89064   1.01348   1.03362   1.21843
     Molecular Orbital Coefficients:
                           1         2         3         4         5
                           O         O         O         O         O
     Eigenvalues --  -104.15318-104.14422-104.14398 -10.54647 -10.53800
   1 1   B  1S          0.00010   0.00000   0.00013  -0.00077  -0.00001
   2        2S          0.00101   0.00003   0.00133  -0.00566  -0.00006
   3        2PX         0.00002   0.00000   0.00000  -0.00022   0.00000
   4        2PY        -0.00000  -0.00003   0.00000   0.00000   0.00006
   5        2PZ        -0.00009  -0.00000  -0.00010   0.00054   0.00000
   6        3S         -0.00529  -0.00014  -0.00701   0.03010   0.00031
   7        3PX        -0.00333   0.00005   0.00226   0.01976  -0.00009
   8        3PY         0.00000  -0.00376   0.00007  -0.00000   0.02187
   9        3PZ         0.00160   0.00004   0.00200  -0.00917  -0.00009
  10 2   Cl 1S         -0.00951  -0.68309   0.71082   0.00929   0.21478
  11        2S         -0.00056  -0.03683   0.03822  -0.02970  -0.69004
  12        2PX        -0.00004  -0.00008   0.00008   0.00001  -0.00326
  13        2PY        -0.00003  -0.00016   0.00008  -0.00011  -0.00448
  14        2PZ        -0.00001  -0.00006   0.00006  -0.00009  -0.00292
  15        3S          0.00042   0.01366  -0.01354  -0.00542  -0.10217
  16        3PX         0.00021   0.00030  -0.00030  -0.00113  -0.00236
  17        3PY         0.00014   0.00070  -0.00026  -0.00083  -0.00481
  18        3PZ         0.00006   0.00022  -0.00017  -0.00038  -0.00180
  19        4S         -0.00001  -0.00942   0.00952   0.00132   0.05570
  20        4PX         0.00018  -0.00131   0.00134  -0.00108   0.00780
  21        4PY        -0.00004  -0.00212   0.00198   0.00039   0.01237
  22        4PZ        -0.00023  -0.00090   0.00075   0.00143   0.00541
  23 3   Cl 1S          0.98580   0.00028   0.01347  -0.30567  -0.00010
  24        2S          0.05308   0.00001   0.00065   0.98224   0.00033
  25        2PX        -0.00021   0.00000   0.00006  -0.00819  -0.00000
  26        2PY         0.00000  -0.00003   0.00000   0.00000   0.00011
  27        2PZ         0.00009  -0.00000  -0.00001   0.00428   0.00000
  28        3S         -0.01930   0.00000   0.00010   0.14348   0.00004
  29        3PX         0.00080  -0.00001  -0.00031  -0.00616   0.00001
  30        3PY        -0.00000   0.00014  -0.00000   0.00000  -0.00068
  31        3PZ        -0.00028   0.00000   0.00006   0.00241  -0.00000
  32        4S          0.01370   0.00001   0.00026  -0.08047  -0.00003
  33        4PX        -0.00359  -0.00000  -0.00012   0.02120   0.00001
  34        4PY         0.00000   0.00023  -0.00000  -0.00000  -0.00146
  35        4PZ         0.00124  -0.00000  -0.00024  -0.00741   0.00001
  36 4   Cl 1S         -0.00952   0.71087   0.68304   0.00930  -0.21783
  37        2S         -0.00056   0.03832   0.03673  -0.02974   0.69984
  38        2PX        -0.00004   0.00008   0.00008   0.00001   0.00331
  39        2PY         0.00003  -0.00017  -0.00008   0.00011  -0.00455
  40        2PZ        -0.00001   0.00007   0.00005  -0.00009   0.00296
  41        3S          0.00042  -0.01419  -0.01298  -0.00543   0.10357
  42        3PX         0.00021  -0.00031  -0.00029  -0.00113   0.00239
  43        3PY        -0.00014   0.00071   0.00023   0.00083  -0.00484
  44        3PZ         0.00006  -0.00023  -0.00016  -0.00038   0.00182
  45        4S         -0.00001   0.00979   0.00914   0.00132  -0.05649
  46        4PX         0.00018   0.00136   0.00129  -0.00108  -0.00791
  47        4PY         0.00004  -0.00220  -0.00190  -0.00039   0.01254
  48        4PZ        -0.00023   0.00093   0.00071   0.00143  -0.00547
                           6         7         8         9        10
                           O         O         O         O         O
     Eigenvalues --   -10.53722  -8.00945  -8.00583  -8.00549  -8.00066
   1 1   B  1S         -0.00110   0.00105   0.00062  -0.00000   0.00010
   2        2S         -0.00807   0.00015   0.00128  -0.00000  -0.00002
   3        2PX         0.00006   0.00097  -0.00064  -0.00000  -0.00004
   4        2PY        -0.00000  -0.00000   0.00000  -0.00088   0.00096
   5        2PZ         0.00065  -0.00032  -0.00069  -0.00000  -0.00002
   6        3S          0.04290  -0.00917  -0.00455   0.00000  -0.00076
   7        3PX        -0.01273  -0.00907   0.00429   0.00000   0.00039
   8        3PY        -0.00015   0.00000  -0.00000   0.00569  -0.01059
   9        3PZ        -0.01239   0.00107   0.00522  -0.00000   0.00004
  10 2   Cl 1S         -0.21770   0.00008   0.00003   0.00004   0.00226
  11        2S          0.69972  -0.00033  -0.00014  -0.00020  -0.00787
  12        2PX         0.00332   0.00593   0.00758   0.01115   0.32198
  13        2PY         0.00488   0.00495   0.00298   0.00161   0.48513
  14        2PZ         0.00300   0.00165  -0.00255  -0.00307   0.26248
  15        3S          0.10017   0.00178   0.00007   0.00066   0.00588
  16        3PX         0.00227   0.00118   0.00121   0.00170   0.02754
  17        3PY         0.00240   0.00086   0.00034   0.00025   0.04192
  18        3PZ         0.00147   0.00020  -0.00039  -0.00052   0.02245
  19        4S         -0.05580  -0.00311   0.00233   0.00089  -0.01195
  20        4PX        -0.00799  -0.00135  -0.00101  -0.00127  -0.01159
  21        4PY        -0.01190  -0.00171   0.00154   0.00024  -0.01825
  22        4PZ        -0.00442  -0.00043   0.00055   0.00129  -0.00894
  23 3   Cl 1S         -0.01325  -0.00344   0.00012   0.00000   0.00000
  24        2S          0.04279   0.01188  -0.00037  -0.00000  -0.00002
  25        2PX        -0.00059   0.88451   0.40621   0.00007   0.00090
  26        2PY        -0.00000  -0.00006  -0.00003   0.97422  -0.00805
  27        2PZ         0.00023  -0.40583   0.88548  -0.00000   0.00015
  28        3S          0.00447  -0.00651  -0.00051   0.00000   0.00018
  29        3PX         0.00139   0.07537   0.03306   0.00001  -0.00000
  30        3PY         0.00000  -0.00001  -0.00000   0.07905  -0.00021
  31        3PZ        -0.00028  -0.03460   0.07203  -0.00000   0.00001
  32        4S         -0.00456   0.01419   0.00049   0.00000  -0.00031
  33        4PX         0.00179  -0.03018  -0.01085  -0.00000   0.00019
  34        4PY         0.00001   0.00000   0.00000  -0.02515   0.00012
  35        4PZ         0.00116   0.01351  -0.02277   0.00000  -0.00002
  36 4   Cl 1S         -0.21465   0.00008   0.00003  -0.00004  -0.00259
  37        2S          0.68991  -0.00033  -0.00014   0.00020   0.00899
  38        2PX         0.00327   0.00594   0.00759  -0.01116  -0.37028
  39        2PY        -0.00482  -0.00496  -0.00298   0.00162   0.55748
  40        2PZ         0.00296   0.00165  -0.00255   0.00307  -0.30187
  41        3S          0.09872   0.00178   0.00007  -0.00066  -0.00628
  42        3PX         0.00223   0.00118   0.00121  -0.00170  -0.03164
  43        3PY        -0.00234  -0.00086  -0.00034   0.00025   0.04802
  44        3PZ         0.00145   0.00020  -0.00039   0.00052  -0.02580
  45        4S         -0.05502  -0.00311   0.00233  -0.00089   0.01285
  46        4PX        -0.00788  -0.00135  -0.00101   0.00127   0.01310
  47        4PY         0.01173   0.00172  -0.00154   0.00024  -0.02046
  48        4PZ        -0.00435  -0.00043   0.00055  -0.00129   0.01020
                          11        12        13        14        15
                           O         O         O         O         O
     Eigenvalues --    -8.00058  -7.99709  -7.99699  -7.99676  -7.99661
   1 1   B  1S         -0.00141   0.00004   0.00065  -0.00000  -0.00022
   2        2S          0.00034   0.00006   0.00114  -0.00001  -0.00058
   3        2PX         0.00060   0.00003   0.00055  -0.00003  -0.00092
   4        2PY         0.00007  -0.00080   0.00005  -0.00061   0.00002
   5        2PZ         0.00034  -0.00005  -0.00087  -0.00000   0.00002
   6        3S          0.01094  -0.00025  -0.00436   0.00004   0.00205
   7        3PX        -0.00567  -0.00021  -0.00381   0.00017   0.00573
   8        3PY        -0.00074   0.00457  -0.00028   0.00326  -0.00012
   9        3PZ        -0.00062   0.00038   0.00651   0.00002  -0.00047
  10 2   Cl 1S          0.00252  -0.00007   0.00009  -0.00000   0.00007
  11        2S         -0.00867   0.00019  -0.00031  -0.00004  -0.00025
  12        2PX         0.37165   0.05424  -0.19992  -0.57345   0.57882
  13        2PY         0.55617   0.27934  -0.22578   0.32444  -0.41123
  14        2PZ         0.30281  -0.58284   0.66011   0.10394   0.04445
  15        3S          0.00332   0.00075  -0.00015   0.00091   0.00086
  16        3PX         0.03155   0.00421  -0.01636  -0.04680   0.04670
  17        3PY         0.04695   0.02319  -0.01811   0.02689  -0.03284
  18        3PZ         0.02575  -0.04761   0.05353   0.00828   0.00343
  19        4S         -0.00733   0.00037   0.00080  -0.00041  -0.00068
  20        4PX        -0.01175  -0.00014   0.00621   0.01540  -0.01423
  21        4PY        -0.01718  -0.00805   0.00554  -0.00953   0.00921
  22        4PZ        -0.00972   0.01534  -0.01662  -0.00186  -0.00037
  23 3   Cl 1S         -0.00004   0.00000   0.00001  -0.00000  -0.00002
  24        2S          0.00023  -0.00000  -0.00009   0.00000   0.00014
  25        2PX        -0.01288   0.00031   0.00558  -0.00015  -0.00537
  26        2PY        -0.00055  -0.00653   0.00030   0.01339  -0.00042
  27        2PZ        -0.00208   0.00034   0.00607  -0.00012  -0.00437
  28        3S         -0.00256   0.00001   0.00019  -0.00002  -0.00072
  29        3PX         0.00003  -0.00000  -0.00009   0.00001   0.00020
  30        3PY        -0.00001   0.00002  -0.00000   0.00013  -0.00000
  31        3PZ        -0.00016   0.00001   0.00017  -0.00000  -0.00007
  32        4S          0.00443   0.00016   0.00292  -0.00004  -0.00161
  33        4PX        -0.00268  -0.00006  -0.00111  -0.00000   0.00008
  34        4PY         0.00001  -0.00182   0.00010   0.00144  -0.00004
  35        4PZ         0.00027   0.00004   0.00069  -0.00004  -0.00136
  36 4   Cl 1S          0.00218   0.00008   0.00008   0.00001   0.00006
  37        2S         -0.00750  -0.00023  -0.00028   0.00002  -0.00025
  38        2PX         0.32347  -0.07436  -0.19892   0.60860   0.53978
  39        2PY        -0.48368   0.30540   0.18827   0.35328   0.38706
  40        2PZ         0.26357   0.65539   0.58954  -0.09405   0.04781
  41        3S          0.00248  -0.00076  -0.00005  -0.00085   0.00092
  42        3PX         0.02743  -0.00587  -0.01630   0.04963   0.04352
  43        3PY        -0.04069   0.02527   0.01500   0.02919   0.03084
  44        3PZ         0.02240   0.05349   0.04777  -0.00749   0.00369
  45        4S         -0.00561  -0.00028   0.00083   0.00037  -0.00070
  46        4PX        -0.01003   0.00079   0.00633  -0.01625  -0.01318
  47        4PY         0.01449  -0.00868  -0.00446  -0.01018  -0.00851
  48        4PZ        -0.00839  -0.01716  -0.01476   0.00166  -0.00040
                          16        17        18        19        20
                           O         O         O         O         O
     Eigenvalues --    -7.82318  -1.17736  -1.12396  -1.11307  -0.70609
   1 1   B  1S          0.98961  -0.08880   0.00175  -0.00001  -0.15933
   2        2S          0.09457   0.11490  -0.00101   0.00001   0.19453
   3        2PX        -0.00017  -0.00103   0.11346  -0.00006  -0.00081
   4        2PY        -0.00000   0.00002  -0.00006  -0.10661   0.00001
   5        2PZ        -0.00149  -0.04574   0.00046  -0.00000  -0.06496
   6        3S         -0.07438   0.14268  -0.00832   0.00003   0.53530
   7        3PX         0.00179  -0.00584  -0.00804   0.00000  -0.01024
   8        3PY         0.00000  -0.00000   0.00001   0.00845   0.00000
   9        3PZ         0.01786  -0.02452   0.00275  -0.00001  -0.09497
  10 2   Cl 1S         -0.00012   0.04099  -0.03309   0.05630  -0.02024
  11        2S          0.00053  -0.24032   0.19460  -0.33138   0.12210
  12        2PX         0.00107  -0.01507   0.00285  -0.01326  -0.05922
  13        2PY         0.00135  -0.02410   0.01362  -0.01408  -0.09077
  14        2PZ         0.00027  -0.00752   0.00548  -0.00888  -0.02612
  15        3S         -0.00531   0.31204  -0.24458   0.41375  -0.13800
  16        3PX        -0.00037   0.03110  -0.00467   0.02671   0.12757
  17        3PY        -0.00026   0.04971  -0.02765   0.02733   0.19512
  18        3PZ         0.00032   0.01410  -0.01068   0.01736   0.05353
  19        4S          0.02193   0.21232  -0.21264   0.37323  -0.27800
  20        4PX         0.00617   0.00760  -0.01002   0.02407   0.04375
  21        4PY         0.00891   0.01158  -0.02064   0.03402   0.06780
  22        4PZ         0.00052   0.01019  -0.01041   0.01769   0.02899
  23 3   Cl 1S         -0.00013   0.04345   0.06376  -0.00003  -0.02009
  24        2S          0.00059  -0.25485  -0.37521   0.00015   0.12124
  25        2PX        -0.00186   0.02867   0.02247  -0.00001   0.11228
  26        2PY         0.00000  -0.00000   0.00000   0.00541  -0.00001
  27        2PZ         0.00016  -0.00800  -0.01064   0.00000  -0.02711
  28        3S         -0.00543   0.32996   0.47008  -0.00019  -0.13835
  29        3PX         0.00069  -0.05935  -0.04428   0.00001  -0.24232
  30        3PY        -0.00000   0.00001  -0.00000  -0.01194   0.00002
  31        3PZ         0.00043   0.01485   0.02092  -0.00001   0.05534
  32        4S          0.02120   0.23294   0.41972  -0.00018  -0.27002
  33        4PX        -0.01081  -0.01656  -0.04711   0.00002  -0.08781
  34        4PY         0.00000   0.00000   0.00000  -0.00384   0.00001
  35        4PZ        -0.00014   0.01314   0.02045  -0.00001   0.03371
  36 4   Cl 1S         -0.00012   0.04101  -0.03314  -0.05626  -0.02024
  37        2S          0.00054  -0.24040   0.19493   0.33112   0.12211
  38        2PX         0.00107  -0.01507   0.00286   0.01325  -0.05922
  39        2PY        -0.00135   0.02411  -0.01364  -0.01407   0.09079
  40        2PZ         0.00027  -0.00753   0.00549   0.00887  -0.02613
  41        3S         -0.00531   0.31215  -0.24500  -0.41342  -0.13802
  42        3PX        -0.00037   0.03110  -0.00469  -0.02670   0.12758
  43        3PY         0.00026  -0.04972   0.02768   0.02730  -0.19516
  44        3PZ         0.00032   0.01411  -0.01070  -0.01735   0.05354
  45        4S          0.02194   0.21241  -0.21302  -0.37296  -0.27803
  46        4PX         0.00617   0.00760  -0.01004  -0.02406   0.04376
  47        4PY        -0.00891  -0.01159   0.02067   0.03400  -0.06781
  48        4PZ         0.00052   0.01019  -0.01043  -0.01768   0.02899
                          21        22        23        24        25
                           O         O         O         O         O
     Eigenvalues --    -0.59348  -0.58517  -0.55168  -0.50407  -0.49644
   1 1   B  1S          0.00200   0.00000  -0.03399   0.00279  -0.00000
   2        2S         -0.00424  -0.00000   0.06377   0.00000   0.00000
   3        2PX        -0.28120   0.00005  -0.00500   0.11583  -0.00006
   4        2PY         0.00007   0.27275  -0.00000  -0.00004  -0.12397
   5        2PZ         0.00008   0.00000   0.14472  -0.00173   0.00001
   6        3S         -0.00145  -0.00003   0.03742  -0.02634   0.00003
   7        3PX        -0.17659   0.00004  -0.00205   0.03919  -0.00003
   8        3PY         0.00003   0.17535  -0.00000  -0.00000  -0.03410
   9        3PZ        -0.00206   0.00001   0.17111   0.00478   0.00001
  10 2   Cl 1S         -0.00751   0.01140  -0.00066   0.00155  -0.00299
  11        2S          0.04560  -0.06917   0.00375  -0.00948   0.01816
  12        2PX         0.04127   0.11722   0.02556   0.12003   0.01811
  13        2PY        -0.11820   0.06951   0.03941  -0.06073  -0.06012
  14        2PZ        -0.03107   0.05016  -0.13345   0.08197  -0.13987
  15        3S         -0.05658   0.08840  -0.01780   0.01385  -0.03183
  16        3PX        -0.09213  -0.25393  -0.05678  -0.26003  -0.04005
  17        3PY         0.25593  -0.14796  -0.08719   0.13255   0.12876
  18        3PZ         0.06691  -0.10806   0.28953  -0.17707   0.30222
  19        4S         -0.09911   0.14344   0.03876   0.01953  -0.01511
  20        4PX        -0.06580  -0.16729  -0.02916  -0.22340  -0.04181
  21        4PY         0.16662  -0.09561  -0.04675   0.12445   0.11165
  22        4PZ         0.03735  -0.06223   0.22802  -0.14949   0.25976
  23 3   Cl 1S          0.01370  -0.00000  -0.00066  -0.00323   0.00000
  24        2S         -0.08316   0.00001   0.00373   0.01967  -0.00001
  25        2PX        -0.14644   0.00000  -0.05501   0.03300  -0.00003
  26        2PY        -0.00001  -0.13048   0.00001  -0.00008  -0.17478
  27        2PZ         0.06457  -0.00001  -0.14269  -0.16047   0.00005
  28        3S          0.10497  -0.00001  -0.01940  -0.03389   0.00001
  29        3PX         0.31499  -0.00001   0.12216  -0.06961   0.00007
  30        3PY         0.00002   0.28607  -0.00003   0.00018   0.38082
  31        3PZ        -0.13938   0.00002   0.31014   0.34733  -0.00011
  32        4S          0.17613  -0.00001   0.04319  -0.01737   0.00001
  33        4PX         0.20156  -0.00000   0.06586  -0.05613   0.00006
  34        4PY         0.00001   0.19670  -0.00002   0.00015   0.33240
  35        4PZ        -0.07995   0.00001   0.24474   0.29529  -0.00009
  36 4   Cl 1S         -0.00752  -0.01140  -0.00066   0.00155   0.00299
  37        2S          0.04563   0.06915   0.00375  -0.00949  -0.01814
  38        2PX         0.04125  -0.11724   0.02557   0.12003  -0.01820
  39        2PY         0.11824   0.06947  -0.03943   0.06070  -0.06015
  40        2PZ        -0.03109  -0.05017  -0.13348   0.08206   0.13979
  41        3S         -0.05661  -0.08838  -0.01780   0.01387   0.03181
  42        3PX        -0.09209   0.25398  -0.05681  -0.26003   0.04025
  43        3PY        -0.25602  -0.14786   0.08722  -0.13249   0.12884
  44        3PZ         0.06697   0.10807   0.28960  -0.17727  -0.30205
  45        4S         -0.09916  -0.14339   0.03877   0.01954   0.01509
  46        4PX        -0.06578   0.16733  -0.02918  -0.22339   0.04198
  47        4PY        -0.16668  -0.09554   0.04677  -0.12440   0.11172
  48        4PZ         0.03738   0.06224   0.22807  -0.14967  -0.25962
                          26        27        28        29        30
                           O         O         O         V         V
     Eigenvalues --    -0.48246  -0.47691  -0.46702  -0.05102   0.16033
   1 1   B  1S         -0.00023  -0.00000  -0.00000  -0.11036   0.00010
   2        2S         -0.00045  -0.00000  -0.00000   0.10800  -0.00009
   3        2PX        -0.08204  -0.00005   0.00000   0.00686   0.00016
   4        2PY         0.00004  -0.06270  -0.05564  -0.00000   0.46205
   5        2PZ        -0.00387  -0.00000   0.00000   0.35220   0.00016
   6        3S          0.00592   0.00002   0.00001   0.68070  -0.00095
   7        3PX         0.07590   0.00004  -0.00001   0.01653   0.00052
   8        3PY        -0.00004   0.05096   0.03163   0.00000   1.44997
   9        3PZ        -0.00699  -0.00001  -0.00000   0.50903   0.00050
  10 2   Cl 1S         -0.00016  -0.00002   0.00049  -0.00535   0.01536
  11        2S          0.00084  -0.00007  -0.00309   0.03275  -0.09772
  12        2PX        -0.12620  -0.10184   0.11271   0.02296  -0.06586
  13        2PY        -0.00873  -0.06637  -0.16355   0.03047  -0.05062
  14        2PZ         0.07414   0.11649   0.04728   0.08367  -0.05485
  15        3S         -0.00574  -0.00688   0.00015  -0.05549   0.06972
  16        3PX         0.27660   0.22285  -0.24842  -0.05100   0.13491
  17        3PY         0.01847   0.14473   0.35937  -0.06774   0.09999
  18        3PZ        -0.16230  -0.25481  -0.10385  -0.18103   0.11576
  19        4S          0.02365   0.03339   0.02637  -0.04692   0.71669
  20        4PX         0.22982   0.19735  -0.20034  -0.05394   0.46200
  21        4PY         0.02854   0.13387   0.30931  -0.06930   0.40536
  22        4PZ        -0.13081  -0.21044  -0.08408  -0.25378   0.32180
  23 3   Cl 1S          0.00006  -0.00000   0.00000  -0.00584   0.00000
  24        2S         -0.00015   0.00000  -0.00000   0.03581  -0.00001
  25        2PX        -0.14873  -0.00009   0.00001  -0.04177   0.00003
  26        2PY         0.00011  -0.16827   0.06263   0.00000   0.05386
  27        2PZ        -0.13665  -0.00007   0.00000   0.08632   0.00002
  28        3S          0.01126   0.00001   0.00000  -0.05858  -0.00000
  29        3PX         0.32527   0.00020  -0.00001   0.09291  -0.00006
  30        3PY        -0.00025   0.37085  -0.13833  -0.00001  -0.11483
  31        3PZ         0.29975   0.00014  -0.00000  -0.18707  -0.00004
  32        4S         -0.05593  -0.00003   0.00000  -0.06306   0.00010
  33        4PX         0.29688   0.00018  -0.00001   0.10187  -0.00018
  34        4PY        -0.00020   0.29877  -0.11673  -0.00001  -0.31938
  35        4PZ         0.24058   0.00012   0.00000  -0.26397  -0.00009
  36 4   Cl 1S         -0.00015   0.00002  -0.00049  -0.00535  -0.01534
  37        2S          0.00084   0.00007   0.00309   0.03275   0.09760
  38        2PX        -0.12631   0.10168  -0.11270   0.02296   0.06580
  39        2PY         0.00881  -0.06636  -0.16352  -0.03046  -0.05050
  40        2PZ         0.07427  -0.11639  -0.04728   0.08368   0.05483
  41        3S         -0.00575   0.00687  -0.00016  -0.05549  -0.06966
  42        3PX         0.27686  -0.22250   0.24840  -0.05099  -0.13480
  43        3PY        -0.01863   0.14472   0.35931   0.06774   0.09975
  44        3PZ        -0.16258   0.25460   0.10383  -0.18103  -0.11572
  45        4S          0.02370  -0.03337  -0.02638  -0.04693  -0.71577
  46        4PX         0.23005  -0.19706   0.20032  -0.05392  -0.46160
  47        4PY        -0.02869   0.13385   0.30926   0.06929   0.40453
  48        4PZ        -0.13104   0.21027   0.08406  -0.25379  -0.32164
                          31        32        33        34        35
                           V         V         V         V         V
     Eigenvalues --     0.16886   0.17876   0.55664   0.56025   0.56710
   1 1   B  1S         -0.16918   0.08409   0.02774   0.00003   0.04472
   2        2S          0.14996  -0.07088  -0.16069  -0.00018  -0.29809
   3        2PX         0.19597   0.42394  -1.00046  -0.00016   0.42478
   4        2PY         0.00014  -0.00024   0.00031  -1.08487   0.00029
   5        2PZ        -0.28793   0.12146  -0.39357  -0.00035  -0.97316
   6        3S          1.79645  -0.91448  -0.24389  -0.00017  -0.26985
   7        3PX         0.61819   1.47821   1.70139   0.00029  -0.70203
   8        3PY         0.00047  -0.00083  -0.00049   1.70061  -0.00045
   9        3PZ        -0.92892   0.44087   0.53704   0.00047   1.19869
  10 2   Cl 1S         -0.00882   0.01420  -0.00352   0.00370  -0.00762
  11        2S          0.05660  -0.09105   0.01919  -0.02512   0.04614
  12        2PX         0.05493  -0.01493   0.05045   0.00986  -0.01958
  13        2PY         0.04652  -0.08581   0.02003   0.06707   0.00309
  14        2PZ        -0.01280  -0.03397  -0.00139  -0.01421   0.03406
  15        3S         -0.02392   0.04396  -0.14335   0.05014  -0.21692
  16        3PX        -0.11345   0.02688  -0.14008  -0.01637   0.05199
  17        3PY        -0.09448   0.17363  -0.05337  -0.17909  -0.01549
  18        3PZ         0.02957   0.07010   0.01366   0.05804  -0.10370
  19        4S         -0.42974   0.76782   0.64363   0.54164   0.27342
  20        4PX        -0.37174   0.16466   0.02418   0.22148   0.12379
  21        4PY        -0.34664   0.68579   0.34124   0.17631   0.07002
  22        4PZ         0.04566   0.23056   0.04082   0.09207  -0.09133
  23 3   Cl 1S         -0.02106  -0.01074  -0.00898  -0.00001  -0.00320
  24        2S          0.13451   0.06831   0.05705   0.00003   0.01728
  25        2PX        -0.12726  -0.03701   0.06165   0.00000  -0.03787
  26        2PY         0.00003  -0.00002  -0.00002   0.05197  -0.00001
  27        2PZ         0.02858   0.05779   0.02827   0.00001   0.02201
  28        3S         -0.08230  -0.05871  -0.20394  -0.00015  -0.14025
  29        3PX         0.25730   0.07249  -0.14967  -0.00001   0.10476
  30        3PY        -0.00006   0.00005   0.00004  -0.15195   0.00004
  31        3PZ        -0.05755  -0.12281  -0.10077  -0.00003  -0.05664
  32        4S         -1.00234  -0.53020  -0.38087   0.00017   0.65964
  33        4PX         0.96103   0.34233   0.18095  -0.00009  -0.33974
  34        4PY        -0.00017   0.00013   0.00003  -0.17841   0.00007
  35        4PZ        -0.20876  -0.35254  -0.14495  -0.00004  -0.01750
  36 4   Cl 1S         -0.00884   0.01421  -0.00352  -0.00371  -0.00761
  37        2S          0.05667  -0.09115   0.01918   0.02517   0.04613
  38        2PX         0.05498  -0.01498   0.05045  -0.00984  -0.01957
  39        2PY        -0.04656   0.08586  -0.02007   0.06705  -0.00313
  40        2PZ        -0.01277  -0.03402  -0.00140   0.01422   0.03405
  41        3S         -0.02397   0.04403  -0.14333  -0.05044  -0.21689
  42        3PX        -0.11354   0.02699  -0.14007   0.01629   0.05198
  43        3PY         0.09456  -0.17373   0.05346  -0.17902   0.01559
  44        3PZ         0.02949   0.07021   0.01369  -0.05808  -0.10367
  45        4S         -0.43028   0.76863   0.64393  -0.54105   0.27374
  46        4PX        -0.37206   0.16508   0.02423  -0.22132   0.12392
  47        4PY         0.34697  -0.68625  -0.34129   0.17601  -0.07014
  48        4PZ         0.04544   0.23091   0.04086  -0.09208  -0.09128
                          36        37        38        39        40
                           V         V         V         V         V
     Eigenvalues --     0.64003   0.72288   0.73171   0.74630   0.75146
   1 1   B  1S          0.05686   0.00344  -0.00000  -0.00097  -0.00000
   2        2S         -0.50987  -0.09251   0.00003  -0.02479  -0.00000
   3        2PX         0.07193   0.12263  -0.00003  -0.00313  -0.00000
   4        2PY         0.00006   0.00000  -0.15101  -0.00002   0.02097
   5        2PZ         0.28262  -0.00575  -0.00001   0.04963   0.00000
   6        3S         -0.31685   0.19686  -0.00012   0.78765   0.00008
   7        3PX        -0.09109  -0.91820   0.00012   0.20282   0.00007
   8        3PY        -0.00010   0.00007   0.85184   0.00015  -0.37823
   9        3PZ         0.01475  -0.02827   0.00004  -0.45600  -0.00005
  10 2   Cl 1S         -0.03513   0.01831  -0.03482  -0.00089  -0.00997
  11        2S          0.21398  -0.11058   0.21149   0.00684   0.06202
  12        2PX        -0.01168   0.10328  -0.01455  -0.16401  -0.15306
  13        2PY        -0.00174  -0.02173  -0.12588   0.00768  -0.05052
  14        2PZ        -0.06534   0.05332  -0.08598   0.03258   0.06557
  15        3S         -0.98485   0.53639  -0.99184   0.02376  -0.23542
  16        3PX         0.01986  -0.36765   0.04434   0.57123   0.53327
  17        3PY        -0.01847   0.07795   0.44345  -0.02172   0.17771
  18        3PZ         0.20809  -0.17920   0.29148  -0.11562  -0.22591
  19        4S          1.00941  -0.77866   1.27254  -0.20180   0.07189
  20        4PX         0.08826   0.37808   0.12312  -0.63443  -0.57246
  21        4PY         0.13160  -0.25719  -0.33851  -0.10534  -0.23637
  22        4PZ        -0.11470   0.07059  -0.15473   0.12508   0.16213
  23 3   Cl 1S         -0.03040  -0.04148   0.00000  -0.01320  -0.00000
  24        2S          0.18475   0.25196  -0.00002   0.08317   0.00002
  25        2PX        -0.00955   0.12737  -0.00003   0.23172   0.00006
  26        2PY        -0.00001  -0.00001  -0.09008  -0.00007   0.24019
  27        2PZ        -0.07193  -0.11105   0.00001   0.09693   0.00003
  28        3S         -0.87542  -1.18774   0.00009  -0.27598  -0.00006
  29        3PX         0.06151  -0.44035   0.00010  -0.81390  -0.00022
  30        3PY         0.00002   0.00002   0.32845   0.00025  -0.83752
  31        3PZ         0.23285   0.37443  -0.00002  -0.33727  -0.00009
  32        4S          0.97768   1.52489  -0.00009  -0.06924  -0.00002
  33        4PX        -0.23628   0.22307  -0.00011   1.02583   0.00026
  34        4PY         0.00002  -0.00001  -0.47959  -0.00027   0.84108
  35        4PZ        -0.12713  -0.19612   0.00001   0.28119   0.00007
  36 4   Cl 1S         -0.03513   0.01832   0.03482  -0.00089   0.00997
  37        2S          0.21397  -0.11061  -0.21148   0.00685  -0.06202
  38        2PX        -0.01168   0.10330   0.01454  -0.16409   0.15297
  39        2PY         0.00173   0.02170  -0.12593  -0.00765  -0.05060
  40        2PZ        -0.06535   0.05333   0.08598   0.03262  -0.06558
  41        3S         -0.98482   0.53654   0.99180   0.02376   0.23546
  42        3PX         0.01985  -0.36771  -0.04431   0.57151  -0.53295
  43        3PY         0.01851  -0.07784   0.44363   0.02163   0.17799
  44        3PZ         0.20811  -0.17924  -0.29147  -0.11578   0.22593
  45        4S          1.00949  -0.77884  -1.27242  -0.20195  -0.07193
  46        4PX         0.08830   0.37815  -0.12312  -0.63476   0.57214
  47        4PY        -0.13169   0.25709  -0.33874   0.10549  -0.23661
  48        4PZ        -0.11469   0.07061   0.15474   0.12519  -0.16214
                          41        42        43        44        45
                           V         V         V         V         V
     Eigenvalues --     0.76168   0.81010   0.84321   0.85043   0.89064
   1 1   B  1S         -0.00000  -0.00751   0.00102   0.00000   0.00000
   2        2S          0.11067  -0.11486  -0.01854   0.00002   0.00000
   3        2PX         0.03555  -0.00817   0.18745  -0.00003   0.00000
   4        2PY         0.00003  -0.00004  -0.00004  -0.17878   0.00331
   5        2PZ        -0.05858  -0.21432   0.01994   0.00000   0.00000
   6        3S         -0.82888   1.53672  -0.14688   0.00005  -0.00001
   7        3PX         0.06714  -0.07102  -1.19561   0.00020  -0.00005
   8        3PY        -0.00003   0.00011   0.00023   1.06517   0.06346
   9        3PZ         0.47584   0.13684   0.00343  -0.00002   0.00000
  10 2   Cl 1S          0.01031   0.00994   0.00272  -0.00601  -0.00024
  11        2S         -0.06482  -0.05802  -0.01529   0.03443   0.00136
  12        2PX        -0.01925  -0.04059   0.08306   0.03140   0.18362
  13        2PY         0.22707  -0.08490  -0.01878  -0.04489  -0.09002
  14        2PZ        -0.07576  -0.18033  -0.11580   0.22115   0.00390
  15        3S          0.23011   0.39087   0.11650  -0.24788  -0.00810
  16        3PX         0.06071   0.15260  -0.30985  -0.11725  -0.67004
  17        3PY        -0.78954   0.31053   0.06963   0.16807   0.33100
  18        3PZ         0.26598   0.64732   0.41561  -0.79591  -0.01447
  19        4S          0.01865  -0.71331  -0.37872   0.65982   0.02714
  20        4PX         0.07005  -0.30330   0.39612   0.32333   0.76736
  21        4PY         0.89205  -0.52937  -0.26252  -0.05702  -0.37790
  22        4PZ        -0.24585  -0.79628  -0.52302   0.97828   0.02538
  23 3   Cl 1S         -0.00855   0.01138  -0.01100   0.00000  -0.00000
  24        2S          0.05085  -0.06700   0.06386  -0.00001   0.00001
  25        2PX        -0.01372   0.08465   0.02325  -0.00001   0.00000
  26        2PY        -0.00002  -0.00001  -0.00002  -0.11010   0.19190
  27        2PZ        -0.03879  -0.14128   0.26755  -0.00004   0.00000
  28        3S         -0.28163   0.42904  -0.43248   0.00006  -0.00004
  29        3PX         0.05029  -0.31549  -0.08358   0.00002  -0.00001
  30        3PY         0.00008   0.00003   0.00009   0.40955  -0.70056
  31        3PZ         0.13944   0.50951  -0.96455   0.00013  -0.00002
  32        4S          0.48337  -0.71470   1.02729  -0.00014   0.00007
  33        4PX        -0.21601   0.57073  -0.23087   0.00001  -0.00001
  34        4PY        -0.00006  -0.00007  -0.00010  -0.61957   0.78323
  35        4PZ        -0.15057  -0.64424   1.21682  -0.00016   0.00003
  36 4   Cl 1S          0.01030   0.00995   0.00272   0.00601   0.00024
  37        2S         -0.06476  -0.05804  -0.01530  -0.03442  -0.00136
  38        2PX        -0.01931  -0.04058   0.08306  -0.03142  -0.18362
  39        2PY        -0.22704   0.08489   0.01876  -0.04488  -0.08999
  40        2PZ        -0.07576  -0.18033  -0.11586  -0.22110  -0.00390
  41        3S          0.22985   0.39101   0.11657   0.24786   0.00813
  42        3PX         0.06094   0.15258  -0.30985   0.11735   0.67004
  43        3PY         0.78946  -0.31052  -0.06955   0.16807   0.33090
  44        3PZ         0.26600   0.64733   0.41584   0.79575   0.01449
  45        4S          0.01894  -0.71356  -0.37895  -0.65977  -0.02719
  46        4PX         0.06983  -0.30331   0.39608  -0.32346  -0.76738
  47        4PY        -0.89200   0.52941   0.26248  -0.05705  -0.37779
  48        4PZ        -0.24586  -0.79633  -0.52332  -0.97810  -0.02540
                          46        47        48
                           V         V         V
     Eigenvalues --     1.01348   1.03362   1.21843
   1 1   B  1S         -0.00401   0.00001  -0.10674
   2        2S         -0.10526   0.00009  -2.08556
   3        2PX        -0.20257   0.00005   0.01766
   4        2PY         0.00002   0.20563   0.00004
   5        2PZ         0.00637  -0.00000   0.23880
   6        3S          0.21229  -0.00015   5.21344
   7        3PX        -0.84787   0.00008  -0.05651
   8        3PY         0.00020   0.79878   0.00001
   9        3PZ        -0.05618   0.00004  -1.77485
  10 2   Cl 1S          0.01875  -0.03339   0.01213
  11        2S         -0.11261   0.20118  -0.06411
  12        2PX        -0.11153   0.05662   0.00358
  13        2PY        -0.05613   0.17417   0.02202
  14        2PZ        -0.01538   0.02938   0.02141
  15        3S          0.66455  -1.18995   0.69696
  16        3PX         0.42404  -0.22935  -0.00230
  17        3PY         0.22328  -0.68749  -0.07162
  18        3PZ         0.06336  -0.11949  -0.09551
  19        4S         -1.00631   1.68841  -2.07226
  20        4PX        -0.57351   0.49477  -0.58554
  21        4PY        -0.50169   1.13317  -0.78711
  22        4PZ        -0.17564   0.28223   0.01653
  23 3   Cl 1S         -0.03605   0.00000   0.01582
  24        2S          0.21758  -0.00002  -0.08659
  25        2PX        -0.21333   0.00003   0.00262
  26        2PY         0.00002   0.05906  -0.00000
  27        2PZ         0.03566  -0.00000   0.02450
  28        3S         -1.26260   0.00012   0.82705
  29        3PX         0.83330  -0.00012  -0.03152
  30        3PY        -0.00006  -0.21740   0.00000
  31        3PZ        -0.14606   0.00002  -0.10884
  32        4S          1.78048  -0.00012  -2.21745
  33        4PX        -1.35853   0.00013   1.11710
  34        4PY         0.00007   0.16265  -0.00007
  35        4PZ         0.34702  -0.00003   0.04414
  36 4   Cl 1S          0.01876   0.03338   0.01213
  37        2S         -0.11267  -0.20114  -0.06412
  38        2PX        -0.11153  -0.05657   0.00357
  39        2PY         0.05619   0.17415  -0.02201
  40        2PZ        -0.01539  -0.02938   0.02141
  41        3S          0.66491   1.18975   0.69704
  42        3PX         0.42405   0.22916  -0.00226
  43        3PY        -0.22351  -0.68743   0.07157
  44        3PZ         0.06340   0.11948  -0.09549
  45        4S         -1.00688  -1.68812  -2.07248
  46        4PX        -0.57359  -0.49448  -0.58555
  47        4PY         0.50208   1.13303   0.78725
  48        4PZ        -0.17574  -0.28221   0.01651
     Density Matrix:
                           1         2         3         4         5
   1 1   B  1S          2.02757
   2        2S          0.10046   0.12836
   3        2PX         0.00040   0.00101   0.22425
   4        2PY        -0.00000   0.00001  -0.00001   0.21632
   5        2PZ         0.01602  -0.01763  -0.00096  -0.00000   0.05456
   6        3S         -0.34607   0.23070  -0.00967  -0.00001  -0.07139
   7        3PX         0.00743  -0.00383   0.09411   0.00000   0.00051
   8        3PY         0.00000  -0.00000   0.00000   0.09236   0.00000
   9        3PZ         0.05843  -0.01703   0.00253   0.00000   0.06405
  10 2   Cl 1S         -0.00052   0.00679  -0.00298  -0.00502  -0.00175
  11        2S          0.00393  -0.01872   0.01656   0.02866   0.00828
  12        2PX         0.02136  -0.02418   0.02501   0.06376   0.01764
  13        2PY         0.03086  -0.03431   0.05789   0.08245   0.02637
  14        2PZ         0.01957  -0.02716   0.02789   0.04548  -0.03629
  15        3S         -0.02197   0.01415  -0.01978  -0.03124  -0.01587
  16        3PX        -0.04514   0.04992  -0.05468  -0.13445  -0.03707
  17        3PY        -0.06408   0.07404  -0.12204  -0.17656  -0.05566
  18        3PZ        -0.03931   0.06076  -0.05740  -0.09394   0.07736
  19        4S          0.09075  -0.04811   0.00770  -0.00471   0.02730
  20        4PX        -0.00268   0.01675  -0.05454  -0.08849  -0.01590
  21        4PY        -0.00151   0.02355  -0.07399  -0.13829  -0.02410
  22        4PZ        -0.02617   0.04264  -0.03893  -0.06641   0.06285
  23 3   Cl 1S         -0.00057   0.00751   0.00613  -0.00000  -0.00200
  24        2S          0.00442  -0.02104  -0.03390   0.00000   0.00930
  25        2PX        -0.03863   0.04566   0.12102  -0.00001  -0.03325
  26        2PY         0.00000  -0.00000  -0.00001  -0.01661   0.00000
  27        2PZ         0.01971  -0.02885  -0.05390   0.00000  -0.03640
  28        3S         -0.02231   0.01491   0.03760  -0.00000  -0.01716
  29        3PX         0.08160  -0.09492  -0.25729   0.00002   0.06991
  30        3PY        -0.00001   0.00000   0.00002   0.03292  -0.00000
  31        3PZ        -0.03917   0.06560   0.11103  -0.00001   0.07762
  32        4S          0.08596  -0.04327   0.00093   0.00000   0.02701
  33        4PX         0.00514  -0.03381  -0.18630   0.00001   0.02996
  34        4PY        -0.00000   0.00000   0.00001   0.00127  -0.00000
  35        4PZ        -0.02870   0.04776   0.07607  -0.00000   0.06239
  36 4   Cl 1S         -0.00053   0.00679  -0.00298   0.00502  -0.00175
  37        2S          0.00394  -0.01872   0.01656  -0.02866   0.00829
  38        2PX         0.02135  -0.02418   0.02500  -0.06376   0.01765
  39        2PY        -0.03086   0.03432  -0.05789   0.08246  -0.02638
  40        2PZ         0.01957  -0.02717   0.02789  -0.04548  -0.03630
  41        3S         -0.02197   0.01416  -0.01978   0.03125  -0.01587
  42        3PX        -0.04514   0.04992  -0.05466   0.13445  -0.03707
  43        3PY         0.06409  -0.07405   0.12204  -0.17658   0.05568
  44        3PZ        -0.03931   0.06077  -0.05740   0.09396   0.07737
  45        4S          0.09076  -0.04811   0.00770   0.00472   0.02730
  46        4PX        -0.00268   0.01675  -0.05452   0.08848  -0.01590
  47        4PY         0.00151  -0.02356   0.07399  -0.13830   0.02411
  48        4PZ        -0.02617   0.04264  -0.03893   0.06642   0.06285
                           6         7         8         9        10
   6        3S          0.63541
   7        3PX        -0.01341   0.07888
   8        3PY        -0.00001   0.00000   0.07250
   9        3PZ        -0.10070   0.00152   0.00000   0.07923
  10 2   Cl 1S         -0.03711   0.01228   0.01983   0.00942   2.14430
  11        2S          0.11660  -0.03816  -0.06122  -0.02584  -0.57429
  12        2PX        -0.06215  -0.01923   0.02576   0.01998   0.00266
  13        2PY        -0.08621   0.02832   0.00475   0.02902   0.00369
  14        2PZ        -0.04239   0.02215   0.03063  -0.03276   0.00250
  15        3S         -0.04737   0.02051   0.03475   0.00131  -0.02840
  16        3PX         0.15966   0.05167  -0.07989  -0.05152  -0.00710
  17        3PY         0.21069  -0.08183  -0.02347  -0.06983  -0.01008
  18        3PZ         0.09056  -0.06514  -0.09175   0.08908  -0.00631
  19        4S         -0.23923   0.04834   0.06550   0.05695   0.16419
  20        4PX         0.05968   0.04004  -0.04729  -0.02326   0.00912
  21        4PY         0.06337  -0.04512  -0.00652  -0.02876   0.01484
  22        4PZ         0.05697  -0.04587  -0.06539   0.07214   0.00450
  23 3   Cl 1S         -0.04017  -0.02438   0.00000   0.01087   0.00001
  24        2S          0.12474   0.07456  -0.00001  -0.02965   0.00001
  25        2PX         0.10028   0.01613  -0.00000  -0.03211  -0.00097
  26        2PY        -0.00001  -0.00000  -0.03564   0.00000  -0.00112
  27        2PZ        -0.03563  -0.03967   0.00000  -0.03484  -0.00014
  28        3S         -0.05152  -0.04072   0.00000   0.00212   0.00109
  29        3PX        -0.26193  -0.06282   0.00001   0.08460   0.00152
  30        3PY         0.00002   0.00001   0.10407  -0.00001   0.00228
  31        3PZ         0.07203   0.12039  -0.00001   0.09538   0.00052
  32        4S         -0.23536  -0.07959   0.00001   0.05931   0.00009
  33        4PX        -0.08346  -0.02677   0.00000   0.03323   0.00145
  34        4PY         0.00001   0.00000   0.06895  -0.00000   0.00099
  35        4PZ         0.04496   0.08493  -0.00001   0.07651  -0.00091
  36 4   Cl 1S         -0.03712   0.01228  -0.01984   0.00942  -0.00002
  37        2S          0.11662  -0.03816   0.06123  -0.02584   0.00025
  38        2PX        -0.06214  -0.01924  -0.02576   0.01998  -0.00046
  39        2PY         0.08621  -0.02832   0.00475  -0.02902  -0.00174
  40        2PZ        -0.04239   0.02214  -0.03063  -0.03276  -0.00012
  41        3S         -0.04738   0.02051  -0.03475   0.00131   0.00186
  42        3PX         0.15964   0.05169   0.07987  -0.05152   0.00111
  43        3PY        -0.21068   0.08182  -0.02348   0.06984   0.00292
  44        3PZ         0.09056  -0.06514   0.09175   0.08908   0.00045
  45        4S         -0.23926   0.04834  -0.06550   0.05696  -0.00177
  46        4PX         0.05967   0.04005   0.04728  -0.02326   0.00083
  47        4PY        -0.06335   0.04511  -0.00652   0.02876   0.00433
  48        4PZ         0.05697  -0.04586   0.06539   0.07214  -0.00056
                          11        12        13        14        15
  11        2S          2.39449
  12        2PX        -0.01456   2.04514
  13        2PY        -0.01988  -0.01901   2.03250
  14        2PZ        -0.01414  -0.01207  -0.01732   2.03715
  15        3S         -0.29273   0.02247   0.03073   0.02384   0.76199
  16        3PX         0.03390  -0.16587   0.04256   0.02725  -0.03332
  17        3PY         0.04653   0.04270  -0.13740   0.03915  -0.04298
  18        3PZ         0.03228   0.02710   0.03883  -0.14692  -0.04114
  19        4S         -0.68298   0.02576   0.03573   0.02288   0.63456
  20        4PX        -0.01287  -0.30373   0.04258   0.02535  -0.01609
  21        4PY        -0.02456   0.04257  -0.27653   0.03722  -0.01854
  22        4PZ        -0.00057   0.02333   0.03419  -0.29597  -0.02377
  23 3   Cl 1S          0.00001   0.00147   0.00022  -0.00016   0.00097
  24        2S         -0.00091  -0.00994  -0.00190   0.00091  -0.00110
  25        2PX         0.00692   0.01596   0.00743   0.00109   0.00017
  26        2PY         0.00736   0.01073   0.00455   0.00263  -0.00396
  27        2PZ         0.00083  -0.00276   0.00043  -0.01095   0.00126
  28        3S         -0.00146   0.00309  -0.00265   0.00088   0.00107
  29        3PX        -0.01416  -0.03468  -0.01557  -0.00226   0.00646
  30        3PY        -0.01612  -0.02397  -0.00954  -0.00490   0.01156
  31        3PZ        -0.00247   0.00558  -0.00032   0.02408  -0.00553
  32        4S          0.00059   0.05436   0.01897  -0.01234  -0.00705
  33        4PX        -0.01011  -0.05969  -0.02818   0.00610   0.00696
  34        4PY        -0.00989  -0.03124  -0.01404  -0.01185   0.00658
  35        4PZ         0.00125   0.00999  -0.00699   0.02311  -0.00499
  36 4   Cl 1S          0.00025  -0.00046   0.00174  -0.00012   0.00186
  37        2S         -0.00270   0.00282  -0.01211   0.00066  -0.00163
  38        2PX         0.00283  -0.00145   0.00019   0.00119  -0.00555
  39        2PY         0.01211  -0.00019   0.02229   0.00241  -0.00340
  40        2PZ         0.00066   0.00119  -0.00241  -0.01211  -0.00039
  41        3S         -0.00163  -0.00555   0.00340  -0.00039  -0.00098
  42        3PX        -0.00664   0.00349  -0.00091  -0.00201   0.01188
  43        3PY        -0.02514   0.00143  -0.04890  -0.00454   0.01902
  44        3PZ        -0.00206  -0.00199   0.00505   0.02653  -0.00135
  45        4S          0.00654  -0.00197   0.06648  -0.00595  -0.01048
  46        4PX        -0.00543   0.00452   0.00674  -0.01096   0.00702
  47        4PY        -0.02346  -0.00205  -0.08065  -0.00445   0.01753
  48        4PZ         0.00035  -0.00815   0.00758   0.02829  -0.00123
                          16        17        18        19        20
  16        3PX         0.71541
  17        3PY        -0.09008   0.65659
  18        3PZ        -0.05837  -0.08353   0.66918
  19        4S         -0.09059  -0.12690  -0.07555   0.69772
  20        4PX         0.54313  -0.10843  -0.06364  -0.02751   0.44059
  21        4PY        -0.10940   0.47118  -0.09373  -0.03072  -0.10113
  22        4PZ        -0.05988  -0.08777   0.52761  -0.03860  -0.05773
  23 3   Cl 1S         -0.00273  -0.00007   0.00059   0.00050  -0.00140
  24        2S          0.02122   0.00334  -0.00269  -0.00060   0.01332
  25        2PX        -0.03437  -0.01588  -0.00253  -0.04427  -0.05356
  26        2PY        -0.02398  -0.00964  -0.00504  -0.03410  -0.03474
  27        2PZ         0.00527  -0.00065   0.02400  -0.01371   0.00594
  28        3S         -0.01300   0.00094  -0.00459  -0.00641  -0.00924
  29        3PX         0.07952   0.03571   0.00525   0.08762   0.11062
  30        3PY         0.05761   0.02078   0.00760   0.07916   0.07327
  31        3PZ        -0.00937  -0.00039  -0.05367   0.04668  -0.01248
  32        4S         -0.11740  -0.02896   0.04217   0.03661  -0.07170
  33        4PX         0.12566   0.05424  -0.02056   0.03841   0.12419
  34        4PY         0.06401   0.02982   0.03050   0.05708   0.07083
  35        4PZ        -0.02439   0.01701  -0.04811   0.03554  -0.02227
  36 4   Cl 1S          0.00111  -0.00292   0.00045  -0.00177   0.00083
  37        2S         -0.00663   0.02514  -0.00206   0.00654  -0.00542
  38        2PX         0.00349  -0.00143  -0.00200  -0.00198   0.00452
  39        2PY         0.00091  -0.04890  -0.00505  -0.06648  -0.00675
  40        2PZ        -0.00201   0.00454   0.02653  -0.00595  -0.01095
  41        3S          0.01188  -0.01902  -0.00135  -0.01048   0.00702
  42        3PX        -0.00998   0.00512   0.00187   0.01123  -0.00620
  43        3PY        -0.00510   0.11428   0.00869   0.12891   0.01403
  44        3PZ         0.00186  -0.00869  -0.05936   0.02544   0.03136
  45        4S          0.01121  -0.12891   0.02544   0.03692   0.02242
  46        4PX        -0.00620  -0.01400   0.03137   0.02243   0.00132
  47        4PY         0.00343   0.16301   0.00696   0.07424   0.00816
  48        4PZ         0.02106  -0.01726  -0.05927   0.02159   0.04050
                          21        22        23        24        25
  21        4PY         0.37810
  22        4PZ        -0.08568   0.43532
  23 3   Cl 1S         -0.00046  -0.00112   2.14430
  24        2S          0.00257   0.00169  -0.57430   2.39466
  25        2PX        -0.03044  -0.00061  -0.00470   0.02557   2.01854
  26        2PY        -0.01941  -0.01166   0.00000  -0.00000   0.00000
  27        2PZ        -0.01214   0.02320   0.00256  -0.01445   0.02137
  28        3S         -0.00152  -0.00448  -0.02854  -0.29339  -0.03940
  29        3PX         0.06227   0.00052   0.01268  -0.05972  -0.10658
  30        3PY         0.04331   0.02919  -0.00000   0.00000  -0.00001
  31        3PZ         0.03547  -0.04817  -0.00647   0.03303  -0.04805
  32        4S         -0.00118   0.03269   0.16573  -0.68547  -0.04258
  33        4PX         0.05363  -0.02015  -0.01797   0.02787  -0.24353
  34        4PY         0.04412   0.04180   0.00000  -0.00000  -0.00001
  35        4PZ         0.04157  -0.04399   0.00484  -0.00120  -0.04081
  36 4   Cl 1S         -0.00433  -0.00056   0.00001   0.00001  -0.00097
  37        2S          0.02346   0.00035   0.00001  -0.00091   0.00692
  38        2PX         0.00204  -0.00815   0.00147  -0.00994   0.01596
  39        2PY        -0.08065  -0.00758  -0.00022   0.00190  -0.00743
  40        2PZ         0.00445   0.02829  -0.00016   0.00091   0.00109
  41        3S         -0.01754  -0.00123   0.00097  -0.00110   0.00017
  42        3PX        -0.00341   0.02106  -0.00273   0.02122  -0.03437
  43        3PY         0.16301   0.01726   0.00007  -0.00334   0.01588
  44        3PZ        -0.00697  -0.05927   0.00059  -0.00269  -0.00253
  45        4S         -0.07425   0.02159   0.00050  -0.00060  -0.04426
  46        4PX        -0.00814   0.04051  -0.00140   0.01332  -0.05355
  47        4PY         0.17008   0.01181   0.00046  -0.00257   0.03044
  48        4PZ        -0.01181  -0.05802  -0.00112   0.00169  -0.00060
                          26        27        28        29        30
  26        2PY         2.05845
  27        2PZ        -0.00000   2.03743
  28        3S          0.00000   0.02475   0.76542
  29        3PX        -0.00001  -0.04839   0.05688   0.59162
  30        3PY        -0.19602   0.00000  -0.00001   0.00001   0.77984
  31        3PZ         0.00000  -0.14792  -0.04285   0.10370  -0.00001
  32        4S          0.00000   0.02196   0.63416   0.15679  -0.00001
  33        4PX        -0.00001  -0.04440   0.02610   0.38717   0.00002
  34        4PY        -0.33168   0.00000  -0.00000   0.00002   0.61573
  35        4PZ         0.00000  -0.29449  -0.02462   0.10574  -0.00001
  36 4   Cl 1S          0.00112  -0.00014   0.00109   0.00152  -0.00228
  37        2S         -0.00736   0.00083  -0.00146  -0.01416   0.01612
  38        2PX        -0.01073  -0.00276   0.00309  -0.03467   0.02398
  39        2PY         0.00455  -0.00043   0.00265   0.01557  -0.00955
  40        2PZ        -0.00263  -0.01095   0.00088  -0.00226   0.00490
  41        3S          0.00396   0.00126   0.00107   0.00646  -0.01156
  42        3PX         0.02398   0.00527  -0.01300   0.07951  -0.05761
  43        3PY        -0.00964   0.00065  -0.00094  -0.03571   0.02079
  44        3PZ         0.00504   0.02400  -0.00459   0.00525  -0.00760
  45        4S          0.03411  -0.01372  -0.00641   0.08761  -0.07918
  46        4PX         0.03474   0.00594  -0.00924   0.11061  -0.07328
  47        4PY        -0.01941   0.01214   0.00152  -0.06227   0.04332
  48        4PZ         0.01166   0.02320  -0.00448   0.00052  -0.02920
                          31        32        33        34        35
  31        3PZ         0.67244
  32        4S         -0.07460   0.69404
  33        4PX         0.11209   0.04071   0.29615
  34        4PY        -0.00001  -0.00000   0.00001   0.50545
  35        4PZ         0.52418  -0.03753   0.10078  -0.00001   0.42771
  36 4   Cl 1S          0.00052   0.00009   0.00145  -0.00099  -0.00091
  37        2S         -0.00247   0.00058  -0.01011   0.00989   0.00125
  38        2PX         0.00558   0.05436  -0.05968   0.03124   0.00999
  39        2PY         0.00033  -0.01897   0.02818  -0.01405   0.00699
  40        2PZ         0.02408  -0.01235   0.00611   0.01184   0.02311
  41        3S         -0.00553  -0.00705   0.00696  -0.00658  -0.00499
  42        3PX        -0.00937  -0.11740   0.12565  -0.06402  -0.02439
  43        3PY         0.00039   0.02897  -0.05424   0.02983  -0.01702
  44        3PZ        -0.05367   0.04218  -0.02057  -0.03050  -0.04811
  45        4S          0.04669   0.03662   0.03840  -0.05709   0.03554
  46        4PX        -0.01248  -0.07170   0.12418  -0.07084  -0.02227
  47        4PY        -0.03548   0.00118  -0.05362   0.04413  -0.04157
  48        4PZ        -0.04817   0.03269  -0.02016  -0.04180  -0.04399
                          36        37        38        39        40
  36 4   Cl 1S          2.14430
  37        2S         -0.57428   2.39449
  38        2PX         0.00266  -0.01456   2.04515
  39        2PY        -0.00369   0.01988   0.01900   2.03250
  40        2PZ         0.00250  -0.01414  -0.01207   0.01732   2.03715
  41        3S         -0.02840  -0.29272   0.02247  -0.03073   0.02384
  42        3PX        -0.00710   0.03390  -0.16588  -0.04255   0.02725
  43        3PY         0.01008  -0.04653  -0.04270  -0.13740  -0.03915
  44        3PZ        -0.00631   0.03228   0.02710  -0.03883  -0.14692
  45        4S          0.16419  -0.68300   0.02576  -0.03573   0.02288
  46        4PX         0.00912  -0.01287  -0.30374  -0.04258   0.02534
  47        4PY        -0.01484   0.02457  -0.04257  -0.27652  -0.03722
  48        4PZ         0.00450  -0.00057   0.02333  -0.03420  -0.29596
                          41        42        43        44        45
  41        3S          0.76199
  42        3PX        -0.03332   0.71543
  43        3PY         0.04298   0.09007   0.65659
  44        3PZ        -0.04114  -0.05837   0.08353   0.66918
  45        4S          0.63456  -0.09058   0.12691  -0.07556   0.69774
  46        4PX        -0.01609   0.54315   0.10843  -0.06364  -0.02751
  47        4PY         0.01854   0.10940   0.47116   0.09373   0.03072
  48        4PZ        -0.02377  -0.05988   0.08778   0.52760  -0.03860
                          46        47        48
  46        4PX         0.44060
  47        4PY         0.10112   0.37808
  48        4PZ        -0.05772   0.08568   0.43530
    Full Mulliken population analysis:
                           1         2         3         4         5
   1 1   B  1S          2.02757
   2        2S          0.01837   0.12836
   3        2PX         0.00000   0.00000   0.22425
   4        2PY         0.00000   0.00000  -0.00000   0.21632
   5        2PZ         0.00000   0.00000   0.00000  -0.00000   0.05456
   6        3S         -0.06016   0.17886   0.00000   0.00000   0.00000
   7        3PX         0.00000   0.00000   0.05188   0.00000  -0.00000
   8        3PY         0.00000   0.00000   0.00000   0.05091   0.00000
   9        3PZ         0.00000   0.00000  -0.00000   0.00000   0.03531
  10 2   Cl 1S         -0.00000   0.00000   0.00000   0.00000   0.00000
  11        2S          0.00000  -0.00005  -0.00007  -0.00019  -0.00002
  12        2PX         0.00000  -0.00003  -0.00004  -0.00023  -0.00003
  13        2PY         0.00000  -0.00007  -0.00021  -0.00038  -0.00006
  14        2PZ         0.00000  -0.00003  -0.00004  -0.00011   0.00001
  15        3S         -0.00003   0.00076   0.00106   0.00255   0.00056
  16        3PX        -0.00009   0.00257   0.00126   0.01107   0.00132
  17        3PY        -0.00020   0.00582   0.01005   0.01676   0.00302
  18        3PZ        -0.00005   0.00206   0.00204   0.00510   0.00057
  19        4S          0.00243  -0.00889  -0.00078   0.00073  -0.00184
  20        4PX        -0.00010   0.00336  -0.00108   0.01551   0.00120
  21        4PY        -0.00009   0.00722   0.01297   0.01841   0.00279
  22        4PZ        -0.00067   0.00565   0.00295   0.00768   0.00531
  23 3   Cl 1S         -0.00000   0.00000   0.00000   0.00000   0.00000
  24        2S          0.00000  -0.00006  -0.00028  -0.00000  -0.00003
  25        2PX         0.00000  -0.00012  -0.00087  -0.00000  -0.00010
  26        2PY         0.00000  -0.00000  -0.00000  -0.00001  -0.00000
  27        2PZ         0.00000  -0.00003  -0.00016  -0.00000   0.00001
  28        3S         -0.00003   0.00083   0.00375   0.00000   0.00063
  29        3PX        -0.00032   0.00912   0.03889   0.00000   0.00470
  30        3PY        -0.00000   0.00000   0.00000   0.00105   0.00000
  31        3PZ        -0.00006   0.00232   0.00746   0.00000   0.00055
  32        4S          0.00235  -0.00811   0.00018  -0.00000  -0.00186
  33        4PX        -0.00037   0.01249   0.04595   0.00000   0.00422
  34        4PY        -0.00000   0.00000   0.00000   0.00017   0.00000
  35        4PZ        -0.00076   0.00648   0.01070   0.00000   0.00530
  36 4   Cl 1S         -0.00000   0.00000   0.00000   0.00000   0.00000
  37        2S          0.00000  -0.00005  -0.00007  -0.00019  -0.00002
  38        2PX         0.00000  -0.00003  -0.00004  -0.00023  -0.00003
  39        2PY         0.00000  -0.00007  -0.00021  -0.00038  -0.00006
  40        2PZ         0.00000  -0.00003  -0.00004  -0.00011   0.00001
  41        3S         -0.00003   0.00076   0.00106   0.00255   0.00056
  42        3PX        -0.00009   0.00257   0.00126   0.01107   0.00132
  43        3PY        -0.00020   0.00582   0.01005   0.01676   0.00303
  44        3PZ        -0.00005   0.00206   0.00204   0.00511   0.00057
  45        4S          0.00243  -0.00889  -0.00078   0.00073  -0.00184
  46        4PX        -0.00010   0.00336  -0.00108   0.01551   0.00120
  47        4PY        -0.00009   0.00722   0.01296   0.01842   0.00279
  48        4PZ        -0.00067   0.00565   0.00295   0.00768   0.00531
                           6         7         8         9        10
   6        3S          0.63541
   7        3PX         0.00000   0.07888
   8        3PY         0.00000   0.00000   0.07250
   9        3PZ         0.00000  -0.00000   0.00000   0.07923
  10 2   Cl 1S         -0.00020  -0.00009  -0.00022  -0.00004   2.14430
  11        2S          0.00499   0.00207   0.00507   0.00092  -0.14899
  12        2PX        -0.00042  -0.00003  -0.00034  -0.00011   0.00000
  13        2PY        -0.00090  -0.00037  -0.00005  -0.00025   0.00000
  14        2PZ        -0.00019  -0.00013  -0.00027  -0.00022   0.00000
  15        3S         -0.00961  -0.00434  -0.01123  -0.00018  -0.00168
  16        3PX         0.01398   0.00208   0.01143   0.00319   0.00000
  17        3PY         0.02817   0.01170   0.00199   0.00659   0.00000
  18        3PZ         0.00523   0.00403   0.00866   0.00829   0.00000
  19        4S         -0.09359  -0.01416  -0.02931  -0.01101   0.00557
  20        4PX         0.01510   0.00791   0.01369   0.00291   0.00000
  21        4PY         0.02449   0.01306   0.00036   0.00549   0.00000
  22        4PZ         0.00951   0.00574   0.01249   0.02196   0.00000
  23 3   Cl 1S         -0.00022  -0.00032  -0.00000  -0.00005   0.00000
  24        2S          0.00542   0.00744   0.00000   0.00109   0.00000
  25        2PX        -0.00125  -0.00030  -0.00000  -0.00034   0.00000
  26        2PY        -0.00000  -0.00000  -0.00038  -0.00000   0.00000
  27        2PZ        -0.00016  -0.00042  -0.00000  -0.00023   0.00000
  28        3S         -0.01058  -0.01582  -0.00000  -0.00030   0.00000
  29        3PX         0.04210   0.01108   0.00000   0.00969  -0.00000
  30        3PY         0.00000   0.00000   0.01411   0.00000  -0.00000
  31        3PZ         0.00425   0.01379   0.00000   0.00892   0.00000
  32        4S         -0.09287  -0.04266  -0.00000  -0.01167   0.00000
  33        4PX         0.03863   0.00638   0.00000   0.00767  -0.00000
  34        4PY         0.00000   0.00000   0.02692   0.00000  -0.00000
  35        4PZ         0.00764   0.01961   0.00000   0.02338  -0.00000
  36 4   Cl 1S         -0.00020  -0.00009  -0.00022  -0.00004   0.00000
  37        2S          0.00499   0.00207   0.00507   0.00092   0.00000
  38        2PX        -0.00042  -0.00003  -0.00034  -0.00011   0.00000
  39        2PY        -0.00090  -0.00037  -0.00005  -0.00025   0.00000
  40        2PZ        -0.00019  -0.00013  -0.00027  -0.00022   0.00000
  41        3S         -0.00961  -0.00434  -0.01124  -0.00018   0.00000
  42        3PX         0.01397   0.00208   0.01142   0.00318  -0.00000
  43        3PY         0.02817   0.01170   0.00199   0.00660  -0.00000
  44        3PZ         0.00523   0.00403   0.00866   0.00829   0.00000
  45        4S         -0.09360  -0.01416  -0.02931  -0.01102  -0.00000
  46        4PX         0.01509   0.00792   0.01368   0.00291  -0.00000
  47        4PY         0.02448   0.01305   0.00036   0.00549  -0.00000
  48        4PZ         0.00951   0.00574   0.01249   0.02196  -0.00000
                          11        12        13        14        15
  11        2S          2.39449
  12        2PX         0.00000   2.04514
  13        2PY         0.00000  -0.00000   2.03250
  14        2PZ         0.00000   0.00000  -0.00000   2.03715
  15        3S         -0.12728   0.00000   0.00000   0.00000   0.76199
  16        3PX         0.00000  -0.05330   0.00000  -0.00000   0.00000
  17        3PY         0.00000   0.00000  -0.04415   0.00000   0.00000
  18        3PZ         0.00000  -0.00000   0.00000  -0.04721   0.00000
  19        4S         -0.17069   0.00000   0.00000   0.00000   0.52306
  20        4PX         0.00000  -0.02131   0.00000  -0.00000   0.00000
  21        4PY         0.00000   0.00000  -0.01940   0.00000   0.00000
  22        4PZ         0.00000  -0.00000   0.00000  -0.02076   0.00000
  23 3   Cl 1S          0.00000   0.00000   0.00000   0.00000   0.00000
  24        2S          0.00000   0.00000   0.00000   0.00000  -0.00000
  25        2PX         0.00000   0.00000   0.00000   0.00000  -0.00000
  26        2PY         0.00000   0.00000   0.00000   0.00000   0.00000
  27        2PZ         0.00000   0.00000   0.00000   0.00000   0.00000
  28        3S         -0.00000   0.00000  -0.00000  -0.00000   0.00000
  29        3PX         0.00000   0.00000   0.00000  -0.00000  -0.00000
  30        3PY         0.00000   0.00000   0.00000  -0.00000  -0.00000
  31        3PZ        -0.00000   0.00000  -0.00000   0.00000  -0.00000
  32        4S          0.00000   0.00003   0.00001   0.00000  -0.00007
  33        4PX         0.00004   0.00011   0.00003   0.00000  -0.00023
  34        4PY         0.00002   0.00004   0.00001  -0.00000  -0.00012
  35        4PZ         0.00000   0.00000  -0.00000   0.00001  -0.00000
  36 4   Cl 1S          0.00000   0.00000   0.00000   0.00000   0.00000
  37        2S          0.00000   0.00000   0.00000   0.00000  -0.00000
  38        2PX         0.00000   0.00000   0.00000   0.00000   0.00000
  39        2PY         0.00000   0.00000   0.00000   0.00000   0.00000
  40        2PZ         0.00000   0.00000   0.00000   0.00000  -0.00000
  41        3S         -0.00000  -0.00000   0.00000   0.00000  -0.00000
  42        3PX         0.00000   0.00000   0.00000  -0.00000  -0.00000
  43        3PY         0.00000  -0.00000   0.00000  -0.00000  -0.00002
  44        3PZ        -0.00000  -0.00000   0.00000   0.00000  -0.00000
  45        4S          0.00001  -0.00000   0.00006   0.00000  -0.00016
  46        4PX         0.00000   0.00000  -0.00000  -0.00000  -0.00000
  47        4PY         0.00015   0.00000   0.00031  -0.00000  -0.00092
  48        4PZ         0.00000  -0.00000   0.00000   0.00001  -0.00000
                          16        17        18        19        20
  16        3PX         0.71541
  17        3PY        -0.00000   0.65659
  18        3PZ         0.00000  -0.00000   0.66918
  19        4S          0.00000   0.00000   0.00000   0.69772
  20        4PX         0.33830  -0.00000   0.00000   0.00000   0.44059
  21        4PY        -0.00000   0.29348  -0.00000   0.00000  -0.00000
  22        4PZ         0.00000  -0.00000   0.32863   0.00000   0.00000
  23 3   Cl 1S         -0.00000  -0.00000  -0.00000   0.00000  -0.00000
  24        2S          0.00000   0.00000   0.00000  -0.00000   0.00005
  25        2PX         0.00000   0.00000  -0.00000   0.00002   0.00010
  26        2PY         0.00000   0.00000  -0.00000   0.00001   0.00004
  27        2PZ         0.00000  -0.00000   0.00000  -0.00000   0.00000
  28        3S         -0.00000   0.00000   0.00000  -0.00007  -0.00030
  29        3PX        -0.00007  -0.00002   0.00000  -0.00126  -0.00446
  30        3PY        -0.00003  -0.00000   0.00000  -0.00062  -0.00187
  31        3PZ        -0.00000  -0.00000  -0.00000   0.00000  -0.00000
  32        4S         -0.00169  -0.00023  -0.00000   0.00194  -0.00810
  33        4PX        -0.00507  -0.00139  -0.00000  -0.00434  -0.02330
  34        4PY        -0.00164  -0.00021   0.00000  -0.00350  -0.00925
  35        4PZ        -0.00000   0.00000  -0.00033   0.00001  -0.00001
  36 4   Cl 1S          0.00000  -0.00000  -0.00000  -0.00000   0.00000
  37        2S         -0.00000   0.00000   0.00000   0.00001  -0.00000
  38        2PX         0.00000   0.00000  -0.00000   0.00000   0.00000
  39        2PY        -0.00000   0.00000  -0.00000   0.00006   0.00000
  40        2PZ        -0.00000   0.00000   0.00000  -0.00000  -0.00000
  41        3S          0.00000  -0.00002   0.00000  -0.00016   0.00000
  42        3PX        -0.00000  -0.00000   0.00000  -0.00000  -0.00006
  43        3PY         0.00000  -0.00027   0.00000  -0.00302  -0.00000
  44        3PZ         0.00000  -0.00000  -0.00001   0.00000   0.00000
  45        4S          0.00000  -0.00302  -0.00000   0.00255   0.00000
  46        4PX        -0.00006   0.00000   0.00000  -0.00000   0.00009
  47        4PY        -0.00000  -0.01190   0.00000  -0.01185  -0.00000
  48        4PZ         0.00000  -0.00000  -0.00060   0.00000   0.00000
                          21        22        23        24        25
  21        4PY         0.37810
  22        4PZ        -0.00000   0.43532
  23 3   Cl 1S         -0.00000   0.00000   2.14430
  24        2S          0.00001  -0.00000  -0.14900   2.39466
  25        2PX         0.00004  -0.00000   0.00000   0.00000   2.01854
  26        2PY         0.00001  -0.00000   0.00000   0.00000   0.00000
  27        2PZ        -0.00000   0.00001   0.00000   0.00000  -0.00000
  28        3S         -0.00003   0.00000  -0.00168  -0.12757   0.00000
  29        3PX        -0.00159   0.00000   0.00000   0.00000  -0.03424
  30        3PY        -0.00031   0.00000   0.00000   0.00000  -0.00000
  31        3PZ         0.00000  -0.00033   0.00000   0.00000   0.00000
  32        4S         -0.00007  -0.00001   0.00562  -0.17131   0.00000
  33        4PX        -0.00700  -0.00001   0.00000   0.00000  -0.01708
  34        4PY        -0.00079   0.00001   0.00000   0.00000  -0.00000
  35        4PZ         0.00001  -0.00233   0.00000   0.00000   0.00000
  36 4   Cl 1S         -0.00000   0.00000   0.00000   0.00000   0.00000
  37        2S          0.00015  -0.00000   0.00000   0.00000   0.00000
  38        2PX        -0.00000  -0.00000   0.00000   0.00000   0.00000
  39        2PY         0.00031  -0.00000   0.00000   0.00000   0.00000
  40        2PZ         0.00000   0.00001   0.00000   0.00000   0.00000
  41        3S         -0.00092   0.00000   0.00000  -0.00000  -0.00000
  42        3PX         0.00000   0.00000  -0.00000   0.00000   0.00000
  43        3PY        -0.01190   0.00000  -0.00000   0.00000   0.00000
  44        3PZ        -0.00000  -0.00060  -0.00000   0.00000  -0.00000
  45        4S         -0.01185  -0.00000   0.00000  -0.00000   0.00002
  46        4PX         0.00000   0.00000  -0.00000   0.00005   0.00010
  47        4PY        -0.05102   0.00000  -0.00000   0.00001   0.00004
  48        4PZ        -0.00000  -0.00400   0.00000  -0.00000  -0.00000
                          26        27        28        29        30
  26        2PY         2.05845
  27        2PZ        -0.00000   2.03743
  28        3S          0.00000   0.00000   0.76542
  29        3PX        -0.00000   0.00000   0.00000   0.59162
  30        3PY        -0.06298   0.00000   0.00000   0.00000   0.77984
  31        3PZ         0.00000  -0.04753   0.00000  -0.00000  -0.00000
  32        4S          0.00000   0.00000   0.52273   0.00000   0.00000
  33        4PX        -0.00000   0.00000   0.00000   0.24115   0.00000
  34        4PY        -0.02327   0.00000   0.00000   0.00000   0.38351
  35        4PZ         0.00000  -0.02066   0.00000  -0.00000  -0.00000
  36 4   Cl 1S          0.00000   0.00000   0.00000  -0.00000  -0.00000
  37        2S          0.00000   0.00000  -0.00000   0.00000   0.00000
  38        2PX         0.00000   0.00000   0.00000   0.00000   0.00000
  39        2PY         0.00000   0.00000  -0.00000   0.00000   0.00000
  40        2PZ         0.00000   0.00000  -0.00000  -0.00000  -0.00000
  41        3S          0.00000   0.00000   0.00000  -0.00000  -0.00000
  42        3PX         0.00000   0.00000  -0.00000  -0.00007  -0.00003
  43        3PY         0.00000  -0.00000   0.00000  -0.00002  -0.00000
  44        3PZ        -0.00000   0.00000   0.00000   0.00000   0.00000
  45        4S          0.00001  -0.00000  -0.00007  -0.00126  -0.00062
  46        4PX         0.00004   0.00000  -0.00030  -0.00446  -0.00187
  47        4PY         0.00001  -0.00000  -0.00003  -0.00159  -0.00031
  48        4PZ        -0.00000   0.00001   0.00000   0.00000   0.00000
                          31        32        33        34        35
  31        3PZ         0.67244
  32        4S          0.00000   0.69404
  33        4PX        -0.00000   0.00000   0.29615
  34        4PY        -0.00000   0.00000   0.00000   0.50545
  35        4PZ         0.32649   0.00000  -0.00000  -0.00000   0.42771
  36 4   Cl 1S          0.00000   0.00000  -0.00000  -0.00000  -0.00000
  37        2S         -0.00000   0.00000   0.00004   0.00002   0.00000
  38        2PX         0.00000   0.00003   0.00011   0.00004   0.00000
  39        2PY        -0.00000   0.00001   0.00003   0.00001  -0.00000
  40        2PZ         0.00000   0.00000   0.00000  -0.00000   0.00001
  41        3S         -0.00000  -0.00007  -0.00023  -0.00012  -0.00000
  42        3PX        -0.00000  -0.00169  -0.00507  -0.00164  -0.00000
  43        3PY        -0.00000  -0.00023  -0.00139  -0.00021   0.00000
  44        3PZ        -0.00000  -0.00000  -0.00000   0.00000  -0.00033
  45        4S          0.00000   0.00194  -0.00434  -0.00350   0.00001
  46        4PX        -0.00000  -0.00810  -0.02329  -0.00925  -0.00001
  47        4PY         0.00000  -0.00007  -0.00701  -0.00079   0.00001
  48        4PZ        -0.00033  -0.00001  -0.00001   0.00001  -0.00233
                          36        37        38        39        40
  36 4   Cl 1S          2.14430
  37        2S         -0.14899   2.39449
  38        2PX         0.00000   0.00000   2.04515
  39        2PY         0.00000   0.00000   0.00000   2.03250
  40        2PZ         0.00000   0.00000   0.00000   0.00000   2.03715
  41        3S         -0.00168  -0.12728   0.00000   0.00000   0.00000
  42        3PX         0.00000   0.00000  -0.05330  -0.00000  -0.00000
  43        3PY         0.00000   0.00000  -0.00000  -0.04415  -0.00000
  44        3PZ         0.00000   0.00000  -0.00000  -0.00000  -0.04721
  45        4S          0.00557  -0.17069   0.00000   0.00000   0.00000
  46        4PX         0.00000   0.00000  -0.02131  -0.00000  -0.00000
  47        4PY         0.00000   0.00000  -0.00000  -0.01940  -0.00000
  48        4PZ         0.00000   0.00000  -0.00000  -0.00000  -0.02076
                          41        42        43        44        45
  41        3S          0.76199
  42        3PX         0.00000   0.71543
  43        3PY         0.00000   0.00000   0.65659
  44        3PZ         0.00000   0.00000   0.00000   0.66918
  45        4S          0.52306   0.00000   0.00000   0.00000   0.69774
  46        4PX         0.00000   0.33831   0.00000   0.00000   0.00000
  47        4PY         0.00000   0.00000   0.29347   0.00000   0.00000
  48        4PZ         0.00000   0.00000   0.00000   0.32863   0.00000
                          46        47        48
  46        4PX         0.44060
  47        4PY         0.00000   0.37808
  48        4PZ         0.00000   0.00000   0.43530
     Gross orbital populations:
                           1
   1 1   B  1S          1.98895
   2        2S          0.38526
   3        2PX         0.43792
   4        2PY         0.42226
   5        2PZ         0.12895
   6        3S          0.74015
   7        3PX         0.18446
   8        3PY         0.18859
   9        3PZ         0.22777
  10 2   Cl 1S          1.99865
  11        2S          1.96047
  12        2PX         1.96948
  13        2PY         1.96707
  14        2PZ         1.96823
  15        3S          1.13411
  16        3PX         1.03864
  17        3PY         0.97276
  18        3PZ         0.98560
  19        4S          0.87903
  20        4PX         0.76900
  21        4PY         0.65191
  22        4PZ         0.80656
  23 3   Cl 1S          1.99865
  24        2S          1.96047
  25        2PX         1.96455
  26        2PY         1.97193
  27        2PZ         1.96826
  28        3S          1.13659
  29        3PX         0.89898
  30        3PY         1.10986
  31        3PZ         0.98797
  32        4S          0.88004
  33        4PX         0.55288
  34        4PY         0.86192
  35        4PZ         0.80060
  36 4   Cl 1S          1.99865
  37        2S          1.96047
  38        2PX         1.96949
  39        2PY         1.96707
  40        2PZ         1.96823
  41        3S          1.13411
  42        3PX         1.03866
  43        3PY         0.97276
  44        3PZ         0.98560
  45        4S          0.87903
  46        4PX         0.76901
  47        4PY         0.65187
  48        4PZ         0.80654
          Condensed to atoms (all electrons):
               1          2          3          4
     1  B    4.067386   0.211230   0.214467   0.211217
     2  Cl   0.211230  17.077057  -0.078114  -0.108652
     3  Cl   0.214467  -0.078114  17.034457  -0.078115
     4  Cl   0.211217  -0.108652  -0.078115  17.077037
 Mulliken charges:
               1
     1  B    0.295701
     2  Cl  -0.101520
     3  Cl  -0.092695
     4  Cl  -0.101486
 Sum of Mulliken charges =  -0.00000
 Mulliken charges with hydrogens summed into heavy atoms:
               1
     1  B    0.295701
     2  Cl  -0.101520
     3  Cl  -0.092695
     4  Cl  -0.101486
 Electronic spatial extent (au):  <R**2>=            692.1328
 Charge=             -0.0000 electrons
 Dipole moment (field-independent basis, Debye):
    X=              0.3277    Y=              0.0003    Z=              2.0720  Tot=              2.0978
 Quadrupole moment (field-independent basis, Debye-Ang):
   XX=            -48.9875   YY=            -49.2164   ZZ=            -41.9445
   XY=             -0.0002   XZ=              0.2152   YZ=              0.0001
 Traceless Quadrupole moment (field-independent basis, Debye-Ang):
   XX=             -2.2714   YY=             -2.5003   ZZ=              4.7717
   XY=             -0.0002   XZ=              0.2152   YZ=              0.0001
 Octapole moment (field-independent basis, Debye-Ang**2):
  XXX=             -1.7394  YYY=              0.0005  ZZZ=             -0.4454  XYY=              1.6650
  XXY=              0.0005  XXZ=             -3.5361  XZZ=              0.1792  YZZ=              0.0003
  YYZ=             -3.1114  XYZ=              0.0000
 Hexadecapole moment (field-independent basis, Debye-Ang**3):
 XXXX=           -445.7503 YYYY=           -405.3822 ZZZZ=            -57.4239 XXXY=             -0.0010
 XXXZ=             -3.5598 YYYX=             -0.0010 YYYZ=             -0.0004 ZZZX=              0.1440
 ZZZY=              0.0001 XXYY=           -141.1317 XXZZ=            -83.5267 YYZZ=            -76.3430
 XXYZ=              0.0005 YYXZ=              3.5010 ZZXY=             -0.0002
 N-N= 2.193758467942D+02 E-N=-3.762468049545D+03  KE= 1.395131446810D+03
 Orbital energies and kinetic energies (alpha):
                                 1                 2
   1         O              -104.153175        136.080860
   2         O              -104.144223        136.078044
   3         O              -104.143978        136.084149
   4         O               -10.546470         22.352348
   5         O               -10.537999         22.343878
   6         O               -10.537219         22.363996
   7         O                -8.009446         20.334488
   8         O                -8.005833         20.367239
   9         O                -8.005486         20.369894
  10         O                -8.000662         20.331703
  11         O                -8.000583         20.337175
  12         O                -7.997086         20.364507
  13         O                -7.996995         20.368897
  14         O                -7.996765         20.366289
  15         O                -7.996607         20.373996
  16         O                -7.823182         10.824729
  17         O                -1.177358          2.580011
  18         O                -1.123964          2.953816
  19         O                -1.113070          2.987651
  20         O                -0.706087          2.113681
  21         O                -0.593477          1.979969
  22         O                -0.585168          1.959546
  23         O                -0.551679          1.863930
  24         O                -0.504067          2.211630
  25         O                -0.496442          2.250143
  26         O                -0.482460          2.399718
  27         O                -0.476912          2.428101
  28         O                -0.467015          2.495334
  29         V                -0.051019          1.429242
  30         V                 0.160329          1.613667
  31         V                 0.168863          2.097492
  32         V                 0.178764          1.709857
  33         V                 0.556643          1.867177
  34         V                 0.560249          1.861466
  35         V                 0.567103          1.788456
  36         V                 0.640035          2.841208
  37         V                 0.722883          3.138046
  38         V                 0.731710          3.121319
  39         V                 0.746299          3.490182
  40         V                 0.751458          3.485165
  41         V                 0.761679          3.514688
  42         V                 0.810105          3.424056
  43         V                 0.843213          3.423285
  44         V                 0.850435          3.447366
  45         V                 0.890637          3.510047
  46         V                 1.013484          3.689863
  47         V                 1.033619          3.674620
  48         V                 1.218432          2.062542
 Total kinetic energy from orbitals= 1.395131446810D+03
 1\1\GINC-IISERK51\SP\RHF\3-21G\B1Cl3\GAUSSIAN\16-Jun-2025\0\\# hf/3-21
 g pop=full geom=connectivity\\Title Card Required\\0,1\B,0,1.046276,0.
 000042,-0.042205\Cl,0,1.692904,-1.498278,-1.024082\Cl,0,1.701375,-0.00
 0345,1.736614\Cl,0,1.692992,1.498615,-1.023508\\Version=EM64L-G16RevB.
 01\State=1-A\HF=-1396.4658661\RMSD=3.960e-09\Dipole=-0.8150734,0.00013
 27,0.1297086\Quadrupole=3.5472949,-1.8588847,-1.6884102,-0.0002248,-0.
 1650869,-0.000188\PG=C01 [X(B1Cl3)]\\@


 If fifty million people say a stupid thing,
 it is still a stupid thing.
                   -- Anatole France
 Job cpu time:       0 days  0 hours  0 minutes  0.4 seconds.
 Elapsed time:       0 days  0 hours  0 minutes  0.4 seconds.
 File lengths (MBytes):  RWF=      6 Int=      0 D2E=      0 Chk=      1 Scr=      1
 Normal termination of Gaussian 16 at Mon Jun 16 22:55:18 2025.
